/*--------------------------------*- C++ -*----------------------------------*\
| =========                 |                                                 |
| \\      /  F ield         | OpenFOAM: The Open Source CFD Toolbox           |
|  \\    /   O peration     | Version:  2212                                  |
|   \\  /    A nd           | Website:  www.openfoam.com                      |
|    \\/     M anipulation  |                                                 |
\*---------------------------------------------------------------------------*/
FoamFile
{
    version     2.0;
    format      ascii;
    arch        "LSB;label=32;scalar=64";
    class       volScalarField;
    location    "20.00000000";
    object      C9H8_0;
}
// * * * * * * * * * * * * * * * * * * * * * * * * * * * * * * * * * * * * * //

dimensions      [0 0 0 0 0 0 0];

internalField   nonuniform List<scalar> 
3000
(
1.053777536e-23
1.18369764e-23
1.37974146e-23
1.640984558e-23
1.964776669e-23
2.342333249e-23
2.750915163e-23
3.140791712e-23
3.416533215e-23
3.956462195e-23
4.462219345e-23
5.225068795e-23
6.243903614e-23
7.517740674e-23
9.039516023e-23
1.078284856e-22
1.265941407e-22
1.43221739e-22
8.862595367e-23
1.007404954e-22
1.191880585e-22
1.442363793e-22
1.763369669e-22
2.15955549e-22
2.62937205e-22
3.146395392e-22
3.588387172e-22
1.688227527e-22
1.939134135e-22
2.326809896e-22
2.864385002e-22
3.570919685e-22
4.464357568e-22
5.539793838e-22
6.710982486e-22
7.65631844e-22
2.998091447e-22
3.485989694e-22
4.251713367e-22
5.334181814e-22
6.784335842e-22
8.642797707e-22
1.087845702e-21
1.325236345e-21
1.50745769e-21
5.155844778e-22
6.071730157e-22
7.529757339e-22
9.623013341e-22
1.24632273e-21
1.612193442e-21
2.049005199e-21
2.50168692e-21
2.836638551e-21
8.753244132e-22
1.043580036e-21
1.314551833e-21
1.707969037e-21
2.245746723e-21
2.938581931e-21
3.757833138e-21
4.590232822e-21
5.190875793e-21
1.48138353e-21
1.785898311e-21
2.280673099e-21
3.004580033e-21
3.998000049e-21
5.275235834e-21
6.772210758e-21
8.27102285e-21
9.334464691e-21
2.511094557e-21
3.056371456e-21
3.9480666e-21
5.259317992e-21
7.061947996e-21
9.373276617e-21
1.206272684e-20
1.472744452e-20
1.659724013e-20
4.271512512e-21
5.240208443e-21
6.831581605e-21
9.179296468e-21
1.240878609e-20
1.653878232e-20
2.131779935e-20
2.601814742e-20
2.929180532e-20
7.294650019e-21
9.0054279e-21
1.182484522e-20
1.599272175e-20
2.172624207e-20
2.904211184e-20
3.747277327e-20
4.572215674e-20
5.143878547e-20
1.250249176e-20
1.551047196e-20
2.047863556e-20
2.783231764e-20
3.79463911e-20
5.082880136e-20
6.562952876e-20
8.005989344e-20
9.002519712e-20
2.149343252e-20
2.67647561e-20
3.548444709e-20
4.840138916e-20
6.61623169e-20
8.875368167e-20
1.146524502e-19
1.398390309e-19
1.571903865e-19
3.703928144e-20
4.625430886e-20
6.151373191e-20
8.413004572e-20
1.152197396e-19
1.54724222e-19
1.999405361e-19
2.438337482e-19
2.740203988e-19
6.394791622e-20
8.002790744e-20
1.066750532e-19
1.461828203e-19
2.00480541e-19
2.69421625e-19
3.482396893e-19
4.246511332e-19
4.771361548e-19
1.105606705e-19
1.385825347e-19
1.850438511e-19
2.539443908e-19
3.486212034e-19
4.687620804e-19
6.059983894e-19
7.389158272e-19
8.301289837e-19
1.913517024e-19
2.401367233e-19
3.210546582e-19
4.410716187e-19
6.059636903e-19
8.151136461e-19
1.053872038e-18
1.284948309e-18
1.443410651e-18
3.314404539e-19
4.16313324e-19
5.571265528e-19
7.660005443e-19
1.052937895e-18
1.416766894e-18
1.831897159e-18
2.233445197e-18
2.508665825e-18
5.744250131e-19
7.22004866e-19
9.669009539e-19
1.330185085e-18
1.829182527e-18
2.461720531e-18
3.183163163e-18
3.880692507e-18
4.358597812e-18
9.959790815e-19
1.252497825e-18
1.678218578e-18
2.309749622e-18
3.177096465e-18
4.276282491e-18
5.529530402e-18
6.740780108e-18
7.570376692e-18
1.727449574e-18
2.173192507e-18
2.912994851e-18
4.010411769e-18
5.517386102e-18
7.426681242e-18
9.602861112e-18
1.170535198e-17
1.314488065e-17
2.996797052e-18
3.771164641e-18
5.056392644e-18
6.962734954e-18
9.580040377e-18
1.28951465e-17
1.667229822e-17
2.032015506e-17
2.28168689e-17
5.199583444e-18
6.544559374e-18
8.776718049e-18
1.208715801e-17
1.663112288e-17
2.238461445e-17
2.893729248e-17
3.526286271e-17
3.959049697e-17
9.022003892e-18
1.135751859e-17
1.523316823e-17
2.097981937e-17
2.886526589e-17
3.884546804e-17
5.020622064e-17
6.116727731e-17
6.866243978e-17
1.565388503e-17
1.970835054e-17
2.643528176e-17
3.640675502e-17
5.008365542e-17
6.738438885e-17
8.706573137e-17
1.060416548e-16
1.190089087e-16
2.715694951e-17
3.419304868e-17
4.586387271e-17
6.315683454e-17
8.686276454e-17
1.168287864e-16
1.508902387e-16
1.837020028e-16
2.06105067e-16
4.710052497e-17
5.930512905e-17
7.954172089e-17
1.095108164e-16
1.505641206e-16
2.024116529e-16
2.612831942e-16
3.179307533e-16
3.565660361e-16
8.16566277e-17
1.028126453e-16
1.378750182e-16
1.897641458e-16
2.607788862e-16
3.503623919e-16
4.519460445e-16
5.495515088e-16
6.160280811e-16
1.414816868e-16
1.781224575e-16
2.388108164e-16
3.285444445e-16
4.51208382e-16
6.057213142e-16
7.806368896e-16
9.483980132e-16
1.062453909e-15
2.449403084e-16
3.083261856e-16
4.132308961e-16
5.681693885e-16
7.796554456e-16
1.045570252e-15
1.345968105e-15
1.633431845e-15
1.828441639e-15
4.236089844e-16
5.330973004e-16
7.141259864e-16
9.811240789e-16
1.344905484e-15
1.801292781e-15
2.315543533e-15
2.806304313e-15
3.138338309e-15
7.316345671e-16
9.203960019e-16
1.232120884e-15
1.691098614e-15
2.315063878e-15
3.095757283e-15
3.972719477e-15
4.806875896e-15
5.369442725e-15
1.261575361e-15
1.586232475e-15
2.121595436e-15
2.908226928e-15
3.974776003e-15
5.304923787e-15
6.793634047e-15
8.204204643e-15
9.151965777e-15
2.171080015e-15
2.727846694e-15
3.644348589e-15
4.987681264e-15
6.803269612e-15
9.059003635e-15
1.157287867e-14
1.39441619e-14
1.553061065e-14
3.727569029e-15
4.679062763e-15
6.242065324e-15
8.526315931e-15
1.160218523e-14
1.540695328e-14
1.962641669e-14
2.358636233e-14
2.622293042e-14
6.382612544e-15
8.00200375e-15
1.065564837e-14
1.452067396e-14
1.97029443e-14
2.608119369e-14
3.311568827e-14
3.96802376e-14
4.402782538e-14
1.089492758e-14
1.363792541e-14
1.812007558e-14
2.462290765e-14
3.329972993e-14
4.391903916e-14
5.555952116e-14
6.635525983e-14
7.346418528e-14
1.853233944e-14
2.315331292e-14
3.06797562e-14
4.155122867e-14
5.597854482e-14
7.352623133e-14
9.263362664e-14
1.102369115e-13
1.217582927e-13
3.14008978e-14
3.913804248e-14
5.169415706e-14
6.97415379e-14
9.354881205e-14
1.223101713e-13
1.534054699e-13
1.818527215e-13
2.003541179e-13
5.297689725e-14
6.584391035e-14
8.664071453e-14
1.16371323e-13
1.553365619e-13
2.020714618e-13
2.522212743e-13
2.977681421e-13
3.271999516e-13
8.895959169e-14
1.101992898e-13
1.443773465e-13
1.92951972e-13
2.561743428e-13
3.314299547e-13
4.115603926e-13
4.837994555e-13
5.301775846e-13
1.486257134e-13
1.834063261e-13
2.391080976e-13
3.17780027e-13
4.194323014e-13
5.394864601e-13
6.66312188e-13
7.798031386e-13
8.521998734e-13
2.469610753e-13
3.034310468e-13
3.934135679e-13
5.19673716e-13
6.8159093e-13
8.712987139e-13
1.070128543e-12
1.246756074e-12
1.358727691e-12
4.079828395e-13
4.988481045e-13
6.428780418e-13
8.436152254e-13
1.099077617e-12
1.396001102e-12
1.704784202e-12
1.977143433e-12
2.148773712e-12
6.698668146e-13
8.147200199e-13
1.043088791e-12
1.359195032e-12
1.758402515e-12
2.218751068e-12
2.693869214e-12
3.110095091e-12
3.370903753e-12
1.092782612e-12
1.321502568e-12
1.680129128e-12
2.173144672e-12
2.791070526e-12
3.498181189e-12
4.222686612e-12
4.853304052e-12
5.246365292e-12
1.770750423e-12
2.128410442e-12
2.686175994e-12
3.447793459e-12
4.395365311e-12
5.471729707e-12
6.566994195e-12
7.514585599e-12
8.102334239e-12
2.849414785e-12
3.403302021e-12
4.262501289e-12
5.428054889e-12
6.867966723e-12
8.492189575e-12
1.01342948e-11
1.154708245e-11
1.2419466e-11
4.552450566e-12
5.402021214e-12
6.713142614e-12
8.480626234e-12
1.064957012e-11
1.308016119e-11
1.552285781e-11
1.761371396e-11
1.889959011e-11
7.22046947e-12
8.511369732e-12
1.049386347e-11
1.315058882e-11
1.639035222e-11
1.999895376e-11
2.360569272e-11
2.667864722e-11
2.856168429e-11
1.136791638e-11
1.331162305e-11
1.628292744e-11
2.024270018e-11
2.504345683e-11
3.036105223e-11
3.564951754e-11
4.01366073e-11
4.28774047e-11
1.776571528e-11
2.066696428e-11
2.508290736e-11
3.093762226e-11
3.799789472e-11
4.577876449e-11
5.348258272e-11
5.99949896e-11
6.396183096e-11
2.7559723e-11
3.18543398e-11
3.836495831e-11
4.695613622e-11
5.726621297e-11
6.85770096e-11
7.973138992e-11
8.913018079e-11
9.48413278e-11
4.24399238e-11
4.874737945e-11
5.827459447e-11
7.079266074e-11
8.574983091e-11
1.020921667e-10
1.18151805e-10
1.316454112e-10
1.398276497e-10
6.488262683e-11
7.407859618e-11
8.792313999e-11
1.060439642e-10
1.276110683e-10
1.510903423e-10
1.740918332e-10
1.933703277e-10
2.05039594e-10
9.849317122e-11
1.118094275e-10
1.317980111e-10
1.578707473e-10
1.887941964e-10
2.223516516e-10
2.551366739e-10
2.82556354e-10
2.991285745e-10
1.484895331e-10
1.676512228e-10
1.963387017e-10
2.336437127e-10
2.777527274e-10
3.254838619e-10
3.720053888e-10
4.108420481e-10
4.342852866e-10
2.223821174e-10
2.497960811e-10
2.907427007e-10
3.438451265e-10
4.064617903e-10
4.740525799e-10
5.397943651e-10
5.945903017e-10
6.276332914e-10
3.309259482e-10
3.699386718e-10
4.280896957e-10
5.033234133e-10
5.918237746e-10
6.871474712e-10
7.796979416e-10
8.567367931e-10
9.031543407e-10
4.894500969e-10
5.447005427e-10
6.269053644e-10
7.33034549e-10
8.57615427e-10
9.915480243e-10
1.121384455e-09
1.229340126e-09
1.294343432e-09
7.197082505e-10
7.97609862e-10
9.133309804e-10
1.062453384e-09
1.237179115e-09
1.424712402e-09
1.606271313e-09
1.757093959e-09
1.847863661e-09
1.052447478e-09
1.1618459e-09
1.324126143e-09
1.532905115e-09
1.777135016e-09
2.038894382e-09
2.292031281e-09
2.502155847e-09
2.628569396e-09
1.530964372e-09
1.684034018e-09
1.910814778e-09
2.202158109e-09
2.542491432e-09
2.906803885e-09
3.258782448e-09
3.550775956e-09
3.726399454e-09
2.216015194e-09
2.429480232e-09
2.745396471e-09
3.150742173e-09
3.623666092e-09
4.129375988e-09
4.617576926e-09
5.022382462e-09
5.265822323e-09
3.192577668e-09
3.48937328e-09
3.928195633e-09
4.490621638e-09
5.146113847e-09
5.846414267e-09
6.5220223e-09
7.082014366e-09
7.418758502e-09
4.579137098e-09
4.99066766e-09
5.598622008e-09
6.377073403e-09
7.283500075e-09
8.251143137e-09
9.184162739e-09
9.957305599e-09
1.042223047e-08
6.540401465e-09
7.109606915e-09
7.949882319e-09
9.024912666e-09
1.027568237e-08
1.161006003e-08
1.289613502e-08
1.396163955e-08
1.46024224e-08
9.304654518e-09
1.009016889e-08
1.124903193e-08
1.27305923e-08
1.445318622e-08
1.628994442e-08
1.805962274e-08
1.952563626e-08
2.040739621e-08
1.318735016e-08
1.426913187e-08
1.586420647e-08
1.790219627e-08
2.027040563e-08
2.279448026e-08
2.522578443e-08
2.723983125e-08
2.845143402e-08
1.862305382e-08
2.010999116e-08
2.230144564e-08
2.50999728e-08
2.835044646e-08
3.181370127e-08
3.51491479e-08
3.791227438e-08
3.957487847e-08
2.62084632e-08
2.824861549e-08
3.125422941e-08
3.509082246e-08
3.954537041e-08
4.429038315e-08
4.885994892e-08
5.264582163e-08
5.49244217e-08
3.676000188e-08
3.955432924e-08
4.366969561e-08
4.892106941e-08
5.50165837e-08
6.150856806e-08
6.776052369e-08
7.294107979e-08
7.606001333e-08
5.139036882e-08
5.52110301e-08
6.083647872e-08
6.80128724e-08
7.63412042e-08
8.521055656e-08
9.375256627e-08
1.008322041e-07
1.050958185e-07
7.160941488e-08
7.682396249e-08
8.450015047e-08
9.429070427e-08
1.056513401e-07
1.177498191e-07
1.294031848e-07
1.390638677e-07
1.448837692e-07
9.945573124e-08
1.06558779e-07
1.170132456e-07
1.30345308e-07
1.458141506e-07
1.622881527e-07
1.781584849e-07
1.913184361e-07
1.992489098e-07
1.376662415e-07
1.473203839e-07
1.615276402e-07
1.796432074e-07
2.006610705e-07
2.230457262e-07
2.446135114e-07
2.625022843e-07
2.732855159e-07
1.898916831e-07
2.029795322e-07
2.222373522e-07
2.467898981e-07
2.752743092e-07
3.056120068e-07
3.348463317e-07
3.590987931e-07
3.737213341e-07
2.609658464e-07
2.786549407e-07
3.046792959e-07
3.378538859e-07
3.763372416e-07
4.173234678e-07
4.568213417e-07
4.895923235e-07
5.09353728e-07
3.572354498e-07
3.810573589e-07
4.160977527e-07
4.6075634e-07
5.125521675e-07
5.677100141e-07
6.208620871e-07
6.649619946e-07
6.91555613e-07
4.869551415e-07
5.188992574e-07
5.658749029e-07
6.25726926e-07
6.951237838e-07
7.6900594e-07
8.4018684e-07
8.992362549e-07
9.348407763e-07
6.607479913e-07
7.033691643e-07
7.660244401e-07
8.458201785e-07
9.38299525e-07
1.03671305e-06
1.131491062e-06
1.210089432e-06
1.257467971e-06
8.921257343e-07
9.486631005e-07
1.03173802e-06
1.137478692e-06
1.259948999e-06
1.390193848e-06
1.515550523e-06
1.619450633e-06
1.682052083e-06
1.198055065e-06
1.272557213e-06
1.381965446e-06
1.521120033e-06
1.682154901e-06
1.85326253e-06
2.017808527e-06
2.154084952e-06
2.236140453e-06
1.599546968e-06
1.696996246e-06
1.8399999e-06
2.021714649e-06
2.231778321e-06
2.454732441e-06
2.668902046e-06
2.846099257e-06
2.952705353e-06
2.122236382e-06
2.248663009e-06
2.434030458e-06
2.669313669e-06
2.940953991e-06
3.228872401e-06
3.505077254e-06
3.733321688e-06
3.870500143e-06
2.796910885e-06
2.959486001e-06
3.197617133e-06
3.499479855e-06
3.847466911e-06
4.21572288e-06
4.568445252e-06
4.85950467e-06
5.034229869e-06
3.659941077e-06
3.867037335e-06
4.170040002e-06
4.553573311e-06
4.994963541e-06
5.461227044e-06
5.907034178e-06
6.274312305e-06
6.494501494e-06
4.753563226e-06
5.014772258e-06
5.396475494e-06
5.87884829e-06
6.432957255e-06
7.017139048e-06
7.574607285e-06
8.033068752e-06
8.307533417e-06
6.125968558e-06
6.452067778e-06
6.927961994e-06
7.528326172e-06
8.216597033e-06
8.94068785e-06
9.630234523e-06
1.019625706e-05
1.053460441e-05
7.831164808e-06
8.234027233e-06
8.821122822e-06
9.56042127e-06
1.04061872e-05
1.129399813e-05
1.213762187e-05
1.282876693e-05
1.32412614e-05
9.928582743e-06
1.042103025e-05
1.113763684e-05
1.203831715e-05
1.306647501e-05
1.414327962e-05
1.51642047e-05
1.599892587e-05
1.649631449e-05
1.248242574e-05
1.307803062e-05
1.394347259e-05
1.502913186e-05
1.626571628e-05
1.755779934e-05
1.878005306e-05
1.977735299e-05
2.037066305e-05
1.556080004e-05
1.627365236e-05
1.73079211e-05
1.860285923e-05
2.007454505e-05
2.160869359e-05
2.305663392e-05
2.423568709e-05
2.493600627e-05
1.923463894e-05
2.007906323e-05
2.13024157e-05
2.283114862e-05
2.456471171e-05
2.636766941e-05
2.806548661e-05
2.94452465e-05
3.026349627e-05
2.357643309e-05
2.456669235e-05
2.599923128e-05
2.778598146e-05
2.980774175e-05
3.190565334e-05
3.387686931e-05
3.54756786e-05
3.642239139e-05
2.865886684e-05
2.980886162e-05
3.147011229e-05
3.353830078e-05
3.587357374e-05
3.829144494e-05
4.055843276e-05
4.239365342e-05
4.347876297e-05
3.455341008e-05
3.587638667e-05
3.778488972e-05
4.015665229e-05
4.282923264e-05
4.559042821e-05
4.817397117e-05
5.026164877e-05
5.149430141e-05
4.132892687e-05
4.283720708e-05
4.501014418e-05
4.770589114e-05
5.073758868e-05
5.386338705e-05
5.678229232e-05
5.913686527e-05
6.0525258e-05
4.905035712e-05
5.075509964e-05
5.320796567e-05
5.624600045e-05
5.965624315e-05
6.316546086e-05
6.643623863e-05
6.907029994e-05
7.062154894e-05
5.777751912e-05
5.968851993e-05
6.243485127e-05
6.58310583e-05
6.963657244e-05
7.354526698e-05
7.718188108e-05
8.010599645e-05
8.18260381e-05
6.756407023e-05
6.968960653e-05
7.274077113e-05
7.650837878e-05
8.072295128e-05
8.50442057e-05
8.905789802e-05
9.228048114e-05
9.417400568e-05
7.845665169e-05
8.080337117e-05
8.416842249e-05
8.831784257e-05
9.295216587e-05
9.769595482e-05
0.0001020951419
0.0001056223854
0.0001076928019
9.049423192e-05
9.306708699e-05
9.675268052e-05
0.0001012914223
0.0001063530188
0.0001115261518
0.0001163163896
0.0001201522478
0.0001224016785
0.0001037076529
0.0001065098773
0.0001105202461
0.0001154528997
0.0001209461199
0.0001265522557
0.0001317362658
0.0001358824843
0.0001383117849
0.0001181193747
0.000121152499
0.0001254894826
0.0001308177649
0.0001367438506
0.000142783574
0.0001483613247
0.0001528175106
0.0001554263129
0.000133743407
0.000137007308
0.0001416704276
0.0001473932825
0.0001537504869
0.0001602214388
0.0001661902711
0.0001709539969
0.0001737407713
0.0001505854105
0.0001540783885
0.0001590649619
0.0001651787051
0.0001719624588
0.0001788595101
0.0001852143012
0.000190281237
0.0001932433691
0.0001686429469
0.0001723618275
0.0001776671143
0.0001841656142
0.0001913687283
0.0001986841875
0.0002054175426
0.0002107816082
0.0002139154871
0.0001879058564
0.0001918461085
0.0001974634799
0.0002043383654
0.000211951261
0.0002196751067
0.0002267775713
0.0002324311038
0.0002357322188
0.0002083567378
0.000212512605
0.0002184337296
0.0002256746161
0.0002336855726
0.000241805702
0.0002492659871
0.0002551999171
0.0002586629589
0.000229971509
0.000234336148
0.0002405511882
0.0002481459146
0.0002565413278
0.0002650438138
0.0002728490278
0.0002790530602
0.000282672024
0.0002527200248
0.0002572856484
0.0002637834604
0.0002717183302
0.0002804829737
0.0002893523242
0.0002974882049
0.0003039509993
0.0003077192886
0.0002765667328
0.0002813247518
0.0002880930859
0.0002963531069
0.000305470391
0.0003146898039
0.0003231409472
0.0003298502948
0.0003337608216
0.0003014713485
0.0003064125114
0.0003134382071
0.0003220073245
0.000331459547
0.0003410111576
0.0003497612372
0.0003567042312
0.0003607495135
0.0003273895333
0.00033250406
0.000339773233
0.0003486345526
0.000358403139
0.0003682682548
0.0003773002319
0.0003844634287
0.0003886356823
0.0003542735617
0.0003595512703
0.0003670494895
0.0003761854883
0.0003862512165
0.0003964105382
0.0004057068567
0.0004130764268
0.0004173676511
0.0003820729681
0.0003875033927
0.0003952158445
0.0004046085655
0.000414951775
0.0004253855999
0.0004349283674
0.0004424902347
0.0004468922919
0.0004107351615
0.0004163076606
0.0004242192998
0.0004338505311
0.0004444513134
0.0004551397221
0.0004649108746
0.0004726508427
0.0004771555299
0.0004402060038
0.0004459098585
0.0004540055446
0.000463856981
0.0004746953524
0.0004856183762
0.000495599826
0.0005035036926
0.0005081028067
0.0004704303455
0.0004762548475
0.0004845194668
0.0004945728539
0.0005056289085
0.0005167666787
0.0005269404466
0.0005349941042
0.0005396794993
0.0005013525159
0.0005072870448
0.0005157056178
0.0005259428793
0.000537196924
0.000548529803
0.0005588781333
0.0005670676582
0.0005718312961
0.0005329167666
0.0005389508573
0.0005475086323
0.0005579119798
0.0005693446512
0.0005808533458
0.0005913588065
0.000599670535
0.0006045045287
0.0005650676666
0.000571191067
0.0005798736003
0.0005904256276
0.0006020179918
0.0006136836497
0.0006243292169
0.0006327498108
0.000637646462
0.0005977504511
0.0006039531712
0.0006127463938
0.0006234301563
0.0006351637926
0.0006469680831
0.0006577372125
0.0006662537131
0.0006712055426
0.0006309113244
0.0006371836762
0.0006460739498
0.0006568730292
0.0006687300986
0.0006806552793
0.0006915319639
0.0007001318366
0.00070513161
0.0006644977193
0.000670830349
0.0006798045107
0.0006907030675
0.0007026663678
0.0007146953369
0.0007256641534
0.000734335323
0.000739376071
0.0006984585148
0.0007048424287
0.0007138878254
0.0007248706396
0.0007369236479
0.0007490399852
0.0007600861293
0.0007688170073
0.0007738920405
0.0007327442164
0.0007391707994
0.000748275314
0.000759327815
0.0007714547189
0.0007836427155
0.0007947520281
0.0008035315318
0.0008086344528
0.0007673071001
0.0007737681293
0.0007829201987
0.000794028486
0.0008062142051
0.0008184588837
0.0008296178675
0.0008384354338
0.000843560144
0.0008021013251
0.0008085889775
0.0008177776039
0.0008289284597
0.0008411586581
0.0008534457843
0.0008646416142
0.0008734872063
0.0008786279105
0.0008370830163
0.0008435898733
0.0008528046287
0.0008639855232
0.0008762466146
0.0008885627013
0.0008997832273
0.000908647337
0.0009137985446
0.0008722103221
0.0008787293691
0.0008879603954
0.000899159486
0.0009114386319
0.0009237709368
0.0009350046815
0.0009438783274
0.0009490348508
0.0009074434478
0.0009139680715
0.0009232060756
0.0009344122005
0.0009466973031
0.0009590338212
0.0009702699724
0.0009791446936
0.0009843016455
0.0009427446698
0.0009492686519
0.0009585048975
0.0009697075654
0.0009819872554
0.0009943167066
0.001005545106
0.001014412954
0.001019565741
0.0009780783318
0.0009845958413
0.0009938221367
0.001005011512
0.001017275133
0.001029586946
0.001040798075
0.0010496516
0.001054795919
0.001013410826
0.001019916409
0.001029125094
0.00104029198
0.00105252957
0.001064813863
0.001075998824
0.001084831063
0.00108996289
0.001048710562
0.00105519913
0.001064383058
0.001075518878
0.001087721145
0.001099968705
0.001111119203
0.001119923666
0.001125039248
0.001083947923
0.001090414741
0.001099567263
0.001110664036
0.00112282234
0.001135024597
0.001146132917
0.001154903566
0.001159999414
0.001119095218
0.001125535891
0.001134650834
0.001145701156
0.001157807477
0.001169956481
0.001181015468
0.001189746703
0.001194819578
0.00115412662
0.001160537078
0.00116960873
0.001180605745
0.001192652663
0.001204741058
0.00121574409
0.00122443073
0.001229477635
0.001189018106
0.00119539459
0.001204417675
0.001215355055
0.001227335719
0.001239356715
0.001250297683
0.001258934944
0.001263953114
0.001223747386
0.001230086435
0.001239056093
0.001249928011
0.001261836116
0.001273783464
0.001284656742
0.001293240225
0.001298227114
0.001258293836
0.001264592269
0.001273504039
0.001284305143
0.001296134899
0.001308002862
0.001318803291
0.001327328957
0.001332282227
0.001292638421
0.001298893327
0.001307743122
0.001318468513
0.00133021462
0.001341997949
0.001352720805
0.001361184957
0.00136610247
0.001326763626
0.001332972344
0.001341756433
0.00135240164
0.001364059261
0.001375753167
0.001386394142
0.00139479341
0.001399673215
0.001360653379
0.001366813489
0.001375528475
0.001386089429
0.001397654167
0.001409254294
0.001419809472
0.001428140791
0.001432981114
0.001394292977
0.001400402282
0.001409045088
0.0014195181
0.001430985967
0.00144248837
0.001452954203
0.001461214798
0.001466014033
0.001427669013
0.00143372553
0.001442293373
0.001452675113
0.001464042511
0.001475443629
0.001485816918
0.001494004284
0.001498760981
0.001460769309
0.001466771251
0.00147526163
0.001485549102
0.001496812797
0.001508109431
0.0015183873
0.00152649919
0.001531212047
0.001493582837
0.001499528607
0.001507939282
0.001518129806
0.001529286904
0.001540476194
0.001550656076
0.001558690481
0.001563358334
0.001526099662
0.001531987834
0.00154031681
0.001550408
0.001561455928
0.001572535333
0.001582614943
0.001590570079
0.001595191896
0.001558310868
0.001564140181
0.001572385691
0.001582375438
0.001593311921
0.001604279193
0.001614256518
0.00162213081
0.001626705677
0.0015902085
0.001595977844
0.001604138337
0.001614024786
0.001624847828
0.001635700999
0.001645574273
0.00165336634
0.001657893459
0.001621785499
0.001627493907
0.00163556803
0.001645349567
0.001656057432
0.00166679479
0.001676562479
0.001684271126
0.001688749802
0.001653035647
0.001658682283
0.001666668869
0.001676344104
0.001686935296
0.00169755537
0.001707216158
0.001714840356
0.001719269995
0.001683953508
0.00168953766
0.001697435714
0.001707003463
0.001717476712
0.001727978254
0.001737531027
0.001745069907
0.001749450005
0.001714534379
0.001720055447
0.001727864135
0.001737323407
0.001747677652
0.001758059622
0.001767503451
0.001774956291
0.001779286428
0.001744774235
0.001750231727
0.001757950363
0.001767300344
0.001777534718
0.001787796268
0.001797130398
0.00180449661
0.001808776447
0.001774669685
0.001780063205
0.001787691241
0.001796931285
0.001807045099
0.001817185558
0.001826409395
0.001833688519
0.001837917788
0.001804217926
0.001809547169
0.001817084183
0.001826213795
0.001836206527
0.00184622539
0.001855338488
0.001862530179
0.001866708681
0.001833416697
0.001838681442
0.001846127132
0.001855145958
0.001865017237
0.00187491415
0.001883916202
0.001891020222
0.001895147819
0.001862264243
0.001867464347
0.001874818516
0.001883726333
0.001893475931
0.001903250681
0.001912141502
0.001919157715
0.001923234326
0.001890759275
0.001895894663
0.001903157217
0.001911953921
0.00192158174
0.001931234241
0.001940013766
0.001946942124
0.001950967723
0.001918900933
0.001923971598
0.001931142531
0.001939828129
0.001949334188
0.001958864474
0.001967532744
0.001974373283
0.001978347891
0.001946688751
0.001951694745
0.001958774138
0.001967348737
0.001976733165
0.001986141379
0.001994698532
0.002001451365
0.002005375048
0.00197412263
0.001979064058
0.001986052068
0.001994515866
0.002003778895
0.002013065276
0.00202151154
0.002028176851
0.002032049714
0.0020012028
0.00200607982
0.002012976673
0.002021329954
0.002030471902
0.002039636783
0.002047972465
0.002054550502
0.002058372689
0.002027929799
0.002032742612
0.002039548598
0.002047791721
0.002056812991
0.002065856784
0.002074082267
0.002080573333
0.00208434502
0.002054304438
0.002059053286
0.002065768753
0.002073902147
0.002082803216
0.002091726406
0.002099842139
0.00210624659
0.002109967984
0.00208032778
0.002085012942
0.002091638289
0.002099662442
0.002108443853
0.002117246994
0.002125253482
0.00213157172
0.002135243053
0.00210600111
0.002110622899
0.002117158569
0.002125074025
0.00213373638
0.002142420079
0.002150317882
0.002156550349
0.002160171877
0.002131325914
0.002135884668
0.002142331146
0.002150138495
0.002158682446
0.002167247363
0.002175037083
0.002181184255
0.002184756254
0.002156303846
0.00216079993
0.002167157732
0.002174857605
0.002183283847
0.002191730681
0.002199412957
0.002205475339
0.002208998099
0.002180936709
0.002185370506
0.002191640177
0.002199233237
0.002207542496
0.002215871981
0.002223447479
0.002229425596
0.002232899422
0.002205226421
0.002209598328
0.002215780434
0.002223267365
0.002231460395
0.002239673284
0.002247142691
0.002253037083
0.002256462287
0.002229174984
0.002233485411
0.002239580527
0.00224696203
0.002255039596
0.002263136657
0.002270500667
0.002276311879
0.002279688775
0.002252784451
0.002257033809
0.002263042518
0.002270319295
0.002278282163
0.002286264161
0.002293523466
0.00229925204
0.002302580937
0.002276056885
0.002280245582
0.002286168458
0.002293341202
0.002301190126
0.002309057809
0.002316213083
0.002321859542
0.002325140741
0.002298994308
0.002303122738
0.002308960338
0.002316029717
0.002323765419
0.0023315195
0.002338571381
0.002344136219
0.002347370001
0.002321598643
0.002325667181
0.002331420025
0.002338386663
0.002346009813
0.002353650949
0.002360600017
0.00236608368
0.002369270296
0.002343871647
0.002347880629
0.00235354919
0.002360413642
0.00236792483
0.002375453592
0.002382300346
0.002387703208
0.002390842866
0.00236581482
0.002369764536
0.002375349207
0.002382111934
0.002389511641
0.002396928481
0.002403673303
0.002408995644
0.002412088493
0.002387429307
0.002391319973
0.002396821049
0.002403482382
0.002410770936
0.002418076146
0.002424719265
0.002429961235
0.002433007345
0.002408715767
0.002412547508
0.002417965147
0.002424525247
0.00243170278
0.002438896442
0.002445437883
0.002450599463
0.002453598803
0.002429674226
0.002433447048
0.002438781232
0.002445240035
0.002452306424
0.002459388351
0.002465827882
0.002470908839
0.002473861248
0.0024503039
0.002454017654
0.002459268142
0.002465625305
0.002472580102
0.002479549766
0.002485886829
0.002490886662
0.002493791815
0.002470602985
0.002474257331
0.002479423603
0.002485678429
0.002492520786
0.002499377237
0.002505610871
0.002510528747
0.00251338612
0.002490568424
0.002494162786
0.002499243976
0.002505395339
0.002512123915
0.002518865685
0.00252499444
0.002529829122
0.002532637949
0.002510195641
0.002513729154
0.002518723982
0.002524770232
0.002531383092
0.002538008097
0.002544029933
0.002548779703
0.002551538929
0.00252947825
0.002532949706
0.002537856394
0.002543795261
0.002550289767
0.002556795188
0.002562707376
0.002567369952
0.002570078184
0.002548407747
0.002551815536
0.002556631722
0.002562460213
0.002568832907
0.002575215074
0.002581014086
0.002585586535
0.002588241993
0.002566973192
0.002570315239
0.002575037894
0.002580752182
0.00258699867
0.002593252946
0.002598934344
0.002603412998
0.002606013467
0.002585160905
0.002588434608
0.002593059947
0.002598655269
0.002604770107
0.002610890775
0.002616449115
0.002620829494
0.002623372281
0.002602954176
0.002606156354
0.002610679757
0.002616150323
0.002622126915
0.002628107082
0.00263353583
0.002637812582
0.002640294478
0.002620333039
0.002623459882
0.00262787583
0.002633214745
0.002639045273
0.002644876798
0.00265016827
0.002654335127
0.002656752394
0.002637274119
0.002640321155
0.002644623189
0.00264982241
0.002655497787
0.002661171249
0.002666316594
0.002670366364
0.00267271473
0.00265375058
0.00265671267
0.002660893383
0.002665943715
0.002671453591
0.002676958305
0.002681947531
0.002685872135
0.002688146819
0.002669732229
0.002672603584
0.002676654653
0.0026815458
0.002686878631
0.002692202736
0.002697024796
0.002700815346
0.002703011113
0.002685185793
0.002687960026
0.002691872295
0.002696592973
0.002701736164
0.002706866778
0.002711509739
0.002715156678
0.00271726793
0.002700075396
0.002702745619
0.002706509244
0.002711047365
0.002715987491
0.002720910956
0.002725362238
0.00272885555
0.002730876447
0.002714363263
0.002716922228
0.002720526882
0.002724869826
0.002729592944
0.00273429516
0.00273854186
0.002741871338
0.002743795967
0.002728010655
0.00273045094
0.002733886091
0.002738021052
0.002742513101
0.002746979951
0.002751009243
0.002754164818
0.002755987387
0.002740979027
0.00274329327
0.002746548516
0.002750462925
0.002754710205
0.002758928052
0.002762727662
0.002765699784
0.002767414847
0.002753231379
0.002755412547
0.002758478007
0.002762160013
0.002766149732
0.002770105977
0.002773664694
0.002776444744
0.002778047442
0.002764733745
0.002766775429
0.002769642167
0.002773081161
0.002776802009
0.002780485675
0.002783793888
0.002786374599
0.002787860896
0.00277545674
0.002777353467
0.002780013925
0.002783201065
0.002786643791
0.002790046097
0.00279309631
0.002795472161
0.002796839072
0.002785377082
0.002787124605
0.002789573022
0.00279250173
0.002795659674
0.002798774553
0.002801561836
0.002803729397
0.002804975169
0.002794478962
0.002796074526
0.002798307295
0.002800973683
0.002803843217
0.002806667736
0.002809190081
0.002811148263
0.002812272512
0.002802755163
0.002804197706