/*--------------------------------*- C++ -*----------------------------------*\
| =========                 |                                                 |
| \\      /  F ield         | OpenFOAM: The Open Source CFD Toolbox           |
|  \\    /   O peration     | Version:  2212                                  |
|   \\  /    A nd           | Website:  www.openfoam.com                      |
|    \\/     M anipulation  |                                                 |
\*---------------------------------------------------------------------------*/
FoamFile
{
    version     2.0;
    format      ascii;
    arch        "LSB;label=32;scalar=64";
    class       volScalarField;
    location    "20.00000000";
    object      CH2CO_0;
}
// * * * * * * * * * * * * * * * * * * * * * * * * * * * * * * * * * * * * * //

dimensions      [0 0 0 0 0 0 0];

internalField   nonuniform List<scalar> 
3000
(
1.561741353e-21
1.754288233e-21
2.044833135e-21
2.432005996e-21
2.911879007e-21
3.471433129e-21
4.076968051e-21
4.654780878e-21
5.063440957e-21
5.863638537e-21
6.613191198e-21
7.743765053e-21
9.253719551e-21
1.114159765e-20
1.339693031e-20
1.598061973e-20
1.876176589e-20
2.122604342e-20
1.313472808e-20
1.493015243e-20
1.766415618e-20
2.137641892e-20
2.613385612e-20
3.20054906e-20
3.896836265e-20
4.663085853e-20
5.318135623e-20
2.502022073e-20
2.873875869e-20
3.448427101e-20
4.24513524e-20
5.292248328e-20
6.616359564e-20
8.210199831e-20
9.945949011e-20
1.134697527e-19
4.443293789e-20
5.166378845e-20
6.301212475e-20
7.905474731e-20
1.005466197e-19
1.280897805e-19
1.61223161e-19
1.964054187e-19
2.234113602e-19
7.641172136e-20
8.998551555e-20
1.115940719e-19
1.426169777e-19
1.847101045e-19
2.389336333e-19
3.036709143e-19
3.707601903e-19
4.204013894e-19
1.297266448e-19
1.546628132e-19
1.948219368e-19
2.531279681e-19
3.328288106e-19
4.355098091e-19
5.569261732e-19
6.802911958e-19
7.693089306e-19
2.195470732e-19
2.646774034e-19
3.380050413e-19
4.452909961e-19
5.925198864e-19
7.81811429e-19
1.003669206e-18
1.225799259e-18
1.383405668e-18
3.721544382e-19
4.529666941e-19
5.851195437e-19
7.794523368e-19
1.04660944e-18
1.389157748e-18
1.787745215e-18
2.182667218e-18
2.459778536e-18
6.330555424e-19
7.766202215e-19
1.0124682e-18
1.360409095e-18
1.839032598e-18
2.451114843e-18
3.15938461e-18
3.855995316e-18
4.341164734e-18
1.081096821e-18
1.334641064e-18
1.752490182e-18
2.37018644e-18
3.219917476e-18
4.304159138e-18
5.553617458e-18
6.776209644e-18
7.623437276e-18
1.852920154e-18
2.298715056e-18
3.035017113e-18
4.12486271e-18
5.623809539e-18
7.533035141e-18
9.726563145e-18
1.186520188e-17
1.334210042e-17
3.185414148e-18
3.966645745e-18
5.258939419e-18
7.173282774e-18
9.805524506e-18
1.315365665e-17
1.699195948e-17
2.072471319e-17
2.329625465e-17
5.489372192e-18
6.855076737e-18
9.1165853e-18
1.246841499e-17
1.707603408e-17
2.293075905e-17
2.963200069e-17
3.613715326e-17
4.061093765e-17
9.477341315e-18
1.186046142e-17
1.580967681e-17
2.166488857e-17
2.971203163e-17
3.992938067e-17
5.161053838e-17
6.293502515e-17
7.071351883e-17
1.638554109e-17
2.053849534e-17
2.742425141e-17
3.763559163e-17
5.166708035e-17
6.947244698e-17
8.981142618e-17
1.095103311e-16
1.230284919e-16
2.835910064e-17
3.558923916e-17
4.758160625e-17
6.536860799e-17
8.980628372e-17
1.20803158e-16
1.561881228e-16
1.904345662e-16
2.1391933e-16
4.912082346e-17
6.169932806e-17
8.256842138e-17
1.135243966e-16
1.560496793e-16
2.099706171e-16
2.714946114e-16
3.310056643e-16
3.717944811e-16
8.513212365e-17
1.070040582e-16
1.432986548e-16
1.971388412e-16
2.710922923e-16
3.648369984e-16
4.71757732e-16
5.751344194e-16
6.459619305e-16
1.476081518e-16
1.856252735e-16
2.487188214e-16
3.423142919e-16
4.708586239e-16
6.337624665e-16
8.194989078e-16
9.990110445e-16
1.121960635e-15
2.560150557e-16
3.220759724e-16
4.317176909e-16
5.94359345e-16
8.176990754e-16
1.100664388e-15
1.423183104e-15
1.734780812e-15
1.948124822e-15
4.441375189e-16
5.58901948e-16
7.493779704e-16
1.031905662e-15
1.419800983e-15
1.911113211e-15
2.470902478e-15
3.011529719e-15
3.381552879e-15
7.705994313e-16
9.699303411e-16
1.300745347e-15
1.791366031e-15
2.464800135e-15
3.317491023e-15
4.288624603e-15
5.226099884e-15
5.867472915e-15
1.33709771e-15
1.683230502e-15
2.257617568e-15
3.10929468e-15
4.277949985e-15
5.757056616e-15
7.440766453e-15
9.06523973e-15
1.017605336e-14
2.319969515e-15
2.920857825e-15
3.917816448e-15
5.395629428e-15
7.42260182e-15
9.986641048e-15
1.290349626e-14
1.57158055e-14
1.763760541e-14
4.024770552e-15
5.067549133e-15
6.797212839e-15
9.360100298e-15
1.28734158e-14
1.731450247e-14
2.236254864e-14
2.722538597e-14
3.054561149e-14
6.980489738e-15
8.78926184e-15
1.17884073e-14
1.622994952e-14
2.231421671e-14
2.999823257e-14
3.872323528e-14
4.711863477e-14
5.284454142e-14
1.210184506e-14
1.52372532e-14
2.043363995e-14
2.812382045e-14
3.864849489e-14
5.192513622e-14
6.698024836e-14
8.144577683e-14
9.129787639e-14
2.096816277e-14
2.639847456e-14
3.539273714e-14
4.869162729e-14
6.687092387e-14
8.977037168e-14
1.156935747e-13
1.405564588e-13
1.574600087e-13
3.630115222e-14
4.569519812e-14
6.124250477e-14
8.420502244e-14
1.155481205e-13
1.549577819e-13
1.994779719e-13
2.420812738e-13
2.709825228e-13
6.278057775e-14
7.900719359e-14
1.058363848e-13
1.454065937e-13
1.993204858e-13
2.669589503e-13
3.43173016e-13
4.15905772e-13
4.651145693e-13
1.084312216e-13
1.364064379e-13
1.826053402e-13
2.506277176e-13
3.431019236e-13
4.588038827e-13
5.887732715e-13
7.123986699e-13
7.957733787e-13
1.869705951e-13
2.35086107e-13
3.144290883e-13
4.310110962e-13
5.890780384e-13
7.862113922e-13
1.006844357e-12
1.215896705e-12
1.356358793e-12
3.217628489e-13
4.042779481e-13
5.401072811e-13
7.391946885e-13
1.008272329e-12
1.342581371e-12
1.715147976e-12
2.066581894e-12
2.301700118e-12
5.524407258e-13
6.934559892e-13
9.250993712e-13
1.263634683e-12
1.719491152e-12
2.28337343e-12
2.908715284e-12
3.495595544e-12
3.886345797e-12
9.459285653e-13
1.185928964e-12
1.579209972e-12
2.152022648e-12
2.920056463e-12
3.865339359e-12
4.907880545e-12
5.880773924e-12
6.525104425e-12
1.61467075e-12
2.021194231e-12
2.685467267e-12
3.649213769e-12
4.935154734e-12
6.508980468e-12
8.234148376e-12
9.834121867e-12
1.088769426e-11
2.746562503e-12
3.431409601e-12
4.546859378e-12
6.158056561e-12
8.296244941e-12
1.089688569e-11
1.372868221e-11
1.63375634e-11
1.804508076e-11
4.65372426e-12
5.800400483e-12
7.661268208e-12
1.033596516e-11
1.386430362e-11
1.812685978e-11
2.273531682e-11
2.695132244e-11
2.969330931e-11
7.85134379e-12
9.758286856e-12
1.284045862e-11
1.724665984e-11
2.302147601e-11
2.994779347e-11
3.738021923e-11
4.413046967e-11
4.849239609e-11
1.318403686e-11
1.633184407e-11
2.13971723e-11
2.859613961e-11
3.796597665e-11
4.911920551e-11
6.099491565e-11
7.170109156e-11
7.857455316e-11
2.202655169e-11
2.718117168e-11
3.543640198e-11
4.709592784e-11
6.216127398e-11
7.995390043e-11
9.875013562e-11
1.155701022e-10
1.262996875e-10
3.659957255e-11
4.49686257e-11
5.830439968e-11
7.701673295e-11
1.010136979e-10
1.291294673e-10
1.585972589e-10
1.847745818e-10
2.013694947e-10
6.046180983e-11
7.392833121e-11
9.527413658e-11
1.250243678e-10
1.628853968e-10
2.068914852e-10
2.526554954e-10
2.930213584e-10
3.184584021e-10
9.926916036e-11
1.207367545e-10
1.545818533e-10
2.01430481e-10
2.605958558e-10
3.288235637e-10
3.992409755e-10
4.609304132e-10
4.995853845e-10
1.619340931e-10
1.958306195e-10
2.489802128e-10
3.220480337e-10
4.13630194e-10
5.184325453e-10
6.258150975e-10
7.192835158e-10
7.775425557e-10
2.62378441e-10
3.153831021e-10
3.980450814e-10
5.109218265e-10
6.51363229e-10
8.108991919e-10
9.732424124e-10
1.113701639e-09
1.200824284e-09
4.221570284e-10
5.042397421e-10
6.31572769e-10
8.043161894e-10
1.017734242e-09
1.258485909e-09
1.501904587e-09
1.711343654e-09
1.84067735e-09
6.74346891e-10
8.002413361e-10
9.945429584e-10
1.256496532e-09
1.577980963e-09
1.938287265e-09
2.300431434e-09
2.610450927e-09
2.801134378e-09
1.069259112e-09
1.260534896e-09
1.5543132e-09
1.948053442e-09
2.428278199e-09
2.963272848e-09
3.498100035e-09
3.953872962e-09
4.233219604e-09
1.682753334e-09
1.970713091e-09
2.410972794e-09
2.997807604e-09
3.709447695e-09
4.49792761e-09
5.282343304e-09
5.948127505e-09
6.354943651e-09
2.628238405e-09
3.057951411e-09
3.712143752e-09
4.579727229e-09
5.626334373e-09
6.780259667e-09
7.923316106e-09
8.890097017e-09
9.479281183e-09
4.073721659e-09
4.709560295e-09
5.673767272e-09
6.946617853e-09
8.474930139e-09
1.015262304e-08
1.180825775e-08
1.320429695e-08
1.405314993e-08
6.265880719e-09
7.199155225e-09
8.609397654e-09
1.046339598e-08
1.268023257e-08
1.510443087e-08
1.748891254e-08
1.949425124e-08
2.07112493e-08
9.564022283e-09
1.09233993e-08
1.297101883e-08
1.565310188e-08
1.884830867e-08
2.233070166e-08
2.574638467e-08
2.86126958e-08
3.034958883e-08
1.448723172e-08
1.645282513e-08
1.940525885e-08
2.325996268e-08
2.783726567e-08
3.281143889e-08
3.76786649e-08
4.175590611e-08
4.422388417e-08
2.177935251e-08
2.460159572e-08
2.883013913e-08
3.433497119e-08
4.085298092e-08
4.791807501e-08
5.481718115e-08
6.058819483e-08
6.407848263e-08
3.249771175e-08
3.652239018e-08
4.253894693e-08
5.035109318e-08
5.957725704e-08
6.955495626e-08
7.928023095e-08
8.74042169e-08
9.231337005e-08
4.813326656e-08
5.383447379e-08
6.233984962e-08
7.335733357e-08
8.633803334e-08
1.003456059e-07
1.139733711e-07
1.253401436e-07
1.322015235e-07
7.077217107e-08
7.879533515e-08
9.074202438e-08
1.061826034e-07
1.243325909e-07
1.438751909e-07
1.628497654e-07
1.786492197e-07
1.881744449e-07
1.033107906e-07
1.145278691e-07
1.312000548e-07
1.527009266e-07
1.77915741e-07
2.05002794e-07
2.312466491e-07
2.530601093e-07
2.661947273e-07
1.497362175e-07
1.653148614e-07
1.884282816e-07
2.181704197e-07
2.529673889e-07
2.902607824e-07
3.263174606e-07
3.562371574e-07
3.742329342e-07
2.154833944e-07
2.369724081e-07
2.687981461e-07
3.096617101e-07
3.573586918e-07
4.083632194e-07
4.575812843e-07
4.98362246e-07
5.22867819e-07
3.078816517e-07
3.373170318e-07
3.808364438e-07
4.365974935e-07
5.015409439e-07
5.708465203e-07
6.376104275e-07
6.928588924e-07
7.260317201e-07
4.367105351e-07
4.767489206e-07
5.358495633e-07
6.114289828e-07
6.992802852e-07
7.928619581e-07
8.82875176e-07
9.572789708e-07
1.001922172e-06
6.148931686e-07
6.689792058e-07
7.486991835e-07
8.504698649e-07
9.685543766e-07
1.094135156e-06
1.214761816e-06
1.314368263e-06
1.374095766e-06
8.593510685e-07
9.319209673e-07
1.038743625e-06
1.174897802e-06
1.332620066e-06
1.500101815e-06
1.660772066e-06
1.793317572e-06
1.872749638e-06
1.19202699e-06
1.288747638e-06
1.430946427e-06
1.61192442e-06
1.82125206e-06
2.043216722e-06
2.255897517e-06
2.4311892e-06
2.536178214e-06
1.641068672e-06
1.769111149e-06
1.95714354e-06
2.196122405e-06
2.472136009e-06
2.7644135e-06
3.044139474e-06
3.274483609e-06
3.412366511e-06
2.242155709e-06
2.410499557e-06
2.657443866e-06
2.970877341e-06
3.332375224e-06
3.714663767e-06
4.080113245e-06
4.380776982e-06
4.560645603e-06
3.039931921e-06
3.259691185e-06
3.581712845e-06
3.989903698e-06
4.460037211e-06
4.956548767e-06
5.430636887e-06
5.820318765e-06
6.05329267e-06
4.089479507e-06
4.37423471e-06
4.791057068e-06
5.318728854e-06
5.925628804e-06
6.565715821e-06
7.17616098e-06
7.67743271e-06
7.976911341e-06
5.457737599e-06
5.823848811e-06
6.359191711e-06
7.036012195e-06
7.813349655e-06
8.632051413e-06
9.411854402e-06
1.005152284e-05
1.043338584e-05
7.224734104e-06
7.691601909e-06
8.37353893e-06
9.234532149e-06
1.022194019e-05
1.126037024e-05
1.224813036e-05
1.305745699e-05
1.354017509e-05
9.484470602e-06
1.007470414e-05
1.093587876e-05
1.20216504e-05
1.326492056e-05
1.457040509e-05
1.581038814e-05
1.682509708e-05
1.742971309e-05
1.234528147e-05
1.308472801e-05
1.416236318e-05
1.551905822e-05
1.707002124e-05
1.869589618e-05
2.023776999e-05
2.149777836e-05
2.224772025e-05
1.592948806e-05
1.68470791e-05
1.81827168e-05
1.986163317e-05
2.177764193e-05
2.37826291e-05
2.568079714e-05
2.722961597e-05
2.815031421e-05
2.037219383e-05
2.149957049e-05
2.313849047e-05
2.519529104e-05
2.753824822e-05
2.998535981e-05
3.229785436e-05
3.418163619e-05
3.529993493e-05
2.581912121e-05
2.719001743e-05
2.918030913e-05
3.16738077e-05
3.450872149e-05
3.746368826e-05
4.025063092e-05
4.25168795e-05
4.38602552e-05
3.242347442e-05
3.407286053e-05
3.646415782e-05
3.945470093e-05
4.284780676e-05
4.637708367e-05
4.969877688e-05
5.239478029e-05
5.399040905e-05
4.034191888e-05
4.23049371e-05
4.514686793e-05
4.869438793e-05
5.271093446e-05
5.687939965e-05
6.079417046e-05
6.39652648e-05
6.583900575e-05
4.972988069e-05
5.204063464e-05
5.538108089e-05
5.954294755e-05
6.424480148e-05
6.911331939e-05
7.367528464e-05
7.736309095e-05
7.953847272e-05
6.073647207e-05
6.342675801e-05
6.731005568e-05
7.213889349e-05
7.758215764e-05
8.320521286e-05
8.846216217e-05
9.270295164e-05
9.520022884e-05
7.349941792e-05
7.659750046e-05
8.106272907e-05
8.660438546e-05
9.283723887e-05
9.926085561e-05
0.0001052524512
0.0001100757916
0.0001129112563
8.814037856e-05
9.166991396e-05
9.674942036e-05
0.0001030412593
0.0001101022082
0.0001173623409
0.0001241187929
0.0001295467134
0.000132732269
0.0001047610284
0.000108740222
0.0001144584963
0.0001215281472
0.000129444813
0.000137566304
0.0001451077232
0.0001511543954
0.0001546977282
0.0001234401648
0.0001278812181
0.0001342541924
0.0001421188138
0.0001509072771
0.0001599034869
0.0001682396702
0.0001749114741
0.0001788155814
0.0001442320021
0.0001491408564
0.0001561755898
0.0001648416849
0.0001745064958
0.0001843793534
0.0001935099552
0.0002008046941
0.0002050668028
0.0001671656114
0.0001725420403
0.0001802369684
0.0001897006793
0.0002002352458
0.00021097579
0.0002208897753
0.0002287960616
0.0002334088353
0.0001922457524
0.0001980836763
0.0002064290722
0.000216676839
0.0002280642667
0.0002396520543
0.0002503275884
0.0002588267283
0.0002637787681
0.0002194544704
0.000225742474
0.0002347212924
0.0002457306537
0.0002579426276
0.0002703463959
0.000281753218
0.0002908202241
0.0002960966592
0.0002487535257
0.000255475287
0.0002650626469
0.0002768009382
0.0002897998593
0.000302980142
0.0003150809736
0.0003246856573
0.000330268769
0.0002800836405
0.0002872171844
0.0002973812678
0.0003098088755
0.000323550038
0.0003374607228
0.0003502126673
0.0003603207218
0.000366190558
0.0003133655347
0.0003208854043
0.0003315896679
0.0003446615263
0.0003590946651
0.0003736845031
0.0003870403852
0.0003976144131
0.0004037493656
0.0003485052829
0.0003563833481
0.0003675876449
0.0003812545988
0.0003963253386
0.0004115393537
0.0004254489594
0.0004364494155
0.0004428267451
0.0003853971194
0.0003936033248
0.0004052649469
0.000419474995
0.0004351261733
0.0004509069417
0.0004653181351
0.0004767041683
0.0004833004705
0.0004239260259
0.0004324290718
0.0004445036964
0.0004592031093
0.0004753759579
0.0004916647429
0.00050652445
0.0005182546394
0.0005250462491
0.0004639700976
0.0004727380481
0.0004851805776
0.0005003148828
0.000516950062
0.0005336878012
0.0005489428585
0.000560975845
0.0005679391823
0.0005054026864
0.0005144035001
0.0005271687922
0.000542683626
0.0005597221127
0.0005768502596
0.0005924481339
0.0006047431526
0.0006118550126
0.0005480943246
0.0005572963082
0.0005703397985
0.0005861816269
0.0006035654628
0.0006210266908
0.0006369160775
0.0006494333978
0.0006566711907
0.0005919144372
0.000601286626
0.0006145648461
0.0006306815633
0.0006483544708
0.0006660932498
0.0006822245593
0.0006949258414
0.0007022677853
0.0006367328517
0.0006462453196
0.0006597163193
0.0006760577312
0.0006939656085
0.0007119286643
0.0007282544073
0.0007411029826
0.0007485282552
0.000682421114
0.0006920452202
0.0007056689006
0.0007221871045
0.0007402784103
0.0007584150784
0.0007748901596
0.0007878512434
0.0007953400968
0.0007288536207
0.0007385621976
0.0007523005638
0.000768950233
0.0007871762724
0.000805438758
0.0008220206892
0.0008350615328
0.0008425953756
0.0007759085741
0.0007856760636
0.0007994934055
0.0008162319911
0.0008345471142
0.0008528906684
0.0008695397103
0.0008826297007
0.000890191151
0.0008234687709
0.0008332713146
0.0008471343252
0.0008639221838
0.0008822839078
0.0009006669317
0.0009173461737
0.0009304568878
0.0009380298014
0.0008714222346
0.0008812377237
0.0008951155621
0.0009119160207
0.0009302850861
0.0009486691735
0.000965344561
0.0009784497805
0.0009860192584
0.0009196627004
0.0009294707925
0.0009433351008
0.000960114468
0.0009784548395
0.0009968047669
0.001013445084
0.001026520778
0.001034073156
0.0009680899685
0.0009778720752
0.0009916969568
0.001008424489
0.00102670331
0.001044986984
0.001061563802
0.001074588083
0.001082110904
0.001016610136
0.001026349387
0.001040111353
0.001056759184
0.001074946697
0.001093135067
0.001109622659
0.001122575717
0.001130057698
0.001065135722
0.001074816913
0.001088494803
0.001105037847
0.001123107279
0.001141174223
0.001157549461
0.001170413482
0.001177844467
0.001113585698
0.00112319522
0.001136770108
0.001153185938
0.001171113368
0.001189035559
0.001205277793
0.001218036866
0.001225407772
0.001161885446
0.001171411208
0.001184866284
0.001201134997
0.001218899211
0.001236655968
0.001252746892
0.001265386904
0.001272689663
0.001209966636
0.001219397981
0.001232718435
0.001248822505
0.001266404832
0.001283977962
0.001299901472
0.001312410002
0.001319637505
0.001257767064
0.001267094676
0.00128026757
0.001296191695
0.001313575845
0.001330949481
0.001346691533
0.00135905774
0.001366203771
0.00130523044
0.001314446251
0.001327460388
0.001343191338
0.001360363231
0.001377523666
0.001393072129
0.001405286641
0.001412345818
0.001352306137
0.001361403237
0.001374249033
0.001389775488
0.001406723093
0.00142365862
0.001439003129
0.001451057935
0.001458025644
0.001398948926
0.00140792147
0.001420590825
0.001435903229
0.001452616395
0.001469317143
0.001484448963
0.001496337301
0.001503209641
0.001445118685
0.001453961805
0.001466447977
0.001481538388
0.00149800869
0.001514466474
0.001529378359
0.001541094615
0.001547868337
0.001490780103
0.001499489822
0.001511787311
0.001526649258
0.001542869843
0.001559078011
0.001573764077
0.001585303685
0.001591976136
0.001535902379
0.001544475526
0.001556579958
0.001571208307
0.001587173749
0.001603127045
0.001617582642
0.001628941989
0.00163551106
0.001580458913
0.001588893051
0.00160080107
0.001615191895
0.001630898059
0.001646592489
0.001660814087
0.001671990422
0.001678454497
0.001624427012
0.001632720362
0.001644429529
0.001658579991
0.001674023906
0.001689456611
0.001703441689
0.00171443304
0.001720790947
0.001667787596
0.001675938968
0.001687447666
0.001701355904
0.001716535639
0.001731704781
0.001745451722
0.001756256819
0.001762507787
0.001710524909
0.001718533643
0.001729840989
0.001743506011
0.001758420569
0.001773325221
0.001786833219
0.001797451415
0.001803595036
0.001752626251
0.001760492152
0.001771597917
0.001785019507
0.00179966872
0.001814308765
0.001827577735
0.001838008946
0.00184404513
0.001794081712
0.001801805004
0.001812709534
0.001825888162
0.001840272595
0.001854648635
0.001867679131
0.001877923769
0.001883852712
0.001834883928
0.001842465197
0.001853169349
0.001866106089
0.001880226953
0.001894340225
0.001907133367
0.00191719228
0.001923014433
0.001875027839
0.001882467993
0.00189297307
0.001905669526
0.001919528599
0.001933380895
0.001945938297
0.001955812722
0.001961528758
0.001914510475
0.001921810699
0.001932118393
0.001944576629
0.001958176185
0.001971769782
0.001984093493
0.001993785002
0.00199939579
0.001953330744
0.001960492466
0.001970604802
0.001982827285
0.001996170025
0.00200950762
0.002021600063
0.002031110522
0.002036617101
0.001991489237
0.001998514092
0.002008433389
0.002020422926
0.002033511919
0.002046596572
0.002058460496
0.002067792025
0.002073195582
0.002028988054
0.002035877855
0.002045606674
0.002057366367
0.002070204998
0.002083040077
0.002094678505
0.002103833441
0.00210913529
0.002065830632
0.002072587339
0.002082128453
0.002093661651
0.002106253567
0.002118842702
0.002130258894
0.002139239757
0.002144441318
0.002102021591
0.002108647291
0.002118003643
0.002129313901
0.002141662974
0.002154010012
0.002165207422
0.002174016888
0.002179119674
0.002137566595
0.002144063475
0.002153238153
0.002164329196
0.002176439478
0.002188548446
0.00219953069
0.002208171561
0.002213177159
0.002172472219
0.00217884255
0.002187838754
0.002198714444
0.002210590133
0.002222465204
0.002233236029
0.002241711212
0.002246621271
0.002206745828
0.002212991945
0.002221812969
0.002232477273
0.002244122684
0.002255768142
0.002266331399
0.002274643881
0.002279460101
0.002240395472
0.002246519759
0.002255168963
0.002265625931
0.002277045466
0.002288465684
0.0022988253
0.002306978134
0.00231170225
0.002273429784
0.002279434661
0.002287915454
0.002298169194
0.002309367315
0.002320566726
0.002330726687
0.00233872297
0.002343356747
0.002305857889
0.002311745798
0.00232006162
0.002330116277
0.00234109749
0.002352080568
0.002362044896
0.002369887755
0.002374432978
0.002337689324
0.002343462719
0.002351617028
0.002361476767
0.002372245596
0.002383016836
0.002392789574
0.002400482154
0.002404940619
0.002368933961
0.002374595299
0.002382591556
0.002392260544
0.002402821518
0.00241338542
0.002422970615
0.002430516069
0.002434889576
0.002399601944
0.002405153676
0.002412995333
0.00242247773
0.002432835367
0.00244319642
0.00245259811
0.002459999583
0.002464289931
0.002429703625
0.002435148189
0.002442838681
0.002452138622
0.002462297416
0.002472460086
0.002481682291
0.002488942916
0.002493151899
0.002459249513
0.002464589329
0.002472132062
0.002481253651
0.002491218063
0.002501186781
0.002510233491
0.002517356377
0.002521485776
0.002488250226
0.002493487687
0.002500886036
0.002509833335
0.002519607777
0.002529386933
0.002538262097
0.002545250327
0.002549301908
0.002516716446
0.002521853918
0.002529111213
0.002537888235
0.002547477071
0.002557070998
0.002565778524
0.002572635143
0.002576610655
0.002544658881
0.002549698697
0.002556818224
0.002565428927
0.002574836457
0.002584249434
0.002592793172
0.00259952119
0.002603422357
0.002572088233
0.00257703269
0.002584017683
0.002592465965
0.002601696424
0.002610932662
0.002619316409
0.002625918788
0.002629747312
0.002599015167
0.002603866523
0.002610720163
0.002619009853
0.002628067407
0.002637131049
0.002645358538
0.002651838193
0.00265559575
0.002625450287
0.002630210758
0.002636936168
0.002645071028
0.002653959766
0.002662854879
0.002670929778
0.002677289577
0.002680977812
0.002651404112
0.00265607587
0.002662676112
0.002670659833
0.002679383766
0.002688114341
0.002696040248
0.002702283003
0.002705903534
0.002676887054
0.00268147223
0.002687950303
0.002695786498
0.002704349558
0.002712919507
0.002720699949
0.002726828417
0.002730382831
0.002701909404
0.002706410083
0.002712768924
0.002720461131
0.002728867164
0.002737280316
0.002744918747
0.002750935631
0.002754425482
0.002726481316
0.002730899535
0.002737142015
0.002744693696
0.002752946466
0.002761206567
0.002768706368
0.002774614311
0.002778041121
0.002750612795
0.002754950546
0.002761079471
0.002768494006
0.002776597193
0.002784707904
0.00279207238
0.002797873969
0.002801239227
0.002774313685
0.002778572912
0.002784591023
0.002791871716
0.002799828912
0.002807793812
0.002815026192
0.002820723952
0.002824029115
0.002797593662
0.002801776264
0.002807686235
0.00281483631
0.002822651023
0.002830473603
0.002837577039
0.002843173442
0.002846419931
0.002820462227
0.002824570055
0.002830374495
0.002837397096
0.002845072748
0.002852756417
0.002859733987
0.00286523144
0.002868420644
0.0028429287
0.002846963558
0.002852665011
0.002859563205
0.002867103132
0.002874651213
0.002881505918
0.002886906773
0.002890040047
0.002865002214
0.002868965861
0.002874566806
0.00288134358
0.002888751035
0.002896166768
0.002902901534
0.002908208082
0.002911286749
0.002886691713
0.002890585862
0.002896088713
0.00290274698
0.002910025131
0.002917311672
0.002923929351
0.002929143827
0.002932169176
0.00290800595
0.00291183227
0.002917239378
0.002923781971
0.002930933905
0.002938094329
0.002944597699
0.00294972228
0.002952695566
0.002928953485
0.002932713599
0.002938027252
0.002944456932
0.002951485652
0.002958522953
0.002964914719
0.002969951525
0.002972873972
0.002949542682
0.00295323817
0.002958460595
0.002964780048
0.002971688477
0.002978605569
0.002984888364
0.002989839461
0.00299271226
0.002969781712
0.002973414111
0.002978547475
0.002984759312
0.002991550296
0.002998350013
0.003004526399
0.003009393795
0.003012218106
0.002989678551
0.002993249354
0.002998295763
0.003004402526
0.00301107883
0.00301776393
0.003023836401
0.00302862205
0.003031399002
0.003009240978
0.003012751639
0.003017713141
0.003023717298
0.003030281613
0.003036854777
0.003042825755
0.003047531558
0.003050262249
0.00302847658
0.00303192851
0.003036807095
0.003042711047
0.003049165986
0.003055629818
0.003061501659
0.003066129463
0.00306881496
0.003047392748
0.003050787318
0.003055584918
0.003061390998
0.003067739098
0.00307409613
0.003079871121
0.003084422721
0.003087064059
0.00306599668
0.00306933522
0.003074053712
0.003079764181
0.003086007907
0.003092260594
0.003097940957
0.003102418094
0.00310501628
0.003084295375
0.003087579177
0.003092220381
0.003097837433
0.003103979175
0.003110129899
0.003115717786
0.003120122149
0.003122678158
0.003102295636
0.003105525951
0.003110091629
0.003115617392
0.003121659465
0.003127710534
0.00313320803
0.003137541255
0.003140056032
0.003120004063
0.003123182102
0.003127673962
0.003133110493
0.003139055135
0.003145008781
0.003150417902
0.003154681569
0.003157156027
0.003137427049
0.003140553981
0.003144973672
0.003150322957
0.003156172332
0.003162030707
0.003167353399
0.003171549032
0.003173984051
0.003154570768
0.003157647721
0.003161996831
0.003167260786
0.003173016974
0.00317878215
0.003184020284
0.003188149348
0.003190545772
0.003171441164
0.003174469223
0.003178749277
0.003183929738
0.003189594737
0.003195268699
0.003200424064
0.003204487961
0.003206846599
0.003188043934
0.003191024133
0.00319523659
0.003200335312
0.003205911026
0.003211495666
0.003216569968
0.003220570029
0.003222891648
0.003204384499
0.003207317824
0.003211464069
0.003216482715
0.003221970947
0.003227468054
0.0032324629
0.00323640038
0.003238685701
0.003220467974
0.003223355354
0.003227436689
0.003232376823
0.003237779263
0.003243190509
0.003248107398
0.003251983464
0.003254233156
0.003236299125
0.003239141422
0.003243159057
0.003248022126
0.003253340335
0.003258667259
0.003263507566
0.003267323282
0.003269537955
0.003251882311
0.003254680313
0.00325863535
0.003263422669
0.003268658058
0.003273902044
0.003278666996
0.003282423309
0.0032846035
0.003267221413
0.003269975822
0.00327386924
0.003278581965
0.00328373577
0.003288898016
0.003293588669
0.003297286385
0.003299432548
0.003282319753
0.003285031168
0.003288863794
0.0032935029
0.003298576144
0.003303657632
0.003308274837
0.003311914592
0.00331402708
0.003297179982
0.00329984888
0.003303621365
0.003308187605
0.003313181063
0.003318182517
0.003322726876
0.003326309107
0.003328388153
0.003311803958
0.00331443067
0.003318143456
0.00332263732
0.003327551469
0.003332473299
0.003336945125
0.003340470028
0.003342515721
0.003326192598
0.003328777282
0.003332430559
0.003336852223
0.003341687186
0.003346529435
0.003350928689
0.003354396177
0.003356408436
0.003340345708
0.003342888316
0.003346481978
0.003350831249
0.003355586729
0.003360349002
0.003364675236
0.003368084883
0.003370063426
0.003354261797
0.003356762039
0.003360295631
0.00336457188
0.003369247087
0.003373928479
0.003378180759
0.003381531748
0.003383476058
0.003367937871
0.003370395178
0.003373867836
0.003378069928
0.003382663498
0.00338726251
0.003391439346
0.003394730404
0.003396639693
0.00338136922
0.003383782694
0.003387193088
0.003391319304
0.003395829221
0.003400343674
0.003404442937
0.003407672273
0.003409545445
0.003394549196
0.003396917572
0.003400263838
0.003404311804
0.003408735307
0.003413162256
0.003417181103
0.003420346347
0.003422181963
0.003407469004
0.003409790604
0.003413070287
0.003417036891
0.003421370399
0.003425706055
0.003429640853
0.003432738998
0.00343453524
0.003420117514
0.003422390208
0.003425600202
0.003429481535
0.003433720569
0.003437960227
0.003441806489
0.003444833844
0.003446588493
0.003432481109
0.003434702281
0.003437838787
0.003441630081
0.003445769216
0.0034499072
0.003453659548
0.003456611703
0.00345832212
0.003444543593
0.003446710118
0.003449768612
0.003453464218
0.003457497043
0.003461526682
0.003465178824
0.003468050647
0.003469713767
0.003456286171
0.003458394411
0.003461369638
0.003464963015
0.003468882147
0.003472795788
0.003476340533
0.003479126185
0.003480738536
0.003467687539
0.003469733354
0.003472619351
0.003476103106
0.003479900227
0.003483689293
0.003487118618
0.003489811608
0.003491369346
0.00347872409
0.003480702876
0.003483493033
0.003486858994
0.003490524957
0.003494180053
0.003497485215
0.003500078502
0.003501577471
0.003489370259
0.003491277017
0.003493964173
0.003497203528
0.00350072851
0.0035042396
0.003507411307
0.003509897445
0.003511333269
0.003499599026
0.003501428458
0.003504005053
0.003507108536
0.003510482261
0.003513838908
0.003516867551
0.003519238884
0.003520607088
0.003509382571
0.003511129218
0.003513587485
0.003516545626
0.003519757656
0.003522949327
0.003525825279
0.003528074186
0.003529370341
0.003518693095
0.003520351498
0.003522683711
0.003525487143
0.003528527228
0.003531543666
0.00353425763
0.003536376816
0.003537596714
0.003527503772
0.003529068674
0.00353126743
0.003533907247
0.003536765732
0.003539597374
0.003542140784
0.003544123604
0.003545263452
0.003535789814
0.003537256379
0.00353931492
0.003541783071
0.003544451338
0.003547089778
0.003549455223
0.003551296023
0.003552352643
0.003543529603
0.003544893653
0.003546806199
0.003549095905
0.003551566835
0.003554005286
0.003556186943
0.003557881404
0.003558852434
0.003550705828
0.00355196408
0.003553726168
0.003555832327
0.003558100747
0.003560334494
0.003562328529
0.003563873984
0.003564758061
0.003557306559
0.003558456846
0.003560065644
0.003561985208
0.003564048292
0.003566075083
0.003567880005
0.003569275705
0.003570072611
0.003563326183
0.003564367647
0.003565822217
0.003567554499
0.003569412096
0.003571232449