/*--------------------------------*- C++ -*----------------------------------*\
| =========                 |                                                 |
| \\      /  F ield         | OpenFOAM: The Open Source CFD Toolbox           |
|  \\    /   O peration     | Version:  2212                                  |
|   \\  /    A nd           | Website:  www.openfoam.com                      |
|    \\/     M anipulation  |                                                 |
\*---------------------------------------------------------------------------*/
FoamFile
{
    version     2.0;
    format      ascii;
    arch        "LSB;label=32;scalar=64";
    class       volScalarField;
    location    "20.00000000";
    object      CH3;
}
// * * * * * * * * * * * * * * * * * * * * * * * * * * * * * * * * * * * * * //

dimensions      [0 0 0 0 0 0 0];

internalField   nonuniform List<scalar> 
3000
(
1.573687174e-24
1.767392798e-24
2.05967213e-24
2.449135369e-24
2.931823757e-24
3.494640691e-24
4.103694432e-24
4.684861268e-24
5.095892385e-24
5.907429385e-24
6.661315448e-24
7.798360184e-24
9.31685897e-24
1.121531124e-23
1.348319352e-23
1.608124886e-23
1.887796697e-23
2.135625289e-23
1.322854831e-23
1.503366213e-23
1.77822281e-23
2.15139637e-23
2.629599416e-23
3.219763575e-23
3.91958612e-23
4.689725941e-23
5.348119848e-23
2.518738877e-23
2.892406028e-23
3.469707042e-23
4.270143143e-23
5.322042634e-23
6.652077189e-23
8.252923424e-23
9.996214522e-23
1.140329217e-22
4.470344795e-23
5.196486944e-23
6.335987194e-23
7.946623487e-23
1.010403563e-22
1.286850586e-22
1.619364844e-22
1.972406139e-22
2.243381412e-22
7.682208993e-23
9.044288815e-23
1.121232043e-22
1.432437967e-22
1.854617167e-22
2.398360921e-22
3.047422814e-22
3.719960241e-22
4.217521982e-22
1.303155138e-22
1.553164421e-22
1.955731676e-22
2.54009088e-22
3.338700862e-22
4.367349928e-22
5.583436091e-22
6.818807829e-22
7.71008826e-22
2.203395868e-22
2.655442748e-22
3.389789265e-22
4.463968667e-22
5.937704621e-22
7.832010495e-22
1.005169362e-21
1.227362822e-21
1.384986704e-21
3.731218108e-22
4.539850456e-22
5.86194005e-22
7.80560512e-22
1.047691536e-21
1.390113156e-21
1.788450074e-21
2.183032245e-21
2.459852823e-21
6.340215108e-22
7.775231734e-22
1.013215548e-21
1.360833398e-21
1.838873775e-21
2.450032337e-21
3.157038034e-21
3.852234184e-21
4.336322001e-21
1.081534852e-21
1.334686217e-21
1.751790787e-21
2.368211925e-21
3.215930201e-21
4.297273204e-21
5.543031219e-21
6.761689794e-21
7.606017254e-21
1.851531198e-21
2.296126441e-21
3.030269477e-21
4.116600047e-21
5.610239719e-21
7.512103918e-21
9.696522663e-21
1.182571764e-20
1.329578357e-20
3.17927165e-21
3.957491103e-21
5.244481774e-21
7.150393437e-21
9.770190091e-21
1.310141214e-20
1.691916417e-20
2.063093193e-20
2.318746581e-20
5.472225857e-21
6.831051034e-21
9.080595849e-21
1.241366558e-20
1.69939785e-20
2.28120856e-20
2.946935027e-20
3.593004664e-20
4.03722894e-20
9.436303773e-21
1.180457401e-20
1.572816745e-20
2.154357042e-20
2.95333173e-20
3.967439936e-20
5.126472684e-20
6.249805394e-20
7.021223536e-20
1.629469448e-20
2.041677411e-20
2.724955408e-20
3.737912611e-20
5.129353324e-20
6.89443692e-20
8.910045017e-20
1.086167789e-19
1.220066777e-19
2.816728047e-20
3.533492076e-20
4.722049424e-20
6.484347853e-20
8.904753364e-20
1.197376508e-19
1.547612782e-19
1.886485146e-19
2.118817487e-19
4.872846405e-20
6.118295869e-20
8.184083485e-20
1.12473678e-19
1.545406062e-19
2.078621524e-19
2.686827785e-19
3.274969085e-19
3.677989457e-19
8.434766268e-20
1.059773078e-19
1.418603063e-19
1.950727914e-19
2.681388558e-19
3.607269758e-19
4.6629468e-19
5.683343346e-19
6.382298677e-19
1.460664066e-19
1.83615917e-19
2.45916814e-19
3.383066367e-19
4.651513116e-19
6.25846039e-19
8.090048498e-19
9.859756018e-19
1.107156894e-18
2.530251174e-19
3.181924832e-19
4.26322335e-19
5.866695434e-19
8.067824572e-19
1.08556376e-18
1.403211427e-18
1.710016019e-18
1.920030224e-18
4.384004314e-19
5.51471303e-19
7.390864905e-19
1.017281033e-18
1.399095268e-18
1.882539216e-18
2.433186449e-18
2.964833767e-18
3.328627366e-18
7.596859623e-19
9.558289076e-19
1.28126645e-18
1.763756576e-18
2.425802198e-18
3.263786042e-18
4.217863205e-18
5.138612094e-18
5.768397177e-18
1.316485047e-18
1.65665126e-18
2.220987311e-18
3.057492492e-18
4.204934534e-18
5.65669654e-18
7.308749682e-18
8.902228614e-18
9.991597918e-18
2.281268604e-18
2.871044456e-18
3.849307232e-18
5.298943227e-18
7.286587304e-18
9.800022431e-18
1.26583974e-17
1.541354362e-17
1.729584797e-17
3.952470588e-18
4.974639441e-18
6.669671798e-18
9.180446441e-18
1.262115205e-17
1.69689834e-17
2.190945917e-17
2.666733233e-17
2.991514344e-17
6.845988958e-18
8.616675293e-18
1.155190363e-17
1.589741666e-17
2.184812746e-17
2.936094822e-17
3.788887219e-17
4.609233811e-17
5.168605358e-17
1.185251981e-17
1.491776778e-17
1.999656154e-17
2.751036511e-17
3.779021427e-17
5.075370538e-17
6.544912546e-17
7.956511819e-17
8.917694969e-17
2.050736983e-17
2.580878782e-17
3.458731477e-17
4.756320852e-17
6.529512056e-17
8.762369919e-17
1.128928522e-16
1.371217594e-16
1.535905148e-16
3.545166974e-17
4.460948458e-17
5.976199572e-17
8.213460844e-17
1.126625856e-16
1.510349715e-16
1.943702208e-16
2.358283296e-16
2.639462986e-16
6.12178026e-17
7.701236682e-17
1.031207059e-16
1.416162176e-16
1.940491517e-16
2.598089189e-16
3.338841091e-16
4.045568449e-16
4.523611159e-16
1.055611567e-16
1.327476156e-16
1.776329762e-16
2.43701965e-16
3.334927105e-16
4.458027431e-16
5.719256146e-16
6.918611373e-16
7.727294091e-16
1.817071256e-16
2.283849453e-16
3.053386977e-16
4.183777679e-16
5.715948376e-16
7.626231606e-16
9.763641849e-16
1.178835813e-15
1.314846958e-15
3.121216223e-16
3.920197366e-16
5.235101859e-16
7.161841901e-16
9.765178314e-16
1.299871545e-15
1.660134507e-15
1.999882371e-15
2.227135297e-15
5.348002574e-16
6.710573479e-16
8.948321577e-16
1.221778256e-15
1.661904967e-15
2.206183321e-15
2.809636209e-15
3.375849613e-15
3.752766593e-15
9.136916221e-16
1.145049097e-15
1.524077173e-15
2.075979087e-15
2.81577094e-15
3.726060219e-15
4.729778898e-15
5.666257453e-15
6.286362081e-15
1.555858044e-15
1.946695518e-15
2.585176247e-15
3.511237612e-15
4.746547778e-15
6.258028214e-15
7.914504692e-15
9.450501926e-15
1.046179298e-14
2.639545317e-15
3.295948566e-15
4.364762703e-15
5.908100578e-15
7.955603118e-15
1.044528725e-14
1.315570273e-14
1.565236903e-14
1.728624182e-14
4.459828702e-15
5.554985146e-15
7.331598447e-15
9.884158333e-15
1.325008926e-14
1.731514813e-14
2.170905474e-14
2.572817245e-14
2.834187054e-14
7.502523807e-15
9.316320788e-15
1.224643888e-14
1.643284861e-14
2.191657636e-14
2.849073496e-14
3.554293839e-14
4.194664292e-14
4.608435109e-14
1.256369379e-14
1.55436454e-14
2.033507941e-14
2.713857407e-14
3.598572349e-14
4.650858186e-14
5.770658691e-14
6.779839581e-14
7.427686672e-14
2.094346981e-14
2.579738316e-14
3.35610292e-14
4.450945347e-14
5.863367907e-14
7.529075574e-14
9.286712046e-14
1.085839333e-13
1.18607491e-13
3.476323746e-14
4.259918833e-14
5.505875641e-14
7.249544112e-14
9.479275377e-14
1.208447506e-13
1.480841334e-13
1.722403725e-13
1.875425291e-13
5.749271192e-14
7.003104758e-14
8.983499788e-14
1.173106884e-13
1.520965155e-13
1.923118876e-13
2.339234481e-13
2.704771768e-13
2.934572652e-13
9.484284373e-14
1.147432467e-13
1.459368703e-13
1.887836794e-13
2.42397723e-13
3.035928128e-13
3.660891654e-13
4.203098473e-13
4.540402576e-13
1.563050191e-13
1.876905579e-13
2.364616027e-13
3.026734083e-13
3.843498824e-13
4.760479406e-13
5.679857688e-13
6.461935531e-13
6.939138834e-13
2.57823105e-13
3.07163514e-13
3.830981305e-13
4.848035468e-13
6.080834414e-13
7.434442694e-13
8.753750738e-13
9.83637042e-13
1.04683339e-12
4.263786101e-13
5.040435957e-13
6.223741022e-13
7.785520793e-13
9.640227716e-13
1.161858875e-12
1.346615331e-12
1.488510743e-12
1.563009342e-12
7.075821061e-13
8.306016905e-13
1.016321073e-12
1.258061855e-12
1.539330494e-12
1.830107354e-12
2.088195532e-12
2.269864376e-12
2.351974996e-12
1.177483644e-12
1.374310419e-12
1.669488538e-12
2.049938956e-12
2.486538116e-12
2.92995781e-12
3.318499464e-12
3.607978603e-12
3.833279014e-12
1.959382972e-12
2.277698764e-12
2.753835158e-12
3.366092317e-12
4.070214871e-12
4.802517196e-12
5.520897003e-12
6.285294302e-12
6.842697596e-12
3.245181572e-12
3.764447829e-12
4.543649039e-12
5.555686e-12
6.757897786e-12
8.144705673e-12
9.862786296e-12
1.161933181e-11
1.289174827e-11
5.319850126e-12
6.173552711e-12
7.472791115e-12
9.219924638e-12
1.149569648e-11
1.460549066e-11
1.83418696e-11
2.21514381e-11
2.493619417e-11
8.59853897e-12
1.002686467e-11
1.228921281e-11
1.560531149e-11
2.046323041e-11
2.692028597e-11
3.466411272e-11
4.263171535e-11
4.85439728e-11
1.377440304e-11
1.629614025e-11
2.070161882e-11
2.748257876e-11
3.715183889e-11
4.995161985e-11
6.538407929e-11
8.142289744e-11
9.348199756e-11
2.266382508e-11
2.770360435e-11
3.623622647e-11
4.920641456e-11
6.760464438e-11
9.195768476e-11
1.213733758e-10
1.519961757e-10
1.750457718e-10
3.923512148e-11
4.862266472e-11
6.439909794e-11
8.825861794e-11
1.21954466e-10
1.663085012e-10
2.193912564e-10
2.738378577e-10
3.140714319e-10
6.957480611e-11
8.649761796e-11
1.147934489e-10
1.57290276e-10
2.166919479e-10
2.936266083e-10
3.834327077e-10
4.724585541e-10
5.358102544e-10
1.246833505e-10
1.544634569e-10
2.038690946e-10
2.771453864e-10
3.775973906e-10
5.039690244e-10
6.4570985e-10
7.796840848e-10
8.706197532e-10
2.239830962e-10
2.750978292e-10
3.588255029e-10
4.805243997e-10
6.424973267e-10
8.383168525e-10
1.047774883e-09
1.236425901e-09
1.359215687e-09
4.002085422e-10
4.851501427e-10
6.217384153e-10
8.148624761e-10
1.062637259e-09
1.349554178e-09
1.643503621e-09
1.898908561e-09
2.060680374e-09
7.040857518e-10
8.392851979e-10
1.051811131e-09
1.343077963e-09
1.703334584e-09
2.105676857e-09
2.506092066e-09
2.847348485e-09
3.060536684e-09
1.20581852e-09
1.410461682e-09
1.724941092e-09
2.144030861e-09
2.648041929e-09
3.198522323e-09
3.738907751e-09
4.19605657e-09
4.479890667e-09
1.993001044e-09
2.288556315e-09
2.734850107e-09
3.318463532e-09
4.009543252e-09
4.757317251e-09
5.488420247e-09
6.105788597e-09
6.488062802e-09
3.17180561e-09
3.585033392e-09
4.202853972e-09
5.003516548e-09
5.946259346e-09
6.964228471e-09
7.959517727e-09
8.800214856e-09
9.320299902e-09
4.879765349e-09
5.448828574e-09
6.296292449e-09
7.39150202e-09
8.679940363e-09
1.007213836e-08
1.143519234e-08
1.25880281e-08
1.330152912e-08
7.307082072e-09
8.087553753e-09
9.248690363e-09
1.074894985e-08
1.251527024e-08
1.442679867e-08
1.630208811e-08
1.789152619e-08
1.887695515e-08
1.071734419e-08
1.178733313e-08
1.337926231e-08
1.543738315e-08
1.786365913e-08
2.049460935e-08
2.308227745e-08
2.528197879e-08
2.664979166e-08
1.54664817e-08
1.693249122e-08
1.911446591e-08
2.193803214e-08
2.527200792e-08
2.889570018e-08
3.247076351e-08
3.552105314e-08
3.742526251e-08
2.20234319e-08
2.402797646e-08
2.701320482e-08
3.088053761e-08
3.545534478e-08
4.044091962e-08
4.537681197e-08
4.960594562e-08
5.225816372e-08
3.099385102e-08
3.37248333e-08
3.779468388e-08
4.307377658e-08
4.933111615e-08
5.616975219e-08
6.296535019e-08
6.881365474e-08
7.249885653e-08
4.314523567e-08
4.684650637e-08
5.236644338e-08
5.953591582e-08
6.80513031e-08
7.738432748e-08
8.669244371e-08
9.473732274e-08
9.982989569e-08
5.943090209e-08
6.441323612e-08
7.184912202e-08
8.151927938e-08
9.302687776e-08
1.05672734e-07
1.183266973e-07
1.293052832e-07
1.362831656e-07
8.100930577e-08
8.766044754e-08
9.75931461e-08
1.105242733e-07
1.259376295e-07
1.429133265e-07
1.599469578e-07
1.747721138e-07
1.842261913e-07
1.092541221e-07
1.18046093e-07
1.311815778e-07
1.482956733e-07
1.687196268e-07
1.912512597e-07
2.139066692e-07
2.336714327e-07
2.463070779e-07
1.457498385e-07
1.572413204e-07
1.744129828e-07
1.967945776e-07
2.235231256e-07
2.53039752e-07
2.827573382e-07
3.087230912e-07
3.253509859e-07
1.922675614e-07
2.070990788e-07
2.292588942e-07
2.581407383e-07
2.926360665e-07
3.307420234e-07
3.691281875e-07
4.026930831e-07
4.242073878e-07
2.507167544e-07
2.695967345e-07
2.977926109e-07
3.34523103e-07
3.78372601e-07
4.267954591e-07
4.755659821e-07
5.182124892e-07
5.455559931e-07
3.230709695e-07
3.467516561e-07
3.820897602e-07
4.280811157e-07
4.829319855e-07
5.434466681e-07
6.043472318e-07
6.575708239e-07
6.916887314e-07
4.112692882e-07
4.405128881e-07
4.841059213e-07
5.407650297e-07
6.082397285e-07
6.825733921e-07
7.572827931e-07
8.225072629e-07
8.64293383e-07
5.17099725e-07
5.526368747e-07
6.05541818e-07
6.741890227e-07
7.557885987e-07
8.455148882e-07
9.355402633e-07
1.014028152e-06
1.064268998e-06
6.420753744e-07
6.845596856e-07
7.477109241e-07
8.29494856e-07
9.265003709e-07
1.032934708e-06
1.139510717e-06
1.232279269e-06
1.291602655e-06
7.873174481e-07
8.372811102e-07
9.114264602e-07
1.007244817e-06
1.120628683e-06
1.244737561e-06
1.368742415e-06
1.476496094e-06
1.545329652e-06
9.534604299e-07
1.011276245e-06
1.096923749e-06
1.207359958e-06
1.337718599e-06
1.480054947e-06
1.621954878e-06
1.74504331e-06
1.823593942e-06
1.140592707e-06
1.206447317e-06
1.30382954e-06
1.429113474e-06
1.576630458e-06
1.73730499e-06
1.897137838e-06
2.035557849e-06
2.123822284e-06
1.34824136e-06
1.42212288e-06
1.531182949e-06
1.671180296e-06
1.835624472e-06
2.01431724e-06
2.191727205e-06
2.345184591e-06
2.443060524e-06
1.575403468e-06
1.657104623e-06
1.77750511e-06
1.931735422e-06
2.112491572e-06
2.308502134e-06
2.502807372e-06
2.670812001e-06
2.778015032e-06
1.820620194e-06
1.909755908e-06
2.040907635e-06
2.208589347e-06
2.404722107e-06
2.617047337e-06
2.827330984e-06
3.009035226e-06
3.124849076e-06
2.082084581e-06
2.178124249e-06
2.319238524e-06
2.499359136e-06
2.709704949e-06
2.937156392e-06
3.16210212e-06
3.356114477e-06
3.479673114e-06
2.357787372e-06
2.460099243e-06
2.610256997e-06
2.801663875e-06
3.02496059e-06
3.265915704e-06
3.503668435e-06
3.708416873e-06
3.838741959e-06
2.645698678e-06
2.753607669e-06
2.9118715e-06
3.11335754e-06
3.347805591e-06
3.600194319e-06
3.848753641e-06
4.062546296e-06
4.198582835e-06
2.944040106e-06
3.056855304e-06
3.222013371e-06
3.431801436e-06
3.67537196e-06
3.937051242e-06
4.194340902e-06
4.415419255e-06
4.556067381e-06
3.250759205e-06
3.367459541e-06
3.538051376e-06
3.754345345e-06
4.004992057e-06
4.273796835e-06
4.537716434e-06
4.764298837e-06
4.908440871e-06
3.563308456e-06
3.682905002e-06
3.857506444e-06
4.078532264e-06
4.334228922e-06
4.608013359e-06
4.876480024e-06
5.106797733e-06
5.253321087e-06
3.879315107e-06
4.00085139e-06
4.178080432e-06
4.402109728e-06
4.660880216e-06
4.937551735e-06
5.208534605e-06
5.44086191e-06
5.588678498e-06
4.196571651e-06
4.319128457e-06
4.497655755e-06
4.723025065e-06
4.98296847e-06
5.260516154e-06
5.532065142e-06
5.764744598e-06
5.912807256e-06
4.51302391e-06
4.635725959e-06
4.814286345e-06
5.03941413e-06
5.29872602e-06
5.575244363e-06
5.84551404e-06
6.076977426e-06
6.224293657e-06
4.826761645e-06
4.948784541e-06
5.126187994e-06
5.349589503e-06
5.606579839e-06
5.880288336e-06
6.147557433e-06
6.376342826e-06
6.521986045e-06
5.136013284e-06
5.256589945e-06
5.431731258e-06
5.652031057e-06
5.905138812e-06
6.174397625e-06
6.437084412e-06
6.661849571e-06
6.804967966e-06
5.439144859e-06
5.557570978e-06
5.729437726e-06
5.94537969e-06
6.193184186e-06
6.456505984e-06
6.713179672e-06
6.932711874e-06
7.072534933e-06
5.734662298e-06
5.850300604e-06
6.017979205e-06
6.228433862e-06
6.469662795e-06
6.725720822e-06
6.975109103e-06
7.188331532e-06
7.324174334e-06
6.021215798e-06
6.133499002e-06
6.296178738e-06
6.500147902e-06
6.733682074e-06
6.981314567e-06
7.222307441e-06
7.428282317e-06
7.559547678e-06
6.297604865e-06
6.406037225e-06
6.563012213e-06
6.759630929e-06
6.984505798e-06
7.222716921e-06
7.454367056e-06
7.652295728e-06
7.778474391e-06
6.562782692e-06
6.666940227e-06
6.817609375e-06
7.006145311e-06
7.22154957e-06
7.44950715e-06
7.671027109e-06
7.860247454e-06
7.980916517e-06
6.815858878e-06
6.915388295e-06
7.059253403e-06
7.239103894e-06
7.444375371e-06
7.661405829e-06
7.872162575e-06
8.052144065e-06
8.166963929e-06
7.056099797e-06
7.150716265e-06
7.287378466e-06
7.458065525e-06
7.652684801e-06
7.858265715e-06
8.05777287e-06
8.228109753e-06
8.336819851e-06
7.28292634e-06
7.372410283e-06
7.501565095e-06
7.662728729e-06
7.846310901e-06
8.040061695e-06
8.227970049e-06
8.388373065e-06
8.49078666e-06
7.495909032e-06
7.58010213e-06
7.701533404e-06
7.852923622e-06
8.025208667e-06
8.206879912e-06
8.382966671e-06
8.533253746e-06
8.629252067e-06
7.694760781e-06
7.773561386e-06
7.887134444e-06
8.028602339e-06
8.189444505e-06
8.358906307e-06
8.523063535e-06
8.663149823e-06
8.752675797e-06
7.879327664e-06
7.95268581e-06
8.058340071e-06
8.189828314e-06
8.339184957e-06
8.496414851e-06
8.648637518e-06
8.778525146e-06
8.861576936e-06
8.049578212e-06
8.117490423e-06
8.215231748e-06
8.336764825e-06
8.47468503e-06
8.619755748e-06
8.760129725e-06
8.879897531e-06
8.95652206e-06
8.205591702e-06
8.268095727e-06
8.357988723e-06
8.469663178e-06
8.596276475e-06
8.729343886e-06
8.85803417e-06
8.967827668e-06
9.038114284e-06
8.347545898e-06
8.404715515e-06
8.486875972e-06
8.58885087e-06
8.704356271e-06
8.825647733e-06
8.94288713e-06
9.042908877e-06
9.106983278e-06
8.475704646e-06
8.527644641e-06
8.602232243e-06
8.694720031e-06
8.799375572e-06
8.909178881e-06
9.015257296e-06
9.105757808e-06
9.163776295e-06
8.590405661e-06
8.637247053e-06
8.704458472e-06
8.787716355e-06
8.881829277e-06
8.980482328e-06
9.075736794e-06
9.157006088e-06
9.20915022e-06
8.692048764e-06
8.733944328e-06
8.79400678e-06
8.868328697e-06
8.952246355e-06
9.040127607e-06
9.124933103e-06
9.197292933e-06
9.243764611e-06
8.781084765e-06
8.818204897e-06
8.871370199e-06
8.937079459e-06
9.011180998e-06
9.088700776e-06
9.163461886e-06
9.227258689e-06
9.268275689e-06
8.858005116e-06
8.890534059e-06
8.937073213e-06
8.994515805e-06
9.059204636e-06
9.126797297e-06
9.191940708e-06
9.24753927e-06
9.283331228e-06
8.923332434e-06
8.951464864e-06
8.991663185e-06
9.041201772e-06
9.096898833e-06
9.155015773e-06
9.210983598e-06
9.258761425e-06
9.289566264e-06
8.97761192e-06
9.001549897e-06
9.035702663e-06
9.077711244e-06
9.124849035e-06
9.173952516e-06
9.221196419e-06
9.261538787e-06
9.28759957e-06
9.021403689e-06
9.041353963e-06
9.069762575e-06
9.10462179e-06
9.143639144e-06
9.184196904e-06
9.223172972e-06
9.256468614e-06
9.278030807e-06
9.055275996e-06
9.071447641e-06
9.09441628e-06
9.122509321e-06
9.153846867e-06
9.186327455e-06
9.217491789e-06
9.244129184e-06
9.261438285e-06
9.079799321e-06
9.092401692e-06
9.110234417e-06
9.131943511e-06
9.156039786e-06
9.180908581e-06
9.204713527e-06
9.22507774e-06
9.23837727e-06
9.095541266e-06
9.104782248e-06
9.117780527e-06
9.13348394e-06
9.150772089e-06
9.16848794e-06
9.185378924e-06
9.199848953e-06
9.209378756e-06
9.103062211e-06
9.109146736e-06
9.117607362e-06
9.127676885e-06
9.138581909e-06
9.149594337e-06
9.160007243e-06
9.168953817e-06
9.174948659e-06
9.10291167e-06
9.10604048e-06
9.110253839e-06
9.11505271e-06
9.119989198e-06
9.124736107e-06
9.129095139e-06
9.132878935e-06
9.135567354e-06
9.095625279e-06
9.095993914e-06
9.096242569e-06
9.096123785e-06
9.095494088e-06
9.094399934e-06
9.09311591e-06
9.09208613e-06
9.091689524e-06
9.08172236e-06
9.079520345e-06
9.076077909e-06
9.071382884e-06
9.065575677e-06
9.059050036e-06
9.052519069e-06
9.047012345e-06
9.043744263e-06
9.061704003e-06
9.057114207e-06
9.050244462e-06
9.041302001e-06
9.030691186e-06
9.019127684e-06
9.007730197e-06
8.99806977e-06
8.992135383e-06
9.036051595e-06
9.029249756e-06
9.019205998e-06
9.006331531e-06
8.991275448e-06
8.975050987e-06
8.959151025e-06
8.945646183e-06
8.937241914e-06
9.005225758e-06
8.996380134e-06
8.983404711e-06
8.966899774e-06
8.947740666e-06
8.92721493e-06
8.907159724e-06
8.890105442e-06
8.879418725e-06
8.969665635e-06
8.958936782e-06
8.943260797e-06
8.92341271e-06
8.900476414e-06
8.875991603e-06
8.852111345e-06
8.831788113e-06
8.818997279e-06
8.929788474e-06
8.917329121e-06
8.899172284e-06
8.876254004e-06
8.849849841e-06
8.821730591e-06
8.794338405e-06
8.77101221e-06
8.756286459e-06
8.885989476e-06
8.871944491e-06
8.851515091e-06
8.825785214e-06
8.796206031e-06
8.764759514e-06
8.734151569e-06
8.708074002e-06
8.691573469e-06
8.838641859e-06
8.823148286e-06
8.800643266e-06
8.772346156e-06
8.73986851e-06
8.705384658e-06
8.671840419e-06
8.643248896e-06
8.625124775e-06
8.788097111e-06
8.771284269e-06
8.746889387e-06
8.716255404e-06
8.681139856e-06
8.643891704e-06
8.607674282e-06
8.576792346e-06
8.557187082e-06
8.734685389e-06
8.716675023e-06
8.690565087e-06
8.657810897e-06
8.6203024e-06
8.580546518e-06
8.541903107e-06
8.508940802e-06
8.487988315e-06
8.678716044e-06
8.659622518e-06
8.63196167e-06
8.597290634e-06
8.557618983e-06
8.515595983e-06
8.474758361e-06
8.439912666e-06
8.417738622e-06
8.620478251e-06
8.600408768e-06
8.571350823e-06
8.534953422e-06
8.493333776e-06
8.449268866e-06
8.406453951e-06
8.369909249e-06
8.34663135e-06
8.560241703e-06
8.539296559e-06
8.508985372e-06
8.471039684e-06
8.427673117e-06
8.381776707e-06
8.337187144e-06
8.299115724e-06
8.274844023e-06
8.498257379e-06
8.476530224e-06
8.445100083e-06
8.405772289e-06
8.360846375e-06
8.313314703e-06
8.267139479e-06
8.227702063e-06
8.20253929e-06
8.434758336e-06
8.412336462e-06
8.379912501e-06
8.339357403e-06
8.293046823e-06
8.244062601e-06
8.196477681e-06
8.155823953e-06
8.12986585e-06
8.369960542e-06
8.346925169e-06
8.313623789e-06
8.271985346e-06
8.224452504e-06
8.174185577e-06
8.125354534e-06
8.083623689e-06
8.056959351e-06
8.304063718e-06
8.280490287e-06
8.246419586e-06
8.203831452e-06
8.155227093e-06
8.103835093e-06
8.053909755e-06
8.011231034e-06
7.983943244e-06
8.237252181e-06
8.213210652e-06
8.178470851e-06
8.135056913e-06
8.085520741e-06
8.033149742e-06
7.982270817e-06
7.938764044e-06
7.910929616e-06
8.16969569e-06
8.145250833e-06
8.1099347e-06
8.065809613e-06
8.015470896e-06
7.962256059e-06
7.910553759e-06
7.86632987e-06
7.838019973e-06
8.101550276e-06
8.076761959e-06
8.040955231e-06
7.996224937e-06
7.945203109e-06
7.891269303e-06
7.838863955e-06
7.794025509e-06
7.765305994e-06
8.032959059e-06
8.007882532e-06
7.971664319e-06
7.92642656e-06
7.874831796e-06
7.820294219e-06
7.76729685e-06
7.721938529e-06
7.692870244e-06
7.964053035e-06
7.938739205e-06
7.90218239e-06
7.856527201e-06
7.804460985e-06
7.749425751e-06
7.69593866e-06
7.650147754e-06
7.620786845e-06
7.894951853e-06
7.869447551e-06
7.832619172e-06
7.786629361e-06
7.734185023e-06
7.678749732e-06
7.624867041e-06
7.578723907e-06
7.549122116e-06
7.825764547e-06
7.800112785e-06
7.763074408e-06
7.716826013e-06
7.664089258e-06
7.608343543e-06
7.554151721e-06
7.507730232e-06
7.47793517e-06
7.756590247e-06
7.730830463e-06
7.693638534e-06
7.647201269e-06
7.594250671e-06
7.538276724e-06
7.483855091e-06
7.437223059e-06
7.407278479e-06
7.687518859e-06
7.661687153e-06
7.624393339e-06
7.577831011e-06
7.524738489e-06
7.468611557e-06
7.414032763e-06
7.367252345e-06
7.337198398e-06
7.618631709e-06
7.592761069e-06
7.555412577e-06
7.508783488e-06
7.455614763e-06
7.39940362e-06
7.3447341e-06
7.297862184e-06
7.267735661e-06
7.550002159e-06
7.524122676e-06
7.486762564e-06
7.440119889e-06
7.386934908e-06
7.330702309e-06
7.276002715e-06
7.22909128e-06
7.198925841e-06
7.481696193e-06
7.455835258e-06
7.418502725e-06
7.371894873e-06
7.31874822e-06
7.26255132e-06
7.207876926e-06
7.160973389e-06
7.130799783e-06
7.413772958e-06
7.387955458e-06
7.350686117e-06
7.304157071e-06
7.251098347e-06
7.194989107e-06
7.140390194e-06
7.093537735e-06
7.063384004e-06
7.346285285e-06
7.320533784e-06
7.283359921e-06
7.236949561e-06
7.184023747e-06
7.128049304e-06
7.073571524e-06
7.026809391e-06
6.996701065e-06
7.279280178e-06
7.253615083e-06
7.216565903e-06
7.170310305e-06
7.117558101e-06
7.06176113e-06
7.007445845e-06
6.96080964e-06
6.930769917e-06
7.212799265e-06
7.187238992e-06
7.150340847e-06
7.104272565e-06
7.051730711e-06
6.996149755e-06
6.942034353e-06
6.895556305e-06
6.865606225e-06
7.146879232e-06
7.121440351e-06
7.084716954e-06
7.038865289e-06
6.986566864e-06
6.931236645e-06
6.877354845e-06
6.83106406e-06
6.801222662e-06
7.081552218e-06
7.056249596e-06
7.019722227e-06
6.974113474e-06
6.922088174e-06
6.867039885e-06
6.813422013e-06
6.767344713e-06
6.737629186e-06
7.016846193e-06
6.991693126e-06
6.955380813e-06
6.910038496e-06
6.858312898e-06
6.803574479e-06
6.75024773e-06
6.704407472e-06
6.674833299e-06
6.952785301e-06
6.927793637e-06
6.89171334e-06
6.846658426e-06
6.795256233e-06
6.740852623e-06
6.687841306e-06
6.64225919e-06
6.612840274e-06
6.88939019e-06
6.864570443e-06
6.828737215e-06
6.783988319e-06
6.732930586e-06
6.678883962e-06
6.62620973e-06
6.580904592e-06
6.551653383e-06
6.826678309e-06
6.802039767e-06
6.766466906e-06
6.722040483e-06
6.671345832e-06
6.617675832e-06
6.56535789e-06
6.520346482e-06
6.491274088e-06
6.764664187e-06
6.740215012e-06
6.704914208e-06
6.660824724e-06
6.610509544e-06
6.557233472e-06
6.505288781e-06
6.460585938e-06
6.431702236e-06
6.703359691e-06
6.679107013e-06
6.644088478e-06
6.60034858e-06
6.55042721e-06
6.497560232e-06
6.446003691e-06
6.40162249e-06
6.372936221e-06
6.64277426e-06
6.618724264e-06
6.583996859e-06
6.540617527e-06
6.491102431e-06
6.438657753e-06
6.387502374e-06
6.343454282e-06
6.31497315e-06
6.582915121e-06
6.559073127e-06
6.524644479e-06
6.48163517e-06
6.432537099e-06
6.380526139e-06
6.329783212e-06
6.28607822e-06
6.257808978e-06
6.523787478e-06
6.500158017e-06
6.466034627e-06
6.423403412e-06
6.374731556e-06
6.323164104e-06
6.272843346e-06
6.229490108e-06
6.201438643e-06
6.46539467e-06
6.44198156e-06
6.408168905e-06
6.365922593e-06
6.317684727e-06
6.266569096e-06
6.216678807e-06
6.173684759e-06
6.145856173e-06
6.40773831e-06
6.384544718e-06
6.35104735e-06
6.309191612e-06
6.261394231e-06
6.210737403e-06
6.161284599e-06
6.118656088e-06
6.091054778e-06
6.350818365e-06
6.327846872e-06
6.294668505e-06
6.253207986e-06
6.205856441e-06
6.155664206e-06
6.106654765e-06
6.064397166e-06
6.037026904e-06
6.294633187e-06
6.271885845e-06
6.239029447e-06
6.197967873e-06
6.151066491e-06
6.101343587e-06
6.052782383e-06
6.010900226e-06
5.983764241e-06
6.239179467e-06
6.216657855e-06
6.184125718e-06
6.143466001e-06
6.097018206e-06
6.047768449e-06
5.999659492e-06
5.958156586e-06
5.931257653e-06
6.184452076e-06
6.162157342e-06
6.129951156e-06
6.089695479e-06
6.043703905e-06
5.994930317e-06
5.947276887e-06
5.906156448e-06
5.879496981e-06
6.130443748e-06
6.108376647e-06
6.076497552e-06
6.036647445e-06
5.991114027e-06
5.942818951e-06
5.895623729e-06
5.854888517e-06
5.828470664e-06
6.077144564e-06
6.055305473e-06
6.023754087e-06
5.984310471e-06
5.939236513e-06
5.891421705e-06
5.844686888e-06
5.804339327e-06
5.778165075e-06
6.024541133e-06
6.002930042e-06
5.971706456e-06
5.932669646e-06
5.88805584e-06
5.840722512e-06
5.794449893e-06
5.754492178e-06
5.728563445e-06
5.972615402e-06
5.951231865e-06
5.920335572e-06
5.881705205e-06
5.837551571e-06
5.790700364e-06
5.744891342e-06
5.705325495e-06
5.679644205e-06
5.921342967e-06
5.900185986e-06
5.869615728e-06
5.83139058e-06
5.787696283e-06
5.741327106e-06
5.695982584e-06
5.656810426e-06
5.631378541e-06
5.870690733e-06
5.849758563e-06
5.819512047e-06
5.781689692e-06
5.738452673e-06
5.692564358e-06
5.647684462e-06
5.608907434e-06
5.583726888e-06
5.820613804e-06
5.799903625e-06
5.769977059e-06
5.732553303e-06
5.689769654e-06
5.644359323e-06
5.599942843e-06
5.561561599e-06
5.536634106e-06
5.771051401e-06
5.750558839e-06
5.720946233e-06
5.683914233e-06
5.641577207e-06
5.596639259e-06
5.552682706e-06
5.514696377e-06
5.490023017e-06
5.721921686e-06
5.701640114e-06
5.672332265e-06
5.635681259e-06
5.593779807e-06
5.549304377e-06
5.505800526e-06
5.468205522e-06
5.443786039e-06
5.673115317e-06
5.653034897e-06
5.624017988e-06
5.587731514e-06
5.54624823e-06
5.502218996e-06
5.459154749e-06
5.421942968e-06
5.397774665e-06
5.624487647e-06
5.604594059e-06
5.575847788e-06
5.5399013e-06
5.498809643e-06
5.455200826e-06
5.412554264e-06
5.375710556e-06
5.351786696e-06
5.575849519e-06
5.556122326e-06
5.527617502e-06
5.491975289e-06
5.451235963e-06
5.408008401e-06
5.365744866e-06
5.329243624e-06
5.305551232e-06
5.526956717e-06
5.507367334e-06
5.47906288e-06
5.443674216e-06
5.403230642e-06
5.360326828e-06
5.318393941e-06
5.282194709e-06
5.258711695e-06
5.47749824e-06
5.458007492e-06
5.429846837e-06
5.394641349e-06
5.354414182e-06
5.311752243e-06
5.27007381e-06
5.234115863e-06
5.210807434e-06
5.427083747e-06
5.407639038e-06
5.379545941e-06
5.344428215e-06
5.304308969e-06
5.261775636e-06
5.220244502e-06
5.184440442e-06
5.161254806e-06
5.375230716e-06
5.355762871e-06
5.327636748e-06
5.292480324e-06
5.25232426e-06
5.209767008e-06
5.168237041e-06
5.132465565e-06
5.109329046e-06
5.321352069e-06
5.301771962e-06
5.273482925e-06
5.238123915e-06
5.197742483e-06
5.154961191e-06
5.113238743e-06
5.077336911e-06
5.054148677e-06
5.264745281e-06
5.244940454e-06
5.21632433e-06
5.180555038e-06
5.139708353e-06
5.096446998e-06
5.054282412e-06
5.018037911e-06
4.994664658e-06
5.204584255e-06
5.184415767e-06
5.155269514e-06
5.118832601e-06
5.077222604e-06
5.033161755e-06
4.990241691e-06
4.953385834e-06
4.929656915e-06
5.13991552e-06
5.119215404e-06
5.089293414e-06
5.051877278e-06
5.009142438e-06
4.963893534e-06
4.919835149e-06
4.882037533e-06
4.857741197e-06
5.069660439e-06
5.048230187e-06
5.017242193e-06
4.978478463e-06
4.934191029e-06
4.887293574e-06
4.841641831e-06
4.802507849e-06
4.777389378e-06
4.992625352e-06
4.97023593e-06
4.937847218e-06
4.897311344e-06
4.850978428e-06
4.801901535e-06
4.754130981e-06
4.713203499e-06
4.686966184e-06
4.907521548e-06
4.883915493e-06
4.849750265e-06
4.806966262e-06
4.758035985e-06
4.70618571e-06
4.655708352e-06
4.612474919e-06
4.584784843e-06
4.812996802e-06
4.78789296e-06
4.751541658e-06
4.705992075e-06
4.653866059e-06
4.598599895e-06
4.544780573e-06
4.498687545e-06
4.469183084e-06
4.707679811e-06
4.680781208e-06
4.641812532e-06
4.592954562e-06
4.537007826e-06
4.477657545e-06
4.419837946e-06
4.370312564e-06
4.338619361e-06
4.590238156e-06
4.561243371e-06
4.519221501e-06
4.466509843e-06
4.406118768e-06
4.342022255e-06
4.279554218e-06
4.226035132e-06
4.191786878e-06
4.459449402e-06
4.428067574e-06