/*--------------------------------*- C++ -*----------------------------------*\
| =========                 |                                                 |
| \\      /  F ield         | OpenFOAM: The Open Source CFD Toolbox           |
|  \\    /   O peration     | Version:  2212                                  |
|   \\  /    A nd           | Website:  www.openfoam.com                      |
|    \\/     M anipulation  |                                                 |
\*---------------------------------------------------------------------------*/
FoamFile
{
    version     2.0;
    format      ascii;
    arch        "LSB;label=32;scalar=64";
    class       volScalarField;
    location    "20.00000000";
    object      CH3CO_0;
}
// * * * * * * * * * * * * * * * * * * * * * * * * * * * * * * * * * * * * * //

dimensions      [0 0 0 0 0 0 0];

internalField   nonuniform List<scalar> 
3000
(
3.265353406e-46
4.156522391e-46
5.706722455e-46
8.168381268e-46
1.188041153e-45
1.722297509e-45
2.446169451e-45
3.329694545e-45
4.162914022e-45
3.358274876e-45
4.308799908e-45
5.974298659e-45
8.649143654e-45
1.275579331e-44
1.884994492e-44
2.755489526e-44
3.915112219e-44
5.150599399e-44
1.602656722e-44
2.091842956e-44
2.967230808e-44
4.416330405e-44
6.729953206e-44
1.032365992e-43
1.56846214e-43
2.299622508e-43
3.048078557e-43
5.765418641e-44
7.695681719e-44
1.124812019e-43
1.734910401e-43
2.75019256e-43
4.389750098e-43
6.898931299e-43
1.030233879e-42
1.358867412e-42
1.824611088e-43
2.498729886e-43
3.777243835e-43
6.052991748e-43
9.977045417e-43
1.649066801e-42
2.655148988e-42
3.991267763e-42
5.215455658e-42
5.439799704e-43
7.647884666e-43
1.195645558e-42
1.986938551e-42
3.38982548e-42
5.759406019e-42
9.420035676e-42
1.417518119e-41
1.835770665e-41
1.583314112e-42
2.282385644e-42
3.680530985e-42
6.314143671e-42
1.10785521e-41
1.920518633e-41
3.170564852e-41
4.763132605e-41
6.11867218e-41
4.580968734e-42
6.752624475e-42
1.118459431e-41
1.969743104e-41
3.531681783e-41
6.209623072e-41
1.030655113e-40
1.544720215e-40
1.972053257e-40
1.329163833e-41
1.996733236e-41
3.380860962e-41
6.078248148e-41
1.107482729e-40
1.966165941e-40
3.273007685e-40
4.8941035e-40
6.219006015e-40
3.880819299e-41
5.92050377e-41
1.020063503e-40
1.862950039e-40
3.434156736e-40
6.13656018e-40
1.023091861e-39
1.526665199e-39
1.93311829e-39
1.141004747e-40
1.761952983e-40
3.076587921e-40
5.684729374e-40
1.056630783e-39
1.896238096e-39
3.163604932e-39
4.71247577e-39
5.951026491e-39
3.375890323e-40
5.261874908e-40
9.280575679e-40
1.729455024e-39
3.23325744e-39
5.818659522e-39
9.709582511e-39
1.444199228e-38
1.819962699e-38
1.004009412e-39
1.575918321e-39
2.800175597e-39
5.250176783e-39
9.854718711e-39
1.776624894e-38
2.964396683e-38
4.403771358e-38
5.540631772e-38
2.997950193e-39
4.730154641e-39
8.450232565e-39
1.591256513e-38
2.994972852e-38
5.405168738e-38
9.016471686e-38
1.338037219e-37
1.681415792e-37
8.978322957e-39
1.421987388e-38
2.550187454e-38
4.816806684e-38
9.082270476e-38
1.640070856e-37
2.734803166e-37
4.054749724e-37
5.091081361e-37
2.694501687e-38
4.279278452e-38
7.695524306e-38
1.456542347e-37
2.749470349e-37
4.966068066e-37
8.276971879e-37
1.226204861e-36
1.538979492e-36
8.098015569e-38
1.288597378e-37
2.321708695e-37
4.400251107e-37
8.311366947e-37
1.501087304e-36
2.500442817e-36
3.701630698e-36
4.646381484e-36
2.435901285e-37
3.881348638e-37
7.001873308e-37
1.32808247e-36
2.509042561e-36
4.529973117e-36
7.540495731e-36
1.115485814e-35
1.401186862e-35
7.330355772e-37
1.169035582e-36
2.110452774e-36
4.004274698e-36
7.56361555e-36
1.364725698e-35
2.269597993e-35
3.35445133e-35
4.215431814e-35
2.205957933e-36
3.519748945e-36
6.355992154e-36
1.205816216e-35
2.276343488e-35
4.103249164e-35
6.815321587e-35
1.005973425e-34
1.262847938e-34
6.635887754e-36
1.058953692e-35
1.912016588e-35
3.625317335e-35
6.836856192e-35
1.230611698e-34
2.04049339e-34
3.006576527e-34
3.76895433e-34
1.994504859e-35
3.182240476e-35
5.742534076e-35
1.087670201e-34
2.047947766e-34
3.678687036e-34
6.08529846e-34
8.944954895e-34
1.119131754e-33
5.986497162e-35
9.546357054e-35
1.72088807e-34
3.254048165e-34
6.112918497e-34
1.094916574e-33
1.805349887e-33
2.6450114e-33
3.300315423e-33
1.793194156e-34
2.856833209e-34
5.141531548e-34
9.698777128e-34
1.816137976e-33
3.240246421e-33
5.31910292e-33
7.758001036e-33
9.643879407e-33
5.356027402e-34
8.520894222e-34
1.529950265e-33
2.876392486e-33
5.362692119e-33
9.51731321e-33
1.553075537e-32
2.251473281e-32
2.7845252e-32
1.593577761e-33
2.530151553e-33
4.528372512e-33
8.475234245e-33
1.570930509e-32
2.768500735e-32
4.482384054e-32
6.445962401e-32
7.917852791e-32
4.717009047e-33
7.46894537e-33
1.331034779e-32
2.476352243e-32
4.55523406e-32
7.955004935e-32
1.274902523e-31
1.814334109e-31
2.208841848e-31
1.386915462e-32
2.188172846e-32
3.877714396e-32
7.159049038e-32
1.304101919e-31
2.251089963e-31
3.56124654e-31
5.001263537e-31
6.019973298e-31
4.043122537e-32
6.349348296e-32
1.11713237e-31
2.042408351e-31
3.675011949e-31
6.252105653e-31
9.732715067e-31
1.344508123e-30
1.595723305e-30
1.166057777e-31
1.820408685e-31
3.174122865e-31
5.732948172e-31
1.016009714e-30
1.697956263e-30
2.591858695e-30
3.509816436e-30
4.095300684e-30
3.318702094e-31
5.14304105e-31
8.868128244e-31
1.578055687e-30
2.745666747e-30
4.49141741e-30
6.697661639e-30
8.85868927e-30
1.013177326e-29
9.294599466e-31
1.427454884e-30
2.428260876e-30
4.24443567e-30
7.225076291e-30
1.152524747e-29
1.672584582e-29
2.15305024e-29
2.40686499e-29
2.553580686e-30
3.879318615e-30
6.49343809e-30
1.111320564e-29
1.844107312e-29
2.857702175e-29
4.021099283e-29
5.020987775e-29
5.472496807e-29
6.859035527e-30
1.028650033e-29
1.689530267e-29
2.821803913e-29
4.548035466e-29
6.821745185e-29
9.275784767e-29
1.12032988e-28
1.188229445e-28
1.794894302e-29
2.65166439e-29
4.261411614e-29
6.922667602e-29
1.079993559e-28
1.562829834e-28
2.047757409e-28
2.387319598e-28
2.460967216e-28
4.559537445e-29
6.621151637e-29
1.038187398e-28
1.635282649e-28
2.461797683e-28
3.427650865e-28
4.319193295e-28
4.854614945e-28
4.86247274e-28
1.120436556e-28
1.595918043e-28
2.435016576e-28
3.708561238e-28
5.373876729e-28
7.185683812e-28
8.698887527e-28
9.424838636e-28
9.17829501e-28
2.654744289e-28
3.701672115e-28
5.482964777e-28
8.056099057e-28
1.121691507e-27
1.439110081e-27
1.673799334e-27
1.749790146e-27
1.659371827e-27
6.047824826e-28
8.240992383e-28
1.182770108e-27
1.673930057e-27
2.237666883e-27
2.755037312e-27
3.08221565e-27
3.115231395e-27
2.883797273e-27
1.321802934e-27
1.757778017e-27
2.441316181e-27
3.325598208e-27
4.268934302e-27
5.050220065e-27
5.446848769e-27
5.33814494e-27
4.838594215e-27
2.767877867e-27
3.588997158e-27
4.820714064e-27
6.321762643e-27
7.801967262e-27
8.88880736e-27
9.271362064e-27
8.842783675e-27
7.876023265e-27
5.551696606e-27
7.016533787e-27
9.116013136e-27
1.152061742e-26
1.369897266e-26
1.507757826e-26
1.526681365e-26
1.422882224e-26
1.249974587e-26
1.067668148e-26
1.315502077e-26
1.654662287e-26
2.019030437e-26
2.319849377e-26
2.475791661e-26
2.44370085e-26
2.234969046e-26
1.943652787e-26
1.973429818e-26
2.372308676e-26
2.893468877e-26
3.417640136e-26
3.807387483e-26
3.95553793e-26
3.821575683e-26
3.443410281e-26
2.974402815e-26
3.519325724e-26
4.133163149e-26
4.899189995e-26
5.618707479e-26
6.091224304e-26
6.184066313e-26
5.869545508e-26
5.227488687e-26
4.496815795e-26
6.087243869e-26
6.997423298e-26
8.083242828e-26
9.032329444e-26
9.56396023e-26
9.521271701e-26
8.903082779e-26
7.853468763e-26
6.737111586e-26
1.027606539e-25
1.159069158e-25
1.309267598e-25
1.43091722e-25
1.485413293e-25
1.4544664e-25
1.342269828e-25
1.173160958e-25
1.003118692e-25
1.70440339e-25
1.892132472e-25
2.098443423e-25
2.253089313e-25
2.302509684e-25
2.224354636e-25
2.028714062e-25
1.755462391e-25
1.49285625e-25
2.794608885e-25
3.064586197e-25
3.352784507e-25
3.555175082e-25
3.595048433e-25
3.44178158e-25
3.112620151e-25
2.672806984e-25
2.266365896e-25
4.550559905e-25
4.949059733e-25
5.369531792e-25
5.657107188e-25
5.69789096e-25
5.446193722e-25
4.933672376e-25
4.282373605e-25
3.767597761e-25
7.375840828e-25
7.987928159e-25
8.641226074e-25
9.104328867e-25
9.206802949e-25
8.890693909e-25
8.2581575e-25
7.606037711e-25
6.955268249e-25
1.190033057e-24
1.288347453e-24
1.397079719e-24
1.48232471e-24
1.521116358e-24
1.515848695e-24
1.503477181e-24
1.455886359e-24
1.376404448e-24
1.908324002e-24
2.073531099e-24
2.267968541e-24
2.447811842e-24
2.601103858e-24
2.770482379e-24
2.895247513e-24
2.920974353e-24
2.841468671e-24
3.039954597e-24
3.333310056e-24
3.716955829e-24
4.168884003e-24
4.722002702e-24
5.289168849e-24
5.760089413e-24
6.014414037e-24
6.001453682e-24
4.849259674e-24
5.421494239e-24
6.319075105e-24
7.500587186e-24
8.887142665e-24
1.033595204e-23
1.163095683e-23
1.250219715e-23
1.276506441e-23
8.050271468e-24
9.358446368e-24
1.134268941e-23
1.394898119e-23
1.704784005e-23
2.03824793e-23
2.352335421e-23
2.588911042e-23
2.697311806e-23
1.42839075e-23
1.695030793e-23
2.101725475e-23
2.642712421e-23
3.29755209e-23
4.019061544e-23
4.723199635e-23
5.293944155e-23
5.617878509e-23
2.63859892e-23
3.163612317e-23
3.971777503e-23
5.059409132e-23
6.392981246e-23
7.884494707e-23
9.378767376e-23
1.067840987e-22
1.156983636e-22
5.007278482e-23
6.02580022e-23
7.603486069e-23
9.740630478e-23
1.237736104e-22
1.535752691e-22
1.844805266e-22
2.142627655e-22
2.392318287e-22
9.680805013e-23
1.163423215e-22
1.466490778e-22
1.877381084e-22
2.385848388e-22
2.971353318e-22
3.620204743e-22
4.342310744e-22
5.063728863e-22
1.891020963e-22
2.25972514e-22
2.83031927e-22
3.602959443e-22
4.56852495e-22
5.731011426e-22
7.165151798e-22
9.017736876e-22
1.108564995e-21
3.692729409e-22
4.373147513e-22
5.423493536e-22
6.853509501e-22
8.696262922e-22
1.109821053e-21
1.445265239e-21
1.928678424e-21
2.496094748e-21
7.127344553e-22
8.35508044e-22
1.025959364e-21
1.291264555e-21
1.653891845e-21
2.175856489e-21
2.983399899e-21
4.217453508e-21
5.684338998e-21
1.349294348e-21
1.568694124e-21
1.915605106e-21
2.420849049e-21
3.166322117e-21
4.33942047e-21
6.272216996e-21
9.288527878e-21
1.284914952e-20
2.504593353e-21
2.901543931e-21
3.550369971e-21
4.550427541e-21
6.135825737e-21
8.786428341e-21
1.327831981e-20
2.027865251e-20
2.84064105e-20
4.588362572e-21
5.328116142e-21
6.585058238e-21
8.6278599e-21
1.203847215e-20
1.792181406e-20
2.793918139e-20
4.333823961e-20
6.084084243e-20
8.372974538e-21
9.795873166e-21
1.229824169e-20
1.652632307e-20
2.379377005e-20
3.644591894e-20
5.778385983e-20
8.992540594e-20
1.256083744e-19
1.533506467e-20
1.813047806e-20
2.31684704e-20
3.18739926e-20
4.699464875e-20
7.317567018e-20
1.165499281e-19
1.803480536e-19
2.494647797e-19
2.829011763e-20
3.381608303e-20
4.391109717e-20
6.150095477e-20
9.196764228e-20
1.439575355e-19
2.281729933e-19
3.489231334e-19
4.765527107e-19
5.253142094e-20
6.337153047e-20
8.325806811e-20
1.17835433e-19
1.770424866e-19
2.760794635e-19
4.325446214e-19
6.510892283e-19
8.765011755e-19
9.778211806e-20
1.186612208e-19
1.568590095e-19
2.22667543e-19
3.334736987e-19
5.146119348e-19
7.934030532e-19
1.172719804e-18
1.554661952e-18
1.813708662e-19
2.205757851e-19
2.917664571e-19
4.127592616e-19
6.124773974e-19
9.310764031e-19
1.408631881e-18
2.041747613e-18
2.664446618e-18
3.331283792e-19
4.045906802e-19
5.33015078e-19
7.477870475e-19
1.094803824e-18
1.634741349e-18
2.423097269e-18
3.442042483e-18
4.421562067e-18
6.025422497e-19
7.287270966e-19
9.527844724e-19
1.321035189e-18
1.903144196e-18
2.786678017e-18
4.043962202e-18
5.629301294e-18
7.119790425e-18
1.068668994e-18
1.284371405e-18
1.662523948e-18
2.273096446e-18
3.217462213e-18
4.616470949e-18
6.558182811e-18
8.948514794e-18
1.114781936e-17
1.853160529e-18
2.210235414e-18
2.828200883e-18
3.808575325e-18
5.293045995e-18
7.441175715e-18
1.035161544e-17
1.385235765e-17
1.700647397e-17
3.136505089e-18
3.709453013e-18
4.688511257e-18
6.215433553e-18
8.480703247e-18
1.168575174e-17
1.592883671e-17
2.091958127e-17
2.532549086e-17
5.177215374e-18
6.069419079e-18
7.575476467e-18
9.88618515e-18
1.324808862e-17
1.790378351e-17
2.393240183e-17
3.087215804e-17
3.687868073e-17
8.33324374e-18
9.683511951e-18
1.193637664e-17
1.533967491e-17
2.020069302e-17
2.679687176e-17
3.515986816e-17
4.458955524e-17
5.259596903e-17
1.30844092e-17
1.507334859e-17
1.835548957e-17
2.324171648e-17
3.010060326e-17
3.923069752e-17
5.057656963e-17
6.311819482e-17
7.357048132e-17
2.005414731e-17
2.290976978e-17
2.757369061e-17
3.442250857e-17
4.388085385e-17
5.624555234e-17
7.132198353e-17
8.76740484e-17
1.010587488e-16
3.002852321e-17
3.403042757e-17
4.0503716e-17
4.988859366e-17
6.265316065e-17
7.905923233e-17
9.870777714e-17
1.196367091e-16
1.364728104e-16
4.397027248e-17
4.945174212e-17
5.823889378e-17
7.082726472e-17
8.770713168e-17
1.090606847e-16
1.342063311e-16
1.605342047e-16
1.813605059e-16
6.302573919e-17
7.037319116e-17
8.205347413e-17
9.860180841e-17
1.204996739e-16
1.477934395e-16
1.794288271e-16
2.120143292e-16
2.373801304e-16
8.852302325e-17
9.817244302e-17
1.133933945e-16
1.347368806e-16
1.626345381e-16
1.969296897e-16
2.360921961e-16
2.758153471e-16
3.062664008e-16
1.219604309e-16
1.343907228e-16
1.538573449e-16
1.808944103e-16
2.158330885e-16
2.582335246e-16
3.0598612e-16
3.537279768e-16
3.897990037e-16
1.649854073e-16
1.807089339e-16
2.051695858e-16
2.388416078e-16
2.81894802e-16
3.335255173e-16
3.909308565e-16
4.475571364e-16
4.897557665e-16
2.193656169e-16
2.389155612e-16
2.69140267e-16
3.104087369e-16
3.626614445e-16
4.246399688e-16
4.927376464e-16
5.590660979e-16
6.078405783e-16
2.869472672e-16
3.108654473e-16
3.476327037e-16
3.974565204e-16
4.599767759e-16
5.333896116e-16
6.131542421e-16
6.899103302e-16
7.456491114e-16
3.696251546e-16
3.984486019e-16
4.425239153e-16
5.018371781e-16
5.75655768e-16
6.615052174e-16
7.537957031e-16
8.416088811e-16
9.046297089e-16
4.693044524e-16
5.035541411e-16
5.556776707e-16
6.253702828e-16
7.114087375e-16
8.105677031e-16
9.161229975e-16
1.015508547e-15
1.086049638e-15
5.878823085e-16
6.280513454e-16
6.888919825e-16
7.697279679e-16
8.687827512e-16
9.819917619e-16
1.101409663e-15
1.212753963e-15
1.290967387e-15
7.271566425e-16
7.736590783e-16
8.437842965e-16
9.364179855e-16
1.049149925e-15
1.176994947e-15
1.310714567e-15
1.434263825e-15
1.52021107e-15
8.887359981e-16
9.419236335e-16
1.021805396e-15
1.126762391e-15
1.253676738e-15
1.396571669e-15
1.544860312e-15
1.680712973e-15
1.774362682e-15
1.074056096e-15
1.134206657e-15
1.224205877e-15
1.341867128e-15
1.48329835e-15
1.64147248e-15
1.804417178e-15
1.95252007e-15
2.053747904e-15
1.284343106e-15
1.351651398e-15
1.452006601e-15
1.582596757e-15
1.738698245e-15
1.912188803e-15
2.089692571e-15
2.249840745e-15
2.358431267e-15
1.520582729e-15
1.595154538e-15
1.705974387e-15
1.849554665e-15
2.020293464e-15
2.208943269e-15
2.400725991e-15
2.572566108e-15
2.688216579e-15
1.783495385e-15
1.865344037e-15
1.986603627e-15
2.143069234e-15
2.328225737e-15
2.531685806e-15
2.737289536e-15
2.920326563e-15
3.04265247e-15
2.073518026e-15
2.162563562e-15
2.294104384e-15
2.463186328e-15
2.662358732e-15
2.880095547e-15
3.098893871e-15
3.292500784e-15
3.421042906e-15
2.390793079e-15
2.486863912e-15
2.628397291e-15
2.809668329e-15
3.022281483e-15
3.253588471e-15
3.484799481e-15
3.688229545e-15
3.822462311e-15
2.735164788e-15
2.838001661e-15
2.989115386e-15
3.181999695e-15
3.407317817e-15
3.651330478e-15
3.894032775e-15
4.106433943e-15
4.245774802e-15
3.106182962e-15
3.215444953e-15
3.375612681e-15
3.579398734e-15
3.816541407e-15
4.072255402e-15
4.32540647e-15
4.545837361e-15
4.689656868e-15
3.503113791e-15
3.618386043e-15
3.786979028e-15
4.000835057e-15
4.248795756e-15
4.51508722e-15
4.77754348e-15
5.00499039e-15
5.152622687e-15
3.9249571e-15
4.045759899e-15
4.222060496e-15
4.445051882e-15
4.702718307e-15
4.9783656e-15
5.248903433e-15
5.482297808e-15
5.633051207e-15
4.370469125e-15
4.496267951e-15
4.679484333e-15
4.910592234e-15
5.176767674e-15
5.460473828e-15
5.73781088e-15
5.976046756e-15
6.129214135e-15
4.838189712e-15
4.968405863e-15
5.157687414e-15
5.395827958e-15
5.669252981e-15
5.959668124e-15
6.242484279e-15
6.484435208e-15
6.63930397e-15
5.326472745e-15
5.460494162e-15
5.654947016e-15
5.898990465e-15
6.178364274e-15
6.474107415e-15
6.761064907e-15
7.005599978e-15
7.161461364e-15
5.833518582e-15
5.970710552e-15
6.169412822e-15
6.418202147e-15
6.702203055e-15
7.001882712e-15
7.291644921e-15
7.537643565e-15
7.693801163e-15
6.357407352e-15
6.497122786e-15
6.699139095e-15
6.951507547e-15
7.23881211e-15
7.541045361e-15
7.83229397e-15
8.07865931e-15
8.234436642e-15
6.896132056e-15
7.037721126e-15
7.242116131e-15
7.496903427e-15
7.78620391e-15
8.089633569e-15
8.381083848e-15
8.626754442e-15
8.781501549e-15
7.447630598e-15
7.590449543e-15
7.796300215e-15
8.05236712e-15
8.342387034e-15
8.645696763e-15
8.936110827e-15
9.180070722e-15
9.333169719e-15
8.009815997e-15
8.153234986e-15
8.359641492e-15
8.615882617e-15
8.905390212e-15
9.207317447e-15
9.495515446e-15
9.736802518e-15
9.887672125e-15
8.580604245e-15
8.724014218e-15
8.930109324e-15
9.185464057e-15
9.473283699e-15
9.772630398e-15
1.005749963e-14
1.029521224e-14
1.044331131e-14
9.157939407e-15
9.300757859e-15
9.505714814e-15
9.759176395e-15
1.004419785e-14
1.033983907e-14
1.06203411e-14
1.085364316e-14
1.099847326e-14
9.739815722e-15
9.881491446e-15
1.008453038e-14
1.033515313e-14
1.061633881e-14
1.090722927e-14
1.118240518e-14
1.141052968e-14
1.155163679e-14
1.032429659e-14
1.04643134e-14
1.066470627e-14
1.09116111e-14
1.118800145e-14
1.147318011e-14
1.174215398e-14
1.196440518e-14
1.210138058e-14
1.090953043e-14
1.104740996e-14
1.124448419e-14
1.148686246e-14
1.17575795e-14
1.20361725e-14
1.22981533e-14
1.251390764e-14
1.264638814e-14
1.149376352e-14
1.162906709e-14
1.182220792e-14
1.205932387e-14
1.232357325e-14
1.259479516e-14
1.28490773e-14
1.305778328e-14
1.318545072e-14
1.207534994e-14
1.220767965e-14
1.239633142e-14
1.262752324e-14
1.28845948e-14
1.314774859e-14
1.33937112e-14
1.359488823e-14
1.371746857e-14
1.265275879e-14
1.278175792e-14
1.296542437e-14
1.319010411e-14
1.343937126e-14
1.369384702e-14
1.393095219e-14
1.412418877e-14
1.424145062e-14
1.322457901e-14
1.334993178e-14
1.352817546e-14
1.374582797e-14
1.398674602e-14
1.423201873e-14
1.44598089e-14
1.464476001e-14
1.47565129e-14
1.378952192e-14
1.391095275e-14
1.408339374e-14
1.429357479e-14
1.452567837e-14
1.476130483e-14
1.497939947e-14
1.515578357e-14
1.526187583e-14
1.43464219e-14
1.446369419e-14
1.463000823e-14
1.483234188e-14
1.505524175e-14
1.528085682e-14
1.548894859e-14
1.565654408e-14
1.575686062e-14
1.489423533e-14
1.500714993e-14
1.516706604e-14
1.536124153e-14
1.557462075e-14
1.578993313e-14
1.598778356e-14
1.614642511e-14
1.624088494e-14
1.543203812e-14
1.554043147e-14
1.569372925e-14
1.587949744e-14
1.608310714e-14
1.628789481e-14
1.647532977e-14
1.66249043e-14
1.671345801e-14
1.595902204e-14
1.606276419e-14
1.620927078e-14
1.63864403e-14
1.658009522e-14
1.677420056e-14
1.695110548e-14
1.709154813e-14
1.717417535e-14
1.647449017e-14
1.657348254e-14
1.671306942e-14
1.688150262e-14
1.706507644e-14
1.724840128e-14
1.741471634e-14
1.754600637e-14
1.762271316e-14
1.697785152e-14
1.707202464e-14
1.720460434e-14
1.736421314e-14
1.753763368e-14
1.771013427e-14
1.786584957e-14
1.79880063e-14
1.805882263e-14
1.746861512e-14
1.755792632e-14
1.768344906e-14
1.783419074e-14
1.799743522e-14
1.815911727e-14
1.830426804e-14
1.841734684e-14
1.848232409e-14
1.794638377e-14
1.803081482e-14
1.814926514e-14
1.829113819e-14
1.844422858e-14
1.859514231e-14
1.872980428e-14
1.883389274e-14
1.889310133e-14
1.841084747e-14
1.849040231e-14
1.860179579e-14
1.873483583e-14
1.887783419e-14
1.901806966e-14
1.914235459e-14
1.923756875e-14
1.929109584e-14
1.886177682e-14
1.893647931e-14
1.904085935e-14
1.916513517e-14
1.929813931e-14
1.942782183e-14
1.954187318e-14
1.962835403e-14
1.967630135e-14
1.929901635e-14
1.93689081e-14
1.946634282e-14
1.958195263e-14
1.970509182e-14
1.982437765e-14
1.992836654e-14
2.000627668e-14
2.004875848e-14
1.972247798e-14
1.978761627e-14
1.98781956e-14
1.998526338e-14
2.009869441e-14
2.020776665e-14
2.030188804e-14
2.037140856e-14
2.040854971e-14
2.013213459e-14
2.019259044e-14
2.027642329e-14
2.037509543e-14
2.047899885e-14
2.05780636e-14
2.066253273e-14
2.072386026e-14
2.075579449e-14
2.052801391e-14
2.058387018e-14
2.066108187e-14
2.075152398e-14
2.084610054e-14
2.093538338e-14
2.101043247e-14
2.106377653e-14
2.109064476e-14
2.091019252e-14
2.096154224e-14
2.103227204e-14
2.111466596e-14
2.120013343e-14
2.12798761e-14
2.134575129e-14
2.139133179e-14
2.141328068e-14
2.127879031e-14
2.132573506e-14
2.139013392e-14
2.146467505e-14
2.154126518e-14
2.161172256e-14
2.166868112e-14
2.170672613e-14
2.172390669e-14
2.163396515e-14
2.16766136e-14
2.173484208e-14
2.180173684e-14
2.186969262e-14
2.193112999e-14
2.197943778e-14
2.201018147e-14
2.202274785e-14
2.197590795e-14
2.201437447e-14
2.206660088e-14
2.212606441e-14
2.218563762e-14
2.223832813e-14
2.227825733e-14
2.230193812e-14
2.231004648e-14
2.230483806e-14
2.233924154e-14
2.238564017e-14
2.243789427e-14
2.248934317e-14
2.253356562e-14
2.256539264e-14
2.258225154e-14
2.258605909e-14
2.262099897e-14
2.265146169e-14
2.269221127e-14
2.273748256e-14
2.27810699e-14
2.281710667e-14
2.284111032e-14
2.28513895e-14
2.28510536e-14
2.292465445e-14
2.295130109e-14
2.298658338e-14
2.302510159e-14
2.306109277e-14
2.308922808e-14
2.310568794e-14
2.310962937e-14
2.310530677e-14
2.321608493e-14
2.323904165e-14
2.326904022e-14
2.33010367e-14
2.33296982e-14
2.335021646e-14
2.335941144e-14
2.335725581e-14
2.334910196e-14
2.349558424e-14
2.351497791e-14
2.353987702e-14
2.356558344e-14
2.358718137e-14
2.360036584e-14
2.360257291e-14
2.359455858e-14
2.358272707e-14
2.376345668e-14
2.377941419e-14
2.379939778e-14
2.381904498e-14
2.383384387e-14
2.383997538e-14
2.383546849e-14
2.382183069e-14
2.380647273e-14
2.402001435e-14
2.403266197e-14
2.404791288e-14
2.406172984e-14
2.406999153e-14
2.406934749e-14
2.405839662e-14
2.403936666e-14
2.402063067e-14
2.426557479e-14
2.427503766e-14
2.428573683e-14
2.42939498e-14
2.429593256e-14
2.428878601e-14
2.427165639e-14
2.424746109e-14
2.422549232e-14
2.450045885e-14
2.450686051e-14
2.451318636e-14
2.451601815e-14
2.451197586e-14
2.449859474e-14
2.447554617e-14
2.44464073e-14
2.442134756e-14
2.472498882e-14
2.472845082e-14
2.473057875e-14
2.472824805e-14
2.471842954e-14
2.469907604e-14
2.467036234e-14
2.463649625e-14
2.460848365e-14
2.493948682e-14
2.494012838e-14
2.493823026e-14
2.493095116e-14
2.491559967e-14
2.489052972e-14
2.485639827e-14
2.481801551e-14
2.478718431e-14
2.514427329e-14
2.514221106e-14
2.51364549e-14
2.512443642e-14
2.510378916e-14
2.507325199e-14
2.50339434e-14
2.499124848e-14
2.49577289e-14
2.533966585e-14
2.533501365e-14
2.532556325e-14
2.530900901e-14
2.528329679e-14
2.524753463e-14
2.520328242e-14
2.515647362e-14
2.512039177e-14
2.552597813e-14
2.551884677e-14
2.550586154e-14
2.548496947e-14
2.545441642e-14
2.541366424e-14
2.536469469e-14
2.53139639e-14
2.527544172e-14
2.570351891e-14
2.569401606e-14
2.567765078e-14
2.565261295e-14
2.561743634e-14
2.557192166e-14
2.551845365e-14
2.546398632e-14
2.54231415e-14
2.587259132e-14
2.586082143e-14
2.584122613e-14
2.581222856e-14
2.577263866e-14
2.572258144e-14
2.566482641e-14
2.560680148e-14
2.556374752e-14
2.603349223e-14
2.601955642e-14
2.59968763e-14
2.59640989e-14
2.592029887e-14
2.58659115e-14
2.580407337e-14
2.574266329e-14
2.569750946e-14
2.618651171e-14
2.617050775e-14
2.614488312e-14
2.610849961e-14
2.60606855e-14
2.600217275e-14
2.593644797e-14
2.587181875e-14
2.582467016e-14
2.633193263e-14
2.63139549e-14
2.628552115e-14
2.624569907e-14
2.619405984e-14
2.613161889e-14
2.606219651e-14
2.599450775e-14
2.594546538e-14
2.64700303e-14
2.645016982e-14
2.641905744e-14
2.637595818e-14
2.632067569e-14
2.625449623e-14
2.618155796e-14
2.611096299e-14
2.606012376e-14
2.660107228e-14
2.657941668e-14
2.654575128e-14
2.649953014e-14
2.644077929e-14
2.637104358e-14
2.629476393e-14
2.622140986e-14
2.616886675e-14
2.672531813e-14
2.670195173e-14
2.666585413e-14
2.661666036e-14
2.655460917e-14
2.648149222e-14
2.64020386e-14
2.632606652e-14
2.62719086e-14
2.684301939e-14
2.681802322e-14
2.677960949e-14
2.672758642e-14
2.666239615e-14
2.658606582e-14
2.650359875e-14
2.642514382e-14
2.636945638e-14
2.695441944e-14
2.692787132e-14
2.688725286e-14
2.683253805e-14
2.676436335e-14
2.668498055e-14
2.659965378e-14
2.65188454e-14
2.646171008e-14
2.705975357e-14
2.703172816e-14
2.698901184e-14
2.693173713e-14
2.686072622e-14
2.677844506e-14
2.669040579e-14
2.660736779e-14
2.654886263e-14
2.715924894e-14
2.712981781e-14
2.708510605e-14
2.70253978e-14
2.695169261e-14
2.686666061e-14
2.677604966e-14
2.669090044e-14
2.663110005e-14
2.725312469e-14
2.722235641e-14
2.717574732e-14
2.711372649e-14
2.703746287e-14
2.694982115e-14
2.685677319e-14
2.676962591e-14
2.670860156e-14
2.734159199e-14
2.730955222e-14
2.726113971e-14
2.719692206e-14
2.711822995e-14
2.702811346e-14
2.693275718e-14
2.684371994e-14
2.678153968e-14
2.742485413e-14
2.739160571e-14
2.734147962e-14
2.727517587e-14
2.719417953e-14
2.710171723e-14
2.700417558e-14
2.691335162e-14
2.685008042e-14
2.750310663e-14
2.746870967e-14
2.741695592e-14
2.734867192e-14
2.726549008e-14
2.71708052e-14
2.70711956e-14
2.697868347e-14
2.691438332e-14
2.75765373e-14
2.754104924e-14
2.748774998e-14
2.741758689e-14
2.7332333e-14
2.723554322e-14
2.71339778e-14
2.703987159e-14
2.697460163e-14
2.764532623e-14
2.7608802e-14
2.75540357e-14
2.748209018e-14
2.739487262e-14
2.729609032e-14
2.719267614e-14
2.709706564e-14
2.703088235e-14
2.770964578e-14
2.767213784e-14
2.761597948e-14
2.754234384e-14
2.745326611e-14
2.735259865e-14
2.724743792e-14
2.715040891e-14
2.708336618e-14
2.776966031e-14
2.773121877e-14
2.767373996e-14
2.759850239e-14
2.750766334e-14
2.740521324e-14
2.729840365e-14
2.720003806e-14
2.713218741e-14
2.782552583e-14
2.778619853e-14
2.772746764e-14
2.765071233e-14
2.755820641e-14
2.745407165e-14
2.734570657e-14
2.724608279e-14
2.717747355e-14
2.787738921e-14
2.783722179e-14
2.777730407e-14
2.769911142e-14
2.760502883e-14
2.749930309e-14
2.738947191e-14
2.728866506e-14
2.721934454e-14
2.792538699e-14
2.788442292e-14
2.782338056e-14
2.774382725e-14
2.764825417e-14
2.754102707e-14
2.742981545e-14
2.732789771e-14
2.725791148e-14
2.796964337e-14
2.7927924e-14
2.786581616e-14
2.778497524e-14
2.768799388e-14
2.757935115e-14
2.746684131e-14
2.736388221e-14
2.729327434e-14
2.801026738e-14
2.796783177e-14
2.790471446e-14
2.782265525e-14
2.772434388e-14
2.761436745e-14
2.750063834e-14
2.739670503e-14
2.732551838e-14
2.804734845e-14
2.800423323e-14
2.794015907e-14
2.785694684e-14
2.775737947e-14
2.764614728e-14
2.75312746e-14
2.742643204e-14
2.735470847e-14
2.808095029e-14
2.803718921e-14
2.79722068e-14
2.788790214e-14
2.778714791e-14
2.767473339e-14
2.755878923e-14
2.745310012e-14
2.738088064e-14
2.811110219e-14
2.80667254e-14
2.800087833e-14
2.791553593e-14
2.781365783e-14
2.770012872e-14
2.758318068e-14
2.747670494e-14
2.740402955e-14
2.813778711e-14
2.809282001e-14
2.802614521e-14
2.793981184e-14
2.783686449e-14
2.772228073e-14
2.760439011e-14
2.749718365e-14
2.742409087e-14
2.816092574e-14
2.811538719e-14
2.804791238e-14
2.796062374e-14
2.785664997e-14
2.774106015e-14
2.762227877e-14
2.751439114e-14
2.744091675e-14
2.818035563e-14
2.813425536e-14
2.806599526e-14
2.79777713e-14
2.787279673e-14
2.775623263e-14
2.763659778e-14
2.752806814e-14
2.745424296e-14
2.819580438e-14
2.814913927e-14
2.808009025e-14
2.799092839e-14
2.78849538e-14
2.776742225e-14
2.764694898e-14
2.753779985e-14
2.746364604e-14
2.820685605e-14
2.815960513e-14
2.808973783e-14
2.799960361e-14
2.789259409e-14
2.777406553e-14
2.765273556e-14
2.754296353e-14
2.746848893e-14
2.821291004e-14
2.816502777e-14
2.809427724e-14
2.800309184e-14
2.789496227e-14
2.77753551e-14
2.76531015e-14
2.754266422e-14
2.746785422e-14
2.821313194e-14
2.816453957e-14
2.809279265e-14
2.800041663e-14
2.789101269e-14
2.777017274e-14
2.764685966e-14
2.753565829e-14
2.746046468e-14
2.820639636e-14
2.815697118e-14
2.808405053e-14
2.799026351e-14
2.787933778e-14
2.775701232e-14
2.763240896e-14
2.752026554e-14
2.744459186e-14
2.819122231e-14
2.814078455e-14
2.806642943e-14
2.79709053e-14
2.785808815e-14
2.773389398e-14
2.760764267e-14
2.749427191e-14
2.741795507e-14
2.81657025e-14
2.811400001e-14
2.803784366e-14
2.794012156e-14
2.782488685e-14
2.769827276e-14
2.756985097e-14
2.745482672e-14
2.737761484e-14
2.812742911e-14
2.807412002e-14
2.799566407e-14
2.789511551e-14
2.777674182e-14
2.764694598e-14
2.751562328e-14
2.739834004e-14
2.731986688e-14
2.807341958e-14
2.801805347e-14
2.793664023e-14
2.783243355e-14
2.770996223e-14
2.75759661e-14
2.74407574e-14
2.732038854e-14
2.724014547e-14
2.80000475e-14
2.794204604e-14
2.785682996e-14
2.774789382e-14
2.762008612e-14
2.748056744e-14
2.734018524e-14
2.721564008e-14
2.713294719e-14
2.790298527e-14
2.784162344e-14
2.775154383e-14
2.763653248e-14
2.750182889e-14
2.735511723e-14
2.720792672e-14
2.707781014e-14
2.699178872e-14
2.777716638e-14
2.771155629e-14
2.761531375e-14
2.749257744e-14
2.734906363e-14
2.719310367e-14
2.703708565e-14
2.689966473e-14
2.680921449e-14
2.761677686e-14
2.754585622e-14
2.744189635e-14
2.730946145e-14
2.715484595e-14
2.69871742e-14
2.681990241e-14
2.667308609e-14
2.65768709e-14
2.741528608e-14
2.733781404e-14
2.722432228e-14
2.707988622e-14
2.691149649e-14
2.672923877e-14
2.654787863e-14
2.638921716e-14
2.628566424e-14
2.716552782e-14
2.708009109e-14
2.69550031e-14
2.679594986e-14
2.661075332e-14
2.641065082e-14
2.621198805e-14
2.603869944e-14
2.592601689e-14
2.685984181e-14
2.676487409e-14
2.662590617e-14
2.644934822e-14
2.624400537e-14
2.602247676e-14
2.580298353e-14
2.561201448e-14
2.548823223e-14
2.649028413e-14
2.638410178e-14
2.622880557e-14
2.603165748e-14
2.580261314e-14
2.555585964e-14
2.531180514e-14
2.509993251e-14
2.496297091e-14
2.604891184e-14
2.592976801e-14
2.575561255e-14
2.553470027e-14
2.52783175e-14
2.500247536e-14
2.473008521e-14
2.449406177e-14
2.434183034e-14
2.552814194e-14
2.539430034e-14