/*--------------------------------*- C++ -*----------------------------------*\
| =========                 |                                                 |
| \\      /  F ield         | OpenFOAM: The Open Source CFD Toolbox           |
|  \\    /   O peration     | Version:  2212                                  |
|   \\  /    A nd           | Website:  www.openfoam.com                      |
|    \\/     M anipulation  |                                                 |
\*---------------------------------------------------------------------------*/
FoamFile
{
    version     2.0;
    format      ascii;
    arch        "LSB;label=32;scalar=64";
    class       volScalarField;
    location    "20.00000000";
    object      CH3CO;
}
// * * * * * * * * * * * * * * * * * * * * * * * * * * * * * * * * * * * * * //

dimensions      [0 0 0 0 0 0 0];

internalField   nonuniform List<scalar> 
3000
(
3.265349115e-46
4.156523072e-46
5.706735573e-46
8.168420471e-46
1.188049718e-45
1.722313099e-45
2.446194088e-45
3.329729281e-45
4.162957856e-45
3.358271288e-45
4.308801536e-45
5.974313088e-45
8.649184495e-45
1.275588036e-44
1.885010081e-44
2.755514107e-44
3.915148018e-44
5.150647796e-44
1.602655528e-44
2.091844111e-44
2.967237619e-44
4.416348632e-44
6.729990734e-44
1.032372493e-43
1.568472316e-43
2.299638658e-43
3.048103823e-43
5.765415325e-44
7.695684959e-44
1.124813908e-43
1.734915365e-43
2.750202444e-43
4.389766907e-43
6.89896174e-43
1.030241072e-42
1.358882602e-42
1.824610049e-43
2.498730038e-43
3.777246885e-43
6.053000479e-43
9.977063429e-43
1.649070342e-42
2.655158558e-42
3.991298724e-42
5.215524518e-42
5.439796438e-43
7.647882488e-43
1.195645652e-42
1.986939319e-42
3.389827289e-42
5.759407981e-42
9.420029605e-42
1.41751371e-41
1.835758944e-41
1.583313239e-42
2.28238463e-42
3.680529758e-42
6.314142135e-42
1.107855009e-41
1.920518318e-41
3.170563884e-41
4.763128791e-41
6.118663185e-41
4.580966887e-42
6.752621829e-42
1.118458996e-41
1.969742322e-41
3.531680348e-41
6.209620579e-41
1.030654711e-40
1.544719584e-40
1.972052363e-40
1.329163531e-41
1.996732758e-41
3.380860093e-41
6.078246465e-41
1.107482407e-40
1.966165368e-40
3.273006783e-40
4.894102251e-40
6.219004514e-40
3.880818943e-41
5.920503166e-41
1.020063387e-40
1.862949809e-40
3.434156294e-40
6.136559417e-40
1.023091746e-39
1.526665052e-39
1.933118126e-39
1.141004727e-40
1.761952943e-40
3.076587837e-40
5.684729193e-40
1.056630748e-39
1.896238038e-39
3.163604854e-39
4.712475685e-39
5.95102641e-39
3.375890359e-40
5.261874951e-40
9.280575736e-40
1.729455029e-39
3.233257443e-39
5.818659529e-39
9.709582535e-39
1.444199234e-38
1.819962707e-38
1.004009427e-39
1.575918342e-39
2.80017563e-39
5.250176831e-39
9.85471878e-39
1.776624905e-38
2.964396701e-38
4.403771382e-38
5.540631798e-38
2.997950227e-39
4.73015469e-39
8.450232641e-39
1.591256523e-38
2.994972867e-38
5.405168763e-38
9.016471722e-38
1.338037223e-37
1.681415796e-37
8.978323017e-39
1.421987397e-38
2.550187468e-38
4.816806699e-38
9.0822705e-38
1.640070861e-37
2.734803172e-37
4.05474973e-37
5.091081365e-37
2.694501697e-38
4.279278471e-38
7.695524327e-38
1.456542348e-37
2.749470352e-37
4.966068073e-37
8.27697189e-37
1.226204862e-36
1.538979492e-36
8.098015589e-38
1.288597382e-37
2.321708698e-37
4.40025111e-37
8.311366953e-37
1.501087306e-36
2.500442819e-36
3.7016307e-36
4.646381484e-36
2.435901291e-37
3.881348645e-37
7.001873315e-37
1.328082471e-36
2.509042563e-36
4.529973121e-36
7.540495735e-36
1.115485814e-35
1.401186862e-35
7.330355788e-37
1.169035584e-36
2.110452776e-36
4.004274702e-36
7.563615556e-36
1.364725699e-35
2.269597994e-35
3.354451331e-35
4.215431813e-35
2.205957937e-36
3.519748947e-36
6.355992159e-36
1.205816218e-35
2.27634349e-35
4.103249168e-35
6.81532159e-35
1.005973426e-34
1.262847938e-34
6.635887764e-36
1.058953692e-35
1.91201659e-35
3.62531734e-35
6.836856199e-35
1.230611699e-34
2.040493392e-34
3.006576529e-34
3.76895433e-34
1.994504862e-35
3.182240476e-35
5.742534084e-35
1.087670203e-34
2.047947767e-34
3.67868704e-34
6.085298467e-34
8.944954904e-34
1.119131754e-33
5.986497171e-35
9.54635706e-35
1.720888073e-34
3.254048171e-34
6.112918505e-34
1.094916576e-33
1.80534989e-33
2.645011404e-33
3.300315424e-33
1.793194159e-34
2.856833213e-34
5.141531559e-34
9.698777148e-34
1.816137979e-33
3.240246427e-33
5.31910293e-33
7.758001048e-33
9.643879412e-33
5.356027414e-34
8.520894245e-34
1.529950269e-33
2.876392492e-33
5.362692129e-33
9.517313231e-33
1.55307554e-32
2.251473285e-32
2.784525203e-32
1.593577766e-33
2.530151562e-33
4.528372525e-33
8.47523426e-33
1.570930512e-32
2.768500742e-32
4.482384065e-32
6.445962414e-32
7.9178528e-32
4.717009063e-33
7.468945395e-33
1.331034782e-32
2.476352248e-32
4.55523407e-32
7.955004957e-32
1.274902526e-31
1.814334113e-31
2.208841851e-31
1.386915467e-32
2.188172853e-32
3.877714407e-32
7.159049054e-32
1.304101922e-31
2.251089969e-31
3.561246549e-31
5.001263547e-31
6.019973305e-31
4.043122551e-32
6.349348316e-32
1.117132373e-31
2.042408356e-31
3.675011959e-31
6.25210567e-31
9.732715092e-31
1.344508126e-30
1.595723307e-30
1.166057781e-31
1.820408691e-31
3.174122874e-31
5.732948187e-31
1.016009717e-30
1.697956268e-30
2.591858702e-30
3.509816445e-30
4.095300691e-30
3.318702106e-31
5.143041066e-31
8.868128271e-31
1.578055692e-30
2.745666755e-30
4.491417425e-30
6.697661659e-30
8.858689294e-30
1.013177327e-29
9.294599504e-31
1.427454889e-30
2.428260884e-30
4.244435683e-30
7.225076314e-30
1.152524751e-29
1.672584587e-29
2.153050246e-29
2.406864994e-29
2.553580697e-30
3.879318627e-30
6.493438113e-30
1.111320568e-29
1.844107318e-29
2.857702184e-29
4.021099296e-29
5.02098779e-29
5.472496816e-29
6.859035555e-30
1.028650036e-29
1.689530273e-29
2.821803923e-29
4.548035481e-29
6.821745207e-29
9.275784799e-29
1.120329883e-28
1.188229447e-28
1.794894309e-29
2.651664399e-29
4.261411629e-29
6.922667625e-29
1.079993563e-28
1.562829839e-28
2.047757416e-28
2.387319605e-28
2.460967221e-28
4.559537463e-29
6.621151661e-29
1.038187402e-28
1.635282654e-28
2.461797691e-28
3.427650877e-28
4.31919331e-28
4.854614961e-28
4.862472749e-28
1.12043656e-28
1.595918049e-28
2.435016585e-28
3.708561249e-28
5.373876746e-28
7.185683836e-28
8.698887557e-28
9.424838665e-28
9.178295028e-28
2.654744299e-28
3.701672129e-28
5.482964794e-28
8.056099084e-28
1.121691511e-27
1.439110086e-27
1.67379934e-27
1.749790151e-27
1.65937183e-27
6.04782485e-28
8.240992412e-28
1.182770112e-27
1.673930063e-27
2.237666891e-27
2.755037322e-27
3.082215662e-27
3.115231405e-27
2.883797278e-27
1.321802939e-27
1.757778023e-27
2.44131619e-27
3.32559822e-27
4.268934317e-27
5.050220083e-27
5.446848791e-27
5.33814496e-27
4.838594225e-27
2.767877879e-27
3.588997172e-27
4.820714084e-27
6.321762668e-27
7.801967292e-27
8.888807394e-27
9.2713621e-27
8.842783707e-27
7.876023283e-27
5.551696631e-27
7.016533817e-27
9.116013175e-27
1.152061746e-26
1.369897271e-26
1.507757832e-26
1.526681371e-26
1.422882229e-26
1.249974589e-26
1.067668154e-26
1.315502083e-26
1.654662295e-26
2.019030445e-26
2.319849387e-26
2.475791672e-26
2.44370086e-26
2.234969054e-26
1.943652791e-26
1.973429827e-26
2.372308687e-26
2.89346889e-26
3.417640152e-26
3.807387499e-26
3.955537947e-26
3.8215757e-26
3.443410294e-26
2.974402821e-26
3.519325742e-26
4.13316317e-26
4.899190018e-26
5.618707505e-26
6.091224331e-26
6.18406634e-26
5.869545534e-26
5.227488707e-26
4.496815805e-26
6.0872439e-26
6.997423336e-26
8.083242868e-26
9.032329487e-26
9.563960275e-26
9.521271744e-26
8.903082819e-26
7.853468791e-26
6.737111601e-26
1.027606544e-25
1.159069164e-25
1.309267605e-25
1.430917227e-25
1.485413301e-25
1.454466407e-25
1.342269834e-25
1.173160962e-25
1.003118694e-25
1.704403399e-25
1.892132482e-25
2.098443434e-25
2.253089324e-25
2.302509695e-25
2.224354646e-25
2.028714072e-25
1.755462397e-25
1.492856252e-25
2.794608899e-25
3.064586213e-25
3.352784524e-25
3.555175099e-25
3.595048449e-25
3.441781595e-25
3.112620164e-25
2.672806993e-25
2.2663659e-25
4.550559929e-25
4.949059759e-25
5.369531819e-25
5.657107214e-25
5.697890984e-25
5.446193744e-25
4.933672395e-25
4.282373616e-25
3.767597765e-25
7.375840866e-25
7.987928199e-25
8.641226116e-25
9.104328907e-25
9.206802987e-25
8.890693944e-25
8.258157527e-25
7.606037722e-25
6.95526825e-25
1.190033063e-24
1.288347459e-24
1.397079725e-24
1.482324717e-24
1.521116364e-24
1.5158487e-24
1.503477184e-24
1.45588636e-24
1.376404447e-24
1.908324011e-24
2.073531109e-24
2.267968551e-24
2.447811852e-24
2.601103866e-24
2.770482386e-24
2.895247518e-24
2.920974353e-24
2.841468667e-24
3.039954611e-24
3.33331007e-24
3.716955844e-24
4.168884016e-24
4.722002712e-24
5.289168857e-24
5.760089419e-24
6.01441403e-24
6.00145367e-24
4.849259694e-24
5.421494259e-24
6.319075126e-24
7.500587203e-24
8.887142679e-24
1.033595206e-23
1.163095683e-23
1.250219712e-23
1.276506438e-23
8.050271497e-24
9.358446396e-24
1.134268944e-23
1.394898121e-23
1.704784007e-23
2.038247932e-23
2.35233542e-23
2.588911035e-23
2.697311798e-23
1.428390754e-23
1.695030797e-23
2.101725479e-23
2.642712424e-23
3.297552092e-23
4.019061546e-23
4.723199632e-23
5.29394414e-23
5.617878489e-23
2.638598926e-23
3.163612322e-23
3.971777508e-23
5.059409134e-23
6.392981247e-23
7.884494707e-23
9.378767367e-23
1.067840983e-22
1.156983631e-22
5.00727849e-23
6.025800227e-23
7.603486075e-23
9.74063048e-23
1.237736104e-22
1.53575269e-22
1.844805263e-22
2.142627646e-22
2.392318276e-22
9.680805025e-23
1.163423216e-22
1.466490779e-22
1.877381085e-22
2.385848388e-22
2.971353316e-22
3.620204734e-22
4.342310721e-22
5.063728834e-22
1.891020965e-22
2.25972514e-22
2.83031927e-22
3.602959443e-22
4.568524948e-22
5.731011419e-22
7.165151773e-22
9.017736815e-22
1.108564987e-21
3.692729411e-22
4.373147513e-22
5.423493535e-22
6.853509498e-22
8.696262914e-22
1.109821051e-21
1.445265232e-21
1.928678409e-21
2.496094727e-21
7.127344556e-22
8.355080438e-22
1.025959363e-21
1.291264554e-21
1.653891843e-21
2.175856483e-21
2.983399881e-21
4.217453469e-21
5.684338947e-21
1.349294348e-21
1.568694124e-21
1.915605105e-21
2.420849046e-21
3.16632211e-21
4.339420452e-21
6.272216949e-21
9.288527783e-21
1.28491494e-20
2.504593355e-21
2.901543931e-21
3.550369969e-21
4.550427535e-21
6.135825721e-21
8.786428297e-21
1.32783197e-20
2.027865229e-20
2.840641024e-20
4.588362576e-21
5.328116141e-21
6.585058232e-21
8.627859883e-21
1.203847211e-20
1.792181396e-20
2.793918114e-20
4.333823915e-20
6.084084188e-20
8.372974542e-21
9.795873158e-21
1.229824167e-20
1.652632303e-20
2.379376994e-20
3.64459187e-20
5.778385931e-20
8.992540501e-20
1.256083732e-19
1.533506467e-20
1.813047804e-20
2.316847035e-20
3.187399248e-20
4.699464851e-20
7.317566967e-20
1.16549927e-19
1.803480517e-19
2.494647775e-19
2.829011761e-20
3.381608296e-20
4.391109702e-20
6.15009545e-20
9.196764175e-20
1.439575345e-19
2.281729912e-19
3.489231299e-19
4.765527067e-19
5.253142085e-20
6.337153026e-20
8.325806776e-20
1.178354324e-19
1.770424855e-19
2.760794614e-19
4.325446174e-19
6.510892218e-19
8.765011682e-19
9.77821178e-20
1.186612203e-19
1.568590087e-19
2.226675416e-19
3.334736965e-19
5.146119309e-19
7.934030462e-19
1.172719793e-18
1.554661939e-18
1.813708656e-19
2.20575784e-19
2.917664554e-19
4.127592589e-19
6.124773932e-19
9.310763961e-19
1.408631869e-18
2.041747594e-18
2.664446597e-18
3.331283778e-19
4.045906779e-19
5.330150746e-19
7.477870426e-19
1.094803816e-18
1.634741337e-18
2.423097248e-18
3.442042451e-18
4.421562032e-18
6.025422468e-19
7.287270921e-19
9.527844662e-19
1.32103518e-18
1.903144183e-18
2.786677996e-18
4.043962168e-18
5.629301242e-18
7.119790369e-18
1.068668989e-18
1.284371396e-18
1.662523937e-18
2.27309643e-18
3.21746219e-18
4.616470914e-18
6.558182755e-18
8.948514713e-18
1.114781927e-17
1.853160519e-18
2.2102354e-18
2.828200864e-18
3.808575298e-18
5.293045958e-18
7.441175659e-18
1.035161535e-17
1.385235753e-17
1.700647384e-17
3.136505072e-18
3.709452988e-18
4.688511224e-18
6.21543351e-18
8.480703186e-18
1.168575165e-17
1.592883657e-17
2.091958109e-17
2.532549068e-17
5.177215344e-18
6.069419038e-18
7.575476413e-18
9.88618508e-18
1.324808852e-17
1.790378338e-17
2.393240163e-17
3.087215778e-17
3.687868047e-17
8.333243692e-18
9.683511884e-18
1.193637656e-17
1.53396748e-17
2.020069288e-17
2.679687157e-17
3.515986788e-17
4.458955488e-17
5.259596868e-17
1.308440913e-17
1.507334849e-17
1.835548944e-17
2.324171632e-17
3.010060305e-17
3.923069724e-17
5.057656925e-17
6.311819433e-17
7.357048085e-17
2.005414719e-17
2.290976962e-17
2.757369042e-17
3.442250834e-17
4.388085356e-17
5.624555195e-17
7.132198301e-17
8.767404776e-17
1.010587482e-16
3.002852303e-17
3.403042734e-17
4.050371572e-17
4.988859333e-17
6.265316025e-17
7.905923182e-17
9.870777645e-17
1.196367083e-16
1.364728096e-16
4.397027223e-17
4.94517418e-17
5.823889339e-17
7.082726426e-17
8.770713114e-17
1.09060684e-16
1.342063303e-16
1.605342036e-16
1.813605048e-16
6.302573884e-17
7.037319071e-17
8.205347361e-17
9.860180781e-17
1.204996732e-16
1.477934387e-16
1.79428826e-16
2.120143278e-16
2.373801291e-16
8.852302279e-17
9.817244242e-17
1.133933938e-16
1.347368798e-16
1.626345372e-16
1.969296886e-16
2.360921947e-16
2.758153454e-16
3.062663992e-16
1.219604303e-16
1.34390722e-16
1.53857344e-16
1.808944093e-16
2.158330874e-16
2.582335233e-16
3.059861183e-16
3.537279748e-16
3.897990017e-16
1.649854065e-16
1.807089329e-16
2.051695847e-16
2.388416066e-16
2.818948006e-16
3.335255157e-16
3.909308545e-16
4.47557134e-16
4.897557642e-16
2.193656159e-16
2.3891556e-16
2.691402657e-16
3.104087354e-16
3.626614429e-16
4.246399669e-16
4.92737644e-16
5.590660951e-16
6.078405757e-16
2.869472661e-16
3.108654459e-16
3.476327022e-16
3.974565187e-16
4.59976774e-16
5.333896094e-16
6.131542394e-16
6.899103271e-16
7.456491085e-16
3.696251534e-16
3.984486003e-16
4.425239135e-16
5.018371762e-16
5.756557659e-16
6.615052149e-16
7.537957001e-16
8.416088775e-16
9.046297056e-16
4.693044509e-16
5.035541392e-16
5.556776686e-16
6.253702806e-16
7.114087351e-16
8.105677004e-16
9.161229941e-16
1.015508543e-15
1.086049635e-15
5.878823069e-16
6.280513432e-16
6.888919801e-16
7.697279654e-16
8.687827485e-16
9.819917589e-16
1.101409659e-15
1.212753959e-15
1.290967383e-15
7.271566406e-16
7.736590758e-16
8.437842938e-16
9.364179827e-16
1.049149922e-15
1.176994943e-15
1.310714563e-15
1.434263821e-15
1.520211065e-15
8.887359959e-16
9.419236306e-16
1.021805393e-15
1.126762387e-15
1.253676734e-15
1.396571665e-15
1.544860308e-15
1.680712968e-15
1.774362677e-15
1.074056093e-15
1.134206653e-15
1.224205873e-15
1.341867124e-15
1.483298346e-15
1.641472476e-15
1.804417173e-15
1.952520064e-15
2.053747898e-15
1.284343103e-15
1.351651395e-15
1.452006598e-15
1.582596753e-15
1.738698241e-15
1.912188799e-15
2.089692566e-15
2.249840739e-15
2.358431262e-15
1.520582726e-15
1.595154534e-15
1.705974383e-15
1.849554661e-15
2.02029346e-15
2.208943264e-15
2.400725986e-15
2.572566101e-15
2.688216573e-15
1.783495382e-15
1.865344033e-15
1.986603622e-15
2.143069229e-15
2.328225732e-15
2.531685801e-15
2.737289529e-15
2.920326556e-15
3.042652464e-15
2.073518022e-15
2.162563558e-15
2.294104379e-15
2.463186323e-15
2.662358727e-15
2.880095542e-15
3.098893864e-15
3.292500777e-15
3.421042899e-15
2.390793075e-15
2.486863906e-15
2.628397286e-15
2.809668324e-15
3.022281477e-15
3.253588465e-15
3.484799474e-15
3.688229537e-15
3.822462303e-15
2.735164784e-15
2.838001655e-15
2.98911538e-15
3.181999689e-15
3.407317811e-15
3.651330472e-15
3.894032767e-15
4.106433934e-15
4.245774794e-15
3.106182957e-15
3.215444947e-15
3.375612675e-15
3.579398727e-15
3.8165414e-15
4.072255395e-15
4.325406462e-15
4.545837352e-15
4.68965686e-15
3.503113786e-15
3.618386036e-15
3.786979021e-15
4.00083505e-15
4.248795749e-15
4.515087212e-15
4.777543471e-15
5.00499038e-15
5.152622678e-15
3.924957094e-15
4.045759892e-15
4.222060488e-15
4.445051874e-15
4.702718299e-15
4.978365592e-15
5.248903424e-15
5.482297797e-15
5.633051198e-15
4.370469119e-15
4.496267944e-15
4.679484325e-15
4.910592226e-15
5.176767666e-15
5.46047382e-15
5.73781087e-15
5.976046745e-15
6.129214126e-15
4.838189706e-15
4.968405855e-15
5.157687406e-15
5.39582795e-15
5.669252973e-15
5.959668115e-15
6.24248427e-15
6.484435198e-15
6.639303961e-15
5.326472739e-15
5.460494154e-15
5.654947008e-15
5.898990456e-15
6.178364266e-15
6.474107406e-15
6.761064897e-15
7.005599967e-15
7.161461354e-15
5.833518576e-15
5.970710544e-15
6.169412813e-15
6.418202139e-15
6.702203047e-15
7.001882703e-15
7.291644911e-15
7.537643554e-15
7.693801154e-15
6.357407346e-15
6.497122778e-15
6.699139087e-15
6.951507538e-15
7.238812102e-15
7.541045353e-15
7.83229396e-15
8.078659299e-15
8.234436633e-15
6.89613205e-15
7.037721117e-15
7.242116123e-15
7.496903419e-15
7.786203902e-15
8.089633561e-15
8.381083839e-15
8.626754432e-15
8.781501539e-15
7.447630591e-15
7.590449534e-15
7.796300206e-15
8.052367112e-15
8.342387026e-15
8.645696754e-15
8.936110818e-15
9.180070712e-15
9.33316971e-15
8.00981599e-15
8.153234978e-15
8.359641484e-15
8.615882608e-15
8.905390204e-15
9.207317439e-15
9.495515437e-15
9.736802507e-15
9.887672116e-15
8.580604238e-15
8.724014209e-15
8.930109315e-15
9.185464049e-15
9.473283691e-15
9.77263039e-15
1.005749962e-14
1.029521223e-14
1.04433113e-14
9.157939401e-15
9.300757851e-15
9.505714806e-15
9.759176387e-15
1.004419784e-14
1.033983906e-14
1.062034109e-14
1.085364315e-14
1.099847326e-14
9.739815716e-15
9.881491438e-15
1.008453037e-14
1.033515312e-14
1.06163388e-14
1.090722926e-14
1.118240517e-14
1.141052967e-14
1.155163678e-14
1.032429658e-14
1.04643134e-14
1.066470627e-14
1.09116111e-14
1.118800144e-14
1.147318011e-14
1.174215397e-14
1.196440517e-14
1.210138057e-14
1.090953042e-14
1.104740995e-14
1.124448418e-14
1.148686245e-14
1.17575795e-14
1.203617249e-14
1.229815329e-14
1.251390763e-14
1.264638813e-14
1.149376352e-14
1.162906708e-14
1.182220791e-14
1.205932386e-14
1.232357325e-14
1.259479515e-14
1.284907729e-14
1.305778327e-14
1.318545071e-14
1.207534993e-14
1.220767964e-14
1.239633142e-14
1.262752323e-14
1.28845948e-14
1.314774858e-14
1.339371119e-14
1.359488822e-14
1.371746856e-14
1.265275879e-14
1.278175791e-14
1.296542437e-14
1.31901041e-14
1.343937126e-14
1.369384702e-14
1.393095218e-14
1.412418876e-14
1.424145061e-14
1.3224579e-14
1.334993177e-14
1.352817545e-14
1.374582796e-14
1.398674601e-14
1.423201873e-14
1.445980889e-14
1.464476e-14
1.475651289e-14
1.378952191e-14
1.391095274e-14
1.408339373e-14
1.429357478e-14
1.452567837e-14
1.476130482e-14
1.497939946e-14
1.515578356e-14
1.526187582e-14
1.43464219e-14
1.446369418e-14
1.463000822e-14
1.483234187e-14
1.505524175e-14
1.528085681e-14
1.548894858e-14
1.565654407e-14
1.575686061e-14
1.489423533e-14
1.500714992e-14
1.516706604e-14
1.536124152e-14
1.557462074e-14
1.578993312e-14
1.598778356e-14
1.61464251e-14
1.624088493e-14
1.543203811e-14
1.554043147e-14
1.569372925e-14
1.587949744e-14
1.608310714e-14
1.628789481e-14
1.647532976e-14
1.662490429e-14
1.6713458e-14
1.595902203e-14
1.606276419e-14
1.620927077e-14
1.638644029e-14
1.658009521e-14
1.677420056e-14
1.695110548e-14
1.709154812e-14
1.717417534e-14
1.647449017e-14
1.657348254e-14
1.671306941e-14
1.688150262e-14
1.706507643e-14
1.724840128e-14
1.741471634e-14
1.754600636e-14
1.762271316e-14
1.697785151e-14
1.707202464e-14
1.720460434e-14
1.736421314e-14
1.753763367e-14
1.771013427e-14
1.786584957e-14
1.798800629e-14
1.805882262e-14
1.746861512e-14
1.755792631e-14
1.768344905e-14
1.783419073e-14
1.799743522e-14
1.815911726e-14
1.830426803e-14
1.841734683e-14
1.848232409e-14
1.794638376e-14
1.803081481e-14
1.814926513e-14
1.829113818e-14
1.844422857e-14
1.85951423e-14
1.872980428e-14
1.883389273e-14
1.889310133e-14
1.841084747e-14
1.849040231e-14
1.860179579e-14
1.873483582e-14
1.887783419e-14
1.901806966e-14
1.914235459e-14
1.923756874e-14
1.929109584e-14
1.886177682e-14
1.893647931e-14
1.904085934e-14
1.916513517e-14
1.92981393e-14
1.942782183e-14
1.954187317e-14
1.962835402e-14
1.967630134e-14
1.929901635e-14
1.93689081e-14
1.946634282e-14
1.958195263e-14
1.970509182e-14
1.982437765e-14
1.992836653e-14
2.000627668e-14
2.004875848e-14
1.972247798e-14
1.978761627e-14
1.987819559e-14
1.998526338e-14
2.009869441e-14
2.020776665e-14
2.030188803e-14
2.037140855e-14
2.04085497e-14
2.013213459e-14
2.019259043e-14
2.027642329e-14
2.037509543e-14
2.047899884e-14
2.05780636e-14
2.066253273e-14
2.072386026e-14
2.075579448e-14
2.052801391e-14
2.058387018e-14
2.066108187e-14
2.075152397e-14
2.084610053e-14
2.093538337e-14
2.101043247e-14
2.106377653e-14
2.109064475e-14
2.091019252e-14
2.096154224e-14
2.103227204e-14
2.111466596e-14
2.120013343e-14
2.12798761e-14
2.134575129e-14
2.139133179e-14
2.141328068e-14
2.127879031e-14
2.132573506e-14
2.139013392e-14
2.146467505e-14
2.154126518e-14
2.161172256e-14
2.166868112e-14
2.170672613e-14
2.172390669e-14
2.163396515e-14
2.167661359e-14
2.173484208e-14
2.180173683e-14
2.186969262e-14
2.193112999e-14
2.197943778e-14
2.201018147e-14
2.202274785e-14
2.197590795e-14
2.201437447e-14
2.206660088e-14
2.212606441e-14
2.218563762e-14
2.223832813e-14
2.227825733e-14
2.230193811e-14
2.231004648e-14
2.230483806e-14
2.233924154e-14
2.238564017e-14
2.243789427e-14
2.248934317e-14
2.253356562e-14
2.256539264e-14
2.258225154e-14
2.258605909e-14
2.262099897e-14
2.265146169e-14
2.269221127e-14
2.273748256e-14
2.27810699e-14
2.281710667e-14
2.284111032e-14
2.28513895e-14
2.28510536e-14
2.292465445e-14
2.295130109e-14
2.298658338e-14
2.302510159e-14
2.306109277e-14
2.308922808e-14
2.310568794e-14
2.310962937e-14
2.310530677e-14
2.321608493e-14
2.323904165e-14
2.326904022e-14
2.33010367e-14
2.33296982e-14
2.335021646e-14
2.335941144e-14
2.335725581e-14
2.334910196e-14
2.349558424e-14
2.351497791e-14
2.353987702e-14
2.356558344e-14
2.358718137e-14
2.360036584e-14
2.360257291e-14
2.359455858e-14
2.358272707e-14
2.376345668e-14
2.377941419e-14
2.379939778e-14
2.381904498e-14
2.383384387e-14
2.383997538e-14
2.383546849e-14
2.382183069e-14
2.380647273e-14
2.402001435e-14
2.403266197e-14
2.404791288e-14
2.406172984e-14
2.406999153e-14
2.406934749e-14
2.405839662e-14
2.403936666e-14
2.402063067e-14
2.426557479e-14
2.427503766e-14
2.428573683e-14
2.42939498e-14
2.429593256e-14
2.428878601e-14
2.427165639e-14
2.424746109e-14
2.422549232e-14
2.450045885e-14
2.450686051e-14
2.451318636e-14
2.451601815e-14
2.451197586e-14
2.449859474e-14
2.447554617e-14
2.44464073e-14
2.442134756e-14
2.472498883e-14
2.472845082e-14
2.473057875e-14
2.472824805e-14
2.471842954e-14
2.469907604e-14
2.467036234e-14
2.463649625e-14
2.460848365e-14
2.493948682e-14
2.494012838e-14
2.493823026e-14
2.493095116e-14
2.491559967e-14
2.489052972e-14
2.485639827e-14
2.481801551e-14
2.478718431e-14
2.51442733e-14
2.514221107e-14
2.51364549e-14
2.512443642e-14
2.510378916e-14
2.507325199e-14
2.50339434e-14
2.499124848e-14
2.49577289e-14
2.533966585e-14
2.533501365e-14
2.532556325e-14
2.530900901e-14
2.528329679e-14
2.524753463e-14
2.520328242e-14
2.515647362e-14
2.512039177e-14
2.552597814e-14
2.551884677e-14
2.550586154e-14
2.548496947e-14
2.545441642e-14
2.541366424e-14
2.536469469e-14
2.53139639e-14
2.527544172e-14
2.570351891e-14
2.569401606e-14
2.567765078e-14
2.565261295e-14
2.561743634e-14
2.557192166e-14
2.551845365e-14
2.546398632e-14
2.54231415e-14
2.587259132e-14
2.586082143e-14
2.584122613e-14
2.581222856e-14
2.577263866e-14
2.572258144e-14
2.566482641e-14
2.560680148e-14
2.556374752e-14
2.603349223e-14
2.601955642e-14
2.599687631e-14
2.59640989e-14
2.592029887e-14
2.58659115e-14
2.580407337e-14
2.574266329e-14
2.569750946e-14
2.618651171e-14
2.617050775e-14
2.614488312e-14
2.610849961e-14
2.60606855e-14
2.600217275e-14
2.593644797e-14
2.587181875e-14
2.582467016e-14
2.633193263e-14
2.631395491e-14
2.628552116e-14
2.624569908e-14
2.619405984e-14
2.613161889e-14
2.606219651e-14
2.599450775e-14
2.594546538e-14
2.647003031e-14
2.645016982e-14
2.641905744e-14
2.637595818e-14
2.63206757e-14
2.625449623e-14
2.618155796e-14
2.611096299e-14
2.606012376e-14
2.660107228e-14
2.657941668e-14
2.654575129e-14
2.649953014e-14
2.644077929e-14
2.637104358e-14
2.629476393e-14
2.622140987e-14
2.616886675e-14
2.672531813e-14
2.670195173e-14
2.666585413e-14
2.661666036e-14
2.655460917e-14
2.648149222e-14
2.64020386e-14
2.632606652e-14
2.62719086e-14
2.684301939e-14
2.681802322e-14
2.677960949e-14
2.672758642e-14
2.666239615e-14
2.658606582e-14
2.650359875e-14
2.642514382e-14
2.636945639e-14
2.695441944e-14
2.692787133e-14
2.688725287e-14
2.683253805e-14
2.676436335e-14
2.668498055e-14
2.659965378e-14
2.65188454e-14
2.646171008e-14
2.705975357e-14
2.703172816e-14
2.698901184e-14
2.693173713e-14
2.686072622e-14
2.677844506e-14
2.669040579e-14
2.660736779e-14
2.654886263e-14
2.715924894e-14
2.712981781e-14
2.708510605e-14
2.70253978e-14
2.695169261e-14
2.686666061e-14
2.677604966e-14
2.669090044e-14
2.663110005e-14
2.725312469e-14
2.722235642e-14
2.717574733e-14
2.711372649e-14
2.703746287e-14
2.694982115e-14
2.685677319e-14
2.676962591e-14
2.670860156e-14
2.734159199e-14
2.730955223e-14
2.726113971e-14
2.719692206e-14
2.711822995e-14
2.702811347e-14
2.693275718e-14
2.684371994e-14
2.678153968e-14
2.742485413e-14
2.739160572e-14
2.734147963e-14
2.727517587e-14
2.719417953e-14
2.710171724e-14
2.700417558e-14
2.691335162e-14
2.685008042e-14
2.750310663e-14
2.746870967e-14
2.741695593e-14
2.734867193e-14
2.726549008e-14
2.71708052e-14
2.70711956e-14
2.697868348e-14
2.691438332e-14
2.75765373e-14
2.754104925e-14
2.748774998e-14
2.741758689e-14
2.733233301e-14
2.723554322e-14
2.71339778e-14
2.703987159e-14
2.697460163e-14
2.764532624e-14
2.7608802e-14
2.75540357e-14
2.748209018e-14
2.739487262e-14
2.729609033e-14
2.719267614e-14
2.709706565e-14
2.703088235e-14
2.770964578e-14
2.767213784e-14
2.761597948e-14
2.754234385e-14
2.745326611e-14
2.735259865e-14
2.724743792e-14
2.715040891e-14
2.708336618e-14
2.776966031e-14
2.773121877e-14
2.767373996e-14
2.759850239e-14
2.750766334e-14
2.740521324e-14
2.729840365e-14
2.720003806e-14
2.713218741e-14
2.782552583e-14
2.778619853e-14
2.772746764e-14
2.765071234e-14
2.755820641e-14
2.745407165e-14
2.734570657e-14
2.724608279e-14
2.717747355e-14
2.787738922e-14
2.783722179e-14
2.777730407e-14
2.769911142e-14
2.760502883e-14
2.749930309e-14
2.738947191e-14
2.728866506e-14
2.721934454e-14
2.792538699e-14
2.788442293e-14
2.782338057e-14
2.774382726e-14
2.764825417e-14
2.754102707e-14
2.742981545e-14
2.732789771e-14
2.725791148e-14
2.796964338e-14
2.7927924e-14
2.786581616e-14
2.778497524e-14
2.768799388e-14
2.757935116e-14
2.746684131e-14
2.736388221e-14
2.729327434e-14
2.801026738e-14
2.796783177e-14
2.790471447e-14
2.782265525e-14
2.772434388e-14
2.761436745e-14
2.750063834e-14
2.739670503e-14
2.732551838e-14
2.804734845e-14
2.800423323e-14
2.794015907e-14
2.785694684e-14
2.775737947e-14
2.764614728e-14
2.75312746e-14
2.742643204e-14
2.735470848e-14
2.80809503e-14
2.803718921e-14
2.79722068e-14
2.788790214e-14
2.778714791e-14
2.767473339e-14
2.755878924e-14
2.745310013e-14
2.738088064e-14
2.811110219e-14
2.806672541e-14
2.800087833e-14
2.791553593e-14
2.781365783e-14
2.770012872e-14
2.758318068e-14
2.747670494e-14
2.740402955e-14
2.813778711e-14
2.809282001e-14
2.802614521e-14
2.793981184e-14
2.78368645e-14
2.772228074e-14
2.760439011e-14
2.749718366e-14
2.742409088e-14
2.816092574e-14
2.811538719e-14
2.804791238e-14
2.796062375e-14
2.785664997e-14
2.774106015e-14
2.762227877e-14
2.751439114e-14
2.744091675e-14
2.818035564e-14
2.813425536e-14
2.806599526e-14
2.79777713e-14
2.787279673e-14
2.775623263e-14
2.763659778e-14
2.752806814e-14
2.745424297e-14
2.819580439e-14
2.814913928e-14
2.808009026e-14
2.799092839e-14
2.78849538e-14
2.776742226e-14
2.764694898e-14
2.753779985e-14
2.746364604e-14
2.820685605e-14
2.815960514e-14
2.808973783e-14
2.799960361e-14
2.78925941e-14
2.777406554e-14
2.765273556e-14
2.754296353e-14
2.746848893e-14
2.821291004e-14
2.816502777e-14
2.809427724e-14
2.800309184e-14
2.789496227e-14
2.77753551e-14
2.76531015e-14
2.754266422e-14
2.746785422e-14
2.821313194e-14
2.816453958e-14
2.809279265e-14
2.800041663e-14
2.789101269e-14
2.777017274e-14
2.764685966e-14
2.753565829e-14
2.746046468e-14
2.820639636e-14
2.815697118e-14
2.808405054e-14
2.799026351e-14
2.787933778e-14
2.775701232e-14
2.763240897e-14
2.752026554e-14
2.744459186e-14
2.819122231e-14
2.814078455e-14
2.806642944e-14
2.79709053e-14
2.785808816e-14
2.773389399e-14
2.760764267e-14
2.749427191e-14
2.741795508e-14
2.816570251e-14
2.811400001e-14
2.803784366e-14
2.794012156e-14
2.782488685e-14
2.769827276e-14
2.756985097e-14
2.745482672e-14
2.737761484e-14
2.812742912e-14
2.807412002e-14
2.799566407e-14
2.789511552e-14
2.777674182e-14
2.764694598e-14
2.751562328e-14
2.739834004e-14
2.731986688e-14
2.807341958e-14
2.801805348e-14
2.793664023e-14
2.783243355e-14
2.770996223e-14
2.757596611e-14
2.744075741e-14
2.732038854e-14
2.724014547e-14
2.800004751e-14
2.794204604e-14
2.785682997e-14
2.774789382e-14
2.762008612e-14
2.748056744e-14
2.734018525e-14
2.721564009e-14
2.713294719e-14
2.790298527e-14
2.784162344e-14
2.775154384e-14
2.763653249e-14
2.75018289e-14
2.735511724e-14
2.720792673e-14
2.707781015e-14
2.699178873e-14
2.777716638e-14
2.771155629e-14
2.761531375e-14
2.749257745e-14
2.734906363e-14
2.719310368e-14
2.703708566e-14
2.689966474e-14
2.680921449e-14
2.761677686e-14
2.754585623e-14
2.744189635e-14
2.730946146e-14
2.715484596e-14
2.698717421e-14
2.681990242e-14
2.66730861e-14
2.657687091e-14
2.741528608e-14
2.733781405e-14
2.722432229e-14
2.707988622e-14
2.691149649e-14
2.672923878e-14
2.654787864e-14
2.638921717e-14
2.628566425e-14
2.716552783e-14
2.70800911e-14
2.695500311e-14
2.679594987e-14
2.661075333e-14
2.641065083e-14
2.621198806e-14
2.603869945e-14
2.59260169e-14
2.685984182e-14
2.67648741e-14
2.662590618e-14
2.644934823e-14
2.624400538e-14
2.602247678e-14
2.580298354e-14
2.561201449e-14
2.548823225e-14
2.649028414e-14
2.638410179e-14
2.622880558e-14
2.603165749e-14
2.580261315e-14
2.555585965e-14
2.531180515e-14
2.509993253e-14
2.496297093e-14
2.604891185e-14
2.592976802e-14
2.575561256e-14
2.553470029e-14
2.527831752e-14
2.500247538e-14
2.473008523e-14
2.44940618e-14
2.434183037e-14
2.552814195e-14
2.539430036e-14