/*--------------------------------*- C++ -*----------------------------------*\
| =========                 |                                                 |
| \\      /  F ield         | OpenFOAM: The Open Source CFD Toolbox           |
|  \\    /   O peration     | Version:  2212                                  |
|   \\  /    A nd           | Website:  www.openfoam.com                      |
|    \\/     M anipulation  |                                                 |
\*---------------------------------------------------------------------------*/
FoamFile
{
    version     2.0;
    format      ascii;
    arch        "LSB;label=32;scalar=64";
    class       volScalarField;
    location    "20.00000000";
    object      CO_0;
}
// * * * * * * * * * * * * * * * * * * * * * * * * * * * * * * * * * * * * * //

dimensions      [0 0 0 0 0 0 0];

internalField   nonuniform List<scalar> 
3000
(
3.64735229e-23
4.097033899e-23
4.775583998e-23
5.679802905e-23
6.800517474e-23
8.107322508e-23
9.521512938e-23
1.087096005e-22
1.182536108e-22
1.369417257e-22
1.544470755e-22
1.808509463e-22
2.161150246e-22
2.602052822e-22
3.128772205e-22
3.732177328e-22
4.38169727e-22
4.957214438e-22
3.067536199e-22
3.486846716e-22
4.125356806e-22
4.992333408e-22
6.103404222e-22
7.474689103e-22
9.100825914e-22
1.089035562e-21
1.242018485e-21
5.843321083e-22
6.71176317e-22
8.053592903e-22
9.914256714e-22
1.235972619e-21
1.545210811e-21
1.917442585e-21
2.32281633e-21
2.650017566e-21
1.037704374e-21
1.20657652e-21
1.471610061e-21
1.846275824e-21
2.348205526e-21
2.991459411e-21
3.765269498e-21
4.5869299e-21
5.217637412e-21
1.784549522e-21
2.101557281e-21
2.606212053e-21
3.330733272e-21
4.31379281e-21
5.580150552e-21
7.09205061e-21
8.658880053e-21
9.818220174e-21
3.029687324e-21
3.612056461e-21
4.549948511e-21
5.911650623e-21
7.773015616e-21
1.017106826e-20
1.300667403e-20
1.588778954e-20
1.796674489e-20
5.127389132e-21
6.181380708e-21
7.893903358e-21
1.039950197e-20
1.383794369e-20
1.825873322e-20
2.344008748e-20
2.862780057e-20
3.230860297e-20
8.691441901e-21
1.057876328e-20
1.36651132e-20
1.82036381e-20
2.444293074e-20
3.24429394e-20
4.175170875e-20
5.097487342e-20
5.744664075e-20
1.47846295e-20
1.81374958e-20
2.364558277e-20
3.177153207e-20
4.294949467e-20
5.724430552e-20
7.378551784e-20
9.005443983e-20
1.013852784e-19
2.524836276e-20
3.116973529e-20
4.092834889e-20
5.535427165e-20
7.519922641e-20
1.005210351e-19
1.29701379e-19
1.582542805e-19
1.780407698e-19
4.32738302e-20
5.368510069e-20
7.088099021e-20
9.633367543e-20
1.313406726e-19
1.759294826e-19
2.271580034e-19
2.771046186e-19
3.115966913e-19
7.439342206e-20
9.263861384e-20
1.228193515e-19
1.675276836e-19
2.290020983e-19
3.071957011e-19
3.968369437e-19
4.840131505e-19
5.440699473e-19
1.282009697e-19
1.600961739e-19
2.129123396e-19
2.911922963e-19
3.988004553e-19
5.355340183e-19
6.920374668e-19
8.439613732e-19
9.484439038e-19
2.213375783e-19
2.769939079e-19
3.692254464e-19
5.059703785e-19
6.939065408e-19
9.325265525e-19
1.205332931e-18
1.469809475e-18
1.651471494e-18
3.826744088e-19
4.796641452e-19
6.404768166e-19
8.789564958e-19
1.206653434e-18
1.62248701e-18
2.097491577e-18
2.557547596e-18
2.873256071e-18
6.623096553e-19
8.311651706e-19
1.111239656e-18
1.526644331e-18
2.097371477e-18
2.82128474e-18
3.647679208e-18
4.447484194e-18
4.995956658e-18
1.147187143e-18
1.440950516e-18
1.928335577e-18
2.651293668e-18
3.644445942e-18
4.903736852e-18
6.340592553e-18
7.730437224e-18
8.683035386e-18
1.988209293e-18
2.499015106e-18
3.346653471e-18
4.604058481e-18
6.331196632e-18
8.520547579e-18
1.101761668e-17
1.343191673e-17
1.508605044e-17
3.447299169e-18
4.335166065e-18
5.808677739e-18
7.99454338e-18
1.099661855e-17
1.480113933e-17
1.913890164e-17
2.333129908e-17
2.620271244e-17
5.979076881e-18
7.521889659e-18
1.008250572e-17
1.388090323e-17
1.909686763e-17
2.570535145e-17
3.32375811e-17
4.051475719e-17
4.549727757e-17
1.037256329e-17
1.305281716e-17
1.750126952e-17
2.409953297e-17
3.315859369e-17
4.463289374e-17
5.770643364e-17
7.033245601e-17
7.897412322e-17
1.799688391e-17
2.26521368e-17
3.037812127e-17
4.183627074e-17
5.756391708e-17
7.747799724e-17
1.001582348e-16
1.220524032e-16
1.370312826e-16
3.122710875e-17
3.931083082e-17
5.272529349e-17
7.261569751e-17
9.990893554e-17
1.344525766e-16
1.737746018e-16
2.117131929e-16
2.376555735e-16
5.418148557e-17
6.821486873e-17
9.149823455e-17
1.260116631e-16
1.733503777e-16
2.332319633e-16
3.013533529e-16
3.670331345e-16
4.119156092e-16
9.399608317e-17
1.183495464e-16
1.587447963e-16
2.185994831e-16
3.00650842e-16
4.043697353e-16
5.222638007e-16
6.358324252e-16
7.133742842e-16
1.630251181e-16
2.052678967e-16
2.75311125e-16
3.790406574e-16
5.211350377e-16
7.005905806e-16
9.043577415e-16
1.100427218e-15
1.234152304e-15
2.826312765e-16
3.558568372e-16
4.772153069e-16
6.56814821e-16
9.02612226e-16
1.212680153e-15
1.564283189e-15
1.902116855e-15
2.13220668e-15
4.896987699e-16
6.165204173e-16
8.265759794e-16
1.137163514e-15
1.561729987e-15
2.096532735e-15
2.701953456e-15
3.282611069e-15
3.67738325e-15
8.47791482e-16
1.067183741e-15
1.430281683e-15
1.966557389e-15
2.698556477e-15
3.61894527e-15
4.658687363e-15
5.653661692e-15
6.328632869e-15
1.4662025e-15
1.845165296e-15
2.471744824e-15
3.395883107e-15
4.655009423e-15
6.234664814e-15
8.014598174e-15
9.713227651e-15
1.086246931e-14
2.532345824e-15
3.185690077e-15
4.264637484e-15
5.853258931e-15
8.012938018e-15
1.071508719e-14
1.375044354e-14
1.663763982e-14
1.858480563e-14
4.366585827e-15
5.4902945e-15
7.343301809e-15
1.006600401e-14
1.375756167e-14
1.836149166e-14
2.351424078e-14
2.839653159e-14
3.167693847e-14
7.514578685e-15
9.441668917e-15
1.261388077e-14
1.726344654e-14
2.354759165e-14
3.135517644e-14
4.005624329e-14
4.8263769e-14
5.375481233e-14
1.290192478e-14
1.619525099e-14
2.160514192e-14
2.951142883e-14
4.015767979e-14
5.33268075e-14
6.793128588e-14
8.163751697e-14
9.076325121e-14
2.209160635e-14
2.769667065e-14
3.688151042e-14
5.025920259e-14
6.81961647e-14
9.027266988e-14
1.146205821e-13
1.373419119e-13
1.523898566e-13
3.770970764e-14
4.720381831e-14
6.271751262e-14
8.522522553e-14
1.152575904e-13
1.520133242e-13
1.923035587e-13
2.296699532e-13
2.542754871e-13
6.414444706e-14
8.013863906e-14
1.061892926e-13
1.438178182e-13
1.937538906e-13
2.544902422e-13
3.206250845e-13
3.815538743e-13
4.214318755e-13
1.086853193e-13
1.354652562e-13
1.789246939e-13
2.413905961e-13
3.237927394e-13
4.233420467e-13
5.309696251e-13
6.294317381e-13
6.934690871e-13
1.833645333e-13
2.279000583e-13
2.998823116e-13
4.027864011e-13
5.376535514e-13
6.994131856e-13
8.729925739e-13
1.030640172e-12
1.132510054e-12
3.079084404e-13
3.814236456e-13
4.997213192e-13
6.678486429e-13
8.866749941e-13
1.147151006e-12
1.42449985e-12
1.674534933e-12
1.835059707e-12
5.144258148e-13
6.34809065e-13
8.276049887e-13
1.099905617e-12
1.451746212e-12
1.867279726e-12
2.306251114e-12
2.699067943e-12
2.949648765e-12
8.547857793e-13
1.050240609e-12
1.361689651e-12
1.798703443e-12
2.359134089e-12
3.01575394e-12
3.703947176e-12
4.315293438e-12
4.702851531e-12
1.412116867e-12
1.726621275e-12
2.225140166e-12
2.919935164e-12
3.804146015e-12
4.831862736e-12
5.900628174e-12
6.843322688e-12
7.437372397e-12
2.318553621e-12
2.819922016e-12
3.61035594e-12
4.704468349e-12
6.086212266e-12
7.679578772e-12
9.324066087e-12
1.076471445e-11
1.166743e-11
3.782355542e-12
4.574004984e-12
5.815289461e-12
7.521723532e-12
9.660499493e-12
1.210796363e-11
1.461563491e-11
1.679833944e-11
1.815881013e-11
6.128945351e-12
7.366884403e-12
9.297432363e-12
1.193355644e-11
1.521330953e-11
1.893884206e-11
2.272979218e-11
2.600961352e-11
2.804394024e-11
9.862426261e-12
1.17795505e-11
1.475342659e-11
1.878766255e-11
2.377151326e-11
2.939330568e-11
3.507699352e-11
3.996696296e-11
4.298647466e-11
1.575697472e-11
1.869752407e-11
2.323560244e-11
2.935325226e-11
3.686044667e-11
4.527326199e-11
5.372797881e-11
6.096489799e-11
6.541560183e-11
2.499149393e-11
2.945958277e-11
3.632143123e-11
4.551694883e-11
5.673049652e-11
6.922068111e-11
8.170442263e-11
9.234061644e-11
9.885823522e-11
3.934651849e-11
4.607411751e-11
5.635846717e-11
7.006413877e-11
8.668066048e-11
1.050860932e-10
1.233907092e-10
1.389215803e-10
1.484081223e-10
6.149020611e-11
7.153208245e-11
8.681667469e-11
1.070812152e-10
1.315185077e-10
1.584499928e-10
1.851148066e-10
2.076558602e-10
2.21386078e-10
9.538817657e-11
1.102528432e-10
1.32787652e-10
1.625238455e-10
1.982096586e-10
2.373593e-10
2.759675993e-10
3.084993532e-10
3.282671687e-10
1.468887593e-10
1.687204081e-10
2.016965427e-10
2.450249526e-10
2.96795968e-10
3.53361633e-10
4.089489372e-10
4.556544732e-10
4.839757103e-10
2.245604139e-10
2.563901149e-10
3.04310036e-10
3.670318014e-10
4.416827112e-10
5.229527631e-10
6.025693873e-10
6.692994876e-10
7.096911648e-10
3.40875867e-10
3.869674602e-10
4.56154631e-10
5.464020894e-10
6.534409048e-10
7.695983073e-10
8.830828613e-10
9.779957985e-10
1.035360332e-09
5.138813127e-10
5.802068385e-10
6.795060632e-10
8.08636528e-10
9.613218923e-10
1.12654839e-09
1.287590012e-09
1.422030381e-09
1.503183618e-09
7.69538818e-10
8.644309348e-10
1.006169225e-09
1.189991015e-09
1.406754988e-09
1.640745704e-09
1.868341509e-09
2.0580466e-09
2.172443146e-09
1.144998868e-09
1.280044808e-09
1.481347875e-09
1.741800081e-09
2.048197719e-09
2.378237245e-09
2.69869129e-09
2.965447166e-09
3.126177096e-09
1.693151583e-09
1.88441632e-09
2.169010018e-09
2.53646153e-09
2.967840378e-09
3.431647597e-09
3.88131302e-09
4.255229719e-09
4.480391087e-09
2.4889255e-09
2.758622865e-09
3.15929508e-09
3.675688138e-09
4.2808415e-09
4.930467929e-09
5.559511638e-09
6.08215476e-09
6.396748758e-09
3.637958153e-09
4.016730007e-09
4.578690127e-09
5.301833896e-09
6.14799765e-09
7.055170474e-09
7.932747873e-09
8.661459784e-09
9.100018901e-09
5.288459059e-09
5.818476831e-09
6.603931119e-09
7.613357065e-09
8.793037948e-09
1.005648279e-08
1.127785853e-08
1.229173648e-08
1.290198519e-08
7.647327332e-09
8.386499764e-09
9.480865381e-09
1.088579378e-08
1.252608408e-08
1.42815517e-08
1.597789951e-08
1.738607738e-08
1.823404469e-08
1.100187406e-08
1.202953153e-08
1.354984211e-08
1.549998066e-08
1.777522339e-08
2.02091818e-08
2.256104329e-08
2.451414722e-08
2.569129875e-08
1.574882946e-08
1.717335819e-08
1.927956851e-08
2.197966743e-08
2.512858193e-08
2.849681166e-08
3.175247717e-08
3.445837564e-08
3.609149297e-08
2.2432674e-08
2.440168861e-08
2.731175701e-08
3.10410669e-08
3.538970804e-08
4.00423245e-08
4.454267917e-08
4.828788164e-08
5.055255631e-08
3.179569647e-08
3.450945537e-08
3.851925192e-08
4.365724204e-08
4.964940335e-08
5.606406894e-08
6.227565557e-08
6.745385969e-08
7.059253462e-08
4.484250882e-08
4.857137402e-08
5.408059511e-08
6.114044077e-08
6.937725451e-08
7.820244672e-08
8.676053374e-08
9.390978478e-08
9.825520645e-08
6.292197136e-08
6.802876e-08
7.557407635e-08
8.524544085e-08
9.653588183e-08
1.086459415e-07
1.204091362e-07
1.302587473e-07
1.362634287e-07
8.782950676e-08
9.479753327e-08
1.050940904e-07
1.182965227e-07
1.337201816e-07
1.502833664e-07
1.664006794e-07
1.799283953e-07
1.882001999e-07
1.219324796e-07
1.313998954e-07
1.453919528e-07
1.633397075e-07
1.843224716e-07
2.068823022e-07
2.288724956e-07
2.473713482e-07
2.587145999e-07
1.683205426e-07
1.811211993e-07
2.000420764e-07
2.243202761e-07
2.527223943e-07
2.832911912e-07
3.131327597e-07
3.382857272e-07
3.537463889e-07
2.309814579e-07
2.481919264e-07
2.73632498e-07
3.062832978e-07
3.444977416e-07
3.856594877e-07
4.258878554e-07
4.59846937e-07
4.807594972e-07
3.150008119e-07
3.379923903e-07
3.719761728e-07
4.155920199e-07
4.666492159e-07
5.21666932e-07
5.754736134e-07
6.209384892e-07
6.489713836e-07
4.267812593e-07
4.572748651e-07
5.023363668e-07
5.601557474e-07
6.278288651e-07
7.007498108e-07
7.720766711e-07
8.323669601e-07
8.695627862e-07
5.7427364e-07
6.14394507e-07
6.736561509e-07
7.496556057e-07
8.385589308e-07
9.343094639e-07
1.027930096e-06
1.107044586e-06
1.155851153e-06
7.672088304e-07
8.195370679e-07
8.967788506e-07
9.957538045e-07
1.111425604e-06
1.235886725e-06
1.357466589e-06
1.460122841e-06
1.523411304e-06
1.017315983e-06
1.08492847e-06
1.184643819e-06
1.312270149e-06
1.461231103e-06
1.621285799e-06
1.777413286e-06
1.90906177e-06
1.990128738e-06
1.338510421e-06
1.425009323e-06
1.552440532e-06
1.715308996e-06
1.905087888e-06
2.108632456e-06
2.306814438e-06
2.473622802e-06
2.576174316e-06
1.747033357e-06
1.856556886e-06
2.017704152e-06
2.223320878e-06
2.462440795e-06
2.718354332e-06
2.966971955e-06
3.175777015e-06
3.303893574e-06
2.261526198e-06
2.398738053e-06
2.600337488e-06
2.857085639e-06
3.155006368e-06
3.47307535e-06
3.781298585e-06
4.039525974e-06
4.197609298e-06
2.903024569e-06
3.073079804e-06
3.322547743e-06
3.639607988e-06
4.006623248e-06
4.397421272e-06
4.775083712e-06
5.090637272e-06
5.283338034e-06
3.694861274e-06
3.903347926e-06
4.208691182e-06
4.595921501e-06
5.043012803e-06
5.517738576e-06
5.975176041e-06
6.35629857e-06
6.588435553e-06
4.66247286e-06
4.915330437e-06
5.285024636e-06
5.752802962e-06
6.291455144e-06
6.861734792e-06
7.409592979e-06
7.864713421e-06
8.141178033e-06
5.83311063e-06
6.136528277e-06
6.579368806e-06
7.138404555e-06
7.780390332e-06
8.45805063e-06
9.107079044e-06
9.644641031e-06
9.970298246e-06
7.235463285e-06
7.595761783e-06
8.120693844e-06
8.781816053e-06
9.53895708e-06
1.033578952e-05
1.109661826e-05
1.172490611e-05
1.210449429e-05
8.899203811e-06
9.32270556e-06
9.938636349e-06
1.071257043e-05
1.159649733e-05
1.252400966e-05
1.340692834e-05
1.413389578e-05
1.457192992e-05
1.085447169e-05
1.134736924e-05
1.206298689e-05
1.296012864e-05
1.398203235e-05
1.505120819e-05
1.606595361e-05
1.689906267e-05
1.739974486e-05
1.313133666e-05
1.369955976e-05
1.452314469e-05
1.555334063e-05
1.672373988e-05
1.794481402e-05
1.910037553e-05
2.004645143e-05
2.061359175e-05
1.575923231e-05
1.640832286e-05
1.734757538e-05
1.85199202e-05
1.98484498e-05
2.123070778e-05
2.253515716e-05
2.360026427e-05
2.423721458e-05
1.87664044e-05
1.95014037e-05
2.056328985e-05
2.188594835e-05
2.338117621e-05
2.493278478e-05
2.639313578e-05
2.758247792e-05
2.829208003e-05
2.217938962e-05
2.300474198e-05
2.419536313e-05
2.567542221e-05
2.734470059e-05
2.90725736e-05
3.069467446e-05
3.20125213e-05
3.279707023e-05
2.60225433e-05
2.69420187e-05
2.826650871e-05
2.990986317e-05
3.175921754e-05
3.366891975e-05
3.545737993e-05
3.690702005e-05
3.776824241e-05
3.031763077e-05
3.133426845e-05
3.279672026e-05
3.460799443e-05
3.664205105e-05
3.873774011e-05
4.069589095e-05
4.227961078e-05
4.321865754e-05
3.508349326e-05
3.619956657e-05
3.780298875e-05
3.978549365e-05
4.200744521e-05
4.429185058e-05
4.642173814e-05
4.814082494e-05
4.915827742e-05
4.033579472e-05
4.155279679e-05
4.32990989e-05
4.545482339e-05
4.786643041e-05
5.034086638e-05
5.264327345e-05
5.449803989e-05
5.55939274e-05
4.608685172e-05
4.740550055e-05
4.92955052e-05
5.162513812e-05
5.422676254e-05
5.689117149e-05
5.936566516e-05
6.135549244e-05
6.252931984e-05
5.234554525e-05
5.376580607e-05
5.579928453e-05
5.830226406e-05
6.109293068e-05
6.394595206e-05
6.659095264e-05
6.871434881e-05
6.996513203e-05
5.911730967e-05
6.063843215e-05
6.281416004e-05
6.548874574e-05
6.846622652e-05
7.150528671e-05
7.431815352e-05
7.657282366e-05
7.789913123e-05
6.640419213e-05
6.802475955e-05
7.034058861e-05
7.318395151e-05
7.634486778e-05
7.956628575e-05
8.254341549e-05
8.492634034e-05
8.632633929e-05
7.420497349e-05
7.592296121e-05
7.837590319e-05
8.138422925e-05
8.472416675e-05
8.812327075e-05
9.126020425e-05
9.376772429e-05
9.523922846e-05
8.251534132e-05
8.432818159e-05
8.691450051e-05
9.008310288e-05
9.359673498e-05
9.716798586e-05
0.0001004595194
0.0001030874215
0.000104627941
9.132810453e-05
9.323275522e-05
9.594806437e-05
9.927150046e-05
0.0001029527153
0.0001066898324
0.0001101301303
0.0001128737347
0.000114480525
0.0001006334395
0.0001026264544
0.0001054658151
0.0001089380048
0.0001127800325
0.0001166761189
0.0001202588244
0.0001231130695
0.0001247831792
0.0001104191584
0.0001124967571
0.000115454776
0.000119069118
0.0001230646556
0.0001271123191
0.0001308306613
0.0001337901854
0.0001355205021
0.0001206709899
0.0001228291254
0.0001259000495
0.000129649533
0.0001337908629
0.0001379823323
0.0001418292275
0.0001448884452
0.000146675738
0.0001313728654
0.0001336072886
0.0001367850941
0.0001406624046
0.000144941507
0.0001492687392
0.0001532368849
0.0001563900584
0.0001582310174
0.0001425072029
0.0001448135228
0.0001480919986
0.0001520896155
0.0001564982711
0.0001609530508
0.0001650350116
0.0001682763154
0.0001701675876
0.0001540551839
0.0001564289225
0.0001598017457
0.0001639120313
0.0001684419153
0.0001730159442
0.0001772042297
0.0001805278083
0.0001824660297
0.0001659970176
0.0001684336593
0.0001718944639
0.0001761097434
0.0001807525085
0.0001854374853
0.0001897246183
0.0001931246378
0.0001951064616
0.0001783121895
0.000180807225
0.0001843496621
0.0001886622934
0.000193409644
0.0001981973338
0.0002025759105
0.000206046603
0.0002080687241
0.0001909796918
0.0001935286565
0.0001971464465
0.0002015488818
0.0002063926364
0.0002112749312
0.0002157376722
0.0002192733743
0.0002213325504
0.000203978234
0.0002065767405
0.0002102637181
0.0002147485553
0.000219680701
0.0002246496699
0.0002291894639
0.0002327846482
0.0002348777174
0.0002172864324
0.0002199301981
0.0002236803496
0.0002282403756
0.0002332531127
0.000238301044
0.0002429109833
0.0002465602851
0.0002486841801
0.0002308829788
0.0002335678482
0.0002373753423
0.0002420035683
0.0002470893462
0.0002522087817
0.0002568821908
0.0002605804292
0.0002627321888
0.0002447467882
0.0002474687509
0.000251327963
0.0002560176523
0.0002611691985
0.0002663529596
0.0002710834175
0.0002748256115
0.0002770023897
0.0002588571262
0.0002616123309
0.0002655178615
0.0002702625511
0.0002754728923
0.0002807141001
0.0002854954571
0.0002892768379
0.0002914759101
0.0002731937173
0.0002759784819
0.0002799251706
0.0002847186861
0.0002899811642
0.0002952732534
0.0003000996424
0.0003039156614
0.0003061344292
0.0002877368354
0.0002905476535
0.0002945305881
0.0002993670543
0.0003046753358
0.0003100120639
0.0003148779078
0.0003187242418
0.0003209602353
0.0003024673768
0.0003053009224
0.0003093154439
0.0003141892902
0.000319537372
0.0003249128234
0.0003298128381
0.0003336853915
0.0003359362706
0.0003173669191
0.0003202200477
0.0003242617526
0.0003291677148
0.0003345499253
0.0003399585121
0.0003448877069
0.0003487826112
0.0003510461652
0.0003324177654
0.0003352875138
0.0003393522529
0.0003442853718
0.0003496963688
0.0003551328283
0.0003600865028
0.0003640001144
0.0003662742609
0.0003476029762
0.0003504865605
0.0003545704359
0.0003595260531
0.0003649608187
0.000370420208
0.0003753939476
0.000379322844
0.000381605626
0.0003629063912
0.0003658012029
0.0003699005628
0.0003748743142
0.0003803281479
0.0003858058368
0.0003907955056
0.0003947364797
0.0003970260631
0.0003783126407
0.0003812162422
0.0003853276741
0.0003903154819
0.0003957839916
0.0004012756531
0.0004062773857
0.0004102274395
0.0004125221092
0.0003938071489
0.0003967172682
0.0004008375911
0.0004058356541
0.0004113147452
0.0004168163453
0.0004218265376
0.000425782875
0.0004280810308
0.0004093761308
0.0004122906548
0.0004164169104
0.0004214216933
0.0004269075576
0.0004324153441
0.0004374306427
0.0004413906616
0.0004436908135
0.0004250065821
0.00042792355
0.0004320529935
0.0004370612156
0.000442550319
0.0004480608089
0.0004530781006
0.0004570393843
0.0004593401481
0.0004406862649
0.0004436038614
0.0004477339511
0.0004527425748
0.0004582316442
0.0004637416114
0.0004687580118
0.0004727183205
0.000475018413
0.0004564036889
0.0004593202369
0.0004634486245
0.0004684548428
0.0004739408533
0.0004794473156
0.0004844601579
0.00048841742
0.0004907156535
0.0004721480902
0.0004750620433
0.0004791865633
0.0004841877875
0.0004896679493
0.0004951681558
0.000500174979
0.0005041272823
0.0005064225601
0.0004879094059
0.0004908193412
0.0004949380012
0.0004999318491
0.0005054035942
0.000510895012
0.0005158935499
0.0005198391327
0.0005221304439
0.0005036782485
0.0005065828595
0.0005106938297
0.0005156781133
0.0005211390827
0.0005266193849
0.0005316075544
0.0005355447971
0.0005378312119
0.000519445878
0.0005223439675
0.0005264455709
0.0005314182848
0.000536866316
0.0005423333687
0.0005473092594
0.0005512366757
0.0005535173407
0.0005352041734
0.0005380946465
0.0005421853494
0.0005471446593
0.0005525777741
0.0005580296247
0.000562991488
0.000566907717
0.0005691818503
0.0005509456033
0.0005538274608
0.0005579058638
0.0005628500955
0.0005682664879
0.0005737013537
0.0005786475923
0.0005825513908
0.0005848182776
0.0005666631969
0.0005695355293
0.0005736003579
0.0005785279868
0.0005839260118
0.0005893422686
0.0005942714271
0.0005981616615
0.00060042065
0.0005823505148
0.0005852124958
0.0005892625923
0.0005941722331
0.0005995503961
0.0006049465676
0.0006098573227
0.0006137329622
0.0006159834592
0.0005980016203
0.0006008525011
0.0006048868163
0.0006097772136
0.0006151341597
0.0006205089075
0.0006254000593
0.0006292601686
0.0006315016358
0.000613611051
0.0006164501549
0.0006204677406
0.0006253377596
0.0006306722639
0.000636024378
0.000640894841
0.0006447385741
0.0006469705243
0.0006291737915
0.0006320005086
0.0006360005102
0.0006408491282
0.0006461600866
0.0006514884757
0.0006563372714
0.000660163865
0.0006623858583
0.0006446852464
0.0006474990289
0.0006514806786
0.0006563069765
0.0006615933969
0.0006668970807
0.0006717233292
0.000675532097
0.0006777437379
0.0006601412151
0.0006629415724
0.0006669041827
0.0006717073377
0.0006769683317
0.0006822464321
0.0006870493454
0.0006908396724
0.0006930406063
0.0006755378663
0.000678324361
0.0006822673187
0.0006870465968
0.0006922813721
0.0006975331057
0.0007023119808
0.0007060833184
0.0007082732286
0.000690871715
0.0006936439584
0.0006975667191
0.0007023214686
0.0007075293215
0.0007127539928
0.0007175082051
0.0007212600657
0.0007234386709
0.0007061395994
0.0007088972481
0.0007127993305
0.0007175289756
0.0007227092842
0.0007279062785
0.0007326352764
0.000736367229
0.0007385342804
0.0007213386593
0.0007240814115
0.0007279623929
0.0007326664275
0.0007378186458
0.0007429874233
0.000747690722
0.000751402388
0.0007535576667
0.0007364663158
0.0007391939082
0.0007430534194
0.0007477314022
0.0007528550536
0.0007579951432
0.0007626723199
0.0007663633689
0.000768506684
0.0007515202516
0.0007542324559
0.0007580701776
0.0007627217263
0.0007678163986
0.000772927393
0.0007775780817
0.0007812482278
0.000783379414
0.0007664983926
0.0007691950132
0.0007730106713
0.0007776354583
0.0007827007981
0.0007877823482
0.0007924062358
0.0007960552342
0.0007981741498
0.0007813988916
0.0007840797625
0.0007878731245
0.0007924708723
0.0007975065803
0.0008025583908
0.0008071552122
0.0008107828558
0.0008128893808
0.0007962201111
0.0007988850934
0.0008026559655
0.0008072264422
0.000812232269
0.0008172540935
0.000821823628
0.0008254297441
0.0008275237785
0.0008109606081
0.0008136095883
0.0008173578112
0.0008219008273
0.0008268765687
0.0008318682064
0.0008364102736
0.0008399947214
0.0008420761836
0.0008256191195
0.0008282520065
0.0008319774535
0.0008364928579
0.0008414383517
0.0008463996428
0.0008509140999
0.0008544767678
0.0008565455929
0.0008401945484
0.0008428112721
0.0008465138458
0.0008510015226
0.0008559166449
0.0008608474677
0.000865334206
0.0008688750091
0.0008709311479
0.0008546859516
0.0008572864613
0.0008609660909
0.0008654259567
0.0008703106184
0.0008752108859
0.0008796698279
0.0008831887058
0.000885232123
0.000869092528
0.0008716767903
0.0008753334297
0.0008797654303
0.0008846195743
0.0008894892312
0.0008939203278
0.0008974172424
0.0008994479157
0.0008834136071
0.0008859816044
0.0008896152299
0.000894019338
0.0008988429361
0.0009036819559
0.0009080851844
0.0009115601178
0.0009135780367
0.000897648639
0.0009002003682
0.0009038109763
0.0009081871889
0.0009129802395
0.000917788622
0.0009221639829
0.000925616936
0.0009276221007
0.0009117971842
0.0009143326554
0.0009179202609
0.0009222685973
0.0009270311227
0.0009318088913
0.0009361564069
0.0009395873974
0.0009415798179
0.0009258589049
0.0009283781398
0.0009319427744
0.0009362632738
0.000940995318
0.000945742518
0.0009500622298
0.0009534712907
0.0009554509856
0.0009398335561
0.0009423365875
0.0009458782976
0.0009501710173
0.0009548726441
0.00095958934
0.0009638813072
0.000967268485
0.0009692354812
0.000953720978
0.0009562078479
0.0009597266938
0.0009639917073
0.0009686629978
0.0009733492717
0.0009776135693
0.0009809789229
0.0009829332543
0.0009675210877
0.000969991847
0.0009734879009
0.0009777252963
0.0009823663474
0.0009870222969
0.0009912590138
0.0009946026133
0.0009965443202
0.0009812338728
0.0009836885799
0.0009871619247
0.0009913718028
0.0009959827254
0.001000608462
0.0010048177
0.001008139625
0.001010068753
0.000994859384
0.000997298104
0.001000748832
0.001004931305
0.001009512222
0.001014107869
0.001018289739
0.001021590078
0.001023506678
0.001008397728
0.001010820532
0.001014248744
0.001018403933
0.001022954978
0.00102752067
0.001031675294
0.001034954142
0.001036858269
0.001021849063
0.001024256026
0.001027661829
0.001031789865
0.00103631118
0.001040847058
0.001044974565
0.001048232023
0.001050123735
0.001035213588
0.001037604791
0.001040988297
0.001045089316
0.00104958105
0.001054087262
0.001058187787
0.00106142396
0.001063303318
0.001048491541
0.001050867066
0.001054228392
0.001058302534
0.00106276484
0.001067241541
0.001071315223
0.00107453022
0.001076397286
0.001061683187
0.001064043117
0.001067382383
0.001071429792
0.001075862827
0.001080310172
0.00108435715
0.00108755108
0.001089405917
0.001074788811
0.001077133233
0.001080450557
0.001084471378
0.001088875298
0.001093293442
0.001097313856
0.001100486828
0.001102329498
0.001087808713
0.00109013771
0.001093433211
0.001097427585
0.001101802543
0.001106191638
0.001110185623
0.001113337742
0.001115168305
0.00110074319
0.001103056844
0.001106330635
0.001110298698
0.001114644841
0.00111900503
0.001122972715
0.00112610408
0.001127922592
0.001113592527
0.001115890914
0.001119143102
0.00112308498
0.001127402443
0.001131733859
0.001135675359
0.001138786059
0.00114059257
0.001126356981
0.001128640168
0.001131870848
0.001135786653
0.001140075554
0.00114437831
0.001148293723
0.00115138383
0.001153178381
0.001139036755
0.0011413048
0.001144514051
0.001148403874
0.001152664306
0.001156938487
0.001160827886
0.001163897453
0.00116568007
0.001151631978
0.001153884924
0.001157072799
0.0011609367
0.001165168722
0.00116941438
0.001173277803
0.001176326852
0.001178097545
0.001164142669
0.001166380534
0.001169547058
0.001173385058
0.001177588683
0.001181805818
0.001185643254
0.001188671769
0.001190430525
0.001176568693
0.001178791468
0.001181936621
0.001185748687
0.001189923865
0.001194112413
0.001197923789
0.001200931701
0.001202678474
0.001188909708
0.001191117346
0.001194241053
0.001198027081
0.00120217368
0.00120633349
0.00121011865
0.001213105822
0.001214840526
0.001201165101
0.001203357502
0.001206459614
0.001210219407
0.00121433719
0.001218468
0.00122222668
0.001225192887
0.00122691538
0.001213333899
0.0012155109
0.001218591173
0.001222324414
0.001226413006
0.001230514406
0.001234246205
0.001237191105
0.001238901179
0.00122541467
0.001227576025
0.001230634092
0.00123434031
0.001238399159
0.001242470556
0.001246174896
0.001249098004
0.00125079536
0.0012374054
0.001239550755
0.001242586096
0.001246264625
0.001250292957
0.001254333523
0.001258009602
0.001260910247
0.001262594479
0.001249303344
0.001251432211
0.00125444411
0.001258094041
0.001262090803
0.001266099418
0.001269746155
0.001272623439
0.001274294
0.001261104853
0.001263216579
0.001266204079
0.0012698242
0.001273787993
0.001277763174
0.001281379146
0.001284231888
0.001285888065
0.001272805174
0.001274898903
0.001277860753
0.00128144948
0.001285378485
0.001289318311
0.001292901675
0.00129572835
0.001297369222
0.001284398233
0.001286472861
0.001289407451
0.001292962756
0.001296854646
0.001300756662
0.001304305075
0.00130710375
0.001308728151
0.001295876384
0.001297930514
0.001300835811
0.001304355132
0.001308206977
0.001312068104
0.001315578629
0.001318346883
0.001319953355
0.001307230155
0.001309262045
0.001312135515
0.001315615671
0.001319423836
0.001323240263
0.001326709274
0.001329444125
0.001331030876
0.001318447981
0.00132045549
0.001323294025
0.001326731118
0.001330491163
0.00133425824
0.001337681324
0.001340379151
0.001341944007
0.001329515947
0.001331496483
0.001334296323
0.001337685649
0.001341392224
0.001345104367
0.001348476232
0.001351132698
0.00135267306
0.001340417549
0.001342368019
0.001345124687
0.00134846065
0.001352107408
0.001355758001
0.001359072397
0.001361682392
0.001363195202
0.001351133511
0.001353050278
0.001355758515
0.001359034561
0.001362614083
0.001366195418
0.001369445075
0.001372002668
0.001373484382
0.001361641649
0.001363520505
0.001366174239
0.001369382811
0.001372886564
0.001376389795
0.001379566398
0.001382064821
0.001383511403
0.00137191685
0.001373753005
0.001376345332
0.001379477863
0.0013828962
0.001386311357
0.001389405556
0.001391837223
0.001393244158
0.00138193116
0.001383719253
0.001386242466
0.001389289414
0.001392611625
0.001395927675
0.001398929161
0.001401285727
0.001402648063
0.001391654027
0.001393388173
0.001395833828
0.001398784772
0.001401999198
0.001405204178
0.001408101814
0.001410374298
0.00141168672
0.001401052719
0.001402726588
0.001405085626
0.001407929421
0.001411023648
0.001414104874
0.001416886904
0.001419065867
0.001420322808
0.001410092929
0.001411699866
0.001413962792
0.001416687806
0.001419648933
0.001422593294
0.001425247635
0.001427323424
0.001428519216
0.001418739586
0.001420272775
0.001422429897
0.001425024311
0.001427839311
0.001430633652
0.001433148259
0.001435111315
0.001436240376
0.001426957851
0.001428410518
0.001430452248
0.001432904442
0.001435560592
0.001438192172
0.00144055548
0.001442396701
0.001443453757
0.001434714292
0.00143607995
0.001437997155
0.00144029614
0.001442781528
0.001445238543
0.001447439964
0.001449151115
0.001450131444
0.001441978183
0.001443250901
0.001445035292
0.001447171201
0.001449475268
0.001451747417
0.001453777864
0.001455352004
0.001456251691
0.001448722875