/*--------------------------------*- C++ -*----------------------------------*\
| =========                 |                                                 |
| \\      /  F ield         | OpenFOAM: The Open Source CFD Toolbox           |
|  \\    /   O peration     | Version:  2212                                  |
|   \\  /    A nd           | Website:  www.openfoam.com                      |
|    \\/     M anipulation  |                                                 |
\*---------------------------------------------------------------------------*/
FoamFile
{
    version     2.0;
    format      ascii;
    arch        "LSB;label=32;scalar=64";
    class       volScalarField;
    location    "20.00000000";
    object      H;
}
// * * * * * * * * * * * * * * * * * * * * * * * * * * * * * * * * * * * * * //

dimensions      [0 0 0 0 0 0 0];

internalField   nonuniform List<scalar> 
3000
(
3.832695422e-29
4.303012592e-29
5.011206718e-29
5.951365297e-29
7.108660967e-29
8.440398092e-29
9.841598368e-29
1.108927107e-28
1.179533755e-28
1.433308782e-28
1.614576078e-28
1.886763735e-28
2.247552994e-28
2.693116753e-28
3.21479496e-28
3.792865424e-28
4.381344201e-28
4.854430384e-28
3.194768212e-28
3.624533093e-28
4.274983676e-28
5.149781013e-28
6.255217033e-28
7.592457259e-28
9.134341052e-28
1.076611097e-27
1.208023556e-27
6.053133177e-28
6.935589343e-28
8.289902183e-28
1.014929963e-27
1.256022335e-27
1.555566283e-27
1.908160068e-27
2.281270286e-27
2.569617822e-27
1.069162016e-27
1.239607113e-27
1.505296825e-27
1.877309615e-27
2.369557263e-27
2.990894465e-27
3.724809267e-27
4.486481076e-27
5.050895911e-27
1.828998887e-27
2.147281966e-27
2.650649392e-27
3.366868197e-27
4.327863378e-27
5.54953815e-27
6.985760185e-27
8.446026813e-27
9.495554458e-27
3.089620247e-27
3.671850447e-27
4.603691079e-27
5.945389601e-27
7.760963112e-27
1.007290104e-26
1.277049604e-26
1.546752349e-26
1.737379707e-26
5.204196795e-27
6.254158249e-27
7.950159465e-27
1.041255085e-26
1.376084468e-26
1.802125374e-26
2.295664289e-26
2.783013745e-26
3.123983812e-26
8.782834765e-27
1.065704774e-26
1.370520713e-26
1.815583704e-26
2.422349204e-26
3.193136614e-26
4.080795129e-26
4.949805919e-26
5.554353324e-26
1.487906087e-26
1.819933149e-26
2.36261277e-26
3.157995916e-26
4.24384882e-26
5.62090606e-26
7.19975927e-26
8.736488699e-26
9.802373605e-26
2.531367279e-26
3.116271103e-26
4.075670312e-26
5.485435275e-26
7.411440058e-26
9.850516171e-26
1.263820762e-25
1.534117683e-25
1.721354249e-25
4.323495376e-26
5.349565349e-26
7.036920718e-26
9.520779504e-26
1.29156659e-25
1.721042514e-25
2.210841317e-25
2.684581589e-25
3.012615544e-25
7.408977782e-26
9.203428348e-26
1.215991376e-25
1.651756955e-25
2.247538918e-25
3.000711289e-25
3.858441754e-25
4.686752478e-25
5.260302958e-25
1.273067144e-25
1.586189093e-25
2.102803315e-25
2.864996045e-25
3.907365527e-25
5.224544857e-25
6.723219115e-25
8.169077497e-25
9.170182305e-25
2.192151219e-25
2.737662295e-25
3.638659792e-25
4.968984971e-25
6.788854682e-25
9.088051667e-25
1.170266383e-24
1.422361138e-24
1.596811787e-24
3.78110247e-25
4.730432078e-25
6.299738735e-25
8.618333332e-25
1.179114582e-24
1.57995303e-24
2.035662026e-24
2.474875559e-24
2.778313982e-24
6.530476118e-25
8.181382284e-25
1.091236848e-24
1.494964842e-24
2.04763158e-24
2.745931963e-24
3.539785059e-24
4.304685565e-24
4.831288403e-24
1.129124266e-24
1.41610718e-24
1.891135318e-24
2.593769039e-24
3.556011415e-24
4.772143703e-24
6.154891923e-24
7.486909712e-24
8.398345802e-24
1.95405784e-24
2.452868114e-24
3.278991638e-24
4.50163667e-24
6.176871385e-24
8.295047645e-24
1.070434951e-23
1.302549988e-23
1.460545968e-23
3.384474534e-24
4.251576419e-24
5.688472025e-24
7.816371471e-24
1.073382146e-23
1.442506195e-23
1.86265545e-23
2.267762458e-23
2.543821378e-23
5.866653913e-24
7.374557545e-24
9.874866866e-24
1.358029501e-23
1.866482709e-23
2.510390263e-23
3.244088584e-23
3.952435628e-23
4.436044934e-23
1.017766991e-23
1.280171776e-23
1.715583323e-23
2.361447842e-23
3.248673184e-23
4.373731893e-23
5.657677516e-23
6.8996615e-23
7.749984063e-23
1.767272224e-23
2.224369488e-23
2.983497574e-23
4.110872258e-23
5.661857945e-23
7.632208069e-23
9.885832199e-23
1.207192732e-22
1.357479568e-22
3.072006139e-23
3.869374047e-23
5.19507653e-23
7.166909314e-23
9.885098874e-23
1.334692197e-22
1.731874226e-22
2.118681631e-22
2.386160319e-22
5.346873618e-23
6.740452444e-23
9.060730655e-23
1.251889474e-22
1.729874374e-22
2.340683009e-22
3.044432697e-22
3.733521592e-22
4.213892481e-22
9.32103241e-23
1.176262955e-22
1.583537174e-22
2.192153553e-22
3.036332791e-22
4.119906445e-22
5.37532386e-22
6.613449828e-22
7.485878597e-22
1.628082189e-22
2.057199166e-22
2.774702083e-22
3.850585741e-22
5.349651942e-22
7.284892949e-22
9.543145583e-22
1.179093458e-21
1.339671791e-21
2.85060524e-22
3.607733924e-22
4.877529314e-22
6.789846835e-22
9.469627005e-22
1.295416309e-21
1.70568301e-21
2.11875449e-21
2.418869549e-21
5.005970001e-22
6.348214435e-22
8.607874806e-22
1.202937705e-21
1.685804455e-21
2.319252418e-21
3.073206255e-21
3.842825193e-21
4.413231109e-21
8.822999417e-22
1.121617783e-21
1.526391609e-21
2.143342391e-21
3.02149705e-21
4.185715091e-21
5.589224277e-21
7.044912402e-21
8.148381775e-21
1.561901596e-21
1.991481401e-21
2.722155719e-21
3.844643873e-21
5.458538975e-21
7.624521483e-21
1.027403373e-20
1.307149992e-20
1.52446253e-20
2.77957921e-21
3.556720403e-21
4.88737193e-21
6.950434634e-21
9.951190715e-21
1.403446829e-20
1.911042928e-20
2.457409061e-20
2.892816134e-20
4.97753442e-21
6.395963117e-21
8.84335596e-21
1.267774889e-20
1.832760248e-20
2.613287622e-20
3.600450251e-20
4.684567633e-20
5.570946735e-20
8.97880225e-21
1.15934496e-20
1.614405463e-20
2.335694563e-20
3.413570844e-20
4.926804208e-20
6.875137801e-20
9.058488739e-20
1.088834001e-19
1.633343291e-20
2.12056013e-20
2.97664642e-20
4.350736137e-20
6.43495083e-20
9.409845286e-20
1.330915604e-19
1.776522966e-19
2.15866849e-19
2.999779003e-20
3.918267667e-20
5.548714607e-20
8.200499506e-20
1.228455839e-19
1.821076763e-19
2.611341886e-19
3.53108285e-19
4.336172142e-19
5.56856219e-20
7.321284575e-20
1.046590404e-19
1.564959893e-19
2.375461354e-19
3.570263405e-19
5.18913585e-19
7.104193382e-19
8.810044924e-19
1.045910995e-19
1.38457348e-19
1.998737121e-19
3.024621822e-19
4.651901288e-19
7.085769246e-19
1.04301586e-18
1.444143474e-18
1.806505892e-18
1.989472913e-19
2.652028385e-19
3.866176154e-19
5.919745926e-19
9.220083147e-19
1.421892553e-18
2.116839406e-18
2.959518592e-18
3.728758612e-18
3.835084488e-19
5.147012995e-19
7.574605108e-19
1.172688606e-18
1.847548624e-18
2.880219565e-18
4.328622655e-18
6.098656482e-18
7.725486711e-18
7.495272742e-19
1.012252949e-18
1.50256985e-18
2.349187462e-18
3.737435623e-18
5.877528108e-18
8.896542624e-18
1.260267347e-17
1.602013231e-17
1.485301632e-18
2.016820513e-18
3.015696147e-18
4.752886642e-18
7.618883751e-18
1.205607286e-17
1.833140035e-17
2.604458279e-17
3.315637174e-17
2.983582642e-18
4.068377641e-18
6.11721998e-18
9.696819871e-18
1.56203176e-17
2.480049569e-17
3.777371704e-17
5.368858715e-17
6.831575756e-17
6.071223951e-18
8.301113557e-18
1.252430129e-17
1.991543241e-17
3.214377142e-17
5.105136053e-17
7.766488461e-17
1.10151449e-16
1.398303741e-16
1.250222881e-17
1.711083881e-17
2.584219638e-17
4.110403048e-17
6.626754067e-17
1.049604933e-16
1.590413516e-16
2.245472189e-16
2.838838698e-16
2.601806188e-17
3.557788268e-17
5.365259714e-17
8.511513112e-17
1.366542776e-16
2.152314551e-16
3.239888178e-16
4.543822155e-16
5.712388474e-16
5.462454615e-17
7.449474703e-17
1.119026733e-16
1.765799443e-16
2.815626327e-16
4.398639787e-16
6.563413501e-16
9.12725168e-16
1.139642271e-15
1.154544093e-16
1.567745051e-16
2.340880086e-16
3.665870634e-16
5.792739759e-16
8.959102801e-16
1.323094862e-15
1.822222768e-15
2.257962903e-15
2.450421128e-16
3.308839513e-16
4.903154463e-16
7.608124329e-16
1.189798012e-15
1.820011463e-15
2.658701619e-15
3.625433099e-15
4.45765935e-15
5.206763129e-16
6.985757163e-16
1.026381078e-15
1.576901764e-15
2.439911439e-15
3.692533962e-15
5.339989807e-15
7.217402091e-15
8.813715326e-15
1.103765027e-15
1.470933574e-15
2.142427221e-15
3.259960443e-15
4.995434458e-15
7.492794469e-15
1.075395535e-14
1.444764455e-14
1.756347598e-14
2.325466359e-15
3.078693116e-15
4.447585357e-15
6.710518263e-15
1.020534193e-14
1.521957946e-14
2.176928535e-14
2.920480552e-14
3.547740428e-14
4.85061848e-15
6.382988212e-15
9.155583516e-15
1.372314455e-14
2.07732668e-14
3.092855474e-14
4.431173791e-14
5.968862201e-14
7.278587366e-14
9.98410879e-15
1.306906924e-14
1.863810224e-14
2.781184862e-14
4.203122565e-14
6.271549262e-14
9.039836025e-14
1.22798673e-13
1.508362499e-13
2.024092411e-14
2.637867739e-14
3.745353989e-14
5.574046764e-14
8.428077768e-14
1.262992421e-13
1.834428202e-13
2.514581409e-13
3.111109989e-13
4.043027944e-14
5.25003252e-14
7.428632568e-14
1.10360549e-13
1.66996327e-13
2.510684578e-13
3.66323925e-13
5.041449897e-13
6.250603201e-13
7.980721957e-14
1.033045427e-13
1.456987302e-13
2.159229369e-13
3.262060558e-13
4.895380325e-13
7.115737476e-13
9.727168239e-13
1.197016436e-12
1.564932723e-13
2.018626564e-13
2.834503721e-13
4.178602603e-13
6.268323746e-13
9.306849132e-13
1.331462834e-12
1.783622057e-12
2.155042227e-12
3.065117001e-13
3.933263895e-13
5.480982491e-13
7.993650893e-13
1.180783903e-12
1.715274223e-12
2.384857006e-12
3.095046719e-12
3.64469606e-12
6.009601034e-13
7.64432253e-13
1.051143087e-12
1.50459891e-12
2.166753278e-12
3.04662574e-12
4.079613026e-12
5.103714467e-12
5.851683913e-12
1.173846203e-12
1.472347127e-12
1.982962349e-12
2.760888805e-12
3.840973516e-12
5.191302941e-12
6.678836599e-12
8.073606762e-12
9.049177549e-12
2.255431374e-12
2.774046469e-12
3.633303783e-12
4.885574398e-12
6.533613776e-12
8.482861113e-12
1.05301151e-11
1.238351343e-11
1.364467306e-11
4.191535195e-12
5.035842605e-12
6.388257343e-12
8.276760193e-12
1.06531646e-11
1.335801634e-11
1.612348713e-11
1.858184262e-11
2.022485557e-11
7.429927801e-12
8.715561218e-12
1.071713284e-11
1.342411037e-11
1.673528615e-11
2.043004325e-11
2.416223991e-11
2.744825567e-11
2.961506516e-11
1.250133196e-11
1.436074118e-11
1.720293756e-11
2.097787224e-11
2.553318292e-11
3.057473575e-11
3.564057158e-11
4.00735874e-11
4.296432371e-11
2.006455781e-11
2.267939559e-11
2.663929248e-11
3.185567494e-11
3.811563121e-11
4.502082183e-11
5.193999454e-11
5.796713301e-11
6.186187188e-11
3.102311322e-11
3.466123215e-11
4.014701053e-11
4.734698907e-11
5.596621398e-11
6.54587283e-11
7.495350218e-11
8.319743401e-11
8.848782834e-11
4.66462921e-11
5.169000248e-11
5.927771368e-11
6.921706837e-11
8.110007322e-11
9.417544929e-11
1.072424154e-10
1.185664488e-10
1.257986322e-10
6.866858947e-11
7.564314214e-11
8.612049174e-11
9.982779394e-11
1.162032732e-10
1.342181076e-10
1.522210972e-10
1.678129983e-10
1.777425551e-10
9.939228996e-11
1.090023563e-10
1.234236669e-10
1.422764563e-10
1.647942129e-10
1.895757697e-10
2.143593544e-10
2.358329089e-10
2.494910963e-10
1.417994908e-10
1.549735594e-10
1.747299197e-10
2.005478569e-10
2.313911268e-10
2.653636381e-10
2.993823448e-10
3.288917613e-10
3.47659403e-10
1.996744504e-10
2.176170194e-10
2.445133941e-10
2.796590555e-10
3.216652939e-10
3.679834818e-10
4.14436061e-10
4.547928312e-10
4.804746433e-10
2.777188066e-10
3.019626486e-10
3.382952312e-10
3.857732835e-10
4.425500802e-10
5.052237934e-10
5.681748381e-10
6.229504122e-10
6.578385554e-10
3.816373474e-10
4.14089634e-10
4.627122665e-10
5.262515331e-10
6.02268027e-10
6.862549002e-10
7.707192598e-10
8.443112262e-10
8.912235267e-10
5.181699659e-10
5.611424578e-10
6.255071376e-10
7.096053241e-10
8.1023408e-10
9.214717338e-10
1.033432526e-09
1.13106873e-09
1.193345446e-09
6.950407748e-10
7.512523908e-10
8.354062765e-10
9.453142958e-10
1.076796147e-09
1.222143969e-09
1.368474883e-09
1.49613101e-09
1.577575366e-09
9.20795533e-10
9.933352568e-10
1.10185659e-09
1.243480426e-09
1.412787411e-09
1.599852586e-09
1.788121565e-09
1.952334619e-09
2.057087372e-09
1.204504773e-09
1.296744993e-09
1.434604276e-09
1.614308663e-09
1.828889406e-09
2.06572391e-09
2.303869048e-09
2.51144223e-09
2.643789253e-09
1.555323993e-09
1.670779565e-09
1.843120804e-09
2.067431201e-09
2.33483907e-09
2.629513302e-09
2.925401872e-09
3.18301427e-09
3.347137511e-09
1.981923978e-09
2.124060382e-09
2.335909757e-09
2.611126028e-09
2.938551196e-09
3.298633212e-09
3.659537935e-09
3.973292105e-09
4.17298631e-09
2.491831222e-09
2.663835013e-09
2.919758929e-09
3.251512959e-09
3.645261255e-09
4.077253312e-09
4.509301346e-09
4.884259258e-09
5.122647811e-09
3.090745205e-09
3.29527948e-09
3.599027517e-09
3.991833222e-09
4.456812007e-09
4.965612747e-09
5.473277123e-09
5.913046627e-09
6.192345495e-09
3.781918746e-09
4.020893051e-09
4.37506998e-09
4.831923323e-09
5.371202543e-09
5.959668564e-09
6.54537348e-09
7.051800224e-09
7.373053131e-09
4.565692749e-09
4.840078442e-09
5.245890371e-09
5.76797567e-09
6.382488284e-09
7.051163585e-09
7.715074191e-09
8.288015904e-09
8.651141759e-09
5.439263181e-09
5.748980868e-09
6.20609271e-09
6.792639564e-09
7.481071582e-09
8.228143238e-09
8.968099308e-09
9.605696359e-09
1.000964283e-08
6.396727511e-09
6.740623718e-09
7.247151691e-09
7.895464684e-09
8.654363748e-09
9.475755082e-09
1.028781582e-08
1.098714328e-08
1.143137736e-08
7.429419109e-09
7.805337268e-09
8.358002303e-09
9.063643017e-09
9.887599886e-09
1.077763342e-08
1.16567435e-08
1.241511032e-08
1.289835608e-08
8.526513538e-09
8.931410301e-09
9.525613086e-09
1.028279122e-08
1.116523545e-08
1.211737048e-08
1.305865222e-08
1.387143548e-08
1.438839287e-08
9.675535988e-09
1.01057768e-08
1.073626924e-08
1.153847169e-08
1.24724771e-08
1.348087556e-08
1.447721761e-08
1.533519436e-08
1.58805264e-08
1.086373064e-08
1.131543031e-08
1.197679474e-08
1.281771365e-08
1.37978094e-08
1.485362222e-08
1.589351046e-08
1.678763244e-08
1.735592452e-08
1.207932258e-08
1.254896052e-08
1.323710037e-08
1.411196536e-08
1.512769233e-08
1.621868427e-08
1.72911608e-08
1.821252623e-08
1.879834934e-08
1.331488767e-08
1.379990082e-08
1.450859968e-08
1.540669919e-08
1.644680045e-08
1.756176814e-08
1.865637416e-08
1.959631833e-08
2.019432258e-08
1.45609617e-08
1.505525356e-08
1.577630699e-08
1.668829385e-08
1.774257795e-08
1.887106332e-08
1.997786179e-08
2.092806599e-08
2.153307071e-08
1.580319818e-08
1.630178582e-08
1.702821733e-08
1.794567349e-08
1.900475568e-08
2.013700379e-08
2.124665245e-08
2.219924839e-08
2.280632002e-08
1.703043492e-08
1.752893165e-08
1.825450046e-08
1.916975747e-08
2.022500951e-08
2.135200434e-08
2.245583585e-08
2.340349355e-08
2.400800867e-08
1.823349057e-08
1.872795561e-08
1.944702464e-08
2.035311815e-08
2.139668005e-08
2.251019288e-08
2.360028134e-08
2.453627641e-08
2.513397009e-08
1.940465265e-08
1.989155117e-08
2.059905737e-08
2.148972578e-08
2.251452811e-08
2.360715598e-08
2.467636369e-08
2.559462426e-08
2.618162475e-08
2.053741139e-08
2.101360467e-08
2.170505411e-08
2.257474386e-08
2.357452267e-08
2.463971061e-08
2.568171523e-08
2.657685031e-08
2.71497018e-08
2.162629299e-08
2.208903373e-08
2.276049803e-08
2.360436289e-08
2.457366233e-08
2.560570922e-08
2.661501286e-08
2.748232463e-08
2.803799925e-08
2.26667424e-08
2.311366797e-08
2.376177548e-08
2.457566671e-08
2.550982895e-08
2.650387837e-08
2.747580113e-08
2.831128289e-08
2.884718318e-08
2.365503642e-08
2.408415817e-08
2.470607867e-08
2.548652599e-08
2.638166963e-08
2.733368754e-08
2.826434723e-08
2.906466883e-08
2.957862172e-08
2.458821691e-08
2.499790544e-08
2.559132857e-08
2.633551282e-08
2.718850112e-08
2.809524201e-08
2.898152206e-08
2.974400456e-08
3.023424784e-08
2.546403661e-08
2.585300334e-08
2.641611157e-08
2.712183002e-08
2.793023041e-08
2.878919384e-08
2.962870119e-08
3.035128236e-08
3.081644494e-08
2.628091164e-08
2.664818724e-08
2.717962404e-08
2.784524968e-08
2.860728613e-08
2.941666542e-08
3.02076805e-08
3.088887304e-08
3.132795001e-08
2.703787605e-08
2.738278625e-08
2.788162054e-08
2.850605669e-08
2.922055663e-08
2.997918163e-08
3.07206024e-08
3.135944677e-08
3.177177072e-08
2.773453534e-08
2.805667493e-08
2.852236288e-08
2.91049944e-08
2.977133195e-08
3.047860796e-08
3.116989009e-08
3.176590385e-08
3.215111362e-08
2.837101753e-08
2.867022315e-08
2.910256834e-08
2.964321107e-08
3.026124824e-08
3.091709303e-08
3.155818822e-08
3.21113136e-08
3.246932165e-08
2.894792145e-08
2.922424397e-08
2.962335707e-08
3.01222067e-08
3.069223436e-08
3.129701492e-08
3.188830916e-08
3.239886048e-08
3.272981986e-08
2.946626289e-08
2.971994004e-08
3.00861989e-08
3.054378067e-08
3.106646048e-08
3.162093121e-08
3.216318445e-08
3.263179664e-08
3.293606861e-08
2.992741969e-08
3.015884948e-08
3.049286057e-08
3.090998073e-08
3.138628944e-08
3.189153291e-08
3.238582132e-08
3.281340068e-08
3.309152349e-08
3.033307717e-08
3.054279262e-08
3.084535439e-08
3.122305429e-08
3.165423121e-08
3.211160244e-08
3.255926425e-08
3.29469422e-08
3.319960169e-08
3.06851751e-08
3.087382062e-08
3.114588936e-08
3.148540276e-08
3.187290099e-08
3.228397597e-08
3.268656143e-08
3.303565174e-08
3.326365405e-08
3.098585736e-08
3.115416699e-08
3.139682545e-08
3.16995394e-08
3.204498137e-08
3.24115101e-08
3.277073598e-08
3.308269586e-08
3.328694248e-08
3.123742509e-08
3.138620278e-08
3.160063173e-08
3.186805127e-08
3.217318862e-08
3.249705296e-08
3.281476169e-08
3.30911568e-08
3.327262214e-08
3.144229392e-08
3.157239579e-08
3.175984867e-08
3.199356526e-08
3.226024322e-08
3.254341948e-08
3.282154288e-08
3.306401637e-08
3.322372773e-08
3.16029555e-08
3.171527423e-08
3.187705467e-08
3.207871853e-08
3.230884458e-08
3.255337065e-08
3.279389829e-08
3.300414358e-08
3.31431636e-08
3.172194361e-08
3.181739474e-08
3.195483699e-08
3.212613286e-08
3.232164952e-08
3.252959651e-08
3.273454821e-08
3.291428548e-08
3.303369685e-08
3.180180458e-08
3.188131467e-08
3.199576671e-08
3.213839309e-08
3.230125459e-08
3.247470244e-08
3.264610484e-08
3.279706089e-08
3.289795323e-08
3.184507199e-08
3.190956851e-08
3.200237763e-08
3.211802909e-08
3.225018157e-08
3.23911985e-08
3.253106521e-08
3.265495647e-08
3.273841522e-08
3.18542453e-08
3.190464808e-08
3.197714874e-08
3.206750109e-08
3.217086606e-08
3.228149141e-08
3.239180655e-08
3.249032489e-08
3.255742199e-08
3.183177207e-08
3.186898619e-08
3.192248997e-08
3.198918797e-08
3.206564868e-08
3.21478788e-08
3.223058346e-08
3.230538457e-08
3.235717083e-08
3.178003353e-08
3.18049435e-08
3.184073085e-08
3.188537824e-08
3.19367686e-08
3.199254551e-08
3.20495269e-08
3.210222093e-08
3.213971977e-08
3.170133305e-08
3.171479811e-08
3.173411176e-08
3.175826327e-08
3.178635914e-08
3.181756156e-08
3.185064444e-08
3.188278866e-08
3.190699124e-08
3.159788719e-08
3.160073762e-08
3.160477744e-08
3.160993263e-08
3.161644504e-08
3.162488155e-08
3.163582173e-08
3.16489149e-08
3.166077633e-08
3.147181907e-08
3.146485341e-08
3.145477246e-08
3.144237109e-08
3.142894126e-08
3.141634525e-08
3.140682486e-08
3.140230312e-08
3.140273967e-08
3.132515372e-08
3.130913667e-08
3.128603843e-08
3.125745715e-08
3.122565298e-08
3.119367922e-08
3.116530344e-08
3.114453757e-08
3.113442469e-08
3.115981502e-08
3.11354761e-08
3.110041258e-08
3.105696278e-08
3.100827668e-08
3.095849916e-08
3.091279434e-08
3.087708799e-08
3.085725914e-08
3.097762427e-08
3.094565695e-08
3.08996276e-08
3.084255427e-08
3.077840198e-08
3.071231297e-08
3.065072571e-08
3.060131471e-08
3.057256072e-08
3.07802998e-08
3.074136118e-08
3.068531249e-08
3.061579385e-08
3.053751429e-08
3.045652427e-08
3.038042153e-08
3.03184739e-08
3.028154286e-08
3.056945774e-08
3.052416856e-08
3.045899422e-08
3.037814207e-08
3.028699788e-08
3.019243628e-08
3.010310619e-08
3.002972279e-08
2.998532044e-08
3.034661354e-08
3.029555858e-08
3.022210011e-08
3.013096072e-08
3.002813946e-08
2.992125609e-08
2.981990933e-08
2.973612511e-08
2.968491546e-08
3.011318422e-08
3.005691294e-08
2.997596067e-08
2.987551619e-08
2.976213202e-08
2.964409894e-08
2.953187071e-08
2.943865631e-08
2.938126264e-08
2.987049119e-08
2.98095186e-08
2.972181301e-08
2.961298318e-08
2.949007894e-08
2.93619928e-08
2.923994509e-08
2.91382088e-08
2.907521484e-08
2.961976344e-08
2.955457113e-08
2.94608044e-08
2.934444857e-08
2.921299822e-08
2.907588286e-08
2.894500709e-08
2.883559704e-08
2.876754833e-08
2.936214112e-08
2.929317842e-08
2.919399617e-08
2.907091555e-08
2.89318268e-08
2.878663614e-08
2.864785594e-08
2.853156253e-08
2.845896787e-08
2.909867929e-08
2.902636458e-08
2.892236772e-08
2.87933078e-08
2.864742488e-08
2.849504594e-08
2.834922013e-08
2.822677857e-08
2.815011162e-08
2.883035188e-08
2.875507391e-08
2.864682066e-08
2.851247367e-08
2.836058032e-08
2.820183632e-08
2.8049762e-08
2.792185486e-08
2.784155579e-08
2.855805578e-08
2.848017505e-08
2.836818293e-08
2.822919046e-08
2.807201282e-08
2.790766642e-08
2.775008205e-08
2.761734197e-08
2.753381907e-08
2.828261483e-08
2.820246502e-08
2.808721291e-08
2.794416851e-08
2.778237818e-08
2.761313466e-08
2.745072319e-08
2.731373551e-08
2.72273669e-08
2.800478397e-08
2.792267335e-08
2.780460358e-08
2.765805531e-08
2.749227235e-08
2.731878276e-08
2.715217476e-08
2.701148015e-08
2.692261543e-08
2.772525326e-08
2.764146608e-08
2.752098645e-08
2.737143952e-08
2.720223536e-08
2.702509969e-08
2.685487635e-08
2.671097344e-08
2.661993533e-08
2.74446518e-08
2.735944971e-08
2.723693552e-08
2.708485478e-08
2.691275513e-08
2.673252537e-08
2.655922153e-08
2.64125694e-08
2.631965532e-08
2.716355163e-08
2.707717503e-08
2.695297104e-08
2.679878342e-08
2.662427111e-08
2.644145424e-08
2.626556121e-08
2.611658188e-08
2.602206557e-08
2.688247144e-08
2.679514078e-08
2.666956312e-08
2.651366009e-08
2.633717776e-08
2.615223859e-08
2.597420702e-08
2.582328782e-08
2.572742076e-08
2.660188019e-08
2.651379728e-08
2.638713529e-08
2.622987509e-08
2.605182783e-08
2.586519182e-08
2.568543433e-08
2.553293016e-08
2.543594308e-08
2.632220057e-08
2.623354977e-08
2.610606779e-08
2.594777768e-08
2.576853554e-08
2.558059142e-08
2.539948518e-08
2.524572072e-08
2.514782496e-08
2.604381226e-08
2.595476171e-08
2.582670075e-08
2.566767911e-08
2.548757953e-08
2.529868182e-08
2.511657099e-08
2.496184276e-08
2.486323161e-08
2.576705516e-08
2.567775784e-08
2.554933721e-08
2.538985556e-08
2.520920561e-08
2.501967706e-08
2.483687513e-08
2.468145348e-08
2.45823034e-08
2.549223227e-08
2.540282712e-08
2.527424598e-08
2.511455088e-08
2.493362947e-08
2.474376329e-08
2.456055526e-08
2.440468625e-08
2.43051581e-08
2.521961261e-08
2.51302255e-08
2.500166431e-08
2.484197918e-08
2.466103907e-08
2.447110115e-08
2.428774562e-08
2.413165274e-08
2.40318929e-08
2.494943381e-08
2.486017854e-08
2.473180042e-08
2.457232726e-08
2.439159704e-08
2.42018279e-08
2.401855902e-08
2.386244493e-08
2.376258634e-08
2.468190465e-08
2.459288382e-08
2.446483586e-08
2.430575685e-08
2.412544273e-08
2.39360595e-08
2.375308883e-08
2.359713686e-08
2.349730002e-08
2.441720738e-08
2.432851326e-08
2.420092776e-08
2.404240675e-08
2.386269429e-08
2.367389247e-08
2.34914107e-08
2.333578635e-08
2.32360803e-08
2.415549994e-08
2.406721527e-08
2.394021085e-08
2.378239481e-08
2.360345052e-08
2.341540566e-08
2.323358422e-08
2.307843656e-08
2.29789597e-08
2.389691803e-08
2.380911675e-08
2.368279944e-08
2.352581979e-08
2.334779261e-08
2.316066191e-08
2.29796545e-08
2.282511739e-08
2.272595836e-08
2.3641577e-08
2.355432496e-08
2.342878922e-08
2.327276303e-08
2.309578577e-08
2.29097095e-08
2.272965349e-08
2.257584686e-08
2.247708527e-08
2.338957368e-08
2.330292928e-08
2.31782589e-08
2.302329011e-08
2.284748071e-08
2.266258362e-08
2.248360137e-08
2.233063229e-08
2.223233944e-08
2.314098795e-08
2.305500278e-08
2.293127178e-08
2.277745223e-08
2.260291503e-08
2.241930758e-08
2.224150768e-08
2.208947142e-08
2.199171097e-08
2.28958844e-08
2.281060377e-08
2.268787719e-08
2.253528765e-08
2.236211449e-08
2.217989407e-08
2.200337245e-08
2.185235344e-08
2.175518205e-08
2.265431364e-08
2.256977714e-08
2.244811183e-08
2.229682291e-08
2.212509417e-08
2.19443462e-08
2.176918722e-08
2.161925996e-08
2.152272783e-08
2.241631371e-08
2.233255566e-08
2.221200094e-08
2.206207399e-08
2.189185959e-08
2.171265852e-08
2.153893592e-08
2.139016582e-08
2.129431727e-08
2.218191123e-08
2.209896117e-08
2.197955952e-08
2.183104739e-08
2.16624077e-08
2.148481796e-08
2.13125958e-08
2.116503993e-08
2.106991385e-08
2.195112257e-08
2.186900568e-08
2.175079329e-08
2.160374112e-08
2.143672776e-08
2.126080463e-08
2.109013812e-08
2.094384596e-08
2.08494763e-08
2.172395488e-08
2.164269233e-08
2.152569971e-08
2.138014558e-08
2.121480224e-08
2.104059268e-08
2.087152894e-08
2.072654302e-08
2.063295922e-08
2.150040701e-08
2.142001637e-08
2.130426883e-08
2.11602444e-08
2.099660754e-08
2.082415091e-08
2.065672973e-08
2.051308625e-08
2.04203136e-08
2.128047042e-08
2.120096596e-08
2.108648411e-08
2.094401523e-08
2.078211472e-08
2.061144349e-08
2.044569796e-08
2.030342736e-08
2.021148742e-08
2.106412997e-08
2.098552297e-08
2.087232315e-08
2.073143039e-08
2.057129015e-08
2.040243054e-08
2.023838769e-08
2.009751517e-08
2.000642604e-08
2.085136464e-08
2.077366369e-08
2.066175837e-08
2.052245752e-08
2.036409608e-08
2.019706864e-08
2.003474999e-08
1.989529601e-08
1.98050727e-08
2.064214822e-08
2.056535946e-08
2.045475762e-08
2.031706016e-08
2.016049117e-08
1.999531134e-08
1.983473345e-08
1.969671416e-08
1.960736886e-08
2.043644983e-08
2.036057724e-08
2.025128471e-08
2.011519826e-08
1.996043098e-08
1.979710961e-08
1.963828455e-08
1.950171224e-08
1.941325458e-08
2.023423455e-08
2.01592801e-08
2.005129992e-08
1.991682858e-08
1.976386837e-08
1.960241216e-08
1.9445348e-08
1.931023147e-08
1.92226688e-08
2.003546372e-08
1.996142766e-08
1.985476034e-08
1.972190514e-08
1.957075384e-08
1.941116582e-08
1.925586703e-08
1.912221199e-08
1.903554962e-08
1.98400954e-08
1.97669764e-08
1.966162022e-08
1.953037942e-08
1.938103575e-08
1.92233157e-08
1.906978362e-08
1.893759302e-08
1.885183446e-08
1.964808448e-08
1.957587982e-08
1.947183109e-08
1.934220053e-08
1.919466051e-08
1.903880535e-08
1.888703853e-08
1.875631297e-08
1.867146014e-08
1.945938275e-08
1.938808851e-08
1.928534181e-08
1.91573152e-08
1.901157246e-08
1.885757666e-08
1.870757132e-08
1.857830935e-08
1.849436285e-08
1.92739387e-08
1.920354988e-08
1.910209828e-08
1.897566749e-08
1.883171364e-08
1.867956958e-08
1.853131994e-08
1.840351846e-08
1.832047783e-08
1.909169698e-08
1.902220763e-08
1.892204286e-08
1.879719817e-08
1.865502308e-08
1.850472141e-08
1.835822011e-08
1.823187472e-08
1.81497387e-08
1.891259738e-08
1.884400071e-08
1.874511332e-08
1.86218436e-08
1.848143564e-08
1.833296558e-08
1.818820403e-08
1.80633094e-08
1.798207619e-08
1.873657326e-08
1.866886164e-08
1.857124103e-08
1.844953385e-08
1.831088008e-08
1.816422965e-08
1.80211983e-08
1.789774853e-08
1.781741612e-08
1.8563549e-08
1.849671393e-08
1.840034833e-08
1.828018991e-08
1.814327606e-08
1.799843216e-08
1.785712074e-08
1.773510962e-08
1.765567603e-08
1.839343642e-08
1.832746836e-08
1.823234458e-08
1.811371954e-08
1.797852977e-08
1.783547804e-08
1.76958755e-08
1.757529662e-08
1.749676011e-08
1.822612969e-08
1.816101766e-08
1.806712056e-08
1.795001131e-08
1.781652763e-08
1.76752519e-08
1.753734604e-08
1.74181927e-08
1.734055183e-08
1.806149826e-08
1.799722926e-08
1.790454087e-08
1.778892654e-08
1.765712761e-08
1.751760878e-08
1.738138535e-08
1.726364993e-08
1.718690336e-08
1.789937754e-08
1.783593551e-08
1.774443363e-08
1.763028829e-08
1.750014748e-08
1.736236156e-08
1.722780251e-08
1.711147521e-08
1.70356211e-08
1.773955674e-08
1.767692111e-08
1.758657709e-08
1.747386709e-08
1.734534944e-08
1.720926443e-08
1.707634503e-08
1.696141163e-08
1.688644637e-08
1.758176334e-08
1.751990689e-08
1.743068263e-08
1.73193627e-08
1.719242049e-08
1.705799174e-08
1.692667612e-08
1.681311434e-08
1.673903044e-08
1.74256439e-08
1.736452989e-08
1.727637355e-08
1.716638146e-08
1.704094803e-08
1.690811158e-08
1.677834635e-08
1.666612049e-08
1.659290324e-08
1.72707408e-08
1.721031912e-08
1.712315955e-08
1.701440895e-08
1.689039032e-08
1.675905396e-08
1.663075939e-08
1.65198127e-08
1.644743544e-08
1.711646481e-08
1.705666713e-08
1.697040662e-08
1.686277782e-08
1.674004194e-08
1.661007349e-08
1.648313179e-08
1.637337637e-08
1.630179387e-08
1.696206367e-08
1.690279732e-08
1.681730272e-08
1.671063123e-08
1.658899449e-08
1.646020705e-08
1.633444762e-08
1.622575133e-08
1.615489122e-08
1.680658714e-08
1.674772789e-08
1.666281985e-08
1.655688261e-08
1.643609356e-08
1.630822769e-08
1.618340907e-08
1.607557945e-08
1.600533157e-08
1.664884961e-08
1.659023324e-08
1.650567381e-08
1.640017322e-08
1.627989373e-08
1.615259665e-08
1.602838536e-08
1.59211507e-08
1.585135426e-08
1.648739176e-08
1.642880468e-08
1.63442835e-08
1.623882966e-08
1.61186139e-08
1.599141631e-08
1.586736325e-08
1.576035117e-08
1.569078023e-08
1.632044357e-08
1.626161288e-08
1.617673247e-08
1.607082434e-08
1.595009651e-08
1.582238806e-08
1.569790332e-08
1.559061792e-08
1.552096568e-08
1.614589164e-08
1.608647508e-08
1.600073618e-08
1.589374278e-08
1.5771775e-08
1.564277983e-08
1.551710774e-08
1.540890674e-08
1.533876967e-08
1.596125456e-08
1.590083125e-08
1.581361929e-08
1.570476252e-08
1.558065472e-08
1.544940948e-08
1.532160601e-08
1.521168009e-08
1.514054338e-08
1.576367103e-08
1.570173396e-08
1.561230818e-08
1.550064928e-08
1.537331367e-08
1.523865075e-08
1.510756645e-08
1.499492337e-08
1.492214958e-08
1.554990554e-08
1.548585712e-08
1.539334442e-08
1.527777662e-08
1.514592974e-08
1.500646906e-08
1.487074115e-08
1.475419833e-08
1.467902162e-08
1.531637753e-08
1.524952961e-08
1.515292522e-08
1.503217558e-08
1.489434147e-08
1.474849515e-08
1.46065527e-08
1.448474195e-08
1.440627065e-08
1.505921942e-08
1.498879953e-08
1.488697696e-08
1.475962032e-08
1.461414873e-08
1.446014261e-08
1.431022968e-08
1.418161818e-08
1.409884852e-08
1.477436894e-08
1.469953424e-08
1.459126683e-08
1.445575526e-08
1.430085843e-08
1.413677473e-08
1.397699538e-08
1.383992698e-08
1.375177076e-08
1.445769959e-08
1.437756012e-08
1.426155656e-08
1.411626679e-08
1.395007797e-08
1.377392241e-08
1.360231122e-08
1.345507109e-08
1.336039947e-08
1.410519151e-08
1.401884373e-08
1.389379878e-08
1.373709961e-08
1.355775545e-08
1.336755084e-08
1.318217071e-08
1.302307496e-08
1.292077952e-08
1.371314156e-08
1.361971266e-08