/*--------------------------------*- C++ -*----------------------------------*\
| =========                 |                                                 |
| \\      /  F ield         | OpenFOAM: The Open Source CFD Toolbox           |
|  \\    /   O peration     | Version:  2212                                  |
|   \\  /    A nd           | Website:  www.openfoam.com                      |
|    \\/     M anipulation  |                                                 |
\*---------------------------------------------------------------------------*/
FoamFile
{
    version     2.0;
    format      ascii;
    arch        "LSB;label=32;scalar=64";
    class       volScalarField;
    location    "20.00000000";
    object      H2_0;
}
// * * * * * * * * * * * * * * * * * * * * * * * * * * * * * * * * * * * * * //

dimensions      [0 0 0 0 0 0 0];

internalField   nonuniform List<scalar> 
3000
(
1.213175678e-22
1.362747631e-22
1.588445236e-22
1.889204224e-22
2.261973444e-22
2.696639595e-22
3.167023996e-22
3.615873629e-22
3.933324019e-22
4.554927338e-22
5.137185831e-22
6.01542466e-22
7.188369454e-22
8.654888386e-22
1.040684903e-21
1.241387988e-21
1.457429678e-21
1.648856761e-21
1.020317112e-21
1.159787111e-21
1.372166716e-21
1.660538273e-21
2.03009983e-21
2.486213138e-21
3.027094662e-21
3.622323535e-21
4.1311715e-21
1.943591987e-21
2.23245099e-21
2.678766991e-21
3.297656268e-21
4.111062125e-21
5.139642366e-21
6.377750279e-21
7.726094186e-21
8.81442267e-21
3.451587638e-21
4.01328588e-21
4.894833704e-21
6.141037438e-21
7.810543251e-21
9.950117962e-21
1.252394539e-20
1.52569313e-20
1.735477453e-20
5.935725268e-21
6.99014839e-21
8.668718216e-21
1.107860219e-20
1.434842969e-20
1.856055642e-20
2.358939968e-20
2.880094763e-20
3.265711505e-20
1.007727107e-20
1.201433237e-20
1.513392484e-20
1.966318342e-20
2.585440777e-20
3.383074869e-20
4.326246748e-20
5.284555946e-20
5.976052701e-20
1.705459313e-20
2.056035272e-20
2.625650133e-20
3.459055862e-20
4.602741439e-20
6.073172982e-20
7.796581567e-20
9.52210519e-20
1.074640409e-19
2.890925337e-20
3.518681274e-20
4.545254955e-20
6.054847285e-20
8.13014452e-20
1.079108648e-19
1.388734496e-19
1.69551298e-19
1.910775205e-19
4.917625521e-20
6.03284714e-20
7.864932598e-20
1.056776453e-19
1.428574906e-19
1.904045138e-19
2.454234576e-19
2.995367159e-19
3.37225051e-19
8.398044995e-20
1.036759632e-19
1.361348063e-19
1.841179291e-19
2.501256919e-19
3.343504198e-19
4.314093036e-19
5.263812042e-19
5.921944971e-19
1.439362825e-19
1.785659741e-19
2.357624846e-19
3.204225283e-19
4.36861868e-19
5.851719754e-19
7.555669086e-19
9.216979995e-19
1.036424605e-18
2.474454387e-19
3.081321077e-19
4.085184691e-19
5.572261234e-19
7.617006688e-19
1.021786123e-18
1.319948405e-18
1.609911547e-18
1.809670838e-18
4.264186569e-19
5.32507626e-19
7.081833313e-19
9.685560072e-19
1.326479351e-18
1.781278817e-18
2.301836332e-18
2.807161491e-18
3.154688435e-18
7.362071214e-19
9.213296948e-19
1.228107732e-18
1.682945001e-18
2.308053136e-18
3.101744495e-18
4.009145598e-18
4.888840223e-18
5.493079439e-18
1.272841284e-18
1.595445894e-18
2.1303366e-18
2.923561168e-18
4.013537719e-18
5.396671908e-18
6.976618992e-18
8.506844609e-18
9.556945405e-18
2.202956354e-18
2.76459892e-18
3.696174951e-18
5.077882506e-18
6.976219343e-18
9.384079561e-18
1.213280988e-17
1.479309896e-17
1.661741279e-17
3.815742427e-18
4.792850012e-18
6.413976667e-18
8.81865976e-18
1.212205517e-17
1.631067342e-17
2.108990265e-17
2.571276505e-17
2.888127033e-17
6.613126846e-18
8.312154878e-18
1.113154591e-17
1.531389122e-17
2.105864966e-17
2.834080721e-17
3.664648812e-17
4.467686481e-17
5.017879761e-17
1.14663106e-17
1.441950851e-17
1.932066155e-17
2.659122618e-17
3.657664378e-17
4.923113304e-17
6.365927499e-17
7.760390825e-17
8.715472172e-17
1.988743801e-17
2.501909819e-17
3.353614673e-17
4.617026866e-17
6.351946101e-17
8.550041148e-17
1.105538986e-16
1.347590336e-16
1.513317502e-16
3.450092733e-17
4.341591133e-17
5.821222657e-17
8.015918178e-17
1.1029117e-16
1.484566575e-16
1.919414901e-16
2.339378021e-16
2.626814665e-16
5.986072375e-17
7.534489231e-17
1.010428398e-16
1.391546066e-16
1.914674503e-16
2.577050883e-16
3.331434382e-16
4.059671864e-16
4.557895003e-16
1.038667151e-16
1.307545578e-16
1.753733553e-16
2.415322406e-16
3.323142164e-16
4.472122704e-16
5.780040449e-16
7.041942797e-16
7.904830685e-16
1.802168945e-16
2.268943252e-16
3.04338778e-16
4.191363368e-16
5.765929852e-16
7.757693618e-16
1.00235273e-15
1.22081489e-15
1.370101658e-15
3.126470394e-16
3.936508149e-16
5.280123097e-16
7.270992097e-16
1.000016024e-15
1.345002749e-15
1.737138509e-15
2.11488711e-15
2.372804545e-15
5.422493693e-16
6.827560521e-16
9.157317678e-16
1.260753868e-15
1.733383983e-15
2.330283683e-15
3.008047955e-15
3.660208412e-15
4.105000809e-15
9.400797918e-16
1.183640473e-15
1.5872994e-15
2.184677948e-15
3.002241938e-15
4.033580605e-15
5.2030721e-15
6.326764314e-15
7.092082186e-15
1.628821413e-15
2.050651772e-15
2.749332275e-15
3.782399197e-15
5.194579428e-15
6.973424223e-15
8.987156372e-15
1.09185222e-14
1.22316015e-14
2.81989838e-15
3.54963427e-15
4.757359643e-15
6.541103646e-15
8.975856816e-15
1.203722609e-14
1.549558467e-14
1.880503805e-14
2.105010664e-14
4.876837728e-15
6.137332188e-15
8.221441844e-15
1.129528234e-14
1.548334978e-14
2.073755124e-14
2.665791114e-14
3.230784053e-14
3.613041295e-14
8.423009401e-15
1.059614282e-14
1.418490431e-14
1.946892788e-14
2.66523858e-14
3.564019108e-14
4.573629982e-14
5.533960317e-14
6.181620608e-14
1.452399754e-14
1.826164201e-14
2.442505683e-14
3.348122374e-14
4.575996776e-14
6.107341654e-14
7.821233082e-14
9.445165525e-14
1.05362843e-13
2.499474172e-14
3.140456756e-14
4.19558775e-14
5.742111575e-14
7.832324109e-14
1.042925848e-13
1.332338018e-13
1.605334184e-13
1.787975561e-13
4.291393188e-14
5.386808554e-14
7.186228868e-14
9.815992522e-14
1.335711453e-13
1.773738815e-13
2.259508397e-13
2.715400787e-13
3.018938125e-13
7.348027616e-14
9.212365121e-14
1.226739581e-13
1.671703971e-13
2.268317396e-13
3.002619081e-13
3.8124717e-13
4.568221528e-13
5.06874163e-13
1.254284835e-13
1.570074584e-13
2.086085702e-13
2.834729632e-13
3.833656265e-13
5.056213721e-13
6.396334939e-13
7.639204547e-13
8.457626391e-13
2.133542733e-13
2.665535534e-13
3.532022873e-13
4.783609696e-13
6.444566588e-13
8.464759673e-13
1.066451655e-12
1.269111199e-12
1.401752256e-12
3.615031235e-13
4.505774556e-13
5.951305409e-13
8.029023288e-13
1.076985515e-12
1.408103262e-12
1.766090948e-12
2.093592919e-12
2.306592262e-12
6.09894612e-13
7.580266387e-13
9.974509287e-13
1.339726484e-12
1.788316869e-12
2.326356757e-12
2.903711813e-12
3.428075479e-12
3.76691285e-12
1.024137853e-12
1.268660227e-12
1.662136224e-12
2.22135418e-12
2.949206517e-12
3.815594201e-12
4.738105551e-12
5.56976781e-12
6.103703024e-12
1.711021691e-12
2.111432735e-12
2.7526996e-12
3.658413054e-12
4.828692264e-12
6.210828998e-12
7.670928665e-12
8.977513158e-12
9.810994724e-12
2.843045356e-12
3.493151403e-12
4.529071669e-12
5.982643214e-12
7.846726559e-12
1.003076217e-11
1.231982786e-11
1.4353294e-11
1.564239736e-11
4.696642592e-12
5.742713786e-12
7.400843618e-12
9.711826138e-12
1.265285493e-11
1.60712358e-11
1.962618061e-11
2.276180747e-11
2.473776772e-11
7.711151865e-12
9.378731192e-12
1.200778148e-11
1.564693257e-11
2.024283885e-11
2.55427059e-11
3.101268004e-11
3.580468661e-11
3.880739785e-11
1.257887855e-11
1.521190373e-11
1.934047056e-11
2.501624417e-11
3.213017173e-11
4.027101619e-11
4.861228943e-11
5.587274848e-11
6.039821607e-11
2.0381262e-11
2.449853982e-11
3.091951028e-11
3.968745362e-11
5.059649343e-11
6.298867813e-11
7.559885561e-11
8.650911331e-11
9.327638645e-11
3.279271221e-11
3.916865321e-11
4.905944601e-11
6.247745061e-11
7.905471276e-11
9.775485304e-11
1.166618183e-10
1.329291523e-10
1.42974389e-10
5.238280223e-11
6.216185699e-11
7.725439562e-11
9.760154123e-11
1.225721784e-10
1.505573823e-10
1.786841954e-10
2.027613564e-10
2.175695547e-10
8.306009639e-11
9.791777318e-11
1.207371488e-10
1.513203507e-10
1.886197177e-10
2.301708517e-10
2.717058287e-10
3.070978173e-10
3.287871152e-10
1.307181363e-10
1.530861909e-10
1.87283803e-10
2.328651257e-10
2.881373586e-10
3.493725193e-10
4.102847876e-10
4.619767317e-10
4.935560047e-10
2.041673842e-10
2.375474558e-10
2.883636673e-10
3.557524629e-10
4.370407084e-10
5.266542189e-10
6.154099935e-10
6.904637472e-10
7.361932754e-10
3.164578336e-10
3.658520627e-10
4.40752886e-10
5.396243216e-10
6.583293273e-10
7.886211136e-10
9.171803357e-10
1.025564552e-09
1.091456824e-09
4.867427952e-10
5.592478046e-10
6.688051406e-10
8.128298499e-10
9.850287773e-10
1.173318297e-09
1.358508216e-09
1.51424791e-09
1.60876762e-09
7.429003406e-10
8.485182661e-10
1.007608869e-09
1.215991545e-09
1.464237348e-09
1.734798292e-09
2.000198356e-09
2.222957907e-09
2.357989906e-09
1.125157928e-09
1.277895001e-09
1.507324424e-09
1.806887641e-09
2.162646329e-09
2.549328011e-09
2.927825028e-09
3.245056094e-09
3.437219868e-09
1.691062662e-09
1.910404862e-09
2.239087472e-09
2.667066572e-09
3.173982127e-09
3.723714495e-09
4.260908888e-09
4.710700488e-09
4.983084452e-09
2.522228309e-09
2.835104501e-09
3.302959934e-09
3.91070905e-09
4.628919802e-09
5.40632635e-09
6.16498526e-09
6.799756796e-09
7.184144048e-09
3.733398357e-09
4.176762443e-09
4.838517224e-09
5.69635746e-09
6.708116197e-09
7.801482711e-09
8.867261411e-09
9.75848184e-09
1.029819077e-08
5.484476864e-09
6.10865646e-09
7.038758401e-09
8.242216219e-09
9.659080502e-09
1.118794976e-08
1.267665731e-08
1.39208704e-08
1.467442688e-08
7.996268617e-09
8.869230221e-09
1.016808229e-08
1.184576203e-08
1.381762568e-08
1.594232562e-08
1.800908882e-08
1.973558836e-08
2.078143456e-08
1.157069563e-08
1.27833632e-08
1.458506853e-08
1.690840159e-08
1.96346749e-08
2.256816355e-08
2.541888288e-08
2.779929705e-08
2.92416134e-08
1.661620723e-08
1.828896659e-08
2.077079265e-08
2.396596563e-08
2.770930699e-08
3.173175987e-08
3.563714482e-08
3.889701631e-08
4.087265172e-08
2.36790882e-08
2.596965924e-08
2.936351909e-08
3.372598625e-08
3.882900616e-08
4.430542048e-08
4.961767542e-08
5.40500284e-08
5.673653605e-08
3.348158188e-08
3.659451449e-08
4.120081613e-08
4.711273697e-08
5.401786023e-08
6.141867372e-08
6.859077623e-08
7.457164333e-08
7.819640688e-08
4.6967991e-08
5.116596722e-08
5.736998362e-08
6.532059877e-08
7.459295578e-08
8.451753066e-08
9.412500506e-08
1.021308387e-07
1.069812426e-07
6.5359528e-08
7.097639766e-08
7.926697686e-08
8.987565595e-08
1.022287432e-07
1.154315072e-07
1.281965018e-07
1.388233145e-07
1.452578522e-07
9.021768303e-08
9.767298027e-08
1.086632604e-07
1.227048699e-07
1.390286341e-07
1.564475162e-07
1.732648474e-07
1.872487815e-07
1.957089245e-07
1.235150683e-07
1.333297084e-07
1.477794361e-07
1.662115373e-07
1.876023128e-07
2.103888834e-07
2.323534494e-07
2.505922961e-07
2.616148411e-07
1.677120881e-07
1.805248349e-07
1.993636749e-07
2.233547826e-07
2.511462022e-07
2.806965464e-07
3.091311971e-07
3.32706112e-07
3.469355597e-07
2.258368326e-07
2.424209235e-07
2.667718827e-07
2.977296443e-07
3.335231696e-07
3.715080744e-07
4.079905731e-07
4.381868681e-07
4.563871609e-07
3.015644757e-07
3.228435482e-07
3.540452168e-07
3.936428703e-07
4.393360633e-07
4.87728527e-07
5.341156921e-07
5.724411163e-07
5.955057813e-07
3.992910872e-07
4.26353228e-07
4.659791382e-07
5.161780954e-07
5.7398815e-07
6.350855812e-07
6.935320806e-07
7.417305014e-07
7.706899425e-07
5.241954805e-07
5.583039411e-07
6.081769123e-07
6.712427831e-07
7.437222337e-07
8.20160098e-07
8.93128805e-07
9.531867517e-07
9.892111804e-07
6.822816908e-07
7.24880551e-07
7.870795326e-07
8.655884757e-07
9.556295536e-07
1.050382795e-06
1.140643257e-06
1.214786543e-06
1.259182911e-06
8.803941152e-07
9.331070332e-07
1.009963774e-06
1.106795885e-06
1.217619858e-06
1.333988376e-06
1.444599991e-06
1.535277731e-06
1.589479135e-06
1.126197566e-06
1.190817811e-06
1.284900814e-06
1.403217499e-06
1.538345714e-06
1.679920696e-06
1.814197803e-06
1.92405175e-06
1.989598166e-06
1.428115763e-06
1.50658607e-06
1.620669847e-06
1.763872926e-06
1.927077303e-06
2.097686433e-06
2.259143818e-06
2.390962071e-06
2.469472031e-06
1.795224296e-06
1.889605756e-06
2.026624444e-06
2.198296133e-06
2.393528581e-06
2.597160077e-06
2.789439315e-06
2.946095125e-06
3.039228918e-06
2.237097789e-06
2.349528006e-06
2.512513905e-06
2.716338774e-06
2.947641298e-06
3.188349173e-06
3.415128606e-06
3.599506924e-06
3.708923111e-06
2.763615619e-06
2.896257585e-06
3.088266985e-06
3.327939253e-06
3.599339071e-06
3.881134691e-06
4.146028292e-06
4.360944684e-06
4.488252808e-06
3.384735448e-06
3.539719879e-06
3.763750371e-06
4.042872119e-06
4.358268539e-06
4.685005885e-06
4.991458344e-06
5.239576451e-06
5.386289744e-06
4.11024824e-06
4.289613222e-06
4.548518177e-06
4.870495765e-06
5.233547294e-06
5.608810938e-06
5.959997528e-06
6.243751776e-06
6.41124217e-06
4.949531452e-06
5.155163888e-06
5.451570611e-06
5.819517403e-06
6.233538205e-06
6.660543403e-06
7.059283273e-06
7.380813133e-06
7.570278615e-06
5.911317983e-06
6.144901348e-06
6.481139288e-06
6.897792343e-06
7.365666424e-06
7.847179535e-06
8.295869323e-06
8.656977975e-06
8.869420615e-06
7.003496967e-06
7.266469205e-06
7.644513416e-06
8.112169884e-06
8.636288492e-06
9.17457167e-06
9.675150631e-06
1.007728563e-05
1.031351845e-05
8.23295886e-06
8.526482846e-06
8.947915887e-06
9.4683916e-06
1.005061427e-05
1.064740126e-05
1.12013335e-05
1.16455847e-05
1.190620468e-05
9.605492039e-06
9.930438697e-06
1.039642827e-05
1.097104101e-05
1.161268792e-05
1.226917614e-05
1.287744969e-05
1.336450124e-05
1.364982875e-05
1.112572829e-05
1.148267604e-05
1.199398057e-05
1.262355424e-05
1.332541277e-05
1.404227764e-05
1.470536342e-05
1.52354504e-05
1.554558351e-05
1.27971554e-05
1.318639871e-05
1.374337941e-05
1.442826421e-05
1.519061676e-05
1.596796467e-05
1.668579366e-05
1.72587848e-05
1.759361701e-05
1.462216077e-05
1.504372806e-05
1.564638006e-05
1.638647822e-05
1.720902598e-05
1.804640797e-05
1.881847486e-05
1.943391025e-05
1.979315256e-05
1.660211613e-05
1.705578249e-05
1.770369392e-05
1.849837361e-05
1.938032573e-05
2.027685191e-05
2.110226923e-05
2.175940215e-05
2.214260695e-05
1.873729456e-05
1.922253155e-05
1.991491361e-05
2.076315828e-05
2.170332424e-05
2.265772426e-05
2.353527676e-05
2.423311578e-05
2.463970067e-05
2.102687461e-05
2.154295199e-05
2.227873861e-05
2.317920655e-05
2.417605701e-05
2.518673934e-05
2.611493662e-05
2.685228592e-05
2.728155635e-05
2.346917178e-05
2.40151893e-05
2.479308131e-05
2.574415977e-05
2.679588411e-05
2.786099203e-05
2.883811787e-05
2.961361469e-05
3.006478476e-05
2.606174023e-05
2.663665747e-05
2.74551642e-05
2.845501924e-05
2.955957873e-05
3.067704187e-05
3.17011992e-05
3.251334782e-05
3.298555898e-05
2.88014672e-05
2.940413111e-05
3.026160875e-05
3.130823075e-05
3.246340683e-05
3.363098767e-05
3.470013899e-05
3.554734094e-05
3.603967864e-05
3.168466022e-05
3.231383018e-05
3.320851659e-05
3.429976124e-05
3.550319873e-05
3.671853404e-05
3.783053722e-05
3.871111797e-05
3.922262617e-05
3.470712753e-05
3.536149788e-05
3.629154367e-05
3.742516842e-05
3.867441383e-05
3.993505119e-05
4.108769088e-05
4.199992317e-05
4.252961713e-05
3.786425244e-05
3.854247241e-05
3.950596843e-05
4.067966459e-05
4.197219966e-05
4.327562943e-05
4.446664444e-05
4.540876862e-05
4.595564595e-05
4.115106199e-05
4.185175316e-05
4.284675454e-05
4.405817532e-05
4.539144631e-05
4.673512933e-05
4.796223639e-05
4.8932478e-05
4.949552825e-05
4.456229065e-05
4.52840622e-05
4.63086092e-05
4.755539397e-05
4.892683688e-05
5.030822839e-05
5.156914262e-05
5.256572755e-05
5.314394055e-05
4.809243945e-05
4.883390121e-05
4.98860372e-05
5.116583231e-05
5.257289454e-05
5.398946468e-05
5.528191704e-05
5.630308449e-05
5.689545743e-05
5.173583086e-05
5.249560447e-05
5.357339118e-05
5.488386766e-05
5.632402639e-05
5.777327749e-05
5.909502963e-05
6.013904315e-05
6.074458668e-05
5.548665946e-05
5.626338779e-05
5.736491815e-05
5.870378661e-05
6.017456418e-05
6.165404532e-05
6.300290199e-05
6.40680587e-05
6.468580201e-05
5.933903861e-05
6.013139357e-05
6.125480244e-05
6.261982535e-05
6.411880203e-05
6.562612104e-05
6.699994032e-05
6.808457856e-05
6.871357368e-05
6.328704315e-05
6.409373206e-05
6.523720487e-05
6.662620665e-05
6.815103095e-05
6.968386412e-05
7.108056575e-05
7.218307132e-05
7.282239657e-05
6.732474796e-05
6.814451869e-05
6.930629845e-05
7.07171734e-05
7.226557031e-05
7.382167013e-05
7.52392421e-05
7.635805318e-05
7.7006816e-05
7.144626272e-05
7.227790767e-05
7.345630029e-05
7.48870188e-05
7.645679612e-05
7.803399717e-05
7.94705008e-05
8.060411177e-05
8.126145088e-05
7.564576273e-05
7.648812178e-05
7.768150014e-05
7.913011326e-05
8.071916625e-05
8.231538961e-05
8.376896323e-05
8.491592752e-05
8.558101459e-05
7.991751596e-05
8.076947859e-05
8.197628538e-05
8.344092799e-05
8.504724263e-05
8.666049882e-05
8.812936038e-05
8.928829243e-05
8.99603332e-05
8.425590661e-05
8.511641323e-05
8.63351627e-05
8.781405556e-05
8.943571052e-05
9.106410135e-05
9.254654997e-05
9.371612643e-05
9.43943615e-05
8.865545514e-05
8.952349786e-05
9.075277674e-05
9.224422742e-05
9.387939499e-05
9.552111442e-05
9.701553105e-05
9.819449135e-05
9.887819657e-05
9.311083528e-05
9.398545798e-05
9.522392569e-05
9.67263287e-05
9.837327485e-05
0.0001000266089
0.0001015314563
0.0001027186027
0.0001034070893
9.761688793e-05
9.849718606e-05
9.97435742e-05
0.0001012554104
0.000102912494
0.0001045758201
0.0001060896423
0.0001072838395
0.0001079764536
0.0001021686325
0.0001030537523
0.0001043068637
0.0001058266991
0.0001074923708
0.0001091641562
0.0001106855773
0.0001118857514
0.0001125818743
0.0001067612756
0.0001076504133
0.0001089091207
0.0001104356046
0.0001121084046
0.0001137872052
0.0001153149276
0.0001165200654
0.0001172191122
0.0001113902177
0.0001122826181
0.0001135458622
0.0001150777255
0.0001167562818
0.0001184407392
0.0001199735421
0.0001211826892
0.0001218841088
0.0001160510576
0.0001169460127
0.0001182128005
0.000119748853
0.0001214318784
0.0001231207179
0.0001246574548
0.0001258697144
0.0001265729881
0.000120739595
0.0001216364426
0.0001229058449
0.0001244449727
0.0001261312623
0.0001278232902
0.0001293628866
0.0001305774175
0.0001312820584
0.000125451832
0.0001263499537
0.0001276211029
0.0001291622657
0.0001308506937
0.0001325447941
0.0001340862452
0.0001353022601
0.000136007812
0.0001301839721
0.000131082792
0.0001323548797
0.0001338971079
0.0001355866247
0.0001372817565
0.0001388241244
0.0001400408877
0.0001407469238
0.0001349324197
0.000135831402
0.0001371036763
0.0001386460679
0.0001403356966
0.0001420308908
0.0001435733016
0.0001447901276
0.0001454962498
0.0001396937762
0.000140592424
0.000141864187
0.0001434059046
0.0001450947382
0.0001467890942
0.0001483307356
0.0001495469861
0.0001502528234
0.0001444648377
0.0001453626905
0.0001466332959
0.0001481735637
0.0001498607614
0.0001515534443
0.0001530935623
0.0001543086449
0.0001550138526
0.0001492425897
0.0001501392222
0.0001514080726
0.0001529461732
0.0001546309574
0.0001563211944
0.0001578590911
0.0001590724566
0.0001597767148
0.0001540242029
0.0001549192227
0.000156185767
0.0001577210386
0.0001594026915
0.0001610897691
0.0001626247996
0.0001638359403
0.000164538953
0.000158807027
0.0001597000732
0.0001609638041
0.0001624956375
0.000164173498
0.0001658567588
0.0001673883285
0.0001685967759
0.0001692982698
0.0001635885855
0.0001644793265
0.0001657397783
0.0001672676138
0.0001689410745
0.0001706199142
0.0001721474761
0.0001733527989
0.000174052522
0.0001683665687
0.000169254701
0.000170511447
0.0001720347717
0.000173703276
0.0001753771403
0.0001769001925
0.0001781019947
0.0001787997154
0.0001731388277
0.0001740240739
0.0001752767243
0.0001767950695
0.0001784581083
0.0001801264901
0.0001816445733
0.000182842492
0.000183537998
0.0001779033676
0.000178785475
0.0001800336744
0.0001815466129
0.000183203722
0.0001848661588
0.0001863788536
0.0001875725573
0.0001882656544
0.0001826583407
0.0001835370796
0.0001847805051
0.0001862876486
0.0001879384059
0.000189594477
0.0001911014017
0.0001922905886
0.0001929810995
0.0001874020394
0.0001882772019
0.0001895155611
0.0001910165576
0.0001926605807
0.0001943099045
0.0001958107127
0.0001969951085
0.0001976828725
0.0001921328899
0.0001930042883
0.0001942373172
0.000195731849
0.0001973687922
0.0001990110241
0.0002005054026
0.0002016847592
0.0002023696302
0.000196849445
0.0001977169105
0.0001989443716
0.000200432153
0.0002020617055
0.0002036965349
0.0002051842016
0.0002063582953
0.0002070401417
0.0002015503778
0.0002024137593
0.0002036354399
0.0002051162148
0.000206738098
0.0002083652467
0.0002098459486
0.0002110145783
0.0002116932817
0.0002062344747
0.0002070936374
0.0002083093481
0.0002097828883
0.0002113968537
0.0002130160735
0.0002144895844
0.0002156525707
0.0002163280251
0.0002109006295
0.0002117554541
0.0002129650267
0.0002144311298
0.000216036957
0.0002176480275
0.0002191141468
0.00022027133
0.0002209434409
0.0002155478369
0.0002163982181
0.0002176015046
0.0002190599923
0.000220657487
0.0002222602138
0.0002237187644
0.0002248700033
0.0002255386873
0.0002201751865
0.0002210210323
0.0002222179032
0.0002236686193
0.0002252576116
0.0002268518246
0.000228302651
0.0002294478218
0.0002301130054
0.0002247818571
0.0002256230877
0.0002268134306
0.0002282562399
0.0002298365821
0.0002314221336
0.000232865101
0.0002340040959
0.000234665715
0.000229367111
0.0002302036579
0.0002313873766
0.0002328221629
0.0002343937283
0.0002359704912
0.0002374054835
0.0002385382095
0.0002391962087
0.0002339302889
0.0002347620941
0.0002359391067
0.0002373657715
0.0002389284529
0.0002404963195
0.0002419232381
0.0002430496161
0.0002437039481
0.0002384708043
0.0002392978195
0.000240468058
0.0002418865193
0.000243440227
0.0002449991074
0.0002464178697
0.0002475378334
0.0002481884584
0.0002429881393
0.0002438103249
0.0002449737338
0.0002463839245
0.0002479285854
0.0002494784062
0.0002508889446
0.0002520024395
0.0002526493246
0.0002474818391
0.0002482991639
0.0002494556992
0.0002508575663
0.0002523931224
0.0002539338252
0.000255336086
0.0002564430684
0.000257086187
0.0002519515083
0.0002527639486
0.0002539135768
0.0002553070801
0.0002568334874
0.0002583650278
0.0002597589698
0.0002608594063
0.0002614987378
0.0002563968063
0.0002572043453
0.0002583470428
0.0002597321538
0.0002612493812
0.0002627717275
0.0002641573214
0.0002652511874
0.0002658867166
0.0002608174434
0.0002616200706
0.0002627558228
0.0002641325238
0.0002656405519
0.0002671536844
0.0002685309113
0.0002696181911
0.0002702499079
0.000265213177
0.0002660108879
0.0002671396883
0.0002685079715
0.0002700067916
0.0002715107014
0.0002728795524
0.000273960238
0.0002745881366
0.0002695838085
0.0002703766036
0.0002714984532
0.0002728583199
0.0002743479333
0.0002758426211
0.0002772030964
0.0002782771868
0.000278901266
0.0002739291794
0.0002747170643
0.0002758319709
0.0002771834305
0.0002786638473
0.0002801493231
0.0002815014309
0.0002825689318
0.0002831891938
0.0002782491687
0.0002790321532
0.0002801401308
0.0002814832002
0.0002829544389
0.0002844307206
0.0002857744767
0.0002868353996
0.0002874518504
0.0002825436892
0.0002833217873
0.0002844228555
0.0002857575585
0.0002872196449
0.0002886867581
0.000290022185
0.0002910765468
0.0002916891956
0.0002868126854
0.0002875859146
0.0002886800982
0.0002900064648
0.0002914594314
0.0002929174084
0.0002942445349
0.0002952923575
0.0002959012162
0.0002910561306
0.0002918245117
0.0002929118402
0.0002942299059
0.0002956737915
0.0002971226706
0.000298441531
0.0002994828409
0.0003000879242
0.0002952740246
0.0002960375814
0.0002971180884
0.0002984278938
0.0002998627426
0.0003013025678
0.0003026132015
0.000303648029
0.0003042493539
0.0002994663913
0.0003002251502
0.0003012988731
0.0003026004633
0.0003040263245
0.0003054571448
0.0003067595958
0.000307787975
0.0003083855607
0.0003036332769
0.0003043872667
0.0003054542461
0.0003067476704
0.0003081645976
0.0003095864664
0.0003108807828
0.0003119027508
0.0003124966184
0.0003077747473
0.0003085239991
0.0003095842786
0.0003108695898
0.0003122776407
0.0003136906154
0.0003149768487
0.0003159924458
0.0003165826181
0.000311890887
0.0003126354334
0.0003136890596
0.0003149663137
0.0003163655493
0.0003177696908
0.000319047896
0.0003200571648
0.0003206436662
0.0003159817967
0.0003167216723
0.0003177686938
0.0003190379497
0.0003204284342
0.0003218238064
0.0003230940412
0.0003240970268
0.000324679883
0.000320047592
0.0003207828327
0.0003218233002
0.0003230846192
0.0003244664195
0.0003258530892
0.0003271154138
0.0003281121632
0.0003286914009
0.0003240884017
0.0003248190447
0.0003258530107
0.0003271064562
0.0003284796415
0.0003298576776
0.0003311121544
0.0003321027162
0.0003326783635
0.0003281043665
0.00032883045
0.0003298579685
0.0003311036057
0.000332468247
0.0003338377206
0.0003350844136
0.0003360688379
0.0003366409234
0.0003320956375
0.0003328172005
0.0003338383266
0.0003350762221
0.0003364323923
0.0003377933758
0.0003390323505
0.0003400106886
0.0003405792418
0.0003360623745
0.0003367794568
0.0003377942466
0.0003390244683
0.0003403722412
0.0003417248084
0.0003429561315
0.0003439284355
0.0003444934862
0.0003400047451
0.0003407173869
0.0003417258973
0.0003429485137
0.0003442879641
0.0003456321896
0.0003468559284
0.000347822251
0.0003483838296
0.0003439229231
0.000344631165
0.0003456334531
0.0003468485333
0.0003481797364
0.0003495156951
0.0003507319175
0.0003516923118
0.0003522504487
0.0003478170869
0.0003485209695
0.0003495170925
0.0003507247057
0.0003520477368
0.0003533755039
0.0003545842775
0.0003555387964
0.0003560935221
0.0003516874183
0.0003523869819
0.000353376997
0.0003545772118
0.0003558921458
0.0003572117957
0.0003584131878
0.0003593618838
0.0003599132285
0.0003555341001
0.0003562293849
0.0003572133483
0.0003584062327
0.0003597131434
0.0003610247496
0.0003622188263
0.0003631617511
0.0003637097443
0.0003593573149
0.0003600483599
0.000361026327
0.0003622119474
0.0003635109069
0.000364814541
0.0003660013667
0.0003669385703
0.0003674832409
0.0003631572417
0.0003638440851
0.0003648161093
0.0003659945299
0.0003672856079
0.0003685813386
0.0003697609751
0.0003706925056
0.0003712338809
0.0003669340536
0.0003676167318
0.0003685828641
0.0003697541462
0.0003710374085
0.0003723253011
0.0003734978063
0.0003744237086
0.0003749618143
0.000370687914
0.000371366461
0.0003723267491
0.0003734909495
0.0003747664571
0.0003760465712
0.0003772119982
0.000378132313
0.0003786671721
0.0003744189714
0.0003750934182
0.0003760479052
0.0003772050748
0.0003784728821
0.0003797452704
0.0003809036654
0.0003818184278
0.0003823500599
0.0003781273541
0.0003787977274
0.0003797464501
0.0003808966323
0.0003821567847
0.0003834214905
0.0003845728907
0.0003854821283
0.0003860105484
0.0003818131619
0.000382479483
0.0003834224704
0.0003845656983
0.0003858182294
0.0003870752835
0.0003882197141
0.0003891234446
0.000389648662
0.0003854764572
0.00038613874
0.0003870760104
0.0003882123036
0.0003894572318
0.0003907066489
0.0003918441196
0.0003927423479
0.0003932643639
0.0003891172519
0.0003897755011
0.0003907070589
0.0003918364199
0.0003930737435
0.0003943155171
0.0003954460175
0.0003963387319
0.0003968575379
0.0003927354927
0.0003933897006
0.0003943155327
0.0003954379413
0.0003966676331
0.0003979017298
0.0003990252235
0.0003999123907
0.000400427965
0.0003963310419
0.0003969811852
0.0003979012557
0.0003990166633
0.0004002386628
0.0004014650144
0.0004025814321
0.0004034629915
0.000403975296
0.000399903654
0.0004005496896
0.0004014639334
0.0004025722546
0.0004037864601
0.0004050049544
0.0004061141845
0.0004069900409
0.0004074990166
0.0004034529473
0.0004040948069
0.0004050031225
0.0004061042262
0.0004073104828
0.0004085209525
0.000409622831
0.0004104928458
0.0004109984074
0.0004069783703
0.0004076159542
0.0004085181944
0.0004096118918
0.0004108099795
0.0004120121883
0.0004131064855
0.0004139704663
0.0004144724964
0.0004104791618
0.0004111123315
0.0004120082924
0.0004130943241
0.0004142839419
0.0004154775689
0.0004165639749
0.000417421663
0.0004179200043
0.0004139543053
0.0004145828745
0.0004154722835
0.0004165503034
0.0004177310516
0.000418915673
0.00041999378
0.0004208448369
0.0004213392842
0.0004174024774
0.0004180262024
0.000418908703
0.0004199782607
0.0004211496213
0.0004223246896
0.0004233939728
0.0004242379641
0.0004247282546
0.0004208219904
0.0004214405587
0.0004223156955
0.0004233762164
0.0004245375307
0.0004257023518
0.0004267621482
0.0004275985263
0.00042808433
0.0004242107314
0.0004248237499
0.0004256909505
0.0004267417147
0.0004278921595
0.0004290458685
0.0004300953541
0.0004309234407
0.0004314043492
0.0004275660986
0.0004281730805
0.0004290316377
0.0004300717576
0.0004312103204
0.0004323518565
0.0004333900233
0.0004342089905
0.0004346845067
0.0004308849371
0.0004314852895
0.0004323343428
0.0004333627407
0.0004344881952
0.0004356162769
0.0004366419105
0.0004374507629
0.0004379202903
0.0004341634796
0.0004347564903
0.0004355950085
0.0004366103954
0.0004377212784
0.0004388343807
0.0004398460394
0.0004406435987
0.0004411064325
0.0004373972928
0.0004379821199
0.0004388088849
0.0004398097418
0.0004409043335
0.0004420006688
0.0004429966673
0.0004437815591
0.0004442368791
0.0004405812368
0.0004411568995
0.0004419704954
0.0004429550596
0.0004440313692
0.0004451088735
0.0004460872719
0.0004468579185
0.0004473047852
0.0004437094425
0.000444274816
0.0004450736214
0.0004460398797
0.0004470956391
0.0004481519682
0.0004491105688
0.0004498651883
0.0004503025433
0.0004467753136
0.0004473291282
0.0004481113164
0.0004490570062
0.0004500896743
0.0004511222097
0.0004520585658
0.0004527951799
0.0004532218512
0.0004497715573
0.0004503124041
0.0004510759522
0.0004519985744
0.0004530053535
0.0004540112222
0.0004549226591
0.0004556391122
0.0004560538265
0.0004526902513
0.0004532165947
0.0004539593031
0.0004548561486
0.000455834016
0.0004568101264
0.000457693777
0.0004583877672
0.0004587891692
0.0004555229503
0.0004560331494
0.0004567526732
0.0004576208635
0.0004585666208
0.0004595097156
0.0004603625726
0.0004610316962
0.0004614183756
0.000458260836
0.0004587531745
0.000459447068
0.0004602836124
0.0004611939517
0.0004621006791
0.0004629196643
0.0004635614732
0.0004639320001
0.0004608949094
0.0004613676348
0.0004620334093