/*--------------------------------*- C++ -*----------------------------------*\
| =========                 |                                                 |
| \\      /  F ield         | OpenFOAM: The Open Source CFD Toolbox           |
|  \\    /   O peration     | Version:  2212                                  |
|   \\  /    A nd           | Website:  www.openfoam.com                      |
|    \\/     M anipulation  |                                                 |
\*---------------------------------------------------------------------------*/
FoamFile
{
    version     2.0;
    format      ascii;
    arch        "LSB;label=32;scalar=64";
    class       volScalarField;
    location    "20.00000000";
    object      H_0;
}
// * * * * * * * * * * * * * * * * * * * * * * * * * * * * * * * * * * * * * //

dimensions      [0 0 0 0 0 0 0];

internalField   nonuniform List<scalar> 
3000
(
3.832698371e-29
4.303012808e-29
5.011201603e-29
5.95135147e-29
7.108635065e-29
8.440358143e-29
9.841545078e-29
1.108920799e-28
1.179527013e-28
1.433309631e-28
1.61457588e-28
1.88676156e-28
2.247547704e-28
2.69310734e-28
3.214781029e-28
3.79284744e-28
4.381323039e-28
4.854406872e-28
3.194769521e-28
3.624532223e-28
4.274978828e-28
5.149770172e-28
6.255198814e-28
7.592431877e-28
9.134309851e-28
1.076607308e-27
1.208018779e-27
6.053135047e-28
6.935587972e-28
8.289895092e-28
1.014928445e-27
1.25601993e-27
1.555563123e-27
1.908155823e-27
2.281262583e-27
2.569603853e-27
1.069162333e-27
1.239607075e-27
1.505296179e-27
1.877308153e-27
2.369554937e-27
2.990891019e-27
3.724802079e-27
4.486461862e-27
5.050858409e-27
1.82899945e-27
2.147282268e-27
2.650649239e-27
3.366867417e-27
4.327861975e-27
5.549536777e-27
6.985761746e-27
8.446039247e-27
9.495584801e-27
3.089621124e-27
3.671851272e-27
4.603691817e-27
5.945390237e-27
7.760963658e-27
1.007290165e-26
1.277049785e-26
1.546753011e-26
1.737381113e-26
5.204197893e-27
6.254159516e-27
7.95016104e-27
1.041255293e-26
1.376084748e-26
1.802125738e-26
2.295664745e-26
2.783014341e-26
3.123984573e-26
8.782835835e-27
1.065704909e-26
1.370520899e-26
1.815583969e-26
2.422349577e-26
3.193137106e-26
4.080795727e-26
4.949806592e-26
5.554354039e-26
1.487906164e-26
1.819933252e-26
2.362612918e-26
3.157996132e-26
4.243849122e-26
5.620906447e-26
7.199759717e-26
8.736489166e-26
9.802374065e-26
2.531367308e-26
3.116271147e-26
4.075670381e-26
5.485435382e-26
7.411440207e-26
9.850516354e-26
1.263820781e-25
1.5341177e-25
1.721354264e-25
4.323495359e-26
5.349565333e-26
7.036920706e-26
9.520779503e-26
1.291566591e-25
1.721042515e-25
2.210841317e-25
2.684581586e-25
3.012615539e-25
7.408977731e-26
9.203428291e-26
1.215991369e-25
1.651756949e-25
2.247538911e-25
3.000711281e-25
3.858441745e-25
4.686752468e-25
5.260302949e-25
1.273067138e-25
1.586189086e-25
2.102803306e-25
2.864996037e-25
3.907365519e-25
5.224544847e-25
6.723219105e-25
8.169077489e-25
9.170182299e-25
2.192151212e-25
2.737662287e-25
3.638659784e-25
4.968984965e-25
6.788854676e-25
9.088051661e-25
1.170266382e-24
1.422361138e-24
1.596811787e-24
3.781102464e-25
4.730432071e-25
6.29973873e-25
8.618333331e-25
1.179114582e-24
1.57995303e-24
2.035662026e-24
2.47487556e-24
2.778313984e-24
6.530476114e-25
8.181382279e-25
1.091236848e-24
1.494964842e-24
2.04763158e-24
2.745931963e-24
3.53978506e-24
4.304685567e-24
4.831288407e-24
1.129124265e-24
1.416107179e-24
1.891135319e-24
2.593769039e-24
3.556011416e-24
4.772143704e-24
6.154891925e-24
7.486909716e-24
8.398345809e-24
1.954057839e-24
2.452868115e-24
3.278991639e-24
4.501636671e-24
6.176871387e-24
8.295047647e-24
1.070434952e-23
1.302549989e-23
1.460545969e-23
3.384474533e-24
4.251576421e-24
5.688472027e-24
7.816371472e-24
1.073382146e-23
1.442506196e-23
1.862655451e-23
2.267762459e-23
2.54382138e-23
5.866653913e-24
7.37455755e-24
9.874866869e-24
1.358029501e-23
1.86648271e-23
2.510390264e-23
3.244088585e-23
3.952435629e-23
4.436044937e-23
1.017766991e-23
1.280171776e-23
1.715583323e-23
2.361447842e-23
3.248673185e-23
4.373731894e-23
5.657677517e-23
6.899661502e-23
7.749984068e-23
1.767272224e-23
2.224369489e-23
2.983497573e-23
4.110872258e-23
5.661857945e-23
7.632208069e-23
9.885832199e-23
1.207192732e-22
1.357479568e-22
3.072006139e-23
3.869374047e-23
5.195076528e-23
7.166909312e-23
9.885098872e-23
1.334692197e-22
1.731874225e-22
2.118681631e-22
2.38616032e-22
5.346873615e-23
6.74045244e-23
9.060730649e-23
1.251889473e-22
1.729874373e-22
2.340683008e-22
3.044432696e-22
3.733521592e-22
4.213892483e-22
9.321032402e-23
1.176262954e-22
1.583537173e-22
2.192153552e-22
3.03633279e-22
4.119906443e-22
5.375323857e-22
6.613449826e-22
7.485878598e-22
1.628082187e-22
2.057199164e-22
2.774702081e-22
3.85058574e-22
5.34965194e-22
7.284892944e-22
9.543145577e-22
1.179093458e-21
1.339671791e-21
2.850605237e-22
3.607733921e-22
4.877529311e-22
6.789846833e-22
9.469627001e-22
1.295416308e-21
1.705683009e-21
2.11875449e-21
2.41886955e-21
5.005969996e-22
6.348214429e-22
8.607874801e-22
1.202937705e-21
1.685804454e-21
2.319252417e-21
3.073206253e-21
3.842825192e-21
4.41323111e-21
8.82299941e-22
1.121617782e-21
1.526391608e-21
2.14334239e-21
3.021497049e-21
4.185715089e-21
5.589224274e-21
7.0449124e-21
8.148381777e-21
1.561901594e-21
1.991481399e-21
2.722155717e-21
3.844643872e-21
5.458538972e-21
7.624521478e-21
1.027403373e-20
1.307149991e-20
1.524462531e-20
2.779579207e-21
3.556720401e-21
4.887371926e-21
6.95043463e-21
9.951190709e-21
1.403446828e-20
1.911042927e-20
2.457409061e-20
2.892816135e-20
4.977534414e-21
6.395963113e-21
8.843355953e-21
1.267774888e-20
1.832760247e-20
2.613287621e-20
3.60045025e-20
4.684567633e-20
5.570946739e-20
8.978802241e-21
1.15934496e-20
1.614405462e-20
2.335694561e-20
3.413570843e-20
4.926804207e-20
6.875137799e-20
9.05848874e-20
1.088834002e-19
1.63334329e-20
2.120560129e-20
2.976646418e-20
4.350736135e-20
6.434950828e-20
9.409845283e-20
1.330915603e-19
1.776522967e-19
2.158668493e-19
2.999779001e-20
3.918267665e-20
5.548714605e-20
8.200499506e-20
1.228455839e-19
1.821076763e-19
2.611341887e-19
3.531082853e-19
4.336172147e-19
5.568562188e-20
7.321284573e-20
1.046590404e-19
1.564959894e-19
2.375461354e-19
3.570263406e-19
5.189135853e-19
7.104193389e-19
8.810044937e-19
1.045910995e-19
1.38457348e-19
1.998737122e-19
3.024621823e-19
4.65190129e-19
7.085769251e-19
1.043015861e-18
1.444143476e-18
1.806505896e-18
1.989472912e-19
2.652028386e-19
3.866176157e-19
5.919745929e-19
9.220083152e-19
1.421892555e-18
2.116839408e-18
2.959518596e-18
3.728758619e-18
3.835084488e-19
5.147012998e-19
7.574605113e-19
1.172688607e-18
1.847548626e-18
2.880219567e-18
4.32862266e-18
6.098656491e-18
7.725486727e-18
7.495272744e-19
1.01225295e-18
1.502569851e-18
2.349187464e-18
3.737435626e-18
5.877528113e-18
8.896542634e-18
1.260267349e-17
1.602013235e-17
1.485301633e-18
2.016820514e-18
3.015696148e-18
4.752886647e-18
7.618883759e-18
1.205607287e-17
1.833140037e-17
2.604458284e-17
3.315637182e-17
2.983582643e-18
4.068377644e-18
6.117219985e-18
9.69681988e-18
1.562031762e-17
2.480049572e-17
3.777371709e-17
5.368858726e-17
6.831575775e-17
6.071223954e-18
8.301113565e-18
1.25243013e-17
1.991543244e-17
3.214377146e-17
5.105136058e-17
7.766488473e-17
1.101514493e-16
1.398303745e-16
1.250222882e-17
1.711083883e-17
2.584219642e-17
4.110403055e-17
6.626754075e-17
1.049604934e-16
1.590413518e-16
2.245472195e-16
2.838838706e-16
2.601806191e-17
3.557788272e-17
5.365259722e-17
8.511513128e-17
1.366542778e-16
2.152314553e-16
3.239888184e-16
4.543822167e-16
5.712388491e-16
5.462454621e-17
7.449474714e-17
1.119026735e-16
1.765799446e-16
2.815626331e-16
4.398639794e-16
6.563413516e-16
9.127251706e-16
1.139642275e-15
1.154544094e-16
1.567745054e-16
2.340880091e-16
3.66587064e-16
5.792739768e-16
8.959102818e-16
1.323094865e-15
1.822222773e-15
2.257962911e-15
2.450421133e-16
3.308839521e-16
4.903154475e-16
7.608124344e-16
1.189798015e-15
1.820011467e-15
2.658701626e-15
3.625433112e-15
4.457659366e-15
5.20676314e-16
6.985757181e-16
1.026381081e-15
1.576901768e-15
2.439911445e-15
3.692533971e-15
5.339989823e-15
7.217402119e-15
8.813715359e-15
1.103765029e-15
1.470933579e-15
2.142427226e-15
3.259960451e-15
4.995434471e-15
7.49279449e-15
1.075395539e-14
1.444764462e-14
1.756347606e-14
2.325466365e-15
3.078693125e-15
4.447585372e-15
6.710518285e-15
1.020534196e-14
1.521957951e-14
2.176928544e-14
2.920480566e-14
3.547740445e-14
4.850618494e-15
6.382988234e-15
9.155583551e-15
1.37231446e-14
2.077326687e-14
3.092855486e-14
4.431173809e-14
5.968862233e-14
7.278587404e-14
9.984108825e-15
1.30690693e-14
1.863810231e-14
2.781184874e-14
4.203122584e-14
6.271549289e-14
9.039836067e-14
1.227986737e-13
1.508362507e-13
2.024092419e-14
2.63786775e-14
3.745354006e-14
5.57404679e-14
8.428077809e-14
1.262992427e-13
1.834428212e-13
2.514581425e-13
3.111110008e-13
4.043027961e-14
5.250032544e-14
7.428632604e-14
1.103605496e-13
1.669963278e-13
2.510684591e-13
3.663239271e-13
5.041449932e-13
6.250603241e-13
7.980721992e-14
1.033045432e-13
1.456987309e-13
2.159229381e-13
3.262060575e-13
4.89538035e-13
7.115737517e-13
9.727168306e-13
1.197016444e-12
1.56493273e-13
2.018626574e-13
2.834503736e-13
4.178602626e-13
6.268323781e-13
9.306849181e-13
1.331462841e-12
1.783622068e-12
2.155042239e-12
3.065117015e-13
3.933263916e-13
5.48098252e-13
7.993650938e-13
1.18078391e-12
1.715274232e-12
2.384857019e-12
3.095046738e-12
3.644696079e-12
6.009601062e-13
7.644322571e-13
1.051143093e-12
1.504598918e-12
2.166753289e-12
3.046625755e-12
4.079613047e-12
5.103714495e-12
5.851683939e-12
1.173846209e-12
1.472347136e-12
1.98296236e-12
2.76088882e-12
3.840973535e-12
5.191302964e-12
6.678836631e-12
8.073606804e-12
9.049177587e-12
2.255431386e-12
2.774046484e-12
3.633303803e-12
4.885574423e-12
6.533613807e-12
8.482861148e-12
1.053011514e-11
1.238351349e-11
1.364467311e-11
4.191535216e-12
5.035842633e-12
6.388257376e-12
8.276760232e-12
1.065316465e-11
1.335801639e-11
1.61234872e-11
1.85818427e-11
2.022485565e-11
7.429927834e-12
8.715561261e-12
1.071713288e-11
1.342411043e-11
1.673528621e-11
2.043004331e-11
2.416224e-11
2.744825578e-11
2.961506525e-11
1.250133201e-11
1.436074124e-11
1.720293763e-11
2.097787231e-11
2.553318299e-11
3.057473583e-11
3.564057169e-11
4.007358754e-11
4.296432384e-11
2.006455788e-11
2.267939567e-11
2.663929257e-11
3.185567503e-11
3.81156313e-11
4.502082193e-11
5.193999468e-11
5.796713321e-11
6.186187206e-11
3.10231133e-11
3.466123226e-11
4.014701064e-11
4.734698919e-11
5.596621411e-11
6.545872844e-11
7.495350237e-11
8.319743427e-11
8.848782859e-11
4.66462922e-11
5.169000261e-11
5.927771382e-11
6.921706853e-11
8.110007339e-11
9.417544949e-11
1.072424156e-10
1.185664492e-10
1.257986325e-10
6.86685896e-11
7.564314231e-11
8.612049194e-11
9.982779416e-11
1.162032734e-10
1.342181078e-10
1.522210976e-10
1.678129988e-10
1.777425556e-10
9.939229013e-11
1.090023565e-10
1.234236672e-10
1.422764566e-10
1.647942132e-10
1.895757701e-10
2.14359355e-10
2.358329097e-10
2.494910971e-10
1.417994911e-10
1.549735597e-10
1.747299201e-10
2.005478573e-10
2.313911273e-10
2.653636386e-10
2.993823456e-10
3.288917624e-10
3.47659404e-10
1.996744508e-10
2.176170199e-10
2.445133947e-10
2.796590562e-10
3.216652946e-10
3.679834826e-10
4.144360621e-10
4.547928328e-10
4.804746449e-10
2.777188071e-10
3.019626494e-10
3.382952321e-10
3.857732844e-10
4.425500812e-10
5.052237945e-10
5.681748397e-10
6.229504145e-10
6.578385575e-10
3.816373481e-10
4.14089635e-10
4.627122677e-10
5.262515344e-10
6.022680284e-10
6.862549018e-10
7.707192621e-10
8.443112295e-10
8.912235298e-10
5.181699669e-10
5.611424592e-10
6.255071392e-10
7.096053259e-10
8.102340819e-10
9.214717361e-10
1.033432529e-09
1.131068735e-09
1.19334545e-09
6.950407762e-10
7.512523928e-10
8.354062787e-10
9.453142983e-10
1.07679615e-09
1.222143972e-09
1.368474888e-09
1.496131016e-09
1.577575371e-09
9.207955349e-10
9.933352595e-10
1.101856593e-09
1.243480429e-09
1.412787415e-09
1.599852591e-09
1.788121571e-09
1.952334627e-09
2.05708738e-09
1.204504776e-09
1.296744997e-09
1.43460428e-09
1.614308668e-09
1.828889412e-09
2.065723916e-09
2.303869056e-09
2.511442241e-09
2.643789263e-09
1.555323997e-09
1.67077957e-09
1.84312081e-09
2.067431207e-09
2.334839077e-09
2.62951331e-09
2.925401883e-09
3.183014283e-09
3.347137523e-09
1.981923982e-09
2.124060388e-09
2.335909764e-09
2.611126036e-09
2.938551205e-09
3.298633223e-09
3.659537948e-09
3.973292122e-09
4.172986326e-09
2.491831228e-09
2.663835021e-09
2.919758939e-09
3.25151297e-09
3.645261267e-09
4.077253325e-09
4.509301362e-09
4.884259277e-09
5.12264783e-09
3.090745213e-09
3.295279491e-09
3.599027528e-09
3.991833235e-09
4.456812021e-09
4.965612763e-09
5.473277143e-09
5.91304665e-09
6.192345517e-09
3.781918756e-09
4.020893064e-09
4.375069994e-09
4.831923338e-09
5.37120256e-09
5.959668583e-09
6.545373503e-09
7.051800251e-09
7.373053157e-09
4.565692761e-09
4.840078457e-09
5.245890388e-09
5.767975688e-09
6.382488303e-09
7.051163606e-09
7.715074217e-09
8.288015934e-09
8.651141788e-09
5.439263196e-09
5.748980886e-09
6.206092729e-09
6.792639584e-09
7.481071603e-09
8.228143261e-09
8.968099336e-09
9.605696392e-09
1.000964286e-08
6.396727527e-09
6.740623738e-09
7.247151712e-09
7.895464706e-09
8.654363771e-09
9.475755108e-09
1.028781585e-08
1.098714332e-08
1.143137739e-08
7.429419126e-09
7.80533729e-09
8.358002327e-09
9.063643041e-09
9.88759991e-09
1.077763344e-08
1.165674353e-08
1.241511035e-08
1.289835611e-08
8.526513557e-09
8.931410324e-09
9.52561311e-09
1.028279124e-08
1.116523548e-08
1.211737051e-08
1.305865226e-08
1.387143552e-08
1.43883929e-08
9.675536008e-09
1.010577682e-08
1.073626927e-08
1.153847172e-08
1.247247712e-08
1.348087559e-08
1.447721764e-08
1.53351944e-08
1.588052644e-08
1.086373066e-08
1.131543034e-08
1.197679476e-08
1.281771368e-08
1.379780942e-08
1.485362225e-08
1.589351049e-08
1.678763248e-08
1.735592456e-08
1.20793226e-08
1.254896054e-08
1.32371004e-08
1.411196539e-08
1.512769236e-08
1.621868431e-08
1.729116084e-08
1.821252627e-08
1.879834938e-08
1.33148877e-08
1.379990084e-08
1.450859971e-08
1.540669921e-08
1.644680048e-08
1.756176817e-08
1.86563742e-08
1.959631837e-08
2.019432261e-08
1.456096172e-08
1.505525359e-08
1.577630702e-08
1.668829388e-08
1.774257798e-08
1.887106335e-08
1.997786182e-08
2.092806603e-08
2.153307074e-08
1.58031982e-08
1.630178585e-08
1.702821736e-08
1.794567352e-08
1.900475571e-08
2.013700382e-08
2.124665249e-08
2.219924843e-08
2.280632005e-08
1.703043495e-08
1.752893168e-08
1.82545005e-08
1.91697575e-08
2.022500954e-08
2.135200437e-08
2.245583589e-08
2.340349358e-08
2.400800871e-08
1.82334906e-08
1.872795564e-08
1.944702468e-08
2.035311818e-08
2.139668008e-08
2.251019292e-08
2.360028137e-08
2.453627645e-08
2.513397013e-08
1.940465268e-08
1.98915512e-08
2.05990574e-08
2.148972581e-08
2.251452814e-08
2.360715601e-08
2.467636373e-08
2.559462429e-08
2.618162478e-08
2.053741142e-08
2.10136047e-08
2.170505414e-08
2.257474389e-08
2.35745227e-08
2.463971064e-08
2.568171526e-08
2.657685034e-08
2.714970183e-08
2.162629302e-08
2.208903376e-08
2.276049807e-08
2.360436292e-08
2.457366236e-08
2.560570925e-08
2.661501289e-08
2.748232467e-08
2.803799928e-08
2.266674243e-08
2.3113668e-08
2.376177552e-08
2.457566674e-08
2.550982897e-08
2.65038784e-08
2.747580117e-08
2.831128292e-08
2.884718321e-08
2.365503645e-08
2.40841582e-08
2.47060787e-08
2.548652602e-08
2.638166966e-08
2.733368757e-08
2.826434727e-08
2.906466886e-08
2.957862175e-08
2.458821693e-08
2.499790547e-08
2.55913286e-08
2.633551285e-08
2.718850115e-08
2.809524204e-08
2.898152209e-08
2.974400459e-08
3.023424787e-08
2.546403663e-08
2.585300337e-08
2.64161116e-08
2.712183004e-08
2.793023043e-08
2.878919387e-08
2.962870122e-08
3.035128239e-08
3.081644497e-08
2.628091167e-08
2.664818727e-08
2.717962407e-08
2.784524971e-08
2.860728616e-08
2.941666545e-08
3.020768053e-08
3.088887307e-08
3.132795003e-08
2.703787608e-08
2.738278628e-08
2.788162057e-08
2.850605672e-08
2.922055666e-08
2.997918166e-08
3.072060243e-08
3.135944679e-08
3.177177074e-08
2.773453536e-08
2.805667496e-08
2.852236291e-08
2.910499443e-08
2.977133197e-08
3.047860799e-08
3.116989011e-08
3.176590387e-08
3.215111365e-08
2.837101755e-08
2.867022317e-08
2.910256837e-08
2.964321109e-08
3.026124827e-08
3.091709305e-08
3.155818824e-08
3.211131363e-08
3.246932167e-08
2.894792147e-08
2.9224244e-08
2.96233571e-08
3.012220673e-08
3.069223438e-08
3.129701494e-08
3.188830918e-08
3.239886051e-08
3.272981988e-08
2.946626291e-08
2.971994006e-08
3.008619893e-08
3.054378069e-08
3.10664605e-08
3.162093123e-08
3.216318447e-08
3.263179666e-08
3.293606863e-08
2.992741972e-08
3.01588495e-08
3.049286059e-08
3.090998075e-08
3.138628946e-08
3.189153293e-08
3.238582134e-08
3.28134007e-08
3.309152351e-08
3.033307719e-08
3.054279264e-08
3.084535441e-08
3.122305431e-08
3.165423123e-08
3.211160246e-08
3.255926426e-08
3.294694222e-08
3.319960171e-08
3.068517512e-08
3.087382064e-08
3.114588938e-08
3.148540278e-08
3.187290101e-08
3.228397598e-08
3.268656144e-08
3.303565176e-08
3.326365406e-08
3.098585738e-08
3.115416701e-08
3.139682547e-08
3.169953942e-08
3.204498139e-08
3.241151012e-08
3.2770736e-08
3.308269587e-08
3.328694249e-08
3.123742511e-08
3.13862028e-08
3.160063175e-08
3.186805128e-08
3.217318863e-08
3.249705298e-08
3.28147617e-08
3.309115681e-08
3.327262215e-08
3.144229394e-08
3.15723958e-08
3.175984868e-08
3.199356528e-08
3.226024324e-08
3.25434195e-08
3.28215429e-08
3.306401638e-08
3.322372774e-08
3.160295552e-08
3.171527424e-08
3.187705468e-08
3.207871854e-08
3.230884459e-08
3.255337066e-08
3.279389831e-08
3.300414359e-08
3.314316361e-08
3.172194362e-08
3.181739475e-08
3.195483701e-08
3.212613288e-08
3.232164953e-08
3.252959652e-08
3.273454823e-08
3.291428549e-08
3.303369686e-08
3.180180459e-08
3.188131468e-08
3.199576673e-08
3.21383931e-08
3.23012546e-08
3.247470245e-08
3.264610485e-08
3.27970609e-08
3.289795323e-08
3.1845072e-08
3.190956852e-08
3.200237764e-08
3.21180291e-08
3.225018158e-08
3.239119851e-08
3.253106522e-08
3.265495648e-08
3.273841523e-08
3.185424531e-08
3.190464809e-08
3.197714875e-08
3.20675011e-08
3.217086608e-08
3.228149142e-08
3.239180656e-08
3.24903249e-08
3.2557422e-08
3.183177208e-08
3.18689862e-08
3.192248998e-08
3.198918798e-08
3.206564869e-08
3.214787881e-08
3.223058347e-08
3.230538458e-08
3.235717083e-08
3.178003354e-08
3.180494351e-08
3.184073086e-08
3.188537825e-08
3.193676861e-08
3.199254552e-08
3.204952691e-08
3.210222094e-08
3.213971978e-08
3.170133306e-08
3.171479812e-08
3.173411177e-08
3.175826328e-08
3.178635915e-08
3.181756157e-08
3.185064445e-08
3.188278866e-08
3.190699125e-08
3.15978872e-08
3.160073763e-08
3.160477744e-08
3.160993264e-08
3.161644505e-08
3.162488156e-08
3.163582174e-08
3.16489149e-08
3.166077633e-08
3.147181908e-08
3.146485342e-08
3.145477247e-08
3.14423711e-08
3.142894127e-08
3.141634526e-08
3.140682486e-08
3.140230313e-08
3.140273967e-08
3.132515373e-08
3.130913668e-08
3.128603843e-08
3.125745715e-08
3.122565299e-08
3.119367923e-08
3.116530345e-08
3.114453757e-08
3.11344247e-08
3.115981503e-08
3.113547611e-08
3.110041258e-08
3.105696279e-08
3.100827669e-08
3.095849917e-08
3.091279434e-08
3.087708799e-08
3.085725914e-08
3.097762428e-08
3.094565696e-08
3.089962761e-08
3.084255428e-08
3.077840199e-08
3.071231298e-08
3.065072572e-08
3.060131472e-08
3.057256072e-08
3.078029981e-08
3.074136119e-08
3.06853125e-08
3.061579386e-08
3.05375143e-08
3.045652427e-08
3.038042153e-08
3.03184739e-08
3.028154286e-08
3.056945775e-08
3.052416857e-08
3.045899423e-08
3.037814207e-08
3.028699789e-08
3.019243629e-08
3.010310619e-08
3.002972279e-08
2.998532044e-08
3.034661354e-08
3.029555858e-08
3.022210011e-08
3.013096072e-08
3.002813946e-08
2.992125609e-08
2.981990933e-08
2.973612511e-08
2.968491546e-08
3.011318423e-08
3.005691295e-08
2.997596068e-08
2.98755162e-08
2.976213202e-08
2.964409895e-08
2.953187071e-08
2.943865631e-08
2.938126265e-08
2.98704912e-08
2.98095186e-08
2.972181302e-08
2.961298319e-08
2.949007895e-08
2.93619928e-08
2.92399451e-08
2.91382088e-08
2.907521484e-08
2.961976345e-08
2.955457113e-08
2.94608044e-08
2.934444857e-08
2.921299823e-08
2.907588286e-08
2.89450071e-08
2.883559704e-08
2.876754833e-08
2.936214113e-08
2.929317842e-08
2.919399617e-08
2.907091556e-08
2.89318268e-08
2.878663614e-08
2.864785594e-08
2.853156253e-08
2.845896787e-08
2.909867929e-08
2.902636458e-08
2.892236773e-08
2.87933078e-08
2.864742489e-08
2.849504594e-08
2.834922013e-08
2.822677857e-08
2.815011162e-08
2.883035189e-08
2.875507392e-08
2.864682067e-08
2.851247368e-08
2.836058032e-08
2.820183632e-08
2.8049762e-08
2.792185486e-08
2.784155579e-08
2.855805578e-08
2.848017505e-08
2.836818293e-08
2.822919046e-08
2.807201282e-08
2.790766643e-08
2.775008205e-08
2.761734198e-08
2.753381907e-08
2.828261483e-08
2.820246502e-08
2.808721292e-08
2.794416851e-08
2.778237819e-08
2.761313466e-08
2.745072319e-08
2.731373551e-08
2.72273669e-08
2.800478398e-08
2.792267335e-08
2.780460358e-08
2.765805531e-08
2.749227236e-08
2.731878276e-08
2.715217476e-08
2.701148015e-08
2.692261543e-08
2.772525327e-08
2.764146608e-08
2.752098646e-08
2.737143953e-08
2.720223537e-08
2.702509969e-08
2.685487635e-08
2.671097344e-08
2.661993533e-08
2.744465181e-08
2.735944972e-08
2.723693553e-08
2.708485478e-08
2.691275514e-08
2.673252538e-08
2.655922153e-08
2.64125694e-08
2.631965532e-08
2.716355163e-08
2.707717503e-08
2.695297104e-08
2.679878343e-08
2.662427111e-08
2.644145424e-08
2.626556121e-08
2.611658188e-08
2.602206557e-08
2.688247144e-08
2.679514078e-08
2.666956312e-08
2.651366009e-08
2.633717776e-08
2.615223859e-08
2.597420702e-08
2.582328782e-08
2.572742076e-08
2.66018802e-08
2.651379728e-08
2.638713529e-08
2.622987509e-08
2.605182783e-08
2.586519183e-08
2.568543433e-08
2.553293016e-08
2.543594308e-08
2.632220057e-08
2.623354978e-08
2.610606779e-08
2.594777768e-08
2.576853555e-08
2.558059142e-08
2.539948518e-08
2.524572071e-08
2.514782496e-08
2.604381227e-08
2.595476172e-08
2.582670075e-08
2.566767911e-08
2.548757953e-08
2.529868182e-08
2.511657099e-08
2.496184276e-08
2.486323161e-08
2.576705516e-08
2.567775784e-08
2.554933721e-08
2.538985556e-08
2.520920561e-08
2.501967706e-08
2.483687513e-08
2.468145348e-08
2.45823034e-08
2.549223227e-08
2.540282712e-08
2.527424598e-08
2.511455088e-08
2.493362947e-08
2.474376329e-08
2.456055526e-08
2.440468625e-08
2.43051581e-08
2.521961261e-08
2.51302255e-08
2.500166431e-08
2.484197919e-08
2.466103908e-08
2.447110115e-08
2.428774562e-08
2.413165274e-08
2.40318929e-08
2.494943381e-08
2.486017854e-08
2.473180042e-08
2.457232726e-08
2.439159704e-08
2.42018279e-08
2.401855902e-08
2.386244493e-08
2.376258634e-08
2.468190465e-08
2.459288382e-08
2.446483586e-08
2.430575685e-08
2.412544273e-08
2.39360595e-08
2.375308883e-08
2.359713686e-08
2.349730002e-08
2.441720738e-08
2.432851326e-08
2.420092776e-08
2.404240675e-08
2.386269429e-08
2.367389247e-08
2.34914107e-08
2.333578635e-08
2.32360803e-08
2.415549994e-08
2.406721527e-08
2.394021085e-08
2.378239481e-08
2.360345052e-08
2.341540566e-08
2.323358422e-08
2.307843655e-08
2.29789597e-08
2.389691803e-08
2.380911675e-08
2.368279945e-08
2.352581979e-08
2.334779261e-08
2.316066191e-08
2.29796545e-08
2.282511739e-08
2.272595836e-08
2.364157701e-08
2.355432496e-08
2.342878922e-08
2.327276304e-08
2.309578577e-08
2.29097095e-08
2.272965349e-08
2.257584686e-08
2.247708527e-08
2.338957368e-08
2.330292928e-08
2.31782589e-08
2.302329011e-08
2.284748071e-08
2.266258362e-08
2.248360137e-08
2.233063229e-08
2.223233944e-08
2.314098796e-08
2.305500278e-08
2.293127178e-08
2.277745223e-08
2.260291503e-08
2.241930758e-08
2.224150768e-08
2.208947142e-08
2.199171097e-08
2.28958844e-08
2.281060377e-08
2.26878772e-08
2.253528766e-08
2.236211449e-08
2.217989407e-08
2.200337245e-08
2.185235344e-08
2.175518205e-08
2.265431365e-08
2.256977714e-08
2.244811183e-08
2.229682291e-08
2.212509417e-08
2.19443462e-08
2.176918722e-08
2.161925996e-08
2.152272783e-08
2.241631371e-08
2.233255566e-08
2.221200094e-08
2.206207399e-08
2.189185959e-08
2.171265852e-08
2.153893592e-08
2.139016582e-08
2.129431726e-08
2.218191123e-08
2.209896117e-08
2.197955952e-08
2.18310474e-08
2.16624077e-08
2.148481796e-08
2.13125958e-08
2.116503993e-08
2.106991385e-08
2.195112257e-08
2.186900568e-08
2.175079329e-08
2.160374112e-08
2.143672776e-08
2.126080464e-08
2.109013812e-08
2.094384596e-08
2.08494763e-08
2.172395488e-08
2.164269233e-08
2.152569971e-08
2.138014558e-08
2.121480224e-08
2.104059268e-08
2.087152894e-08
2.072654302e-08
2.063295922e-08
2.150040701e-08
2.142001637e-08
2.130426883e-08
2.11602444e-08
2.099660754e-08
2.082415091e-08
2.065672973e-08
2.051308625e-08
2.04203136e-08
2.128047042e-08
2.120096596e-08
2.108648411e-08
2.094401523e-08
2.078211472e-08
2.061144349e-08
2.044569796e-08
2.030342736e-08
2.021148742e-08
2.106412997e-08
2.098552297e-08
2.087232315e-08
2.073143039e-08
2.057129015e-08
2.040243054e-08
2.023838769e-08
2.009751517e-08
2.000642604e-08
2.085136465e-08
2.077366369e-08
2.066175837e-08
2.052245752e-08
2.036409608e-08
2.019706864e-08
2.003474999e-08
1.9895296e-08
1.98050727e-08
2.064214822e-08
2.056535947e-08
2.045475762e-08
2.031706016e-08
2.016049117e-08
1.999531134e-08
1.983473345e-08
1.969671416e-08
1.960736886e-08
2.043644984e-08
2.036057724e-08
2.025128471e-08
2.011519826e-08
1.996043098e-08
1.979710961e-08
1.963828455e-08
1.950171224e-08
1.941325458e-08
2.023423455e-08
2.01592801e-08
2.005129992e-08
1.991682859e-08
1.976386837e-08
1.960241216e-08
1.9445348e-08
1.931023147e-08
1.92226688e-08
2.003546372e-08
1.996142766e-08
1.985476035e-08
1.972190514e-08
1.957075384e-08
1.941116582e-08
1.925586703e-08
1.912221199e-08
1.903554962e-08
1.98400954e-08
1.97669764e-08
1.966162022e-08
1.953037942e-08
1.938103575e-08
1.92233157e-08
1.906978362e-08
1.893759302e-08
1.885183446e-08
1.964808448e-08
1.957587982e-08
1.94718311e-08
1.934220053e-08
1.919466051e-08
1.903880535e-08
1.888703853e-08
1.875631297e-08
1.867146014e-08
1.945938275e-08
1.938808851e-08
1.928534181e-08
1.91573152e-08
1.901157246e-08
1.885757666e-08
1.870757132e-08
1.857830935e-08
1.849436285e-08
1.927393871e-08
1.920354988e-08
1.910209828e-08
1.897566749e-08
1.883171364e-08
1.867956958e-08
1.853131994e-08
1.840351846e-08
1.832047783e-08
1.909169698e-08
1.902220763e-08
1.892204286e-08
1.879719817e-08
1.865502308e-08
1.850472141e-08
1.835822011e-08
1.823187472e-08
1.81497387e-08
1.891259738e-08
1.884400071e-08
1.874511332e-08
1.86218436e-08
1.848143564e-08
1.833296558e-08
1.818820403e-08
1.80633094e-08
1.798207619e-08
1.873657326e-08
1.866886164e-08
1.857124103e-08
1.844953385e-08
1.831088008e-08
1.816422965e-08
1.80211983e-08
1.789774853e-08
1.781741612e-08
1.8563549e-08
1.849671393e-08
1.840034833e-08
1.828018992e-08
1.814327606e-08
1.799843216e-08
1.785712074e-08
1.773510962e-08
1.765567603e-08
1.839343643e-08
1.832746836e-08
1.823234458e-08
1.811371954e-08
1.797852977e-08
1.783547804e-08
1.76958755e-08
1.757529662e-08
1.749676011e-08
1.822612969e-08
1.816101767e-08
1.806712056e-08
1.795001131e-08
1.781652763e-08
1.76752519e-08
1.753734604e-08
1.74181927e-08
1.734055183e-08
1.806149826e-08
1.799722926e-08
1.790454087e-08
1.778892654e-08
1.765712761e-08
1.751760878e-08
1.738138535e-08
1.726364992e-08
1.718690336e-08
1.789937754e-08
1.783593551e-08
1.774443363e-08
1.763028829e-08
1.750014748e-08
1.736236156e-08
1.722780251e-08
1.711147521e-08
1.70356211e-08
1.773955674e-08
1.767692111e-08
1.758657709e-08
1.747386709e-08
1.734534944e-08
1.720926443e-08
1.707634503e-08
1.696141163e-08
1.688644637e-08
1.758176334e-08
1.751990689e-08
1.743068263e-08
1.73193627e-08
1.719242049e-08
1.705799174e-08
1.692667612e-08
1.681311434e-08
1.673903044e-08
1.74256439e-08
1.736452989e-08
1.727637355e-08
1.716638146e-08
1.704094803e-08
1.690811158e-08
1.677834635e-08
1.666612048e-08
1.659290324e-08
1.72707408e-08
1.721031912e-08
1.712315955e-08
1.701440895e-08
1.689039032e-08
1.675905396e-08
1.663075939e-08
1.65198127e-08
1.644743544e-08
1.711646481e-08
1.705666713e-08
1.697040662e-08
1.686277782e-08
1.674004194e-08
1.661007349e-08
1.648313179e-08
1.637337637e-08
1.630179386e-08
1.696206367e-08
1.690279732e-08
1.681730272e-08
1.671063123e-08
1.658899449e-08
1.646020705e-08
1.633444762e-08
1.622575133e-08
1.615489122e-08
1.680658714e-08
1.674772789e-08
1.666281985e-08
1.655688261e-08
1.643609356e-08
1.630822769e-08
1.618340907e-08
1.607557945e-08
1.600533157e-08
1.664884961e-08
1.659023324e-08
1.650567381e-08
1.640017322e-08
1.627989373e-08
1.615259665e-08
1.602838536e-08
1.59211507e-08
1.585135426e-08
1.648739176e-08
1.642880468e-08
1.63442835e-08
1.623882966e-08
1.61186139e-08
1.599141631e-08
1.586736325e-08
1.576035117e-08
1.569078023e-08
1.632044357e-08
1.626161288e-08
1.617673247e-08
1.607082434e-08
1.595009651e-08
1.582238806e-08
1.569790332e-08
1.559061792e-08
1.552096568e-08
1.614589164e-08
1.608647508e-08
1.600073618e-08
1.589374278e-08
1.5771775e-08
1.564277983e-08
1.551710773e-08
1.540890674e-08
1.533876967e-08
1.596125456e-08
1.590083125e-08
1.581361929e-08
1.570476252e-08
1.558065472e-08
1.544940948e-08
1.532160601e-08
1.521168009e-08
1.514054338e-08
1.576367102e-08
1.570173396e-08
1.561230818e-08
1.550064927e-08
1.537331367e-08
1.523865075e-08
1.510756645e-08
1.499492337e-08
1.492214957e-08
1.554990554e-08
1.548585712e-08
1.539334441e-08
1.527777662e-08
1.514592973e-08
1.500646905e-08
1.487074114e-08
1.475419832e-08
1.467902161e-08
1.531637753e-08
1.524952961e-08
1.515292522e-08
1.503217558e-08
1.489434146e-08
1.474849514e-08
1.46065527e-08
1.448474195e-08
1.440627064e-08
1.505921942e-08
1.498879953e-08
1.488697695e-08
1.475962032e-08
1.461414872e-08
1.446014261e-08
1.431022967e-08
1.418161817e-08
1.409884852e-08
1.477436893e-08
1.469953424e-08
1.459126683e-08
1.445575526e-08
1.430085842e-08
1.413677473e-08
1.397699537e-08
1.383992697e-08
1.375177075e-08
1.445769959e-08
1.437756012e-08
1.426155655e-08
1.411626678e-08
1.395007796e-08
1.37739224e-08
1.360231122e-08
1.345507108e-08
1.336039946e-08
1.410519151e-08
1.401884372e-08
1.389379877e-08
1.37370996e-08
1.355775544e-08
1.336755083e-08
1.31821707e-08
1.302307495e-08
1.292077951e-08
1.371314155e-08
1.361971265e-08
1.348437384e-08
1.331471381e-08