/*--------------------------------*- C++ -*----------------------------------*\
| =========                 |                                                 |
| \\      /  F ield         | OpenFOAM: The Open Source CFD Toolbox           |
|  \\    /   O peration     | Version:  2212                                  |
|   \\  /    A nd           | Website:  www.openfoam.com                      |
|    \\/     M anipulation  |                                                 |
\*---------------------------------------------------------------------------*/
FoamFile
{
    version     2.0;
    format      ascii;
    arch        "LSB;label=32;scalar=64";
    class       volScalarField;
    location    "20.00000000";
    object      I-C4H51_0;
}
// * * * * * * * * * * * * * * * * * * * * * * * * * * * * * * * * * * * * * //

dimensions      [0 0 0 0 0 0 0];

internalField   nonuniform List<scalar> 
3000
(
1.271781135e-25
1.428578724e-25
1.665179388e-25
1.98046735e-25
2.371244019e-25
2.826907582e-25
3.320014841e-25
3.790547158e-25
4.123332815e-25
4.77496751e-25
5.385354102e-25
6.306019019e-25
7.535626023e-25
9.072988492e-25
1.090958132e-24
1.301356629e-24
1.52783475e-24
1.728509241e-24
1.069607062e-24
1.215814648e-24
1.438453915e-24
1.740756059e-24
2.12817023e-24
2.606317254e-24
3.173327548e-24
3.797310738e-24
4.330740195e-24
2.037484217e-24
2.340297578e-24
2.808174345e-24
3.456960981e-24
4.309660861e-24
5.387929884e-24
6.685848731e-24
8.099329019e-24
9.240232715e-24
3.61832933e-24
4.207162478e-24
5.131296607e-24
6.437702533e-24
8.187859609e-24
1.043079408e-23
1.312895958e-23
1.599397175e-23
1.819315735e-23
6.222472698e-24
7.327833778e-24
9.087493269e-24
1.161379572e-23
1.504158448e-23
1.94571939e-23
2.472897487e-23
3.019228782e-23
3.423474447e-23
1.056409168e-23
1.259473034e-23
1.586502695e-23
2.061308909e-23
2.710340481e-23
3.546507424e-23
4.535242942e-23
5.539847082e-23
6.264749394e-23
1.787848006e-23
2.155359929e-23
2.752492299e-23
3.62615901e-23
4.825094887e-23
6.366561514e-23
8.173226259e-23
9.982108224e-23
1.126555181e-22
3.030582569e-23
3.688664761e-23
4.764831191e-23
6.347350436e-23
8.522903257e-23
1.131239276e-22
1.455822852e-22
1.777421511e-22
2.003082849e-22
5.155190512e-23
6.324287396e-23
8.244879133e-23
1.10782823e-22
1.497587918e-22
1.996027678e-22
2.572796265e-22
3.140070473e-22
3.535160721e-22
8.803745664e-23
1.086844419e-22
1.427113418e-22
1.930124861e-22
2.622090256e-22
3.505025769e-22
4.522502924e-22
5.518102056e-22
6.208028839e-22
1.508897017e-22
1.871923235e-22
2.471519484e-22
3.359018475e-22
4.579662758e-22
6.134411248e-22
7.920677026e-22
9.662244575e-22
1.086493417e-21
2.593992996e-22
3.230176925e-22
4.282536392e-22
5.841452445e-22
7.984977996e-22
1.071147789e-21
1.383714074e-21
1.687685128e-21
1.897094651e-21
4.470185779e-22
5.582326259e-22
7.423950958e-22
1.015346189e-21
1.39056056e-21
1.867331078e-21
2.41303638e-21
2.942773469e-21
3.307089217e-21
7.717727072e-22
9.658384254e-22
1.287436703e-21
1.764246864e-21
2.419553575e-21
3.251587672e-21
4.202824774e-21
5.125016928e-21
5.758446589e-21
1.334331326e-21
1.672520764e-21
2.233251713e-21
3.06479649e-21
4.207429181e-21
5.65738181e-21
7.31365528e-21
8.917805287e-21
1.001863591e-20
2.309379721e-21
2.898154925e-21
3.874734883e-21
5.323191995e-21
7.313236508e-21
9.837419255e-21
1.271893941e-20
1.550774582e-20
1.742019141e-20
4.000078666e-21
5.024389829e-21
6.723832324e-21
9.244684524e-21
1.270766546e-20
1.709863404e-20
2.210874582e-20
2.695493681e-20
3.027651132e-20
6.932603471e-21
8.7137108e-21
1.166930541e-20
1.605369811e-20
2.207598357e-20
2.970993941e-20
3.841686476e-20
4.683518617e-20
5.26029155e-20
1.202024266e-20
1.511610844e-20
2.025403439e-20
2.787583746e-20
3.834364726e-20
5.16094709e-20
6.673463206e-20
8.135292655e-20
9.136513718e-20
2.0848192e-20
2.622776106e-20
3.515626562e-20
4.840073833e-20
6.658806545e-20
8.963091003e-20
1.158947252e-19
1.412692047e-19
1.586425457e-19
3.616765518e-20
4.551331978e-20
6.102444142e-20
8.403164904e-20
1.156193073e-19
1.556285621e-19
2.012141391e-19
2.452392861e-19
2.753715524e-19
6.275257843e-20
7.898478417e-20
1.059241948e-19
1.458771348e-19
2.007172042e-19
2.701547737e-19
3.492375414e-19
4.255793974e-19
4.778086226e-19
1.088844936e-19
1.370712845e-19
1.838456109e-19
2.532006251e-19
3.483682703e-19
4.688170411e-19
6.05927359e-19
7.382138388e-19
8.286712363e-19
1.889231459e-19
2.378555602e-19
3.190413504e-19
4.393847748e-19
6.044481502e-19
8.132467362e-19
1.050776348e-18
1.27979242e-18
1.436291237e-18
3.27750994e-19
4.12668062e-19
5.535205623e-19
7.622253558e-19
1.048326793e-18
1.409979847e-18
1.821059713e-18
2.217057381e-18
2.487434833e-18
5.684454369e-19
7.157400076e-19
9.599707992e-19
1.32166095e-18
1.817123878e-18
2.442859876e-18
3.153367034e-18
3.83703346e-18
4.30331385e-18
9.854951285e-19
1.240822262e-18
1.663982014e-18
2.29022002e-18
3.147280672e-18
4.22844351e-18
5.454433378e-18
6.632411408e-18
7.434701961e-18
1.707510079e-18
2.149719157e-18
2.882153079e-18
3.965127716e-18
5.445530731e-18
7.310311989e-18
9.421328092e-18
1.144599876e-17
1.282251331e-17
2.956128528e-18
3.72111819e-18
4.987189163e-18
6.85710642e-18
9.409483324e-18
1.261874839e-17
1.624418147e-17
1.971351572e-17
2.20670444e-17
5.112439961e-18
6.433829436e-18
8.6186233e-18
1.184096231e-17
1.623135704e-17
2.173939116e-17
2.794576614e-17
3.386864602e-17
3.787588858e-17
8.829930405e-18
1.110804908e-17
1.487018553e-17
2.040948303e-17
2.793997746e-17
3.736198811e-17
4.794584486e-17
5.801308852e-17
6.480257935e-17
1.522566498e-17
1.914387764e-17
2.560505112e-17
3.509872725e-17
4.797066491e-17
6.402391537e-17
8.199082029e-17
9.901467546e-17
1.104529887e-16
2.620226941e-17
3.292175956e-17
4.398281208e-17
6.019518807e-17
8.210711026e-17
1.093310505e-16
1.396704358e-16
1.682889133e-16
1.874354022e-16
4.498718101e-17
5.647054219e-17
7.533406417e-17
1.029021647e-16
1.40024131e-16
1.859430106e-16
2.368667544e-16
2.846584373e-16
3.164785777e-16
7.703029754e-17
9.657436145e-17
1.286005945e-16
1.752467089e-16
2.377903506e-16
3.147679916e-16
3.996657066e-16
4.788917596e-16
5.313618078e-16
1.314884033e-16
1.645930203e-16
2.186870713e-16
2.971682727e-16
4.018868677e-16
5.300488961e-16
6.705352266e-16
8.008265422e-16
8.866225474e-16
2.236625965e-16
2.794320752e-16
3.702670084e-16
5.014723385e-16
6.755923375e-16
8.873713767e-16
1.117974187e-15
1.33042423e-15
1.469473161e-15
3.789703199e-16
4.723481618e-16
6.238850561e-16
8.416947947e-16
1.129019375e-15
1.476133681e-15
1.85141577e-15
2.194739181e-15
2.418028327e-15
6.393662035e-16
7.946552644e-16
1.045647172e-15
1.404459131e-15
1.874721743e-15
2.438754621e-15
3.044001299e-15
3.593696083e-15
3.948901895e-15
1.073633303e-15
1.329970403e-15
1.742457613e-15
2.328693733e-15
3.091710149e-15
3.999953e-15
4.967029001e-15
5.83886579e-15
6.398592861e-15
1.793730544e-15
2.21348988e-15
2.885741926e-15
3.835215564e-15
5.062033724e-15
6.51093999e-15
8.041570744e-15
9.411267095e-15
1.028500674e-14
2.980518693e-15
3.66204201e-15
4.748020657e-15
6.271825676e-15
8.225967601e-15
1.051550745e-14
1.291513908e-14
1.504681621e-14
1.639817594e-14
4.923856486e-15
6.020488871e-15
7.758753556e-15
1.018140492e-14
1.326452206e-14
1.684802333e-14
2.057465528e-14
2.386169583e-14
2.593306194e-14
8.084481872e-15
9.832682645e-15
1.258881365e-14
1.640382772e-14
2.122177094e-14
2.677761082e-14
3.25117008e-14
3.753503337e-14
4.068267194e-14
1.318857547e-14
1.594894548e-14
2.027712832e-14
2.622721989e-14
3.368482337e-14
4.221877545e-14
5.096265907e-14
5.857343005e-14
6.3317192e-14
2.137086427e-14
2.568738368e-14
3.241893004e-14
4.161071522e-14
5.304673595e-14
6.603711819e-14
7.925559685e-14
9.069184306e-14
9.778523579e-14
3.43891465e-14
4.107388998e-14
5.144337161e-14
6.551016486e-14
8.288811107e-14
1.024904494e-13
1.223085953e-13
1.393591612e-13
1.498877306e-13
5.494302215e-14
6.519630665e-14
8.101993325e-14
1.023512687e-13
1.28527702e-13
1.578618579e-13
1.873420881e-13
2.12576041e-13
2.28094917e-13
8.714355069e-14
1.027231524e-13
1.266494151e-13
1.587127689e-13
1.978125919e-13
2.41363749e-13
2.848923702e-13
3.219788836e-13
3.447046606e-13
1.372001689e-13
1.606583633e-13
1.965183409e-13
2.443077795e-13
3.022466597e-13
3.664229391e-13
4.302475246e-13
4.844005343e-13
5.174781946e-13
2.144187144e-13
2.494333081e-13
3.027282499e-13
3.73387068e-13
4.585950092e-13
5.524991861e-13
6.454731514e-13
7.240683581e-13
7.719423233e-13
3.326323882e-13
3.844632913e-13
4.630382472e-13
5.667222108e-13
6.911500587e-13
8.276542341e-13
9.622699866e-13
1.075698212e-12
1.144622538e-12
5.122468747e-13
5.883704015e-13
7.033515919e-13
8.54426839e-13
1.034936494e-12
1.232160785e-12
1.425971726e-12
1.588814467e-12
1.687558861e-12
7.831704938e-13
8.941550932e-13
1.061240227e-12
1.279930567e-12
1.540207354e-12
1.823555679e-12
2.101134165e-12
2.33378209e-12
2.474603649e-12
1.188966103e-12
1.349678108e-12
1.590912253e-12
1.905565032e-12
2.27874652e-12
2.683703477e-12
3.079329678e-12
3.410205663e-12
3.6101835e-12
1.792722424e-12
2.023983286e-12
2.370198476e-12
2.820395308e-12
3.352677937e-12
3.928643769e-12
4.489991099e-12
4.958596643e-12
5.241461142e-12
2.685333247e-12
3.016193934e-12
3.510355395e-12
4.151175874e-12
4.906754649e-12
5.722294064e-12
6.515470582e-12
7.17655149e-12
7.575185307e-12
3.997147836e-12
4.468006829e-12
5.169797381e-12
6.077655668e-12
7.145480003e-12
8.29549429e-12
9.411925549e-12
1.034115505e-11
1.090100249e-11
5.914345024e-12
6.581220523e-12
7.573317397e-12
8.853945751e-12
1.035694989e-11
1.197246373e-11
1.353827202e-11
1.483998369e-11
1.562368472e-11
8.701938435e-12
9.642323806e-12
1.103899446e-11
1.283836386e-11
1.494607503e-11
1.720758136e-11
1.939634831e-11
2.121403395e-11
2.230769909e-11
1.273611678e-11
1.405701815e-11
1.60159089e-11
1.853518642e-11
2.148096325e-11
2.463662754e-11
2.768675538e-11
3.021729922e-11
3.173898838e-11
1.854977123e-11
2.039877572e-11
2.313713072e-11
2.665323005e-11
3.075790136e-11
3.514846114e-11
3.938684346e-11
4.289985641e-11
4.501104663e-11
2.689671471e-11
2.94773132e-11
3.329441232e-11
3.818839233e-11
4.38928713e-11
4.998591593e-11
5.586043556e-11
6.072470598e-11
6.364591217e-11
3.884245896e-11
4.243542706e-11
4.774389216e-11
5.454057201e-11
6.245133517e-11
7.088907723e-11
7.901384532e-11
8.573409517e-11
8.976651678e-11
5.589275003e-11
6.088630803e-11
6.825631202e-11
7.768029961e-11
8.863383386e-11
1.003009569e-10
1.115207163e-10
1.20790039e-10
1.26346476e-10
8.017571244e-11
8.710865332e-11
9.733131492e-11
1.10387674e-10
1.255437525e-10
1.416662437e-10
1.571508856e-10
1.699283085e-10
1.775792095e-10
1.146998079e-10
1.243241128e-10
1.385039785e-10
1.565967237e-10
1.775766718e-10
1.99869974e-10
2.212580681e-10
2.388879766e-10
2.494332685e-10
1.637182491e-10
1.770913267e-10
1.967835241e-10
2.218930513e-10
2.509893796e-10
2.818864289e-10
3.115099525e-10
3.359124507e-10
3.504979761e-10
2.332413217e-10
2.518634172e-10
2.792796334e-10
3.14232237e-10
3.547316935e-10
3.977403149e-10
4.389834233e-10
4.729639705e-10
4.932741882e-10
3.317513768e-10
3.577713311e-10
3.960908874e-10
4.449705846e-10
5.016549014e-10
5.619208112e-10
6.197946477e-10
6.675484054e-10
6.961249972e-10
4.711906814e-10
5.077131153e-10
5.615510439e-10
6.303257721e-10
7.102425275e-10
7.954276318e-10
8.774790543e-10
9.453982191e-10
9.861557975e-10
6.683085589e-10
7.198467774e-10
7.959482343e-10
8.93406274e-10
1.007031999e-09
1.128651728e-09
1.246358889e-09
1.344282103e-09
1.403311783e-09
9.464681462e-10
1.019596922e-09
1.127841874e-09
1.266952883e-09
1.429891501e-09
1.605275926e-09
1.776101873e-09
1.919157822e-09
2.005916106e-09
1.338018253e-09
1.442283986e-09
1.597089224e-09
1.796904659e-09
2.032258834e-09
2.287288057e-09
2.537539957e-09
2.748708905e-09
2.877667459e-09
1.887320938e-09
2.036455516e-09
2.25863987e-09
2.546811596e-09
2.888308981e-09
3.260995855e-09
3.629542862e-09
3.942964407e-09
4.135729653e-09
2.654473075e-09
2.867922337e-09
3.187040503e-09
3.602944301e-09
4.098771655e-09
4.643599869e-09
5.186314944e-09
5.651191276e-09
5.938982917e-09
3.719648299e-09
4.024357408e-09
4.481395825e-09
5.079684538e-09
5.796768014e-09
6.589433691e-09
7.383944274e-09
8.068633305e-09
8.494846549e-09
5.187794236e-09
5.620087097e-09
6.270249208e-09
7.124429998e-09
8.152609148e-09
9.294480363e-09
1.044447195e-08
1.144007111e-08
1.206246707e-08
7.193144906e-09
7.800399459e-09
8.715500032e-09
9.920852961e-09
1.137606116e-08
1.299730396e-08
1.463526721e-08
1.605770235e-08
1.694960662e-08
9.902680764e-09
1.074435463e-08
1.201412035e-08
1.3688983e-08
1.571419676e-08
1.797413293e-08
2.026106953e-08
2.225039555e-08
2.350011158e-08
1.351736949e-08
1.46647977e-08
1.639616387e-08
1.868031301e-08
2.144263187e-08
2.452536397e-08
2.764531657e-08
3.036026668e-08
3.206746102e-08
1.82698714e-08
1.980416974e-08
2.21174927e-08
2.516602676e-08
2.884761735e-08
3.294981404e-08
3.709524162e-08
4.069865214e-08
4.296430404e-08
2.44175033e-08
2.642490269e-08
2.944590529e-08
3.341663575e-08
3.819614549e-08
4.350120093e-08
4.883982767e-08
5.346169236e-08
5.635934001e-08
3.222958387e-08
3.479363744e-08
3.863997911e-08
4.367208043e-08
4.96917207e-08
5.631984381e-08
6.292076727e-08
6.855735275e-08
7.202497322e-08
4.196838689e-08
4.515869604e-08
4.992043112e-08
5.610267942e-08
6.341676454e-08
7.133904313e-08
7.902365322e-08
8.526397499e-08
8.85814997e-08
5.386159649e-08
5.771847608e-08
6.343159184e-08
7.075940513e-08
7.9264954e-08
8.819011942e-08
9.633825552e-08
1.020141578e-07
1.042926924e-07
6.805923335e-08
7.257151734e-08
7.917924841e-08
8.749271679e-08
9.683066649e-08
1.060495061e-07
1.133635949e-07
1.175343441e-07
1.190697383e-07
8.455533319e-08
8.962360099e-08
9.691177758e-08
1.057896047e-07
1.151615604e-07
1.232419434e-07
1.288543479e-07
1.319997273e-07
1.330257382e-07
1.030280422e-07
1.083944484e-07
1.158613992e-07
1.244376489e-07
1.32240692e-07
1.386089233e-07
1.431269184e-07
1.456196103e-07
1.46318388e-07
1.224686924e-07
1.275812351e-07
1.340817993e-07
1.408529427e-07
1.472245486e-07
1.525889542e-07
1.56466524e-07
1.585821958e-07
1.59089852e-07
1.402326509e-07
1.442206386e-07
1.494515022e-07
1.551778115e-07
1.607499156e-07
1.655670274e-07
1.691088944e-07
1.710365726e-07
1.714492126e-07
1.549394726e-07
1.583603267e-07
1.629502196e-07
1.681224891e-07
1.732803654e-07
1.778307919e-07
1.812280481e-07
1.830894797e-07
1.834718159e-07
1.678535571e-07
1.709929711e-07
1.75266398e-07
1.801655412e-07
1.851313367e-07
1.895777376e-07
1.929427315e-07
1.948119231e-07
1.952058893e-07
1.797135565e-07
1.827159781e-07
1.868385245e-07
1.916140086e-07
1.965068571e-07
2.009364588e-07
2.043301086e-07
2.062490968e-07
2.066808812e-07
1.90944009e-07
1.938795907e-07
1.979317131e-07
2.026566465e-07
2.075340814e-07
2.119881229e-07
2.15439254e-07
2.174294646e-07
2.179146343e-07
2.01784329e-07
2.046843347e-07
2.087011331e-07
2.134062018e-07
2.182906108e-07
2.227834813e-07
2.263016015e-07
2.283714733e-07
2.289184643e-07
2.123671643e-07
2.152428723e-07
2.192358145e-07
2.239290527e-07
2.288236323e-07
2.333546644e-07
2.369379924e-07
2.390878717e-07
2.397002831e-07
2.227648337e-07
2.256175868e-07
2.295862853e-07
2.342641919e-07
2.391621753e-07
2.437226323e-07
2.473629806e-07
2.495881964e-07
2.502662901e-07
2.330160223e-07
2.35842504e-07
2.397809992e-07
2.444346167e-07
2.493244515e-07
2.539015627e-07
2.575872636e-07
2.598800626e-07
2.606217634e-07
2.431406907e-07
2.459356474e-07
2.498356933e-07
2.544538575e-07
2.593220502e-07
2.639013114e-07
2.676189743e-07
2.699697634e-07
2.707713549e-07
2.531482227e-07
2.559058355e-07
2.597585811e-07
2.643296205e-07
2.691622767e-07
2.737287603e-07
2.774643432e-07
2.798625158e-07
2.807191467e-07
2.63041831e-07
2.657563864e-07
2.6955321e-07
2.740658144e-07
2.788494611e-07
2.833885634e-07
2.871280418e-07
2.895625462e-07
2.904686145e-07
2.728209578e-07
2.754871581e-07
2.79220061e-07
2.836637066e-07
2.883857209e-07
2.928835884e-07
2.966133789e-07
2.990731198e-07
3.000225702e-07
2.824826222e-07
2.850957116e-07
2.887574839e-07
2.931226224e-07
2.97771441e-07
3.022152062e-07
3.05922435e-07
3.083965588e-07
3.093831167e-07
2.92022215e-07
2.945780141e-07
2.981622824e-07
3.024404031e-07
3.070056064e-07
3.113835072e-07
3.150561742e-07
3.175342708e-07
3.185516229e-07
3.014340025e-07
3.039288961e-07
3.074301095e-07
3.116137325e-07
3.16086056e-07
3.203874812e-07
3.240145521e-07
3.264867918e-07
3.275287255e-07
3.107114665e-07
3.131423697e-07
3.16555756e-07
3.206383871e-07
3.250096904e-07
3.292251765e-07
3.327966241e-07
3.352538464e-07
3.363143531e-07
3.198475513e-07
3.222118654e-07
3.255333727e-07
3.295094406e-07
3.337726509e-07
3.37893849e-07
3.414006581e-07
3.438344221e-07
3.449077727e-07
3.288348512e-07
3.311304184e-07
3.343566521e-07
3.382214365e-07
3.4237048e-07
3.46390104e-07
3.498242514e-07
3.522268588e-07
3.533076553e-07
3.376657624e-07
3.39890821e-07
3.430189821e-07
3.467685414e-07
3.507982693e-07
3.547100333e-07
3.580644521e-07
3.604289494e-07
3.615121583e-07
3.463326105e-07
3.484857543e-07
3.515135817e-07
3.551446832e-07
3.590507982e-07
3.628493498e-07
3.661178831e-07
3.684380486e-07
3.695190201e-07
3.548277636e-07
3.569079056e-07
3.598336235e-07
3.633436792e-07
3.671226653e-07
3.708035185e-07
3.73980868e-07
3.76251189e-07
3.773256648e-07
3.631437343e-07
3.651500755e-07
3.679723479e-07
3.713593565e-07
3.750084133e-07
3.785678837e-07
3.816495563e-07
3.838651996e-07
3.849293123e-07
3.712732753e-07
3.732052781e-07
3.759231688e-07
3.791856646e-07
3.827026481e-07
3.861377909e-07
3.891200448e-07
3.912768229e-07
3.923270897e-07
3.792094684e-07
3.810668344e-07
3.83679773e-07
3.868167804e-07
3.902001491e-07
3.935087023e-07
3.963884947e-07
3.984828296e-07
3.995161407e-07
3.869458079e-07
3.887284586e-07
3.912362113e-07
3.942472055e-07
3.97495972e-07
4.006763026e-07
4.034512393e-07
4.054801258e-07
4.0649373e-07
3.944762764e-07
3.961843374e-07
3.985869815e-07
4.014718535e-07
4.045855407e-07
4.076365957e-07
4.103048827e-07
4.122658506e-07
4.132573387e-07
4.017954125e-07
4.034291998e-07
4.057271017e-07
4.084861267e-07
4.114647277e-07
4.143859885e-07
4.169463863e-07
4.188374637e-07
4.1980475e-07
4.088983702e-07
4.104583776e-07
4.126521722e-07
4.152859816e-07
4.181299234e-07
4.209213628e-07
4.233731421e-07
4.251928191e-07
4.261341225e-07
4.157809667e-07
4.172678543e-07
4.193584271e-07
4.218679815e-07
4.245780906e-07
4.272401324e-07
4.295830333e-07
4.313302262e-07
4.322440508e-07
4.224397198e-07
4.238543036e-07
4.258427728e-07
4.282293375e-07
4.308068073e-07
4.333402884e-07
4.355744797e-07
4.372484972e-07
4.38133612e-07
4.288718743e-07
4.302151152e-07
4.321028148e-07
4.343679355e-07
4.368142954e-07
4.392204294e-07
4.41346471e-07
4.429469804e-07
4.438024001e-07
4.350754159e-07
4.363484095e-07
4.381368726e-07
4.402823519e-07
4.425994375e-07
4.448797795e-07
4.468985858e-07
4.484255814e-07
4.492505467e-07
4.410490751e-07
4.42253041e-07
4.43943983e-07
4.459718578e-07
4.481617819e-07
4.503181951e-07
4.522309998e-07
4.536847715e-07
4.544787307e-07
4.467923201e-07
4.479285912e-07
4.495238934e-07
4.514364117e-07
4.535015359e-07
4.555361591e-07
4.573444817e-07
4.587255862e-07
4.594881763e-07
4.523053406e-07
4.533753518e-07
4.548770444e-07
4.566766434e-07
4.586195507e-07
4.605347671e-07
4.622403812e-07
4.63549613e-07
4.642806425e-07
4.575890223e-07
4.585943002e-07
4.600045459e-07
4.616938296e-07
4.635172975e-07
4.653157049e-07
4.669206069e-07
4.681589719e-07
4.688584036e-07
4.626449158e-07
4.63587067e-07
4.64908144e-07
4.664898617e-07
4.681968366e-07
4.698812182e-07
4.713875988e-07
4.725562886e-07
4.732242239e-07
4.674751974e-07
4.683558979e-07
4.695901841e-07
4.710672094e-07
4.72660781e-07
4.742340784e-07
4.756442946e-07
4.767446625e-07
4.773813259e-07
4.720826272e-07
4.729036113e-07
4.740535679e-07
4.75428878e-07
4.76912256e-07
4.783775426e-07
4.796940919e-07
4.807276304e-07
4.81333355e-07
4.764705021e-07
4.772335519e-07
4.783017082e-07
4.795783644e-07
4.809548549e-07
4.823153116e-07
4.835408076e-07
4.845091269e-07
4.850843413e-07
4.806426073e-07
4.813495424e-07
4.823384807e-07
4.835196093e-07
4.847925937e-07
4.860514857e-07
4.87188635e-07
4.880934437e-07
4.886386592e-07
4.846031661e-07
4.852558337e-07
4.86168175e-07
4.872569498e-07
4.884298643e-07
4.895905191e-07
4.906421004e-07
4.914851871e-07
4.920009862e-07
4.88356789e-07
4.889570548e-07
4.897954456e-07
4.907950712e-07
4.918713874e-07
4.929371751e-07
4.939060195e-07
4.94689236e-07
4.951762613e-07
4.919084243e-07
4.924581634e-07
4.932252627e-07
4.941389585e-07
4.951221662e-07
4.960964809e-07
4.969854543e-07
4.977107001e-07
4.981696446e-07
4.952633081e-07
4.95764397e-07
4.96462865e-07
4.972938512e-07
4.981874419e-07
4.990736846e-07
4.998856708e-07
5.005548795e-07
5.009864775e-07
4.984269173e-07
4.988812263e-07
4.995137133e-07
5.002651974e-07
5.010726499e-07
5.018742134e-07
5.026120998e-07
5.032272258e-07
5.036322445e-07
5.014049242e-07
5.018143103e-07
5.023834472e-07
5.030586122e-07
5.037833788e-07
5.045036338e-07
5.051702979e-07
5.057333054e-07
5.061125376e-07
5.042031533e-07
5.045694543e-07
5.050778435e-07
5.056798369e-07
5.063253319e-07
5.069676145e-07
5.075659122e-07
5.080787648e-07
5.084330219e-07
5.068275417e-07
5.071525702e-07
5.076027776e-07
5.081347023e-07
5.087042908e-07
5.092718918e-07
5.098046469e-07
5.102692986e-07
5.105994045e-07
5.092841012e-07
5.095696399e-07
5.099641882e-07
5.104290933e-07
5.109260825e-07
5.11422238e-07
5.118922326e-07
5.1231062e-07
5.126174058e-07
5.115788843e-07
5.118266814e-07
5.121680438e-07
5.125689179e-07
5.129965488e-07
5.134244313e-07
5.138343987e-07
5.142084335e-07
5.144927328e-07
5.137179528e-07
5.139297187e-07
5.142203136e-07
5.14560078e-07
5.149215186e-07
5.152842307e-07
5.156368477e-07
5.159684113e-07
5.162310555e-07
5.1570735e-07
5.158847533e-07
5.161269402e-07
5.16408444e-07
5.167067831e-07
5.170073511e-07
5.173052329e-07
5.175961707e-07
5.178379858e-07
5.175530746e-07
5.176977404e-07
5.178938155e-07
5.181198311e-07
5.18358074e-07
5.185994431e-07
5.188451384e-07
5.190972557e-07
5.193190586e-07
5.19261059e-07
5.193745659e-07
5.195267599e-07
5.196999792e-07
5.198810437e-07
5.200660743e-07
5.202620611e-07
5.204771194e-07
5.206797156e-07
5.208371491e-07
5.209210281e-07
5.210315034e-07
5.211545352e-07
5.212812487e-07
5.214127129e-07
5.215613959e-07
5.2174111e-07
5.219252907e-07
5.222870876e-07
5.223428205e-07
5.224136694e-07
5.224890375e-07
5.225641346e-07
5.226447146e-07
5.227484224e-07
5.228944581e-07
5.230609986e-07
5.23616499e-07
5.236455175e-07
5.236787612e-07
5.23708903e-07
5.237350243e-07
5.237673103e-07
5.238282942e-07
5.239422661e-07
5.240919239e-07
5.248308774e-07
5.248345626e-07
5.248321505e-07
5.248194159e-07
5.247991071e-07
5.247855966e-07
5.248060294e-07
5.248895e-07
5.250230137e-07
5.259355761e-07
5.259152584e-07
5.258790676e-07
5.258257191e-07
5.257614306e-07
5.257045283e-07
5.256865036e-07
5.257409822e-07
5.2585907e-07
5.269357994e-07
5.268927583e-07
5.268245939e-07
5.267328066e-07
5.266268939e-07
5.265289116e-07
5.264744439e-07
5.265013862e-07
5.266047455e-07
5.278365959e-07
5.277720604e-07
5.276736558e-07
5.27545518e-07
5.274002424e-07
5.272633998e-07
5.271744249e-07
5.271752328e-07
5.272645392e-07
5.286428534e-07
5.285580025e-07
5.284310203e-07
5.282685345e-07
5.280860642e-07
5.279124899e-07
5.277908654e-07
5.277668873e-07
5.278427942e-07
5.293592955e-07
5.292552588e-07
5.291012919e-07
5.289063761e-07
5.286887876e-07
5.284805203e-07
5.28328027e-07
5.282805578e-07
5.283436966e-07
5.299904793e-07
5.298683381e-07
5.296889105e-07
5.294633998e-07
5.292126794e-07
5.2897167e-07
5.287900128e-07
5.287202949e-07
5.287712743e-07
5.305407942e-07
5.304015823e-07
5.301981509e-07
5.299437993e-07
5.296618454e-07
5.293899583e-07
5.29180768e-07
5.29089992e-07
5.291293983e-07
5.310144621e-07
5.308591667e-07
5.306331231e-07
5.30351605e-07
5.300402301e-07
5.297392458e-07
5.295040806e-07
5.293933862e-07
5.294217835e-07
5.314155379e-07
5.312451012e-07
5.309977726e-07
5.306906857e-07
5.303516186e-07
5.300232357e-07
5.297635832e-07
5.296340604e-07
5.296519907e-07
5.317479109e-07
5.315632312e-07
5.312958832e-07
5.3096475e-07
5.305996384e-07
5.30245476e-07
5.299627551e-07
5.298154454e-07
5.298234288e-07
5.320153077e-07
5.318172406e-07
5.315310784e-07
5.31177349e-07
5.307877619e-07
5.304093621e-07
5.30104925e-07
5.299408228e-07
5.299393583e-07
5.322212943e-07
5.320106543e-07
5.317068249e-07
5.313318791e-07
5.309193096e-07
5.3051814e-07
5.301932748e-07
5.300133286e-07
5.300028941e-07
5.323692797e-07
5.321468414e-07
5.318264359e-07
5.314315858e-07
5.309974537e-07
5.305749101e-07
5.302308422e-07
5.300359563e-07
5.300170094e-07
5.324625197e-07
5.322290195e-07
5.318930745e-07
5.314795671e-07
5.310252214e-07
5.305826304e-07
5.302205255e-07
5.300115613e-07
5.299845397e-07
5.325041208e-07
5.32260258e-07
5.319097583e-07
5.314787777e-07
5.310054996e-07
5.305441213e-07
5.301650873e-07
5.29942865e-07
5.299081869e-07
5.324970443e-07
5.32243483e-07
5.318793632e-07
5.314320333e-07
5.30941039e-07
5.304620696e-07
5.30067159e-07
5.298324588e-07
5.297905241e-07
5.324441112e-07
5.321814812e-07
5.318046282e-07
5.313420152e-07
5.308344581e-07
5.303390328e-07
5.299292449e-07
5.296828091e-07
5.296339993e-07
5.323480064e-07
5.320769052e-07
5.316881598e-07
5.312112747e-07
5.306882488e-07
5.301774441e-07
5.297537273e-07
5.294962614e-07
5.294409408e-07
5.322112836e-07
5.319322774e-07
5.315324367e-07
5.310422378e-07
5.305047799e-07
5.299796165e-07
5.295428707e-07
5.292750451e-07
5.292135612e-07
5.320363697e-07
5.317499952e-07
5.313398144e-07
5.308372096e-07
5.302863022e-07
5.297477476e-07
5.292988262e-07
5.290212779e-07
5.28953962e-07
5.318255694e-07
5.31532335e-07
5.311125295e-07
5.305983788e-07
5.300349527e-07
5.294839235e-07
5.29023636e-07
5.2873697e-07
5.286641378e-07
5.315810692e-07
5.312814563e-07
5.308527037e-07
5.303278217e-07
5.297527583e-07
5.291901232e-07
5.287192367e-07
5.284240274e-07
5.283459797e-07
5.313049404e-07
5.30999405e-07
5.305623468e-07
5.300275047e-07
5.294416389e-07
5.288682206e-07
5.283874625e-07
5.280842548e-07
5.28001278e-07
5.30999142e-07
5.306881155e-07
5.30243359e-07
5.29699287e-07
5.291034092e-07
5.285199867e-07
5.28030046e-07
5.277193569e-07
5.276317228e-07
5.306655208e-07
5.303494115e-07
5.298975313e-07
5.293449202e-07
5.287397783e-07
5.28147089e-07
5.276486177e-07
5.273309365e-07
5.272389029e-07
5.303058099e-07
5.299850037e-07
5.295265429e-07
5.289660456e-07
5.283523464e-07
5.277510869e-07
5.272447011e-07
5.269204897e-07
5.268242992e-07
5.299216227e-07
5.295964837e-07
5.291319545e-07
5.285641867e-07
5.279425966e-07
5.273334234e-07
5.268197028e-07
5.264893947e-07
5.263892737e-07
5.295144428e-07
5.291853129e-07
5.287151964e-07
5.281407362e-07
5.275118803e-07
5.268954084e-07
5.263748946e-07
5.260388925e-07
5.259350488e-07
5.290856052e-07
5.287528032e-07
5.282775477e-07
5.276969334e-07
5.270613927e-07
5.264381921e-07
5.259113846e-07
5.255700558e-07
5.254626743e-07
5.286362681e-07
5.283000873e-07
5.278201048e-07
5.272338297e-07
5.265921354e-07
5.259627243e-07
5.254300725e-07
5.250837413e-07
5.249729781e-07
5.281673712e-07
5.27828075e-07
5.273437341e-07
5.267522385e-07
5.261048611e-07
5.254696941e-07
5.249315851e-07
5.245805208e-07
5.244664939e-07
5.276795762e-07
5.273373905e-07
5.268490062e-07
5.262526624e-07
5.255999955e-07
5.249594447e-07
5.244161843e-07
5.240605833e-07
5.2394336e-07
5.271731847e-07
5.26828287e-07
5.263361036e-07
5.257351955e-07
5.250775298e-07
5.244318577e-07
5.238836419e-07
5.235236023e-07
5.234031817e-07
5.266480285e-07
5.263005315e-07
5.258046987e-07
5.2519939e-07
5.245368778e-07
5.238861967e-07
5.233330722e-07
5.229685592e-07
5.228448492e-07
5.261033264e-07
5.257532549e-07
5.252537939e-07
5.246440855e-07
5.23976689e-07
5.233209066e-07
5.227627164e-07
5.223935154e-07
5.222663033e-07
5.255375011e-07
5.251847614e-07
5.246815193e-07
5.2406719e-07
5.233946131e-07
5.227333588e-07
5.221696703e-07
5.217953268e-07
5.21664242e-07
5.24947953e-07
5.245922915e-07
5.240848809e-07
5.234654105e-07
5.227870092e-07
5.221195377e-07
5.215495504e-07
5.211692934e-07
5.210337628e-07
5.24330784e-07
5.23971735e-07
5.234594565e-07
5.228339276e-07
5.221485957e-07
5.214736663e-07
5.208960956e-07
5.205087439e-07
5.203679382e-07
5.236804708e-07
5.233172911e-07
5.227990377e-07
5.221660133e-07
5.214720413e-07
5.207877681e-07
5.202007043e-07
5.198045536e-07
5.196573257e-07
5.229894881e-07
5.226210773e-07
5.220952178e-07
5.214525938e-07
5.207474987e-07
5.200511726e-07
5.194519128e-07
5.19044605e-07
5.188894204e-07
5.222478838e-07
5.218726909e-07
5.213369327e-07
5.206817644e-07
5.199620914e-07
5.192499717e-07
5.186348274e-07
5.182132012e-07
5.180480624e-07
5.21442815e-07
5.21058731e-07
5.205099632e-07
5.198382679e-07
5.190993639e-07
5.183664446e-07
5.177305252e-07
5.172904534e-07
5.171128197e-07
5.205580579e-07
5.201622958e-07
5.195964157e-07
5.189029535e-07
5.181387198e-07
5.173784732e-07
5.167154534e-07
5.162516693e-07
5.160583754e-07
5.195735075e-07
5.191624743e-07
5.185742003e-07
5.178522418e-07
5.170548706e-07
5.162589785e-07
5.155608562e-07
5.150667777e-07
5.148539553e-07
5.184646924e-07
5.18033856e-07
5.174165361e-07
5.16657624e-07
5.158173316e-07
5.149754157e-07
5.142322725e-07
5.136998326e-07
5.134628402e-07
5.172023323e-07
5.167460909e-07
5.160915148e-07
5.152852322e-07
5.143900036e-07
5.134893702e-07
5.126891506e-07
5.12108647e-07
5.118420141e-07
5.157519714e-07
5.152635332e-07
5.145617612e-07
5.136955236e-07
5.127308849e-07
5.117563047e-07
5.108846323e-07
5.102446111e-07
5.099420054e-07
5.14073726e-07
5.135450092e-07
5.127842322e-07
5.118431214e-07
5.107919656e-07
5.097255115e-07
5.087655643e-07
5.080527563e-07
5.077069823e-07
5.121221866e-07
5.115437521e-07
5.107102002e-07
5.096768621e-07
5.085193519e-07
5.07340324e-07
5.062727971e-07
5.054721259e-07
5.050751672e-07
5.09846519e-07
5.092075474e-07
5.082854669e-07
5.071400992e-07
5.058536771e-07
5.045386454e-07
5.033418296e-07
5.024365168e-07
5.019796326e-07
5.071908074e-07
5.064791371e-07
5.054508569e-07
5.041713132e-07
5.027308507e-07
5.012538492e-07
4.999038581e-07
4.988756511e-07
4.983495411e-07
5.040946858e-07
5.032969253e-07
5.021430353e-07
5.007050754e-07
4.990831948e-07
4.97416104e-07
4.958872846e-07
4.94716833e-07
4.94111885e-07
5.004942985e-07
4.995960303e-07
4.982956959e-07