/*--------------------------------*- C++ -*----------------------------------*\
| =========                 |                                                 |
| \\      /  F ield         | OpenFOAM: The Open Source CFD Toolbox           |
|  \\    /   O peration     | Version:  2212                                  |
|   \\  /    A nd           | Website:  www.openfoam.com                      |
|    \\/     M anipulation  |                                                 |
\*---------------------------------------------------------------------------*/
FoamFile
{
    version     2.0;
    format      ascii;
    arch        "LSB;label=32;scalar=64";
    class       volScalarField;
    location    "20.00000000";
    object      I-C4H3_0;
}
// * * * * * * * * * * * * * * * * * * * * * * * * * * * * * * * * * * * * * //

dimensions      [0 0 0 0 0 0 0];

internalField   nonuniform List<scalar> 
3000
(
1.939149579e-24
2.17822698e-24
2.538984366e-24
3.019720538e-24
3.615558483e-24
4.310333025e-24
5.062199978e-24
5.779645634e-24
6.287061554e-24
7.280637008e-24
8.211325138e-24
9.615111115e-24
1.148995778e-23
1.383405595e-23
1.663440676e-23
1.984246437e-23
2.329569599e-23
2.635548552e-23
1.6308847e-23
1.853815015e-23
2.193284763e-23
2.654220766e-23
3.244931634e-23
3.973987678e-23
4.838538142e-23
5.789958035e-23
6.603305832e-23
3.106656899e-23
3.568372191e-23
4.281768349e-23
5.271007358e-23
6.571163644e-23
8.215256946e-23
1.01942616e-22
1.234946868e-22
1.408906422e-22
5.517053189e-23
6.414877691e-23
7.823953137e-23
9.815898421e-23
1.248445425e-22
1.590437335e-22
2.001840673e-22
2.438684039e-22
2.774005454e-22
9.487725536e-23
1.117312694e-22
1.38561712e-22
1.770815591e-22
2.293468374e-22
2.966739305e-22
3.770555134e-22
4.603574756e-22
5.21994894e-22
1.610761737e-22
1.920383748e-22
2.419022845e-22
3.14298453e-22
4.132596669e-22
5.407543829e-22
6.915120221e-22
8.446892308e-22
9.552188457e-22
2.726024543e-22
3.286389045e-22
4.196867766e-22
5.528992755e-22
7.357072531e-22
9.707426731e-22
1.246214229e-21
1.522023857e-21
1.717717166e-21
4.620886544e-22
5.624298639e-22
7.265185486e-22
9.678134773e-22
1.299531316e-21
1.724859271e-21
2.219768712e-21
2.710126899e-21
3.054204468e-21
7.860386736e-22
9.6429695e-22
1.257139551e-21
1.689163255e-21
2.283450103e-21
3.043447106e-21
3.922876144e-21
4.78782861e-21
5.390243246e-21
1.342352844e-21
1.657168158e-21
2.175993985e-21
2.942961672e-21
3.998037269e-21
5.344294931e-21
6.895695227e-21
8.413736965e-21
9.465704188e-21
2.300693691e-21
2.854218632e-21
3.768454194e-21
5.121670028e-21
6.982849803e-21
9.353455624e-21
1.207706788e-20
1.473252643e-20
1.656632976e-20
3.955195921e-21
4.925218619e-21
6.529805789e-21
8.90676611e-21
1.217511091e-20
1.633234699e-20
2.109820757e-20
2.57330122e-20
2.892598802e-20
6.815924557e-21
8.511662944e-21
1.131968383e-20
1.5481511e-20
2.12025995e-20
2.847216736e-20
3.679281969e-20
4.486999638e-20
5.042490792e-20
1.176761953e-20
1.472664039e-20
1.963021647e-20
2.690038877e-20
3.689219076e-20
4.957864703e-20
6.408265348e-20
7.814379649e-20
8.780202774e-20
2.034524314e-20
2.550179326e-20
3.405154945e-20
4.673054481e-20
6.415285926e-20
8.626104054e-20
1.115151029e-19
1.359744117e-19
1.527593483e-19
3.521231275e-20
4.418967427e-20
5.908009641e-20
8.116547476e-20
1.115087177e-19
1.499962438e-19
1.939322791e-19
2.364546598e-19
2.656147117e-19
6.099127822e-20
7.660948285e-20
1.025217658e-19
1.409585094e-19
1.937603795e-19
2.607117593e-19
3.371035374e-19
4.1099593e-19
4.616417029e-19
1.057050079e-19
1.32862477e-19
1.77927964e-19
2.447790781e-19
3.366039943e-19
4.530028864e-19
5.857619023e-19
7.141204237e-19
8.020639903e-19
1.832788867e-19
2.304831612e-19
3.088237883e-19
4.250373808e-19
5.846455168e-19
7.869164242e-19
1.017537617e-18
1.24043035e-18
1.393091729e-18
3.178832181e-19
3.999083033e-19
5.360458524e-19
7.379912109e-19
1.015302839e-18
1.366649066e-18
1.767107104e-18
2.15400498e-18
2.418905339e-18
5.514670346e-19
6.939652395e-19
9.30471372e-19
1.281274223e-18
1.762907664e-18
2.372949563e-18
3.068016546e-18
3.73929084e-18
4.198733163e-18
9.568211747e-19
1.204322051e-18
1.615081245e-18
2.224264483e-18
3.060439518e-18
4.119190224e-18
5.325006279e-18
6.489030228e-18
7.285396365e-18
1.660218458e-18
2.089997106e-18
2.803189566e-18
3.860681508e-18
5.311752047e-18
7.148297045e-18
9.238889308e-18
1.125593e-17
1.263518095e-17
2.880609379e-18
3.626707326e-18
4.864589256e-18
6.69952798e-18
9.216335033e-18
1.239999557e-17
1.602173298e-17
1.951366002e-17
2.189987879e-17
4.997389711e-18
6.292164369e-18
8.439815628e-18
1.162204605e-17
1.598438332e-17
2.149869533e-17
2.776664363e-17
3.380462581e-17
3.79272113e-17
8.667382929e-18
1.091325978e-17
1.463717355e-17
2.015205119e-17
2.770663187e-17
3.724755372e-17
4.808102548e-17
5.850524266e-17
6.561486199e-17
1.502635622e-17
1.891946166e-17
2.537159825e-17
3.492017446e-17
4.798822347e-17
6.447327491e-17
8.316657931e-17
1.011278223e-16
1.133607631e-16
2.603529316e-17
3.27778847e-17
4.394568518e-17
6.045836203e-17
8.303083581e-17
1.114641243e-16
1.436518834e-16
1.745230887e-16
1.95511521e-16
4.507362698e-17
5.673782171e-17
7.604226346e-17
1.045538632e-16
1.434712796e-16
1.924046109e-16
2.476834721e-16
3.005822133e-16
3.364676875e-16
7.795202662e-17
9.809993823e-17
1.31412625e-16
1.805453014e-16
2.474879302e-16
3.314717871e-16
4.261036098e-16
5.164128354e-16
5.775133439e-16
1.346345319e-16
1.693701903e-16
2.267334385e-16
3.111939841e-16
4.260153437e-16
5.696776334e-16
7.31055194e-16
8.845556865e-16
9.880785791e-16
2.321536119e-16
2.918966346e-16
3.904135017e-16
5.351685115e-16
7.314336296e-16
9.762058768e-16
1.250156607e-15
1.509728169e-15
1.684134072e-15
3.995195808e-16
5.019751352e-16
6.706287456e-16
9.178272608e-16
1.251929718e-15
1.667027274e-15
2.129627642e-15
2.565988434e-15
2.857924896e-15
6.859428287e-16
8.61035596e-16
1.148657508e-15
1.56900265e-15
2.135020553e-15
2.835169566e-15
3.611630347e-15
4.340334972e-15
4.825513189e-15
1.174520712e-15
1.472519193e-15
1.96083979e-15
2.672077318e-15
3.625712717e-15
4.79943082e-15
6.093910425e-15
7.301911256e-15
8.101949371e-15
2.004871297e-15
2.509634555e-15
3.334434618e-15
4.531078255e-15
6.127777108e-15
8.081930233e-15
1.022399845e-14
1.2210618e-14
1.351879438e-14
3.410297872e-15
4.260643999e-15
5.645651339e-15
7.64620717e-15
1.03011054e-14
1.353021078e-14
1.704633214e-14
2.028566888e-14
2.240582055e-14
5.778351993e-15
7.202132237e-15
9.512693815e-15
1.283375212e-14
1.721473978e-14
2.250737303e-14
2.822949561e-14
3.346432775e-14
3.686893454e-14
9.748733871e-15
1.211650627e-14
1.594350985e-14
2.141450249e-14
2.858484244e-14
3.718494805e-14
4.641346333e-14
5.479495033e-14
6.021096135e-14
1.637020404e-14
2.02787074e-14
2.656811311e-14
3.550676076e-14
4.714087315e-14
6.098933319e-14
7.573485694e-14
8.902821981e-14
9.756267914e-14
2.734983021e-14
3.375011462e-14
4.4000288e-14
5.847740875e-14
7.718335581e-14
9.927560873e-14
1.226139686e-13
1.434984805e-13
1.568208704e-13
4.54452153e-14
5.583674388e-14
7.239521703e-14
9.562947198e-14
1.254253253e-13
1.603352005e-13
1.969237327e-13
2.294266302e-13
2.500315891e-13
7.507578816e-14
9.17966811e-14
1.183008859e-13
1.552403316e-13
2.022503168e-13
2.56890013e-13
3.137121781e-13
3.638316829e-13
3.954150789e-13
1.232661461e-13
1.499217902e-13
1.919458984e-13
2.501154564e-13
3.235773907e-13
4.082906648e-13
4.957220222e-13
5.723161408e-13
6.203103476e-13
2.0108743e-13
2.431760135e-13
3.091699261e-13
3.998942047e-13
5.136047995e-13
6.437276706e-13
7.770520182e-13
8.930993365e-13
9.654312914e-13
3.258381127e-13
3.916537821e-13
4.942928021e-13
6.344450684e-13
8.088176147e-13
1.006891901e-12
1.208445452e-12
1.382824708e-12
1.490984754e-12
5.243121067e-13
6.262364843e-13
7.843444148e-13
9.988289176e-13
1.263803384e-12
1.562698214e-12
1.864886935e-12
2.124877748e-12
2.285420706e-12
8.376518461e-13
9.939855513e-13
1.235254177e-12
1.560505895e-12
1.959640819e-12
2.406932626e-12
2.85645986e-12
3.241243947e-12
3.477888601e-12
1.328493743e-12
1.566035477e-12
1.930845369e-12
2.419735581e-12
3.015932215e-12
3.68002312e-12
4.343789921e-12
4.909335663e-12
5.25589556e-12
2.091406556e-12
2.449064808e-12
2.995824298e-12
3.724501037e-12
4.607972648e-12
5.586601617e-12
6.559914241e-12
7.385772202e-12
7.890236948e-12
3.268030464e-12
3.801864733e-12
4.614438181e-12
5.691817618e-12
6.991127932e-12
8.423154597e-12
9.841105565e-12
1.103984933e-11
1.177006704e-11
5.068726775e-12
5.858894308e-12
7.056857262e-12
8.637776555e-12
1.053519255e-11
1.261701233e-11
1.467028657e-11
1.640059045e-11
1.745209896e-11
7.803405712e-12
8.963798097e-12
1.071668921e-11
1.302014014e-11
1.577282512e-11
1.878095471e-11
2.173759948e-11
2.422228216e-11
2.572917345e-11
1.192547609e-11
1.361699229e-11
1.616388859e-11
1.949804382e-11
2.346716624e-11
2.778930667e-11
3.20246959e-11
3.557557354e-11
3.772546816e-11
1.809369827e-11
2.054245417e-11
2.421882011e-11
2.90153452e-11
3.470597179e-11
4.088356418e-11
4.692143659e-11
5.19733652e-11
5.502791949e-11
2.725887593e-11
3.078110409e-11
3.605548884e-11
4.291641174e-11
5.103195974e-11
5.981821632e-11
6.838656437e-11
7.554371389e-11
7.986643397e-11
4.078469374e-11
4.582067477e-11
5.334469215e-11
6.310618399e-11
7.462243591e-11
8.706109106e-11
9.916782719e-11
1.092661323e-10
1.153597819e-10
6.061522799e-11
6.777536346e-11
7.845150833e-11
9.227033781e-11
1.085356281e-10
1.260673443e-10
1.431023361e-10
1.57293598e-10
1.658505841e-10
8.950581362e-11
9.963292803e-11
1.147062073e-10
1.341764261e-10
1.57046693e-10
1.816523672e-10
2.055249383e-10
2.25390564e-10
2.373615681e-10
1.313391373e-10
1.455923074e-10
1.667734343e-10
1.940831236e-10
2.261032702e-10
2.6049673e-10
2.938213154e-10
3.215269553e-10
3.382149178e-10
1.915546522e-10
2.115213594e-10
2.411515078e-10
2.792924382e-10
3.23939302e-10
3.71826439e-10
4.181736188e-10
4.566792661e-10
4.798674399e-10
2.77726813e-10
3.055722083e-10
3.468424379e-10
3.998898126e-10
4.618974348e-10
5.283245464e-10
5.925595149e-10
6.45903095e-10
6.780280213e-10
4.003370571e-10
4.390020155e-10
4.962449278e-10
5.697301776e-10
6.55524435e-10
7.473443762e-10
8.360798996e-10
9.097568005e-10
9.541400388e-10
5.737974818e-10
6.272609245e-10
7.063374712e-10
8.07743193e-10
9.260188531e-10
1.052509405e-09
1.174706312e-09
1.276172619e-09
1.337328111e-09
8.178003767e-10
8.914250374e-10
1.000234183e-09
1.139645599e-09
1.30212477e-09
1.475800487e-09
1.643555575e-09
1.78288793e-09
1.866924644e-09
1.159082873e-09
1.260066547e-09
1.409209571e-09
1.600162387e-09
1.822580327e-09
2.060246524e-09
2.289813997e-09
2.480563457e-09
2.595705085e-09
1.633707775e-09
1.771665065e-09
1.97530101e-09
2.235871811e-09
2.539242803e-09
2.863346334e-09
3.176443691e-09
3.436723917e-09
3.593968788e-09
2.28997241e-09
2.47767515e-09
2.754608282e-09
3.108798269e-09
3.521018407e-09
3.961353195e-09
4.386804329e-09
4.740655372e-09
4.954599887e-09
3.19206455e-09
3.446370526e-09
3.821411997e-09
4.300875573e-09
4.858719025e-09
5.454542499e-09
6.030308324e-09
6.509374555e-09
6.799221564e-09
4.424579754e-09
4.767577344e-09
5.273219844e-09
5.919384042e-09
6.670941431e-09
7.473548707e-09
8.24918561e-09
8.894737529e-09
9.285505596e-09
6.097991142e-09
6.558380558e-09
7.236813398e-09
8.103418608e-09
9.11100708e-09
1.018678795e-08
1.122635236e-08
1.209166315e-08
1.261560116e-08
8.355110951e-09
8.969828199e-09
9.875298312e-09
1.103136147e-08
1.237490018e-08
1.3808864e-08
1.519424129e-08
1.634729483e-08
1.704548557e-08
1.137849522e-08
1.219456077e-08
1.339604845e-08
1.492920135e-08
1.670998761e-08
1.860967645e-08
2.044424795e-08
2.197070013e-08
2.28948028e-08
1.539861119e-08
1.647514893e-08
1.805927247e-08
2.007935624e-08
2.242409202e-08
2.49237087e-08
2.733617749e-08
2.934241376e-08
3.055644746e-08
2.070240849e-08
2.211273136e-08
2.418672128e-08
2.682942301e-08
2.98942292e-08
3.315868473e-08
3.630676183e-08
3.892279381e-08
4.050480309e-08
2.764171825e-08
2.947531678e-08
3.2169812e-08
3.560001696e-08
3.957404246e-08
4.380248978e-08
4.787601009e-08
5.125784568e-08
5.330122488e-08
3.664066995e-08
3.900487647e-08
4.247620335e-08
4.689062283e-08
5.199872933e-08
5.742702134e-08
6.264994129e-08
6.698097031e-08
6.959517022e-08
4.820110625e-08
5.122215298e-08
5.565367268e-08
6.128222052e-08
6.778613447e-08
7.468756419e-08
8.131822976e-08
8.68091254e-08
9.011944589e-08
6.290484582e-08
6.672800731e-08
7.233008508e-08
7.943544961e-08
8.763276327e-08
9.631645633e-08
1.046455638e-07
1.11532244e-07
1.15678449e-07
8.141165748e-08
8.620018562e-08
9.320837348e-08
1.020833002e-07
1.123038093e-07
1.231102812e-07
1.334561165e-07
1.419954609e-07
1.471290471e-07
1.04452017e-07
1.103846536e-07
1.190558041e-07
1.300177861e-07
1.426168899e-07
1.559105641e-07
1.686114075e-07
1.790746908e-07
1.853547597e-07
1.328141393e-07
1.400811285e-07
1.506873692e-07
1.640707275e-07
1.794199668e-07
1.955788455e-07
2.10982844e-07
2.236472743e-07
2.312358057e-07
1.673253808e-07
1.761230856e-07
1.889438518e-07
2.050895317e-07
2.23564735e-07
2.429678114e-07
2.614209291e-07
2.765600102e-07
2.856154477e-07
2.088288008e-07
2.193532212e-07
2.346658254e-07
2.539095762e-07
2.758774615e-07
2.988908538e-07
3.207242356e-07
3.385970485e-07
3.492685949e-07
2.581563263e-07
2.705959816e-07
2.88665413e-07
3.113252662e-07
3.371295689e-07
3.640928238e-07
3.896098145e-07
4.104517185e-07
4.228746373e-07
3.161004541e-07
3.306291875e-07
3.516979084e-07
3.780619917e-07
4.080104914e-07
4.392231958e-07
4.686881674e-07
4.92702463e-07
5.069921054e-07
3.833866245e-07
4.001569868e-07
4.244359386e-07
4.547514668e-07
4.891039129e-07
5.248147481e-07
5.584434917e-07
5.857916433e-07
6.020357706e-07
4.606488477e-07
4.797862932e-07
5.07446639e-07
5.419108782e-07
5.808701157e-07
6.2126845e-07
6.592181102e-07
6.900109542e-07
7.082689173e-07
5.484086132e-07
5.700072252e-07
6.011748833e-07
6.399288073e-07
6.83634594e-07
7.288409227e-07
7.712022557e-07
8.054996833e-07
8.258009607e-07
6.470605603e-07
6.711803369e-07
7.059327079e-07
7.49056986e-07
7.975765289e-07
8.476377823e-07
8.944365572e-07
9.322469296e-07
9.545910281e-07
7.568641949e-07
7.83529355e-07
8.218900741e-07
8.693968856e-07
9.227258026e-07
9.776187461e-07
1.028817024e-06
1.070098631e-06
1.09445614e-06
8.779315449e-07
9.071263702e-07
9.490648441e-07
1.000903941e-06
1.058970201e-06
1.11860447e-06
1.174103968e-06
1.218768089e-06
1.24508262e-06
1.010222266e-06
1.041896096e-06
1.087332747e-06
1.143395154e-06
1.206063497e-06
1.270286549e-06
1.329933615e-06
1.377848745e-06
1.40603952e-06
1.153555437e-06
1.187625234e-06
1.236435322e-06
1.296558393e-06
1.363636238e-06
1.432239678e-06
1.495831373e-06
1.546828239e-06
1.576793066e-06
1.307618469e-06
1.343972094e-06
1.395990516e-06
1.459964e-06
1.531208362e-06
1.603935134e-06
1.671225977e-06
1.72510297e-06
1.756721448e-06
1.471978531e-06
1.510478503e-06
1.565505199e-06
1.633077933e-06
1.708202899e-06
1.784754911e-06
1.855463903e-06
1.911992669e-06
1.945129432e-06
1.646095751e-06
1.686583257e-06
1.744388918e-06
1.815275788e-06
1.893960182e-06
1.974006012e-06
2.047823648e-06
2.106754601e-06
2.141262506e-06
1.829337516e-06
1.871636475e-06
1.931968292e-06
2.005857179e-06
2.087752115e-06
2.17093453e-06
2.247529568e-06
2.308597172e-06
2.34432033e-06
2.020993286e-06
2.064914331e-06
2.127501578e-06
2.204060048e-06
2.288796166e-06
2.374739255e-06
2.453765086e-06
2.516692795e-06
2.553469395e-06
2.220289438e-06
2.265633695e-06
2.330193011e-06
2.409074614e-06
2.49626882e-06
2.584584599e-06
2.665685116e-06
2.730189897e-06
2.767854787e-06
2.426403788e-06
2.472966373e-06
2.539206637e-06
2.620056677e-06
2.709318307e-06
2.799612721e-06
2.882427614e-06
2.948224017e-06
2.986611016e-06
2.638479454e-06
2.686052651e-06
2.753679386e-06
2.836140126e-06
2.927076465e-06
3.018954738e-06
3.103124201e-06
3.169927956e-06
3.208871895e-06
2.85563788e-06
2.904013964e-06
2.972733241e-06
3.056448497e-06
3.148669638e-06
3.24174096e-06
3.326909793e-06
3.394440939e-06
3.433779436e-06
3.07699084e-06
3.125964538e-06
3.195486382e-06
3.280105514e-06
3.373228556e-06
3.467110121e-06
3.552931249e-06
3.620916813e-06
3.660491781e-06
3.301651327e-06
3.351021934e-06
3.42106323e-06
3.506244539e-06
3.599897157e-06
3.694217575e-06
3.780355019e-06
3.848531261e-06
3.888190183e-06
3.528743282e-06
3.578316433e-06
3.648603369e-06
3.734016941e-06
3.827840352e-06
3.922242487e-06
4.008373812e-06
4.076488078e-06
4.116085045e-06
3.757410132e-06
3.806999269e-06
3.877269334e-06
3.962599369e-06
4.056250756e-06
4.15039402e-06
4.236212311e-06
4.304024521e-06
4.343421068e-06
3.986822168e-06
4.036249708e-06
4.106253303e-06
4.191199964e-06
4.284354398e-06
4.377916561e-06
4.463131981e-06
4.530415785e-06
4.569481538e-06
4.216182783e-06
4.265281038e-06
4.334782716e-06
4.419063566e-06
4.511415475e-06
4.604094046e-06
4.688434995e-06
4.754978641e-06
4.793591801e-06
4.444733642e-06
4.493345501e-06
4.562124896e-06
4.645475951e-06
4.736740193e-06
4.828253409e-06
4.911467359e-06
4.977074298e-06
5.015121969e-06
4.671758844e-06
4.719738254e-06
4.78759072e-06
4.869767173e-06
4.959679759e-06
5.049767237e-06
5.13162126e-06
5.19611052e-06
5.233488914e-06
4.896588147e-06
4.943800412e-06
5.010537424e-06
5.091314076e-06
5.179632587e-06
5.268055679e-06
5.348336718e-06
5.411543085e-06
5.448157608e-06
5.118599338e-06
5.164921272e-06
5.230370606e-06
5.30954205e-06
5.396045785e-06
5.482587677e-06
5.561102588e-06
5.622876608e-06
5.658641849e-06
5.337219833e-06
5.382539766e-06
5.4465455e-06
5.523926088e-06
5.608415985e-06
5.692881573e-06
5.769456978e-06
5.829664812e-06
5.864504443e-06
5.551927566e-06
5.596145253e-06
5.658567608e-06
5.733991229e-06
5.81628959e-06
5.898505171e-06
5.972987137e-06
6.031510282e-06
6.065356893e-06
5.762251272e-06
5.805277691e-06
5.86599274e-06
5.939312445e-06
6.019262496e-06
6.099075289e-06
6.171328869e-06
6.228063778e-06
6.260858639e-06
5.967770207e-06
6.009527284e-06
6.068426547e-06
6.139514041e-06
6.216979348e-06
6.294256886e-06
6.364165541e-06
6.419023145e-06
6.45071592e-06
6.168113395e-06
6.208533662e-06
6.265523608e-06
6.334268629e-06
6.4091324e-06
6.483761804e-06
6.551226721e-06
6.604131879e-06
6.6346803e-06
6.362958465e-06
6.401984655e-06
6.456986127e-06
6.523295735e-06
6.595460025e-06
6.667347191e-06
6.732286522e-06
6.783177404e-06
6.812546903e-06
6.552030129e-06
6.589614731e-06
6.642562309e-06
6.706360102e-06
6.775744939e-06
6.844813645e-06
6.907161681e-06
6.955989105e-06
6.98415242e-06
6.735098368e-06
6.771203145e-06
6.822044458e-06
6.883269732e-06
6.949812183e-06
7.016003137e-06
7.075709433e-06
7.122436158e-06
7.149372922e-06
6.911976376e-06
6.94657186e-06
6.99526686e-06
7.053873722e-06
7.117526916e-06
7.180796763e-06
7.237825221e-06
7.28242522e-06
7.308121527e-06
7.082518321e-06
7.115583277e-06
7.16210349e-06
7.218059941e-06
7.278792055e-06
7.339112358e-06
7.393440285e-06
7.435897996e-06
7.460345963e-06
7.246616947e-06
7.278137836e-06
7.322465591e-06
7.375752591e-06
7.43354582e-06
7.490902015e-06
7.542519173e-06
7.582828736e-06
7.606026056e-06
7.404201079e-06
7.434171512e-06
7.476299163e-06
7.526909683e-06
7.5817592e-06
7.636149548e-06
7.685057193e-06
7.723221691e-06
7.745171191e-06
7.555233068e-06
7.583653248e-06
7.623582396e-06
7.671520476e-06
7.723433393e-06
7.774867936e-06
7.821077864e-06
7.857108567e-06
7.877817762e-06
7.699706188e-06
7.726582371e-06
7.76432309e-06
7.809602895e-06
7.858597234e-06
7.907096763e-06
7.950630367e-06
7.984545986e-06
8.004026647e-06
7.837642045e-06
7.862985997e-06
7.898556071e-06
7.941200973e-06
7.987304657e-06
8.032899694e-06
8.073787044e-06
8.105612998e-06
8.123880725e-06
7.969088003e-06
7.992916474e-06
8.026340654e-06
8.066382326e-06
8.10963219e-06
8.152362005e-06
8.190640945e-06
8.220408659e-06
8.237482471e-06
8.094114658e-06
8.116448871e-06
8.147758148e-06
8.185235692e-06
8.22567653e-06
8.26558818e-06
8.301303468e-06
8.329049684e-06
8.344951621e-06
8.212813383e-06
8.233678537e-06
8.262909446e-06
8.297868547e-06
8.335552191e-06
8.372699606e-06
8.405902072e-06
8.431668198e-06
8.446422943e-06
8.325293954e-06
8.34471875e-06
8.371912699e-06
8.404404819e-06
8.439389255e-06
8.473832357e-06
8.504578116e-06
8.5284096e-06
8.542044115e-06
8.431682271e-06
8.449698458e-06
8.474901091e-06
8.504982698e-06
8.537331233e-06
8.569135101e-06
8.597484795e-06
8.619430533e-06
8.631973721e-06
8.532118193e-06
8.54876014e-06
8.572020729e-06
8.599752567e-06
8.629533037e-06
8.65876712e-06
8.684785209e-06
8.704896991e-06
8.716379372e-06
8.626753488e-06
8.642057776e-06
8.663428652e-06
8.688875057e-06
8.716159079e-06
8.742896457e-06
8.766650552e-06
8.78498254e-06
8.795435952e-06
8.715749904e-06
8.729754947e-06
8.749290966e-06
8.772519221e-06
8.797381497e-06
8.821698191e-06
8.843258432e-06
8.859866675e-06
8.869323997e-06
8.799277367e-06
8.812023056e-06
8.8297811e-06
8.85086084e-06
8.873378512e-06
8.895352839e-06
8.914791323e-06
8.929733309e-06
8.9382282e-06
8.87751231e-06
8.889039687e-06
8.905078202e-06
8.924080857e-06
8.944332907e-06
8.964044892e-06
8.981435139e-06
8.994769384e-06
9.002336052e-06
8.950636131e-06
8.960987083e-06
8.975365653e-06
8.992363943e-06
9.010430642e-06
9.027961476e-06
9.043377946e-06
9.055163616e-06
9.061836595e-06
9.018833776e-06
9.028050758e-06
9.040829718e-06
9.055897181e-06
9.071859592e-06
9.087291134e-06
9.100808784e-06
9.111105352e-06
9.116919315e-06
9.082292453e-06
9.090418234e-06
9.101658312e-06
9.114868888e-06
9.128808404e-06
9.142222736e-06
9.153916622e-06
9.162783561e-06
9.167773138e-06
9.141200461e-06
9.148277895e-06
9.158039895e-06
9.169467538e-06
9.181465476e-06
9.1929445e-06
9.202889416e-06
9.210385923e-06
9.214585547e-06
9.195746143e-06
9.201817963e-06
9.210162475e-06
9.219880813e-06
9.230018046e-06
9.239643121e-06
9.247913285e-06
9.254098034e-06
9.257541798e-06
9.24611695e-06
9.251225587e-06
9.258212731e-06
9.26629476e-06
9.274651389e-06
9.282503016e-06
9.289171781e-06
9.294102706e-06
9.296824247e-06
9.292498616e-06
9.296686029e-06
9.302375228e-06
9.308893045e-06
9.315548111e-06
9.321705652e-06
9.326845266e-06
9.330579372e-06
9.332611757e-06
9.335074422e-06
9.338381963e-06
9.342831744e-06
9.347856309e-06
9.352887548e-06
9.35742898e-06
9.361110368e-06
9.363703569e-06
9.365079208e-06
9.374024575e-06
9.37649286e-06
9.379760684e-06
9.383361617e-06
9.386845236e-06
9.389846947e-06
9.392139526e-06
9.393646506e-06
9.394397071e-06
9.409525659e-06
9.411194463e-06
9.413336573e-06
9.415581981e-06
9.417592482e-06
9.419129087e-06
9.420100615e-06
9.42057471e-06
9.420731071e-06
9.441750176e-06
9.442658342e-06
9.443729643e-06
9.444685972e-06
9.445295992e-06
9.445440191e-06
9.445156637e-06
9.444649736e-06
9.44424191e-06
9.470866164e-06
9.471051528e-06
9.47110548e-06
9.470837397e-06
9.470117581e-06
9.468940035e-06
9.467465474e-06
9.466027947e-06
9.46508505e-06
9.497036882e-06
9.496536213e-06
9.495624747e-06
9.494195037e-06
9.492213941e-06
9.489783175e-06
9.487179707e-06
9.484860338e-06
9.483410557e-06
9.520420563e-06
9.519269511e-06
9.517442963e-06
9.514912457e-06
9.511736463e-06
9.508118794e-06
9.50444648e-06
9.501292426e-06
9.49936299e-06
9.541170216e-06
9.539403278e-06
9.536710339e-06
9.533137853e-06
9.528831114e-06
9.524090593e-06
9.519407414e-06
9.515464174e-06
9.513081341e-06
9.559433491e-06
9.557083983e-06
9.55357166e-06
9.549013956e-06
9.543638355e-06
9.53783674e-06
9.532198565e-06
9.527509957e-06
9.524699006e-06
9.575352583e-06
9.572452621e-06
9.56816622e-06
9.56267798e-06
9.556293109e-06
9.549489836e-06
9.542950414e-06
9.537558571e-06
9.534343796e-06
9.589064183e-06
9.585644675e-06
9.580627784e-06
9.574261603e-06
9.56692475e-06
9.559176937e-06
9.55178789e-06
9.545733263e-06
9.542137976e-06
9.600699459e-06
9.596790105e-06
9.591084596e-06
9.58389098e-06
9.575657137e-06
9.567019588e-06
9.558830427e-06
9.552151793e-06
9.548198334e-06
9.610384081e-06
9.606013374e-06
9.599659412e-06
9.591686789e-06
9.58260867e-06
9.573133894e-06
9.564192036e-06
9.556926517e-06
9.552636265e-06
9.61823826e-06
9.6134335e-06
9.606469556e-06
9.597764302e-06
9.587892364e-06
9.577630605e-06
9.567981406e-06
9.560164495e-06
9.555557881e-06
9.624376821e-06
9.61916413e-06
9.611627006e-06
9.602233471e-06
9.591615953e-06
9.580615228e-06
9.570302014e-06
9.561967606e-06
9.557064134e-06
9.628909297e-06
9.623313635e-06
9.615238493e-06
9.605199039e-06
9.593882004e-06
9.582188146e-06
9.571252259e-06
9.562432683e-06
9.55725095e-06
9.631940031e-06
9.625985225e-06
9.617405622e-06
9.606760664e-06
9.594788044e-06
9.582444754e-06
9.570925598e-06
9.561651657e-06
9.556209379e-06
9.633568306e-06
9.627277073e-06
9.618224994e-06
9.607013051e-06
9.594426702e-06
9.581475603e-06
9.569410698e-06
9.559711713e-06
9.554025744e-06
9.633888476e-06
9.627282451e-06
9.617788358e-06
9.6060461e-06
9.592885861e-06
9.579366556e-06
9.566791589e-06
9.556695441e-06
9.550781805e-06
9.632990112e-06
9.626089881e-06
9.61618275e-06
9.603945054e-06
9.590248807e-06
9.576198944e-06
9.56314783e-06
9.552681006e-06
9.546554922e-06
9.630958148e-06
9.62378328e-06
9.613490653e-06
9.600790661e-06
9.586594391e-06
9.572049724e-06
9.558554665e-06
9.547742308e-06
9.541418216e-06
9.627873042e-06
9.620442121e-06
9.609790149e-06
9.596659324e-06
9.581997189e-06
9.566991647e-06
9.553083189e-06
9.541949144e-06
9.535440736e-06
9.623810924e-06
9.616141585e-06
9.605155079e-06
9.591623267e-06
9.57652766e-06
9.56109341e-06
9.546800508e-06
9.53536737e-06
9.528687619e-06
9.618843753e-06
9.610952715e-06
9.599655194e-06
9.585750682e-06
9.570252294e-06
9.554419809e-06
9.539769887e-06
9.52805905e-06
9.521220233e-06
9.613039459e-06
9.604942557e-06
9.593356298e-06
9.57910587e-06
9.563233762e-06
9.547031884e-06
9.532050889e-06
9.520082592e-06
9.513096322e-06
9.606462074e-06
9.598174296e-06
9.586320376e-06
9.571749372e-06
9.555531028e-06
9.538987031e-06
9.523699493e-06
9.511492864e-06
9.504370112e-06
9.599171842e-06
9.590707355e-06
9.578605698e-06
9.563738065e-06
9.547199453e-06
9.530339097e-06
9.514768181e-06
9.502341273e-06
9.495092392e-06
9.591225289e-06
9.582597471e-06
9.570266883e-06
9.555125222e-06
9.53829084e-06
9.521138422e-06
9.505305963e-06
9.492675793e-06
9.485310534e-06
9.58267525e-06
9.573896706e-06
9.561354906e-06
9.545960503e-06
9.528853418e-06
9.511431804e-06
9.495358345e-06
9.482540909e-06
9.475068436e-06
9.573570805e-06
9.564653382e-06
9.551917018e-06
9.536289864e-06
9.518931729e-06
9.501262368e-06
9.484967165e-06
9.471977448e-06
9.464406336e-06
9.563957108e-06
9.554911894e-06
9.541996538e-06
9.526155322e-06
9.50856636e-06
9.49066927e-06
9.474170275e-06
9.461022229e-06
9.453360454e-06
9.553875057e-06
9.544712357e-06
9.531632472e-06
9.515594531e-06
9.497793483e-06
9.479687183e-06
9.463000977e-06
9.449707467e-06
9.441962369e-06
9.543360726e-06
9.534090007e-06
9.520858867e-06
9.504640088e-06
9.486644088e-06
9.468345468e-06
9.45148713e-06
9.438059817e-06
9.430238028e-06
9.532444489e-06
9.523074288e-06
9.509703832e-06
9.493318463e-06
9.475142819e-06
9.456666905e-06
9.439649781e-06
9.426098935e-06
9.418206263e-06
9.521149723e-06
9.51168748e-06
9.498188078e-06
9.481648425e-06
9.46330627e-06
9.444665843e-06
9.42750118e-06
9.413835367e-06
9.405876606e-06
9.509490948e-06
9.499942763e-06
9.486322848e-06
9.469638809e-06
9.451140556e-06
9.432345575e-06
9.415041961e-06
9.401267575e-06
9.39324622e-06
9.497471251e-06
9.487841512e-06
9.474107041e-06
9.457285422e-06
9.438637966e-06
9.419694718e-06
9.40225726e-06
9.388377838e-06
9.380295667e-06
9.485078794e-06
9.475369657e-06
9.461523343e-06
9.444566871e-06
9.425772459e-06
9.40668235e-06
9.389111506e-06
9.375126753e-06
9.366983236e-06
9.472282216e-06
9.462492874e-06
9.448533114e-06
9.43143909e-06
9.412493748e-06
9.393251634e-06
9.375541599e-06
9.361446048e-06
9.353237525e-06
9.459024684e-06
9.449150386e-06
9.435069828e-06
9.417828293e-06
9.398719713e-06
9.379311653e-06
9.361448195e-06
9.347229396e-06
9.338947985e-06
9.445216403e-06
9.435247161e-06
9.421030804e-06
9.403622141e-06
9.38432691e-06
9.364727221e-06
9.346684841e-06
9.332320997e-06
9.323953152e-06
9.430725364e-06
9.420644294e-06
9.406267065e-06
9.388658922e-06
9.369138974e-06
9.349306464e-06
9.331044771e-06
9.316501727e-06
9.308026406e-06
9.41536621e-06
9.405147454e-06
9.390571168e-06
9.372714617e-06
9.352912809e-06
9.332786098e-06
9.314245309e-06
9.299472803e-06
9.290859195e-06
9.398887144e-06
9.388493333e-06
9.373662996e-06
9.355487861e-06
9.335322606e-06
9.314814448e-06
9.295909938e-06
9.280837085e-06
9.272041869e-06
9.380954954e-06
9.370334198e-06
9.355173614e-06
9.336582944e-06
9.315941875e-06
9.294932481e-06
9.275548395e-06
9.260078394e-06
9.251042528e-06
9.361138369e-06
9.35022078e-06
9.334627507e-06
9.315491232e-06
9.294223954e-06
9.272553376e-06
9.252535366e-06
9.236539494e-06
9.22718459e-06
9.338890203e-06
9.327584018e-06
9.311423739e-06
9.291571633e-06
9.269481713e-06
9.246941472e-06
9.226088737e-06
9.209399811e-06
9.199624188e-06
9.313528969e-06
9.30171638e-06
9.284816883e-06
9.264031058e-06
9.240867543e-06
9.217191804e-06
9.195248764e-06
9.177654323e-06
9.167328915e-06
9.284220955e-06
9.271753832e-06
9.253898866e-06
9.231906171e-06
9.207355053e-06
9.182211837e-06
9.158859907e-06
9.140095537e-06
9.129059917e-06
9.249964078e-06
9.23665985e-06
9.217583252e-06
9.194048088e-06
9.167724334e-06
9.140707415e-06
9.115557537e-06
9.095300899e-06
9.083359756e-06
9.209575171e-06
9.195213215e-06
9.174593819e-06
9.149112018e-06
9.120552964e-06
9.09117534e-06
9.063762123e-06
9.041628395e-06
9.02854892e-06
9.161682634e-06
9.146001622e-06
9.123459637e-06
9.095554278e-06
9.064215324e-06
9.031905262e-06
9.001683773e-06
8.977223389e-06
8.962734101e-06
9.10472669e-06
9.087423416e-06
9.06251901e-06
9.031639138e-06
8.996892947e-06
8.960993871e-06
8.927340198e-06
8.900039871e-06
8.883831492e-06
9.036969637e-06
9.017699908e-06
8.989934886e-06
8.955458225e-06
8.916598643e-06
8.876374165e-06
8.838591105e-06
8.807879171e-06
8.789608202e-06
8.956518503e-06
8.934900732e-06
8.90372419e-06
8.864964989e-06
8.821216969e-06
8.775862423e-06
8.733191518e-06
8.698448677e-06
8.677744288e-06
8.86136232e-06
8.836984417e-06
8.801803264e-06
8.758026328e-06
8.708563068e-06
8.657224739e-06
8.608865806e-06
8.569442151e-06
8.545916938e-06
8.749425771e-06
8.721855853e-06
8.682050917e-06
8.632492718e-06
8.576460932e-06
8.518263912e-06
8.463402855e-06
8.418641797e-06
8.391906727e-06
8.618640162e-06
8.587441437e-06
8.542389619e-06
8.48628698e-06