/*--------------------------------*- C++ -*----------------------------------*\
| =========                 |                                                 |
| \\      /  F ield         | OpenFOAM: The Open Source CFD Toolbox           |
|  \\    /   O peration     | Version:  2212                                  |
|   \\  /    A nd           | Website:  www.openfoam.com                      |
|    \\/     M anipulation  |                                                 |
\*---------------------------------------------------------------------------*/
FoamFile
{
    version     2.0;
    format      ascii;
    arch        "LSB;label=32;scalar=64";
    class       volScalarField;
    location    "20.00000000";
    object      p;
}
// * * * * * * * * * * * * * * * * * * * * * * * * * * * * * * * * * * * * * //

dimensions      [1 -1 -2 0 0 0 0];

internalField   nonuniform List<scalar> 
3000
(
5000.296082
5000.29612
5000.296207
5000.296332
5000.296533
5000.296808
5000.297312
5000.297865
5000.299678
5000.296052
5000.296064
5000.296113
5000.296171
5000.296255
5000.296335
5000.296493
5000.296526
5000.296716
5000.295989
5000.295994
5000.296035
5000.296079
5000.296139
5000.296205
5000.296288
5000.296293
5000.296359
5000.295802
5000.295787
5000.2958
5000.295803
5000.295815
5000.295813
5000.295819
5000.295792
5000.295756
5000.295626
5000.295607
5000.295612
5000.295607
5000.295606
5000.295599
5000.295595
5000.295574
5000.295543
5000.295402
5000.29538
5000.295377
5000.295364
5000.295353
5000.29534
5000.295328
5000.295311
5000.295285
5000.295201
5000.295182
5000.295178
5000.295165
5000.295156
5000.295145
5000.295136
5000.295124
5000.295106
5000.294994
5000.294978
5000.294973
5000.294962
5000.294953
5000.294945
5000.294937
5000.294929
5000.294917
5000.294803
5000.294791
5000.294787
5000.294779
5000.294773
5000.294767
5000.294761
5000.294756
5000.294748
5000.294617
5000.294608
5000.294605
5000.294599
5000.294594
5000.29459
5000.294586
5000.294582
5000.294577
5000.29444
5000.294434
5000.294432
5000.294427
5000.294424
5000.294421
5000.294419
5000.294416
5000.294412
5000.294268
5000.294263
5000.294261
5000.294258
5000.294256
5000.294254
5000.294253
5000.294251
5000.294248
5000.2941
5000.294096
5000.294095
5000.294093
5000.294092
5000.294091
5000.294089
5000.294088
5000.294086
5000.293934
5000.293932
5000.293931
5000.29393
5000.293929
5000.293928
5000.293927
5000.293927
5000.293925
5000.293771
5000.29377
5000.293769
5000.293768
5000.293768
5000.293767
5000.293767
5000.293766
5000.293765
5000.29361
5000.293608
5000.293608
5000.293608
5000.293607
5000.293607
5000.293606
5000.293606
5000.293605
5000.293449
5000.293448
5000.293448
5000.293448
5000.293448
5000.293447
5000.293447
5000.293447
5000.293446
5000.293289
5000.293289
5000.293289
5000.293288
5000.293288
5000.293288
5000.293288
5000.293288
5000.293287
5000.29313
5000.293129
5000.293129
5000.293129
5000.293129
5000.293129
5000.293129
5000.293129
5000.293128
5000.292971
5000.29297
5000.292971
5000.29297
5000.29297
5000.29297
5000.29297
5000.29297
5000.29297
5000.292812
5000.292811
5000.292812
5000.292812
5000.292812
5000.292812
5000.292812
5000.292811
5000.292811
5000.292653
5000.292652
5000.292653
5000.292653
5000.292653
5000.292653
5000.292653
5000.292653
5000.292652
5000.292493
5000.292493
5000.292493
5000.292494
5000.292494
5000.292494
5000.292494
5000.292493
5000.292492
5000.292333
5000.292333
5000.292334
5000.292334
5000.292334
5000.292334
5000.292334
5000.292334
5000.292332
5000.292173
5000.292173
5000.292173
5000.292174
5000.292174
5000.292174
5000.292174
5000.292174
5000.292172
5000.292011
5000.292012
5000.292012
5000.292013
5000.292013
5000.292013
5000.292013
5000.292012
5000.29201
5000.291849
5000.291849
5000.29185
5000.29185
5000.291851
5000.291851
5000.29185
5000.29185
5000.291847
5000.291684
5000.291684
5000.291685
5000.291686
5000.291687
5000.291687
5000.291686
5000.291686
5000.291681
5000.291517
5000.291518
5000.291519
5000.29152
5000.291521
5000.291521
5000.29152
5000.291519
5000.291513
5000.291348
5000.291348
5000.29135
5000.291351
5000.291352
5000.291352
5000.291351
5000.29135
5000.291343
5000.291175
5000.291176
5000.291177
5000.291179
5000.291179
5000.29118
5000.291178
5000.291177
5000.291168
5000.290998
5000.290999
5000.291
5000.291002
5000.291003
5000.291003
5000.291001
5000.290999
5000.290988
5000.290816
5000.290817
5000.290819
5000.29082
5000.290821
5000.290821
5000.290818
5000.290816
5000.290803
5000.290628
5000.290629
5000.290631
5000.290632
5000.290633
5000.290633
5000.290629
5000.290627
5000.290612
5000.290433
5000.290433
5000.290436
5000.290437
5000.290438
5000.290437
5000.290433
5000.29043
5000.290412
5000.290229
5000.29023
5000.290232
5000.290234
5000.290234
5000.290233
5000.290228
5000.290224
5000.290204
5000.290017
5000.290017
5000.29002
5000.290021
5000.290021
5000.290019
5000.290013
5000.290008
5000.289985
5000.289793
5000.289794
5000.289796
5000.289797
5000.289796
5000.289794
5000.289786
5000.28978
5000.289754
5000.289558
5000.289558
5000.28956
5000.289561
5000.289559
5000.289556
5000.289547
5000.28954
5000.28951
5000.289309
5000.289309
5000.28931
5000.28931
5000.289308
5000.289303
5000.289293
5000.289285
5000.289252
5000.289045
5000.289044
5000.289045
5000.289044
5000.289041
5000.289035
5000.289023
5000.289013
5000.288978
5000.288764
5000.288763
5000.288763
5000.288761
5000.288757
5000.288749
5000.288735
5000.288724
5000.288685
5000.288465
5000.288463
5000.288463
5000.288459
5000.288453
5000.288445
5000.288429
5000.288416
5000.288374
5000.288146
5000.288144
5000.288142
5000.288137
5000.28813
5000.288119
5000.288101
5000.288087
5000.288042
5000.287805
5000.287802
5000.287799
5000.287793
5000.287784
5000.287771
5000.287752
5000.287736
5000.287688
5000.287442
5000.287438
5000.287433
5000.287426
5000.287414
5000.2874
5000.287378
5000.287361
5000.28731
5000.287054
5000.287049
5000.287043
5000.287033
5000.28702
5000.287003
5000.28698
5000.286961
5000.286908
5000.286639
5000.286633
5000.286626
5000.286614
5000.286599
5000.28658
5000.286555
5000.286535
5000.286479
5000.286197
5000.286191
5000.286181
5000.286168
5000.286151
5000.28613
5000.286103
5000.286081
5000.286023
5000.285727
5000.285719
5000.285708
5000.285693
5000.285673
5000.28565
5000.285621
5000.285598
5000.285538
5000.285226
5000.285217
5000.285204
5000.285187
5000.285166
5000.285141
5000.28511
5000.285086
5000.285024
5000.284695
5000.284685
5000.28467
5000.284651
5000.284628
5000.284601
5000.284569
5000.284543
5000.284481
5000.284132
5000.284121
5000.284104
5000.284084
5000.284058
5000.28403
5000.283997
5000.283969
5000.283906
5000.283536
5000.283524
5000.283506
5000.283484
5000.283457
5000.283427
5000.283392
5000.283364
5000.2833
5000.282907
5000.282895
5000.282875
5000.282851
5000.282823
5000.282792
5000.282756
5000.282727
5000.282662
5000.282245
5000.282232
5000.282211
5000.282186
5000.282156
5000.282123
5000.282087
5000.282057
5000.281992
5000.28155
5000.281536
5000.281514
5000.281487
5000.281456
5000.281423
5000.281386
5000.281355
5000.28129
5000.280821
5000.280806
5000.280784
5000.280756
5000.280724
5000.280689
5000.280652
5000.28062
5000.280556
5000.280058
5000.280043
5000.28002
5000.279991
5000.279958
5000.279923
5000.279885
5000.279853
5000.27979
5000.279263
5000.279247
5000.279223
5000.279194
5000.27916
5000.279124
5000.279086
5000.279054
5000.278991
5000.278434
5000.278418
5000.278394
5000.278364
5000.27833
5000.278294
5000.278256
5000.278224
5000.278162
5000.277573
5000.277557
5000.277532
5000.277502
5000.277468
5000.277432
5000.277394
5000.277362
5000.277301
5000.27668
5000.276664
5000.276639
5000.276609
5000.276575
5000.276538
5000.276501
5000.276469
5000.276409
5000.275756
5000.27574
5000.275715
5000.275685
5000.275651
5000.275615
5000.275577
5000.275546
5000.275488
5000.274802
5000.274786
5000.274761
5000.274731
5000.274697
5000.274661
5000.274625
5000.274594
5000.274537
5000.273818
5000.273803
5000.273778
5000.273748
5000.273714
5000.273679
5000.273643
5000.273612
5000.273557
5000.272806
5000.27279
5000.272766
5000.272736
5000.272703
5000.272668
5000.272633
5000.272603
5000.27255
5000.271765
5000.27175
5000.271726
5000.271697
5000.271665
5000.271631
5000.271596
5000.271567
5000.271515
5000.270698
5000.270683
5000.27066
5000.270631
5000.2706
5000.270566
5000.270533
5000.270504
5000.270454
5000.269605
5000.269591
5000.269568
5000.26954
5000.269509
5000.269476
5000.269444
5000.269416
5000.269368
5000.268487
5000.268473
5000.268451
5000.268424
5000.268394
5000.268362
5000.26833
5000.268303
5000.268257
5000.267345
5000.267332
5000.26731
5000.267284
5000.267254
5000.267224
5000.267193
5000.267167
5000.267123
5000.266181
5000.266167
5000.266146
5000.266121
5000.266093
5000.266063
5000.266033
5000.266008
5000.265966
5000.264994
5000.264981
5000.264961
5000.264936
5000.264909
5000.26488
5000.264852
5000.264828
5000.264787
5000.263786
5000.263774
5000.263754
5000.263731
5000.263704
5000.263677
5000.263649
5000.263626
5000.263587
5000.262559
5000.262547
5000.262528
5000.262505
5000.26248
5000.262453
5000.262427
5000.262405
5000.262367
5000.261312
5000.261301
5000.261282
5000.26126
5000.261236
5000.261211
5000.261185
5000.261164
5000.261129
5000.260047
5000.260036
5000.260019
5000.259998
5000.259974
5000.25995
5000.259926
5000.259906
5000.259872
5000.258765
5000.258755
5000.258738
5000.258718
5000.258695
5000.258672
5000.258649
5000.25863
5000.258597
5000.257467
5000.257457
5000.257441
5000.257422
5000.2574
5000.257378
5000.257356
5000.257337
5000.257307
5000.256153
5000.256143
5000.256128
5000.25611
5000.256089
5000.256068
5000.256047
5000.256029
5000.256
5000.254824
5000.254815
5000.2548
5000.254783
5000.254764
5000.254743
5000.254723
5000.254707
5000.254679
5000.253481
5000.253473
5000.253459
5000.253442
5000.253424
5000.253405
5000.253386
5000.25337
5000.253344
5000.252126
5000.252118
5000.252104
5000.252089
5000.252071
5000.252053
5000.252035
5000.252019
5000.251995
5000.250758
5000.25075
5000.250737
5000.250722
5000.250706
5000.250688
5000.250671
5000.250657
5000.250633
5000.249378
5000.24937
5000.249358
5000.249344
5000.249328
5000.249312
5000.249295
5000.249282
5000.24926
5000.247987
5000.24798
5000.247968
5000.247955
5000.24794
5000.247924
5000.247909
5000.247896
5000.247875
5000.246585
5000.246579
5000.246568
5000.246555
5000.246541
5000.246526
5000.246511
5000.246499
5000.24648
5000.245174
5000.245168
5000.245157
5000.245145
5000.245132
5000.245118
5000.245104
5000.245093
5000.245074
5000.243753
5000.243747
5000.243738
5000.243726
5000.243714
5000.2437
5000.243687
5000.243676
5000.243659
5000.242324
5000.242318
5000.242309
5000.242298
5000.242286
5000.242274
5000.242262
5000.242251
5000.242235
5000.240886
5000.240881
5000.240873
5000.240862
5000.240851
5000.240839
5000.240828
5000.240818
5000.240803
5000.239441
5000.239436
5000.239428
5000.239418
5000.239408
5000.239397
5000.239386
5000.239377
5000.239362
5000.237989
5000.237984
5000.237976
5000.237967
5000.237957
5000.237947
5000.237936
5000.237928
5000.237914
5000.236529
5000.236525
5000.236518
5000.236509
5000.2365
5000.23649
5000.23648
5000.236472
5000.236459
5000.235064
5000.23506
5000.235053
5000.235045
5000.235036
5000.235026
5000.235017
5000.23501
5000.234998
5000.233592
5000.233588
5000.233582
5000.233574
5000.233566
5000.233557
5000.233548
5000.233541
5000.23353
5000.232115
5000.232111
5000.232105
5000.232098
5000.23209
5000.232082
5000.232074
5000.232067
5000.232057
5000.230632
5000.230629
5000.230623
5000.230616
5000.230609
5000.230601
5000.230594
5000.230587
5000.230578
5000.229145
5000.229142
5000.229136
5000.22913
5000.229123
5000.229116
5000.229109
5000.229103
5000.229093
5000.227653
5000.22765
5000.227645
5000.227639
5000.227632
5000.227625
5000.227619
5000.227613
5000.227605
5000.226157
5000.226154
5000.226149
5000.226143
5000.226137
5000.226131
5000.226124
5000.226119
5000.226111
5000.224656
5000.224653
5000.224649
5000.224644
5000.224638
5000.224632
5000.224626
5000.224621
5000.224614
5000.223152
5000.22315
5000.223145
5000.22314
5000.223135
5000.223129
5000.223124
5000.223119
5000.223112
5000.221644
5000.221642
5000.221638
5000.221633
5000.221628
5000.221623
5000.221618
5000.221614
5000.221607
5000.220133
5000.220131
5000.220128
5000.220123
5000.220118
5000.220113
5000.220109
5000.220105
5000.220098
5000.218619
5000.218617
5000.218614
5000.21861
5000.218605
5000.218601
5000.218596
5000.218592
5000.218587
5000.217103
5000.217101
5000.217097
5000.217094
5000.217089
5000.217085
5000.217081
5000.217077
5000.217072
5000.215583
5000.215581
5000.215578
5000.215575
5000.215571
5000.215567
5000.215563
5000.215559
5000.215554
5000.214061
5000.214059
5000.214056
5000.214053
5000.214049
5000.214046
5000.214042
5000.214039
5000.214034
5000.212537
5000.212535
5000.212532
5000.212529
5000.212526
5000.212522
5000.212519
5000.212516
5000.212512
5000.21101
5000.211009
5000.211006
5000.211003
5000.211
5000.210997
5000.210993
5000.210991
5000.210987
5000.209482
5000.20948
5000.209478
5000.209475
5000.209472
5000.209469
5000.209466
5000.209464
5000.20946
5000.207951
5000.20795
5000.207948
5000.207945
5000.207942
5000.207939
5000.207937
5000.207934
5000.207931
5000.206419
5000.206418
5000.206416
5000.206414
5000.206411
5000.206408
5000.206406
5000.206403
5000.2064
5000.204886
5000.204884
5000.204882
5000.20488
5000.204878
5000.204875
5000.204873
5000.204871
5000.204868
5000.20335
5000.203349
5000.203347
5000.203345
5000.203343
5000.203341
5000.203338
5000.203337
5000.203334
5000.201814
5000.201813
5000.201811
5000.201809
5000.201807
5000.201805
5000.201803
5000.201801
5000.201798
5000.200276
5000.200275
5000.200273
5000.200272
5000.20027
5000.200268
5000.200266
5000.200264
5000.200262
5000.198737
5000.198736
5000.198735
5000.198733
5000.198731
5000.198729
5000.198727
5000.198726
5000.198724
5000.197197
5000.197196
5000.197195
5000.197193
5000.197191
5000.19719
5000.197188
5000.197187
5000.197185
5000.195656
5000.195655
5000.195654
5000.195652
5000.195651
5000.195649
5000.195647
5000.195646
5000.195644
5000.194114
5000.194113
5000.194112
5000.19411
5000.194109
5000.194107
5000.194106
5000.194105
5000.194103
5000.192571
5000.19257
5000.192569
5000.192568
5000.192566
5000.192565
5000.192564
5000.192563
5000.192561
5000.191027
5000.191027
5000.191026
5000.191024
5000.191023
5000.191022
5000.191021
5000.19102
5000.191018
5000.189483
5000.189482
5000.189481
5000.18948
5000.189479
5000.189478
5000.189477
5000.189476
5000.189475
5000.187938
5000.187937
5000.187937
5000.187936
5000.187934
5000.187933
5000.187932
5000.187931
5000.18793
5000.186392
5000.186392
5000.186391
5000.18639
5000.186389
5000.186388
5000.186387
5000.186386
5000.186385
5000.184846
5000.184846
5000.184845
5000.184844
5000.184843
5000.184842
5000.184841
5000.184841
5000.18484
5000.1833
5000.183299
5000.183299
5000.183298
5000.183297
5000.183296
5000.183295
5000.183295
5000.183294
5000.181753
5000.181752
5000.181752
5000.181751
5000.18175
5000.181749
5000.181748
5000.181748
5000.181747
5000.180205
5000.180205
5000.180204
5000.180204
5000.180203
5000.180202
5000.180201
5000.180201
5000.1802
5000.178657
5000.178657
5000.178657
5000.178656
5000.178655
5000.178655
5000.178654
5000.178653
5000.178653
5000.177109
5000.177109
5000.177109
5000.177108
5000.177107
5000.177107
5000.177106
5000.177106
5000.177105
5000.175561
5000.175561
5000.17556
5000.17556
5000.175559
5000.175559
5000.175558
5000.175558
5000.175557
5000.174012
5000.174012
5000.174012
5000.174011
5000.174011
5000.17401
5000.17401
5000.174009
5000.174009
5000.172464
5000.172463
5000.172463
5000.172463
5000.172462
5000.172462
5000.172461
5000.172461
5000.172461
5000.170915
5000.170914
5000.170914
5000.170914
5000.170913
5000.170913
5000.170912
5000.170912
5000.170912
5000.169366
5000.169365
5000.169365
5000.169365
5000.169364
5000.169364
5000.169363
5000.169363
5000.169363
5000.167816
5000.167816
5000.167816
5000.167815
5000.167815
5000.167815
5000.167814
5000.167814
5000.167814
5000.166267
5000.166267
5000.166266
5000.166266
5000.166266
5000.166266
5000.166265
5000.166265
5000.166265
5000.164717
5000.164717
5000.164717
5000.164717
5000.164717
5000.164716
5000.164716
5000.164716
5000.164716
5000.163168
5000.163168
5000.163168
5000.163167
5000.163167
5000.163167
5000.163167
5000.163167
5000.163166
5000.161618
5000.161618
5000.161618
5000.161618
5000.161618
5000.161617
5000.161617
5000.161617
5000.161617
5000.160069
5000.160069
5000.160069
5000.160068
5000.160068
5000.160068
5000.160068
5000.160068
5000.160068
5000.158519
5000.158519
5000.158519
5000.158519
5000.158519
5000.158519
5000.158519
5000.158518
5000.158518
5000.15697
5000.15697
5000.15697
5000.156969
5000.156969
5000.156969
5000.156969
5000.156969
5000.156969
5000.15542
5000.15542
5000.15542
5000.15542
5000.15542
5000.15542
5000.15542
5000.15542
5000.15542
5000.153871
5000.153871
5000.153871
5000.153871
5000.153871
5000.15387
5000.15387
5000.15387
5000.153871
5000.152322
5000.152322
5000.152321
5000.152321
5000.152321
5000.152321
5000.152321
5000.152321
5000.152321
5000.150772
5000.150772
5000.150772
5000.150772
5000.150772
5000.150772
5000.150772
5000.150772
5000.150772
5000.149223
5000.149223
5000.149223
5000.149223
5000.149223
5000.149223
5000.149223
5000.149223
5000.149223
5000.147674
5000.147674
5000.147674
5000.147674
5000.147674
5000.147674
5000.147674
5000.147674
5000.147674
5000.146125
5000.146125
5000.146125
5000.146125
5000.146125
5000.146125
5000.146125
5000.146125
5000.146125
5000.144576
5000.144576
5000.144576
5000.144576
5000.144576
5000.144576
5000.144576
5000.144576
5000.144576
5000.143027
5000.143027
5000.143027
5000.143027
5000.143027
5000.143027
5000.143027
5000.143027
5000.143027
5000.141478
5000.141478
5000.141478
5000.141478
5000.141478
5000.141478
5000.141479
5000.141479
5000.141479
5000.13993
5000.13993
5000.13993
5000.13993
5000.13993
5000.13993
5000.13993
5000.13993
5000.13993
5000.138381
5000.138381
5000.138381
5000.138381
5000.138382
5000.138382
5000.138382
5000.138382
5000.138382
5000.136833
5000.136833
5000.136833
5000.136833
5000.136833
5000.136833
5000.136833
5000.136834
5000.136834
5000.135285
5000.135285
5000.135285
5000.135285
5000.135285
5000.135285
5000.135285
5000.135286
5000.135286
5000.133737
5000.133737
5000.133737
5000.133737
5000.133737
5000.133737
5000.133737
5000.133738
5000.133738
5000.132189
5000.132189
5000.132189
5000.132189
5000.13219
5000.13219
5000.13219
5000.13219
5000.13219
5000.130642
5000.130642
5000.130642
5000.130642
5000.130642
5000.130642
5000.130642
5000.130642
5000.130643
5000.129094
5000.129094
5000.129094
5000.129094
5000.129095
5000.129095
5000.129095
5000.129095
5000.129095
5000.127547
5000.127547
5000.127547
5000.127547
5000.127547
5000.127547
5000.127548
5000.127548
5000.127548
5000.126
5000.126
5000.126
5000.126
5000.126
5000.126
5000.126001
5000.126001
5000.126001
5000.124453
5000.124453
5000.124453
5000.124453
5000.124453
5000.124454
5000.124454
5000.124454
5000.124454
5000.122906
5000.122906
5000.122907
5000.122907
5000.122907
5000.122907
5000.122907
5000.122907
5000.122908
5000.12136
5000.12136
5000.12136
5000.12136
5000.12136
5000.12136
5000.121361
5000.121361
5000.121361
5000.119814
5000.119814
5000.119814
5000.119814
5000.119814
5000.119814
5000.119814
5000.119815
5000.119815
5000.118268
5000.118268
5000.118268
5000.118268
5000.118268
5000.118268
5000.118268
5000.118268
5000.118269
5000.116722
5000.116722
5000.116722
5000.116722
5000.116722
5000.116722
5000.116722
5000.116723
5000.116723
5000.115176
5000.115176
5000.115176
5000.115176
5000.115176
5000.115177
5000.115177
5000.115177
5000.115177
5000.113631
5000.113631
5000.113631
5000.113631
5000.113631
5000.113631
5000.113631
5000.113631
5000.113632
5000.112085
5000.112085
5000.112085
5000.112085
5000.112086
5000.112086
5000.112086
5000.112086
5000.112087
5000.11054
5000.11054
5000.11054
5000.11054
5000.110541
5000.110541
5000.110541
5000.110541
5000.110542
5000.108995
5000.108995
5000.108995
5000.108996
5000.108996
5000.108996
5000.108996
5000.108996
5000.108997
5000.107451
5000.107451
5000.107451
5000.107451
5000.107451
5000.107451
5000.107451
5000.107452
5000.107452
5000.105906
5000.105906
5000.105906
5000.105907
5000.105907
5000.105907
5000.105907
5000.105907
5000.105908
5000.104362
5000.104362
5000.104362
5000.104362
5000.104362
5000.104363
5000.104363
5000.104363
5000.104364
5000.102818
5000.102818
5000.102818
5000.102818
5000.102818
5000.102819
5000.102819
5000.102819
5000.10282
5000.101274
5000.101274
5000.101274
5000.101275
5000.101275
5000.101275
5000.101275
5000.101275
5000.101276
5000.099731
5000.099731
5000.099731
5000.099731
5000.099731
5000.099731
5000.099732
5000.099732
5000.099732
5000.098187
5000.098187
5000.098188
5000.098188
5000.098188
5000.098188
5000.098188
5000.098189
5000.098189
5000.096644
5000.096644
5000.096644
5000.096645
5000.096645
5000.096645
5000.096645
5000.096645
5000.096646
5000.095101
5000.095101
5000.095102
5000.095102
5000.095102
5000.095102
5000.095102
5000.095103
5000.095103
5000.093559
5000.093559
5000.093559
5000.093559
5000.093559
5000.09356
5000.09356
5000.09356
5000.093561
5000.092016
5000.092016
5000.092017
5000.092017
5000.092017
5000.092017
5000.092018
5000.092018
5000.092018
5000.090474
5000.090474
5000.090474
5000.090475
5000.090475
5000.090475
5000.090475
5000.090476
5000.090476
5000.088932
5000.088933
5000.088933
5000.088933
5000.088933
5000.088933
5000.088934
5000.088934
5000.088935
5000.087391
5000.087391
5000.087391
5000.087391
5000.087392
5000.087392
5000.087392
5000.087393
5000.087394
5000.08585
5000.08585
5000.08585
5000.08585
5000.085851
5000.085851
5000.085852
5000.085852
5000.085853
5000.084309
5000.084309
5000.08431
5000.08431
5000.08431
5000.084311
5000.084311
5000.084312
5000.084313
5000.082769
5000.082769
5000.08277
5000.08277
5000.08277
5000.082771
5000.082771
5000.082772
5000.082773
5000.08123
5000.08123
5000.08123
5000.081231
5000.081231
5000.081232
5000.081232
5000.081233
5000.081235
5000.079692
5000.079692
5000.079692
5000.079692
5000.079693
5000.079693
5000.079694
5000.079695
5000.079697
5000.078154
5000.078154
5000.078154
5000.078155
5000.078155
5000.078156
5000.078157
5000.078158
5000.078161
5000.076618
5000.076618
5000.076618
5000.076619
5000.076619
5000.07662
5000.076621
5000.076623
5000.076626
5000.075083
5000.075083
5000.075084
5000.075084
5000.075085
5000.075086
5000.075087
5000.075089
5000.075092
5000.07355
5000.073551
5000.073551
5000.073551
5000.073552
5000.073553
5000.073555
5000.073557
5000.073561
5000.07202
5000.07202
5000.07202
5000.072021
5000.072022
5000.072023
5000.072025
5000.072027
5000.072033
5000.070492
5000.070492
5000.070493
5000.070493
5000.070494
5000.070496
5000.070498
5000.070501
5000.070507
5000.068968
5000.068968
5000.068968
5000.068969
5000.06897
5000.068972
5000.068974
5000.068977
5000.068985
5000.067447
5000.067447
5000.067447
5000.067448
5000.067449
5000.067452
5000.067455
5000.067458
5000.067467
5000.065931
5000.065931
5000.065931
5000.065932
5000.065934
5000.065936
5000.06594
5000.065944
5000.065954
5000.06442
5000.06442
5000.06442
5000.064421
5000.064423
5000.064426
5000.06443
5000.064435
5000.064446
5000.062915
5000.062915
5000.062915
5000.062916
5000.062918
5000.062922
5000.062926
5000.062932
5000.062945
5000.061416
5000.061417
5000.061417
5000.061419
5000.061421
5000.061424
5000.06143
5000.061436
5000.061451
5000.059926
5000.059927
5000.059927
5000.059929
5000.059931
5000.059935
5000.059941
5000.059948
5000.059965
5000.058445
5000.058445
5000.058446
5000.058447
5000.05845
5000.058455
5000.058461
5000.058469
5000.058489
5000.056973
5000.056974
5000.056974
5000.056976
5000.056979
5000.056984
5000.056992
5000.057001
5000.057022
5000.055512
5000.055513
5000.055514
5000.055516
5000.055519
5000.055525
5000.055533
5000.055543
5000.055567
5000.054063
5000.054064
5000.054066
5000.054068
5000.054072
5000.054078
5000.054087
5000.054098
5000.054124
5000.052628
5000.052629
5000.05263
5000.052633
5000.052637
5000.052644
5000.052654
5000.052666
5000.052694
5000.051207
5000.051208
5000.051209
5000.051212
5000.051217
5000.051224
5000.051235
5000.051248
5000.051279
5000.049801
5000.049802
5000.049804
5000.049807
5000.049812
5000.04982
5000.049832
5000.049846
5000.049879
5000.048412
5000.048413
5000.048415
5000.048419
5000.048424
5000.048433
5000.048446
5000.048461
5000.048496
5000.04704
5000.047042
5000.047044
5000.047048
5000.047054
5000.047064
5000.047077
5000.047093
5000.047131
5000.045688
5000.04569
5000.045692
5000.045696
5000.045703
5000.045713
5000.045727
5000.045744
5000.045785
5000.044355
5000.044357
5000.04436
5000.044364
5000.044372
5000.044382
5000.044398
5000.044416
5000.044458
5000.043043
5000.043046
5000.043048
5000.043053
5000.043061
5000.043073
5000.043089
5000.043108
5000.043152
5000.041753
5000.041756
5000.041759
5000.041764
5000.041773
5000.041785
5000.041802
5000.041821
5000.041868
5000.040486
5000.040489
5000.040492
5000.040498
5000.040507
5000.040519
5000.040537
5000.040558
5000.040607
5000.039242
5000.039245
5000.039249
5000.039255
5000.039264
5000.039278
5000.039297
5000.039318
5000.039369
5000.038023
5000.038026
5000.03803
5000.038036
5000.038046
5000.038061
5000.03808
5000.038102
5000.038154
5000.036828
5000.036832
5000.036836
5000.036844
5000.036854
5000.036869
5000.036889
5000.036911
5000.036965
5000.03566
5000.035664
5000.035669
5000.035676
5000.035687
5000.035702
5000.035723
5000.035746
5000.035801
5000.034518
5000.034522
5000.034526
5000.034534
5000.034545
5000.034561
5000.034582
5000.034606
5000.034662
5000.033401
5000.033406
5000.033411
5000.033419
5000.03343
5000.033446
5000.033468
5000.033492
5000.033549
5000.032312
5000.032316
5000.032322
5000.03233
5000.032342
5000.032359
5000.032381
5000.032405
5000.032463
5000.031249
5000.031254
5000.03126
5000.031268
5000.031281
5000.031298
5000.03132
5000.031345
5000.031403
5000.030214
5000.030219
5000.030225
5000.030234
5000.030246
5000.030264
5000.030287
5000.030311
5000.03037
5000.029206
5000.029211
5000.029217
5000.029226
5000.029239
5000.029257
5000.02928
5000.029305
5000.029364
5000.028225
5000.02823
5000.028236
5000.028246
5000.028259
5000.028277
5000.0283
5000.028325
5000.028385
5000.027271
5000.027276
5000.027282
5000.027292
5000.027306
5000.027324
5000.027347
5000.027372
5000.027432
5000.026344
5000.026349
5000.026356
5000.026366
5000.026379
5000.026397
5000.026421
5000.026446
5000.026505
5000.025443
5000.025449
5000.025455
5000.025466
5000.025479
5000.025498
5000.025521
5000.025546
5000.025605
5000.024569
5000.024575
5000.024582
5000.024592
5000.024606
5000.024624
5000.024648
5000.024672
5000.024731
5000.023721
5000.023727
5000.023734
5000.023744
5000.023758
5000.023776
5000.0238
5000.023824
5000.023882
5000.022899
5000.022904
5000.022911
5000.022922
5000.022936
5000.022954
5000.022978
5000.023001
5000.023059
5000.022101
5000.022107
5000.022114
5000.022125
5000.022139
5000.022157
5000.02218
5000.022204
5000.02226
5000.021328
5000.021334
5000.021341
5000.021352
5000.021366
5000.021384
5000.021407
5000.02143
5000.021486
5000.02058
5000.020585
5000.020593
5000.020603
5000.020617
5000.020635
5000.020658
5000.020681
5000.020735
5000.019855
5000.01986
5000.019868
5000.019878
5000.019892
5000.01991
5000.019933
5000.019955
5000.020008
5000.019152
5000.019158
5000.019165
5000.019176
5000.01919
5000.019207
5000.01923
5000.019251
5000.019304
5000.018473
5000.018478
5000.018486
5000.018496
5000.01851
5000.018527
5000.018549
5000.01857
5000.018622
5000.017814
5000.01782
5000.017827
5000.017838
5000.017851
5000.017868
5000.01789
5000.017911
5000.017961
5000.017177
5000.017183
5000.01719
5000.017201
5000.017214
5000.017231
5000.017252
5000.017272
5000.017321
5000.016561
5000.016566
5000.016573
5000.016584
5000.016597
5000.016613
5000.016634
5000.016654
5000.016701
5000.015964
5000.015969
5000.015976
5000.015987
5000.016
5000.016016
5000.016036
5000.016055
5000.016101
5000.015386
5000.015391
5000.015399
5000.015409
5000.015421
5000.015437
5000.015457
5000.015475
5000.01552
5000.014827
5000.014832
5000.014839
5000.014849
5000.014862
5000.014877
5000.014897
5000.014914
5000.014958
5000.014285
5000.01429
5000.014297
5000.014307
5000.014319
5000.014334
5000.014354
5000.01437
5000.014413
5000.013761
5000.013766
5000.013773
5000.013782
5000.013794
5000.013809
5000.013828
5000.013844
5000.013885
5000.013253
5000.013258
5000.013265
5000.013274
5000.013286
5000.0133
5000.013318
5000.013334
5000.013374
5000.012761
5000.012765
5000.012772
5000.012781
5000.012793
5000.012807
5000.012825
5000.01284
5000.012878
5000.012284
5000.012289
5000.012295
5000.012304
5000.012316
5000.012329
5000.012347
5000.012361
5000.012398
5000.011822
5000.011826
5000.011833
5000.011842
5000.011853
5000.011866
5000.011883
5000.011897
5000.011932
5000.011373
5000.011378
5000.011384
5000.011393
5000.011404
5000.011417
5000.011433
5000.011446
5000.011481
5000.010939
5000.010943
5000.010949
5000.010958
5000.010969
5000.010981
5000.010997
5000.01101
5000.011043
5000.010517
5000.010521
5000.010527
5000.010536
5000.010546
5000.010558
5000.010574
5000.010586
5000.010618
5000.010107
5000.010112
5000.010118
5000.010126
5000.010136
5000.010148
5000.010163
5000.010174
5000.010205
5000.00971
5000.009714
5000.00972
5000.009728
5000.009738
5000.009749
5000.009764
5000.009775
5000.009804
5000.009323
5000.009327
5000.009333
5000.009341
5000.009351
5000.009362
5000.009376
5000.009386
5000.009415
5000.008948
5000.008952
5000.008957
5000.008965
5000.008974
5000.008985
5000.008999
5000.009009
5000.009036
5000.008583
5000.008586
5000.008592
5000.008599
5000.008608
5000.008619
5000.008632
5000.008642
5000.008668
5000.008227
5000.008231
5000.008236
5000.008244
5000.008252
5000.008262
5000.008275
5000.008284
5000.008309
5000.007881
5000.007885
5000.00789
5000.007897
5000.007906
5000.007915
5000.007928
5000.007937
5000.007961
5000.007545
5000.007548
5000.007553
5000.00756
5000.007568
5000.007577
5000.00759
5000.007598
5000.007621
5000.007216
5000.00722
5000.007225
5000.007231
5000.007239
5000.007248
5000.00726
5000.007268
5000.00729
5000.006896
5000.006899
5000.006904
5000.006911
5000.006918
5000.006927
5000.006938
5000.006946