/*--------------------------------*- C++ -*----------------------------------*\
| =========                 |                                                 |
| \\      /  F ield         | OpenFOAM: The Open Source CFD Toolbox           |
|  \\    /   O peration     | Version:  2212                                  |
|   \\  /    A nd           | Website:  www.openfoam.com                      |
|    \\/     M anipulation  |                                                 |
\*---------------------------------------------------------------------------*/
FoamFile
{
    version     2.0;
    format      ascii;
    arch        "LSB;label=32;scalar=64";
    class       volScalarField;
    location    "20.00000000";
    object      SC3H5;
}
// * * * * * * * * * * * * * * * * * * * * * * * * * * * * * * * * * * * * * //

dimensions      [0 0 0 0 0 0 0];

internalField   nonuniform List<scalar> 
3000
(
3.545159393e-23
3.982328041e-23
4.642000217e-23
5.521068087e-23
6.610615324e-23
7.881082083e-23
9.255950014e-23
1.056787472e-22
1.149573782e-22
1.331077033e-22
1.501264177e-22
1.757964484e-22
2.100806817e-22
2.529461094e-22
3.041549854e-22
3.628193913e-22
4.259668704e-22
4.819191464e-22
2.981768295e-22
3.389440733e-22
4.010233769e-22
4.853161526e-22
5.933421369e-22
7.266687066e-22
8.84774415e-22
1.058766736e-21
1.207509001e-21
5.680254678e-22
6.524644765e-22
7.829325375e-22
9.638497841e-22
1.201632085e-21
1.502319463e-21
1.864262518e-21
2.258436558e-21
2.576602497e-21
1.008817042e-21
1.173024815e-21
1.430741428e-21
1.795069495e-21
2.283158415e-21
2.908685311e-21
3.661184543e-21
4.460234022e-21
5.073599642e-21
1.735020294e-21
2.043300156e-21
2.534068993e-21
3.238668908e-21
4.194719311e-21
5.426310756e-21
6.896731344e-21
8.420595767e-21
9.548153808e-21
2.945892549e-21
3.512286374e-21
4.424468711e-21
5.748875638e-21
7.559307691e-21
9.891802838e-21
1.264995692e-20
1.545243726e-20
1.747468507e-20
4.986130779e-21
6.011326078e-21
7.677098129e-21
1.011436263e-20
1.345912835e-20
1.775960709e-20
2.280009461e-20
2.784689605e-20
3.142779248e-20
8.453017212e-21
1.028899825e-20
1.329146509e-20
1.770677142e-20
2.377686766e-20
3.156018692e-20
4.06170984e-20
4.959097054e-20
5.588795493e-20
1.438090474e-20
1.764298179e-20
2.300206198e-20
3.09084396e-20
4.178473961e-20
5.569425715e-20
7.179015963e-20
8.76215685e-20
9.864795408e-20
2.456220168e-20
3.03240012e-20
3.981989757e-20
5.385792675e-20
7.316998161e-20
9.781271904e-20
1.262114948e-19
1.540004855e-19
1.732580769e-19
4.210362492e-20
5.2235711e-20
6.897096598e-20
9.374270718e-20
1.278144375e-19
1.712136253e-19
2.210771515e-19
2.696944598e-19
3.032693879e-19
7.239190531e-20
9.015031807e-20
1.195267104e-19
1.630450908e-19
2.228856278e-19
2.990039282e-19
3.862692131e-19
4.711375212e-19
5.296058745e-19
1.247696481e-19
1.558182857e-19
2.072341549e-19
2.834415015e-19
3.882046621e-19
5.213284239e-19
6.73705761e-19
8.216290999e-19
9.233629569e-19
2.154445642e-19
2.696314021e-19
3.594305132e-19
4.925740206e-19
6.755678531e-19
9.079218881e-19
1.173574481e-18
1.431124119e-18
1.608032846e-18
3.725400312e-19
4.669825518e-19
6.235767006e-19
8.558091834e-19
1.174934654e-18
1.579907621e-18
2.042523531e-18
2.490595559e-18
2.798088237e-18
6.448638386e-19
8.093085546e-19
1.082075527e-18
1.48665705e-18
2.042536726e-18
2.747645777e-18
3.552604363e-18
4.33168902e-18
4.865966514e-18
1.117132841e-18
1.403264195e-18
1.878001808e-18
2.582226171e-18
3.549682632e-18
4.776441499e-18
6.176230984e-18
7.530267269e-18
8.458347192e-18
1.936406007e-18
2.434013564e-18
3.259776524e-18
4.48477771e-18
6.167475404e-18
8.30057918e-18
1.073358768e-17
1.308602903e-17
1.469782422e-17
3.357973223e-18
4.223025811e-18
5.658719847e-18
7.788566416e-18
1.071382408e-17
1.442114435e-17
1.864824284e-17
2.273382143e-17
2.553214887e-17
5.825007731e-18
7.328397431e-18
9.823661259e-18
1.352525667e-17
1.860849938e-17
2.504908902e-17
3.23902341e-17
3.94830329e-17
4.433944509e-17
1.010677997e-17
1.271893048e-17
1.705448697e-17
2.348553947e-17
3.231538761e-17
4.349981625e-17
5.624356577e-17
6.855149729e-17
7.697567961e-17
1.753834873e-17
2.207598585e-17
2.960700783e-17
4.077643798e-17
5.610840494e-17
7.552226416e-17
9.763363214e-17
1.18979358e-16
1.335834143e-16
3.043604888e-17
3.83167069e-17
5.139460454e-17
7.078669543e-17
9.739723173e-17
1.310781628e-16
1.694195818e-16
2.064132951e-16
2.317102506e-16
5.281692705e-17
6.649984368e-17
8.920244018e-17
1.228562443e-16
1.690177485e-16
2.274125383e-16
2.938450315e-16
3.578985699e-16
4.016709252e-16
9.164284079e-17
1.153917136e-16
1.54785339e-16
2.131580668e-16
2.931810819e-16
3.943400054e-16
5.093285055e-16
6.201018161e-16
6.957371379e-16
1.589684776e-16
2.001689131e-16
2.684859076e-16
3.696627333e-16
5.082657489e-16
6.833188023e-16
8.82094374e-16
1.073367088e-15
1.203824145e-15
2.756423507e-16
3.470723382e-16
4.654585411e-16
6.406657678e-16
8.804613093e-16
1.182969748e-15
1.526013171e-15
1.855633128e-15
2.080134816e-15
4.776678285e-16
6.013997609e-16
8.063439279e-16
1.109384688e-15
1.523650825e-15
2.045498751e-15
2.636275263e-15
3.202905829e-15
3.588151692e-15
8.271036127e-16
1.041186975e-15
1.395509029e-15
1.918841791e-15
2.633201189e-15
3.531444167e-15
4.546204451e-15
5.517303278e-15
6.176095199e-15
1.43067868e-15
1.800536614e-15
2.412079805e-15
3.314072472e-15
4.543071165e-15
6.084985988e-15
7.822453661e-15
9.480608479e-15
1.060249552e-14
2.471455164e-15
3.109221838e-15
4.162474019e-15
5.713315105e-15
7.821709074e-15
1.045978512e-14
1.342326626e-14
1.624218032e-14
1.814334438e-14
4.262443403e-15
5.359580489e-15
7.168821465e-15
9.827304334e-15
1.343191684e-14
1.792756724e-14
2.295929029e-14
2.772704489e-14
3.093057471e-14
7.336934243e-15
9.2188683e-15
1.231683311e-14
1.685772142e-14
2.299519099e-14
3.062079268e-14
3.911930882e-14
4.713599124e-14
5.249948297e-14
1.259985216e-14
1.581678668e-14
2.110133531e-14
2.882468855e-14
3.922495191e-14
5.209020264e-14
6.635808925e-14
7.974876824e-14
8.866460229e-14
2.157981337e-14
2.705634674e-14
3.60308196e-14
4.910253701e-14
6.66298159e-14
8.820273968e-14
1.119958874e-13
1.342000199e-13
1.489057259e-13
3.684612146e-14
4.612536887e-14
6.128843058e-14
8.328819412e-14
1.12643785e-13
1.485723113e-13
1.879567736e-13
2.244838639e-13
2.485371264e-13
6.269366759e-14
7.833138151e-14
1.038023278e-13
1.405949722e-13
1.894236253e-13
2.488149694e-13
3.134868751e-13
3.730689643e-13
4.12066059e-13
1.062590219e-13
1.324526601e-13
1.749626095e-13
2.360669512e-13
3.166769496e-13
4.140651502e-13
5.193593536e-13
6.156885417e-13
6.783392581e-13
1.793234921e-13
2.229041833e-13
2.93347898e-13
3.940602029e-13
5.26064419e-13
6.843999102e-13
8.543123404e-13
1.008633249e-12
1.10835408e-12
3.011980881e-13
3.731749788e-13
4.890095129e-13
6.536563252e-13
8.679785604e-13
1.123119976e-12
1.394809845e-12
1.639754051e-12
1.797011741e-12
5.032898431e-13
6.212224239e-13
8.101263984e-13
1.076985446e-12
1.421868563e-12
1.829264567e-12
2.259706175e-12
2.644927436e-12
2.890669583e-12
8.362405909e-13
1.02783185e-12
1.333213134e-12
1.761866223e-12
2.311786674e-12
2.956332404e-12
3.632086715e-12
4.232518384e-12
4.613192956e-12
1.380929701e-12
1.689386434e-12
2.178555086e-12
2.860737917e-12
3.729499881e-12
4.739978726e-12
5.791511685e-12
6.71949478e-12
7.304448405e-12
2.265157476e-12
2.757052477e-12
3.53315903e-12
4.608552713e-12
5.968319932e-12
7.538441263e-12
9.161123197e-12
1.058439663e-11
1.147700958e-11
3.688484546e-12
4.465061467e-12
5.684209167e-12
7.363037258e-12
9.471621428e-12
1.189042979e-11
1.437539411e-11
1.654424657e-11
1.789936336e-11
5.95851758e-12
7.171558627e-12
9.066748713e-12
1.166135972e-11
1.490050316e-11
1.859558166e-11
2.237474409e-11
2.566347151e-11
2.771587824e-11
9.543028772e-12
1.141649425e-11
1.433011503e-11
1.829765043e-11
2.322472835e-11
2.88210184e-11
3.452975558e-11
3.949691769e-11
4.260576304e-11
1.51441166e-11
1.8002751e-11
2.242909466e-11
2.84265702e-11
3.58401493e-11
4.423255501e-11
5.278311715e-11
6.023366519e-11
6.491373172e-11
2.380423352e-11
2.811039594e-11
3.474943793e-11
4.370131006e-11
5.471681364e-11
6.714180338e-11
7.976162491e-11
9.068465559e-11
9.728956599e-11
3.706123507e-11
4.346167339e-11
5.328538098e-11
6.64617503e-11
8.258472504e-11
1.006445486e-10
1.187308537e-10
1.337630818e-10
1.427808059e-10
5.718280058e-11
6.656733629e-11
8.089687884e-11
9.998645828e-11
1.231204425e-10
1.485491823e-10
1.729201622e-10
1.928327689e-10
2.045092464e-10
8.752501268e-11
1.010921179e-10
1.216590577e-10
1.48739457e-10
1.808036551e-10
2.143783172e-10
2.457178103e-10
2.703155048e-10
2.839335364e-10
1.330517536e-10
1.523392432e-10
1.811760095e-10
2.181037718e-10
2.597156662e-10
3.018638784e-10
3.390562273e-10
3.656465245e-10
3.781824103e-10
2.008317735e-10
2.27483668e-10
2.658571452e-10
3.131016241e-10
3.644948656e-10
4.132658142e-10
4.514296698e-10
4.726068542e-10
4.769828194e-10
2.989749631e-10
3.333275394e-10
3.819593067e-10
4.396732254e-10
4.984245034e-10
5.474629924e-10
5.75738655e-10
5.777100683e-10
5.621872184e-10
4.354061419e-10
4.781899292e-10
5.367864315e-10
6.021241807e-10
6.610133987e-10
6.975094465e-10
6.982996678e-10
6.626526064e-10
6.14318261e-10
6.197176393e-10
6.697744849e-10
7.346565051e-10
7.994424092e-10
8.442372873e-10
8.484379748e-10
8.007440816e-10
7.12160001e-10
6.252306003e-10
8.572707615e-10
9.098275841e-10
9.714831826e-10
1.019856831e-09
1.028761885e-09
9.776152711e-10
8.65845394e-10
7.226446577e-10
6.046944364e-10
1.141764437e-09
1.186556673e-09
1.227833643e-09
1.23635464e-09
1.184489006e-09
1.061390568e-09
8.860740158e-10
7.038048345e-10
5.713966784e-10
1.446225383e-09
1.467357533e-09
1.465491942e-09
1.409732088e-09
1.280988069e-09
1.088079222e-09
8.689655776e-10
6.714530053e-10
5.395559128e-10
1.71996221e-09
1.700532203e-09
1.636469564e-09
1.505046808e-09
1.305573864e-09
1.06674821e-09
8.32211573e-10
6.386669259e-10
5.15182656e-10
1.903583984e-09
1.83568852e-09
1.707878263e-09
1.514156954e-09
1.272708944e-09
1.020286828e-09
7.925482318e-10
6.124759402e-10
4.995406814e-10
1.963215595e-09
1.855915018e-09
1.685181165e-09
1.461445479e-09
1.212143409e-09
9.701065675e-10
7.598366973e-10
5.955616157e-10
4.925538765e-10
1.915298726e-09
1.789875947e-09
1.606390488e-09
1.383858376e-09
1.14944e-09
9.28574304e-10
7.382046814e-10
5.887174366e-10
4.941636911e-10
1.810377237e-09
1.686590272e-09
1.512696952e-09
1.308905769e-09
1.098370421e-09
9.007116943e-10
7.289464396e-10
5.922120148e-10
5.045524881e-10
1.695393429e-09
1.58382094e-09
1.429317261e-09
1.249767041e-09
1.064059372e-09
8.879175654e-10
7.323700678e-10
6.062743275e-10
5.241151249e-10
1.596014118e-09
1.499738463e-09
1.366402002e-09
1.210612177e-09
1.047581553e-09
8.902983814e-10
7.48560587e-10
6.312537817e-10
5.534354026e-10
1.521301616e-09
1.439869817e-09
1.326210448e-09
1.191752128e-09
1.048618522e-09
9.076332474e-10
7.776657999e-10
6.676665974e-10
5.932722316e-10
1.472390778e-09
1.404262602e-09
1.308029763e-09
1.192280523e-09
1.066517135e-09
9.397380925e-10
8.199792008e-10
7.161873517e-10
6.44530747e-10
1.447706123e-09
1.391277245e-09
1.310347833e-09
1.211065784e-09
1.100680211e-09
9.865657112e-10
8.759285978e-10
7.776014654e-10
7.082079594e-10
1.445052922e-09
1.398962863e-09
1.331625693e-09
1.247099704e-09
1.150662227e-09
1.048187343e-09
9.460128499e-10
8.527272966e-10
7.85312775e-10
1.462353147e-09
1.425556166e-09
1.370540613e-09
1.299561623e-09
1.216137458e-09
1.124716878e-09
1.030707897e-09
9.423156329e-10
8.767645999e-10
1.497848265e-09
1.469582399e-09
1.425994476e-09
1.367764371e-09
1.29681274e-09
1.216207868e-09
1.13035597e-09
1.046934911e-09
9.832773964e-10
1.550077845e-09
1.52980149e-09
1.497031948e-09
1.451055325e-09
1.392320126e-09
1.322541561e-09
1.245049796e-09
1.166852081e-09
1.105238766e-09
1.617779405e-09
1.605101926e-09
1.582731265e-09
1.548707553e-09
1.502109529e-09
1.443319837e-09
1.374523883e-09
1.301921157e-09
1.242596376e-09
1.699770539e-09
1.694386898e-09
1.682096903e-09
1.659820019e-09
1.625355349e-09
1.57777563e-09
1.518065796e-09
1.451493168e-09
1.394766033e-09
1.794840054e-09
1.796473513e-09
1.793969649e-09
1.783239298e-09
1.760888579e-09
1.724712738e-09
1.674460325e-09
1.614361458e-09
1.560576021e-09
1.901661287e-09
1.910016392e-09
1.916963927e-09
1.917512083e-09
1.90716391e-09
1.882485237e-09
1.841977619e-09
1.788754184e-09
1.738260106e-09
2.018735299e-09
2.03346276e-09
2.049439112e-09
2.060875041e-09
2.0622684e-09
2.04902317e-09
2.018412111e-09
1.972381099e-09
1.925506539e-09
2.144368487e-09
2.165043179e-09
2.189508383e-09
2.211284918e-09
2.223973794e-09
2.221905697e-09
2.201172621e-09
2.162534354e-09
2.119562137e-09
2.276686082e-09
2.302798623e-09
2.335084755e-09
2.366487049e-09
2.38982887e-09
2.398476156e-09
2.387416132e-09
2.356233554e-09
2.317375098e-09
2.413679201e-09
2.444640537e-09
2.48395933e-09
2.524115299e-09
2.557282552e-09
2.575987382e-09
2.57421167e-09
2.550403046e-09
2.5158396e-09
2.553278971e-09
2.588436126e-09
2.63390227e-09
2.681811903e-09
2.723824297e-09
2.75176274e-09
2.75871991e-09
2.74212719e-09
2.711937482e-09
2.693447313e-09
2.73210721e-09
2.782772875e-09
2.83735129e-09
2.887122689e-09
2.923349371e-09
2.938435086e-09
2.928771114e-09
2.902993045e-09
2.83227118e-09
2.873728245e-09
2.928622e-09
2.988750701e-09
3.045142681e-09
3.088726836e-09
3.111244389e-09
3.108221776e-09
3.08697466e-09
2.968045219e-09
3.011608242e-09
3.069758419e-09
3.134352713e-09
3.196317243e-09
3.246285375e-09
3.275572004e-09
3.278982352e-09
3.26231177e-09
3.099321967e-09
3.144365843e-09
3.204953597e-09
3.272999893e-09
3.339484514e-09
3.394945206e-09
3.430432621e-09
3.439888881e-09
3.427475533e-09
3.225128762e-09
3.271081784e-09
3.333299478e-09
3.403889748e-09
3.473995944e-09
3.534222208e-09
3.575163299e-09
3.589883307e-09
3.581388725e-09
3.344755043e-09
3.3911401e-09
3.454335207e-09
3.526731113e-09
3.599785656e-09
3.66382418e-09
3.709126366e-09
3.72835934e-09
3.72343485e-09
3.45794766e-09
3.504411452e-09
3.568149317e-09
3.641806782e-09
3.716739904e-09
3.783401667e-09
3.832073267e-09
3.855110431e-09
3.853401993e-09
3.565046626e-09
3.611340864e-09
3.675012218e-09
3.748904481e-09
3.824648675e-09
3.892915449e-09
3.944071054e-09
3.970247967e-09
3.97139941e-09
3.666139889e-09
3.711721378e-09
3.774594945e-09
3.847894749e-09
3.923570146e-09
3.992570617e-09
4.045419849e-09
4.074114051e-09
4.077769725e-09
3.760822925e-09
3.805297464e-09
3.866824131e-09
3.93887379e-09
4.013752755e-09
4.082737527e-09
4.136572526e-09
4.167201142e-09
4.173009014e-09
3.84897603e-09
3.892051667e-09
3.95181048e-09
4.022083257e-09
4.095559805e-09
4.163881083e-09
4.218066795e-09
4.250085627e-09
4.257701049e-09
3.930652029e-09
3.9721087e-09
4.029772003e-09
4.097842415e-09
4.169409271e-09
4.236506038e-09
4.290473715e-09
4.323377801e-09
4.332467663e-09
4.005994127e-09
4.045664546e-09
4.10097564e-09
4.166498976e-09
4.235731506e-09
4.301119271e-09
4.354362459e-09
4.387687512e-09
4.39793437e-09
4.075183157e-09
4.112940745e-09
4.165699432e-09
4.228397958e-09
4.294943096e-09
4.35820684e-09
4.410278896e-09
4.443602983e-09
4.454708777e-09
4.138407384e-09
4.174158447e-09
4.224211454e-09
4.283864954e-09
4.347433384e-09
4.40822246e-09
4.458734761e-09
4.491679707e-09
4.503368803e-09
4.195847839e-09
4.229526307e-09
4.276760658e-09
4.333199647e-09
4.393559921e-09
4.451583959e-09
4.500204199e-09
4.532436358e-09
4.544457767e-09
4.247673573e-09
4.279237247e-09
4.323575379e-09
4.376675855e-09
4.433649549e-09
4.488674733e-09
4.535124906e-09
4.566355128e-09
4.578483855e-09
4.294042627e-09
4.323470294e-09
4.36486616e-09
4.414545184e-09
4.468002527e-09
4.519847858e-09
4.563901747e-09
4.593884493e-09
4.605922053e-09
4.335105789e-09
4.362394818e-09
4.400830512e-09
4.447042207e-09
4.496897847e-09
4.545431208e-09
4.586911329e-09
4.615442995e-09
4.627217202e-09
4.371011211e-09
4.396175402e-09
4.431658056e-09
4.474389765e-09
4.520598537e-09
4.565732522e-09
4.604506571e-09
4.631423152e-09
4.642787286e-09
4.401908704e-09
4.424976275e-09
4.457535096e-09
4.496803627e-09
4.539356281e-09
4.581043812e-09
4.617020749e-09
4.642194988e-09
4.653026495e-09
4.427953122e-09
4.448964779e-09
4.47864817e-09
4.514496107e-09
4.553415023e-09
4.591644873e-09
4.624770759e-09
4.648108957e-09
4.658307808e-09
4.449306595e-09
4.468313675e-09
4.49518646e-09
4.527678553e-09
4.563013529e-09
4.597805835e-09
4.628059589e-09
4.649498228e-09
4.658985048e-09
4.466139636e-09
4.483202337e-09
4.507343096e-09
4.536562806e-09
4.56838698e-09
4.599788865e-09
4.627178053e-09
4.646680358e-09
4.655394458e-09
4.478631278e-09
4.493816992e-09
4.515315552e-09
4.541361779e-09
4.569767761e-09
4.597849157e-09
4.622405925e-09
4.639958488e-09
4.647855851e-09
4.486968461e-09
4.500350222e-09
4.519305333e-09
4.54228938e-09
4.567385651e-09
4.592235385e-09
4.614012619e-09
4.629622158e-09
4.636673461e-09
4.491344871e-09
4.502999944e-09
4.519517154e-09
4.539559955e-09
4.561467575e-09
4.583189771e-09
4.602257534e-09
4.615947847e-09
4.622136569e-09
4.491959452e-09
4.501968069e-09
4.516157817e-09
4.533387447e-09
4.552237083e-09
4.570947904e-09
4.587390186e-09
4.59919934e-09
4.604519977e-09
4.489014756e-09
4.497458991e-09
4.509434925e-09
4.523984391e-09
4.539913682e-09
4.555738422e-09
4.569650218e-09
4.579627986e-09
4.584084404e-09
4.482715248e-09
4.48967804e-09
4.499555544e-09
4.511560861e-09
4.524712104e-09
4.537782628e-09
4.549267338e-09
4.557472907e-09
4.561076831e-09
4.473265666e-09
4.478829987e-09
4.486724918e-09
4.496323445e-09
4.506841596e-09
4.517294104e-09
4.526461257e-09
4.532961179e-09
4.535730836e-09
4.460869507e-09
4.465117646e-09
4.471145262e-09
4.478474287e-09
4.486505251e-09
4.494478363e-09
4.501441632e-09
4.50630803e-09
4.508266934e-09
4.445727653e-09
4.448740627e-09
4.45301469e-09
4.458210247e-09
4.463899431e-09
4.469532549e-09
4.474408049e-09
4.477717052e-09
4.478892925e-09
4.428037184e-09
4.429894251e-09
4.432526289e-09
4.43572217e-09
4.439213279e-09
4.442645212e-09
4.445550051e-09
4.447380443e-09
4.44780427e-09
4.407990351e-09
4.408768621e-09
4.40986733e-09
4.411194284e-09
4.412628333e-09
4.413996155e-09
4.415047211e-09
4.415479275e-09
4.415184481e-09
4.385773742e-09
4.385547865e-09
4.385218632e-09
4.384803727e-09
4.384318236e-09
4.383756349e-09
4.383069257e-09
4.382183793e-09
4.38120553e-09
4.361567588e-09
4.36040952e-09
4.358754061e-09
4.35672018e-09
4.35444854e-09
4.352087918e-09
4.349776232e-09
4.347653741e-09
4.346028272e-09
4.335545239e-09
4.333524068e-09
4.330640152e-09
4.327105611e-09
4.323176594e-09
4.319144188e-09
4.315318709e-09
4.312038706e-09
4.309802887e-09
4.30787276e-09
4.305054586e-09
4.301035841e-09
4.296114118e-09
4.290651509e-09
4.285069783e-09
4.279838022e-09
4.27547848e-09
4.272669324e-09
4.278708653e-09
4.275156513e-09
4.270092303e-09
4.263891847e-09
4.257014183e-09
4.25000078e-09
4.243466541e-09
4.238103443e-09
4.234757749e-09
4.248203681e-09
4.243977515e-09
4.237952874e-09
4.230576995e-09
4.222397397e-09
4.214064893e-09
4.206327963e-09
4.200034947e-09
4.196188995e-09
4.216500785e-09
4.211657431e-09
4.204753041e-09
4.196299864e-09
4.186925942e-09
4.177381698e-09
4.168537627e-09
4.161385709e-09
4.157075017e-09
4.183735075e-09
4.178328292e-09
4.170620509e-09
4.161182978e-09
4.150716805e-09
4.140062881e-09
4.130202835e-09
4.12226021e-09
4.117519335e-09
4.150033886e-09
4.144114403e-09
4.13567531e-09
4.125341239e-09
4.113879375e-09
4.102212513e-09
4.091423193e-09
4.08275509e-09
4.077617472e-09
4.115516894e-09
4.10913247e-09
4.100029962e-09
4.08888212e-09
4.07651568e-09
4.063927337e-09
4.052290951e-09
4.042959545e-09
4.037457388e-09
4.080296274e-09
4.073491777e-09
4.063789665e-09
4.05190589e-09
4.038720653e-09
4.025297071e-09
4.012891353e-09
4.002955712e-09
3.997119897e-09
4.04447689e-09
4.03729439e-09
4.02705252e-09
4.014505862e-09
4.000582402e-09
3.986404714e-09
3.973302979e-09
3.962819057e-09
3.956679082e-09
4.008156526e-09
4.000635389e-09
3.989909784e-09
3.976768655e-09
3.962182499e-09
3.947326865e-09
3.933598093e-09
3.922618746e-09
3.916202692e-09
3.971426131e-09
3.963603127e-09
3.952446125e-09
3.938774473e-09
3.923596277e-09
3.908134037e-09
3.893842983e-09
3.882418015e-09
3.875752522e-09
3.934370084e-09
3.926279494e-09
3.914739905e-09
3.900597395e-09
3.884893128e-09
3.868890973e-09
3.854098295e-09
3.842274517e-09
3.835384789e-09
3.897066473e-09
3.888740202e-09
3.876863465e-09
3.86230566e-09
3.846136803e-09
3.82965696e-09
3.814419362e-09
3.802240676e-09
3.795150488e-09
3.85958738e-09
3.851055071e-09
3.838883411e-09
3.823961967e-09
3.807385716e-09
3.790486135e-09
3.77485652e-09
3.762364008e-09
3.755095733e-09
3.821999173e-09
3.81328832e-09
3.80086091e-09
3.785623767e-09
3.768693235e-09
3.751427788e-09
3.73545542e-09
3.722687447e-09
3.715262085e-09
3.784362799e-09
3.77549886e-09
3.762851979e-09
3.747343551e-09
3.730107976e-09
3.712526656e-09
3.696257324e-09
3.683249646e-09
3.675686863e-09
3.746734073e-09
3.737740581e-09
3.724907772e-09
3.709169139e-09
3.691674089e-09
3.673823206e-09
3.657299395e-09
3.644085271e-09
3.636403444e-09
3.70916397e-09
3.700062642e-09
3.687074866e-09
3.671143958e-09
3.653431533e-09
3.635353912e-09
3.618614968e-09
3.60522528e-09
3.597441542e-09
3.671698905e-09
3.662509749e-09
3.649395533e-09
3.633307314e-09
3.615416342e-09
3.597151519e-09
3.58023382e-09
3.566697184e-09
3.558827483e-09
3.634381008e-09
3.625122425e-09
3.611908015e-09
3.595694657e-09
3.577660889e-09
3.559245297e-09
3.542182417e-09
3.528525307e-09
3.520584448e-09
3.597248397e-09
3.587937281e-09
3.574646774e-09
3.558337831e-09
3.540194126e-09
3.521661286e-09
3.504484154e-09
3.490731014e-09
3.482732721e-09
3.560335434e-09
3.550987267e-09
3.537642752e-09
3.521265324e-09
3.50304183e-09
3.484422522e-09
3.467159585e-09
3.453332944e-09
3.445289913e-09
3.523672975e-09
3.514301918e-09
3.500923605e-09
3.484502496e-09
3.466226824e-09
3.447549265e-09
3.430226634e-09
3.416347219e-09
3.408271171e-09
3.48728861e-09
3.477907593e-09
3.464513938e-09
3.448071805e-09
3.429769193e-09
3.4110592e-09
3.393700802e-09
3.379787645e-09
3.37168938e-09
3.451206893e-09
3.441827696e-09
3.428435517e-09
3.411993019e-09
3.39368649e-09
3.37496764e-09
3.357595354e-09
3.3436659e-09
3.335555349e-09
3.415449561e-09
3.406082893e-09
3.392707484e-09
3.376283415e-09
3.357993932e-09
3.339287708e-09
3.321921506e-09
3.307991709e-09
3.299877989e-09
3.380035739e-09
3.370691313e-09
3.357346552e-09
3.340957972e-09
3.322704576e-09
3.304030517e-09
3.286688586e-09
3.272773011e-09
3.264664471e-09
3.344982137e-09
3.335668745e-09
3.322367193e-09
3.306029551e-09
3.287829498e-09
3.269205331e-09
3.251904199e-09
3.238016113e-09
3.229920382e-09
3.31030324e-09
3.301028815e-09
3.287781812e-09
3.271509063e-09
3.253377955e-09
3.234819724e-09
3.217574376e-09
3.203725832e-09
3.195649869e-09
3.276011478e-09
3.266783159e-09
3.253600913e-09
3.237405629e-09
3.219357531e-09
3.200879719e-09
3.183703707e-09
3.169905634e-09
3.161855767e-09
3.242117392e-09
3.232941584e-09
3.219833258e-09
3.203726728e-09
3.185774283e-09
3.167389928e-09
3.150295472e-09
3.136557751e-09
3.128539724e-09
3.20862979e-09
3.19951222e-09
3.186486008e-09
3.170478337e-09
3.152632873e-09
3.134353675e-09
3.117351765e-09
3.103683305e-09
3.095702316e-09
3.175555894e-09
3.166501661e-09
3.153564866e-09
3.137665065e-09
3.119936697e-09
3.101773117e-09
3.0848736e-09
3.07128241e-09
3.063343148e-09
3.142901474e-09
3.133915099e-09
3.121074199e-09
3.10529027e-09
3.087687992e-09
3.069649349e-09
3.052861021e-09
3.039354273e-09
3.031460957e-09
3.110670976e-09
3.101756449e-09
3.089017165e-09
3.073356179e-09
3.055887951e-09
3.037982512e-09
3.021313193e-09
3.007897288e-09
3.000053699e-09
3.078867637e-09
3.07002846e-09
3.057395813e-09
3.041863989e-09
3.024536821e-09
3.006771881e-09
2.990228495e-09
2.976909121e-09
2.969118635e-09
3.047493602e-09
3.038732825e-09
3.026211197e-09
3.010813965e-09
2.993633993e-09
2.976015954e-09
2.959604598e-09
2.946386785e-09
2.938652404e-09
3.016550019e-09
3.007870281e-09
2.995463465e-09
2.980205535e-09
2.963178091e-09
2.945712536e-09
2.929438545e-09
2.916326717e-09
2.908651097e-09
2.986037138e-09
2.977440699e-09
2.96515195e-09
2.95003737e-09
2.933167051e-09
2.915858809e-09
2.899726821e-09
2.886724844e-09
2.879110318e-09
2.955954398e-09
2.947443174e-09
2.935275252e-09
2.920307465e-09
2.903598193e-09
2.886451402e-09
2.870465413e-09
2.85757664e-09
2.85002525e-09
2.926300512e-09
2.917876101e-09
2.905831316e-09
2.891013211e-09
2.874468292e-09
2.857486458e-09
2.841649876e-09
2.828877188e-09
2.821390704e-09
2.897073536e-09
2.888737249e-09
2.876817498e-09
2.862151459e-09
2.845773634e-09
2.828959686e-09
2.813275382e-09
2.80062123e-09
2.793201171e-09
2.868270945e-09
2.86002383e-09
2.848230637e-09
2.833718586e-09
2.817510082e-09
2.800866421e-09
2.785336774e-09
2.772803212e-09
2.765450871e-09
2.839889693e-09
2.831732559e-09
2.820067105e-09
2.805710546e-09
2.789673124e-09
2.773201671e-09
2.75782861e-09
2.745417332e-09
2.73813379e-09
2.811926276e-09
2.803859714e-09
2.792322872e-09
2.778122927e-09
2.762257921e-09
2.745960159e-09
2.730745207e-09
2.718457577e-09
2.711243726e-09
2.784376782e-09
2.776401189e-09
2.76499355e-09
2.750950997e-09
2.735259355e-09
2.719136373e-09
2.704080679e-09
2.691917763e-09
2.684774317e-09
2.757236944e-09
2.749352538e-09
2.73807444e-09
2.724189746e-09
2.70867207e-09
2.692724594e-09
2.677828975e-09
2.665791565e-09
2.65871908e-09
2.730502183e-09
2.722709022e-09
2.711560577e-09
2.697833927e-09
2.682490503e-09
2.66671894e-09
2.651983908e-09
2.64007255e-09
2.633071439e-09
2.704167648e-09
2.696465649e-09
2.685446761e-09
2.67187809e-09
2.656708924e-09
2.64111339e-09
2.626539185e-09
2.614754205e-09
2.607824751e-09
2.678228251e-09
2.670617201e-09
2.659727595e-09
2.646316613e-09
2.631321461e-09
2.615901813e-09
2.601488432e-09
2.589829959e-09
2.582972329e-09
2.65267869e-09
2.645158266e-09
2.634397505e-09
2.621143724e-09
2.60632212e-09
2.591077988e-09
2.576825216e-09
2.565293205e-09
2.558507461e-09
2.627513474e-09
2.620083252e-09
2.609450757e-09
2.596353517e-09
2.581704802e-09
2.566635617e-09
2.552543052e-09
2.541137306e-09
2.534423422e-09
2.602726924e-09
2.595386394e-09
2.584881464e-09
2.571939954e-09
2.557463303e-09
2.542568326e-09
2.528635406e-09
2.517355599e-09
2.510713473e-09
2.578313166e-09
2.571061742e-09
2.560683571e-09
2.547896851e-09
2.533591297e-09
2.518869646e-09
2.505095678e-09
2.493941378e-09
2.487370843e-09
2.554266094e-09
2.547103128e-09
2.536850817e-09
2.524217839e-09
2.510082296e-09
2.495532971e-09
2.481917154e-09
2.470887844e-09
2.464388685e-09
2.53057931e-09
2.523504095e-09
2.513376667e-09
2.500896288e-09
2.486929572e-09
2.472551475e-09
2.459092925e-09
2.448188021e-09
2.441759986e-09
2.507246008e-09
2.500257783e-09
2.490254188e-09
2.477925181e-09
2.464126019e-09
2.449917973e-09
2.436615736e-09
2.425834608e-09
2.419477415e-09
2.484258802e-09
2.477356753e-09
2.467475864e-09
2.455296915e-09
2.441663947e-09
2.427624696e-09
2.414477759e-09
2.403819734e-09
2.39753308e-09
2.461609472e-09
2.454792715e-09
2.445033314e-09
2.433003004e-09
2.419534766e-09
2.405662961e-09
2.392670237e-09
2.382134596e-09
2.375918153e-09
2.439288598e-09
2.432556158e-09
2.422916898e-09
2.411033659e-09
2.397728532e-09
2.384022684e-09
2.371182975e-09
2.36076892e-09
2.354622318e-09
2.417285057e-09
2.410635819e-09
2.401115159e-09
2.389377192e-09
2.376233315e-09
2.362691703e-09
2.350003613e-09
2.339710201e-09
2.333632989e-09
2.395585345e-09
2.389017981e-09
2.379614081e-09
2.368019224e-09
2.355034339e-09
2.341654851e-09
2.329116638e-09
2.318942664e-09
2.312934234e-09
2.374172689e-09
2.36768555e-09
2.358396106e-09
2.346941629e-09
2.33411285e-09
2.320892736e-09
2.308502078e-09
2.298445869e-09
2.292505341e-09
2.353025915e-09
2.346616869e-09
2.337438881e-09
2.326121192e-09
2.313444659e-09
2.30038017e-09
2.288133804e-09
2.278192932e-09
2.272318969e-09
2.332118032e-09
2.325784246e-09
2.3167137e-09
2.305527929e-09
2.292998333e-09
2.2800842e-09
2.267977425e-09
2.258148278e-09
2.252338824e-09
2.311414511e-09
2.305152161e-09
2.296183594e-09
2.28512305e-09
2.272732988e-09
2.259961729e-09
2.247987722e-09
2.238264922e-09
2.232516846e-09
2.290871247e-09
2.284675141e-09
2.275801092e-09
2.264856549e-09
2.252595688e-09
2.239956708e-09
2.228105629e-09
2.218481271e-09
2.212789895e-09
2.270432202e-09
2.264295314e-09
2.25550563e-09
2.244664439e-09
2.232518476e-09
2.219996925e-09
2.208254795e-09
2.198717485e-09
2.193075983e-09
2.250026762e-09
2.243939665e-09
2.235220668e-09
2.224465685e-09
2.21241508e-09
2.199990481e-09
2.188337814e-09
2.178871496e-09
2.173270167e-09
2.229566869e-09
2.223517077e-09
2.214850586e-09
2.204158915e-09
2.19217741e-09
2.179822044e-09
2.168232246e-09
2.158814827e-09
2.15324024e-09
2.208944025e-09
2.202915241e-09
2.19427747e-09
2.183619042e-09
2.171671995e-09
2.159349085e-09
2.147786647e-09
2.138388444e-09
2.132822476e-09
2.188026292e-09
2.181997599e-09
2.173357954e-09
2.162693991e-09
2.150736565e-09
2.138398307e-09
2.126816857e-09
2.117398928e-09
2.111817725e-09
2.166655486e-09
2.160600496e-09
2.151920331e-09
2.141201751e-09
2.129177048e-09
2.116762587e-09
2.105102888e-09
2.095615318e-09
2.089988237e-09
2.144644765e-09
2.138530784e-09
2.129762178e-09
2.11892804e-09
2.106765288e-09
2.094198768e-09
2.082386795e-09
2.072767062e-09
2.067055674e-09
2.121776906e-09
2.115564173e-09
2.106648815e-09
2.095624915e-09
2.083237856e-09
2.070426699e-09
2.058371971e-09
2.048543547e-09
2.042700791e-09
2.097803531e-09
2.091444603e-09
2.082312916e-09
2.071010692e-09
2.058296344e-09
2.045129963e-09
2.032724331e-09
2.022595697e-09
2.016565311e-09
2.072445616e-09
2.065884997e-09
2.056455615e-09
2.044771539e-09
2.031609546e-09
2.017958728e-09
2.00507585e-09
1.994540138e-09
1.988256518e-09
2.045395624e-09
2.038569718e-09
2.028749473e-09
2.016565103e-09
2.00281791e-09
1.988535123e-09
1.975030899e-09
1.963966397e-09
1.957355014e-09
2.016321543e-09
2.009159057e-09
1.99884362e-09
1.986026526e-09
1.971540596e-09
1.956461475e-09
1.942175702e-09
1.930447451e-09
1.923426001e-09
1.984873131e-09
1.977296009e-09
1.966371343e-09
1.952777087e-09
1.937385391e-09
1.921331654e-09
1.906091146e-09
1.893553853e-09
1.886034268e-09
1.950690541e-09
1.942615527e-09
1.930960274e-09
1.91643561e-09
1.899961588e-09
1.882745577e-09
1.866368941e-09
1.852871378e-09
1.844762819e-09
1.913415423e-09
1.904756321e-09
1.892245224e-09