/*--------------------------------*- C++ -*----------------------------------*\
| =========                 |                                                 |
| \\      /  F ield         | OpenFOAM: The Open Source CFD Toolbox           |
|  \\    /   O peration     | Version:  2212                                  |
|   \\  /    A nd           | Website:  www.openfoam.com                      |
|    \\/     M anipulation  |                                                 |
\*---------------------------------------------------------------------------*/
FoamFile
{
    version     2.0;
    format      ascii;
    arch        "LSB;label=32;scalar=64";
    class       volScalarField;
    location    "20.00000000";
    object      SC3H5_0;
}
// * * * * * * * * * * * * * * * * * * * * * * * * * * * * * * * * * * * * * //

dimensions      [0 0 0 0 0 0 0];

internalField   nonuniform List<scalar> 
3000
(
3.545162233e-23
3.98232842e-23
4.641995741e-23
5.521055595e-23
6.610591608e-23
7.881045129e-23
9.255900167e-23
1.056781478e-22
1.149567222e-22
1.331077859e-22
1.501264052e-22
1.757962542e-22
2.100801974e-22
2.529452354e-22
3.041536751e-22
3.628176746e-22
4.259648125e-22
4.819168094e-22
2.981769587e-22
3.389440024e-22
4.010229362e-22
4.853151463e-22
5.93340421e-22
7.266662815e-22
8.847713874e-22
1.058763001e-21
1.20750422e-21
5.680256527e-22
6.524643613e-22
7.829318854e-22
9.638483591e-22
1.201629795e-21
1.502316411e-21
1.86425837e-21
2.258428957e-21
2.576588535e-21
1.008817351e-21
1.173024794e-21
1.430740834e-21
1.795068117e-21
2.283156189e-21
2.908681976e-21
3.661177512e-21
4.46021496e-21
5.07356189e-21
1.735020836e-21
2.043300457e-21
2.534068867e-21
3.238668182e-21
4.194717976e-21
5.426309426e-21
6.896732876e-21
8.420608162e-21
9.548184438e-21
2.945893386e-21
3.51228717e-21
4.424469435e-21
5.748876277e-21
7.559308259e-21
9.891803479e-21
1.264995875e-20
1.545244386e-20
1.747469918e-20
4.986131821e-21
6.011327289e-21
7.67709965e-21
1.011436466e-20
1.345913111e-20
1.775961071e-20
2.280009919e-20
2.784690205e-20
3.142780017e-20
8.453018222e-21
1.028899954e-20
1.329146687e-20
1.770677398e-20
2.37768713e-20
3.156019177e-20
4.061710434e-20
4.959097727e-20
5.588796211e-20
1.438090545e-20
1.764298275e-20
2.300206338e-20
3.090844166e-20
4.178474252e-20
5.569426093e-20
7.179016402e-20
8.762157311e-20
9.864795863e-20
2.456220193e-20
3.032400159e-20
3.98198982e-20
5.385792774e-20
7.316998302e-20
9.781272079e-20
1.262114966e-19
1.540004871e-19
1.732580783e-19
4.210362473e-20
5.223571081e-20
6.897096582e-20
9.374270711e-20
1.278144375e-19
1.712136253e-19
2.210771514e-19
2.696944595e-19
3.032693874e-19
7.23919048e-20
9.015031749e-20
1.195267097e-19
1.630450902e-19
2.228856271e-19
2.990039273e-19
3.862692121e-19
4.711375201e-19
5.296058734e-19
1.247696475e-19
1.55818285e-19
2.072341541e-19
2.834415007e-19
3.882046612e-19
5.213284228e-19
6.7370576e-19
8.21629099e-19
9.233629562e-19
2.154445636e-19
2.696314013e-19
3.594305124e-19
4.925740199e-19
6.755678524e-19
9.079218874e-19
1.173574481e-18
1.431124119e-18
1.608032846e-18
3.725400306e-19
4.669825511e-19
6.235767e-19
8.558091832e-19
1.174934654e-18
1.57990762e-18
2.042523531e-18
2.490595559e-18
2.798088238e-18
6.448638381e-19
8.093085539e-19
1.082075527e-18
1.48665705e-18
2.042536727e-18
2.747645777e-18
3.552604363e-18
4.331689022e-18
4.865966517e-18
1.11713284e-18
1.403264194e-18
1.878001808e-18
2.582226172e-18
3.549682633e-18
4.7764415e-18
6.176230986e-18
7.530267272e-18
8.458347198e-18
1.936406006e-18
2.434013563e-18
3.259776525e-18
4.48477771e-18
6.167475405e-18
8.300579182e-18
1.073358768e-17
1.308602904e-17
1.469782423e-17
3.357973221e-18
4.223025812e-18
5.658719848e-18
7.788566416e-18
1.071382408e-17
1.442114436e-17
1.864824284e-17
2.273382143e-17
2.553214889e-17
5.82500773e-18
7.328397434e-18
9.823661261e-18
1.352525667e-17
1.860849938e-17
2.504908902e-17
3.239023411e-17
3.948303291e-17
4.433944511e-17
1.010677997e-17
1.271893048e-17
1.705448696e-17
2.348553947e-17
3.231538761e-17
4.349981625e-17
5.624356577e-17
6.85514973e-17
7.697567965e-17
1.753834872e-17
2.207598585e-17
2.960700782e-17
4.077643797e-17
5.610840494e-17
7.552226415e-17
9.763363212e-17
1.18979358e-16
1.335834144e-16
3.043604887e-17
3.831670689e-17
5.139460451e-17
7.078669539e-17
9.73972317e-17
1.310781628e-16
1.694195817e-16
2.064132951e-16
2.317102507e-16
5.281692702e-17
6.649984362e-17
8.920244011e-17
1.228562443e-16
1.690177484e-16
2.274125382e-16
2.938450314e-16
3.578985698e-16
4.016709253e-16
9.164284069e-17
1.153917134e-16
1.547853388e-16
2.131580667e-16
2.931810817e-16
3.943400051e-16
5.093285051e-16
6.201018158e-16
6.957371379e-16
1.589684774e-16
2.001689129e-16
2.684859074e-16
3.696627331e-16
5.082657487e-16
6.833188017e-16
8.820943734e-16
1.073367087e-15
1.203824145e-15
2.756423504e-16
3.470723378e-16
4.654585407e-16
6.406657675e-16
8.804613088e-16
1.182969747e-15
1.52601317e-15
1.855633127e-15
2.080134816e-15
4.776678279e-16
6.013997603e-16
8.063439272e-16
1.109384687e-15
1.523650824e-15
2.045498749e-15
2.636275261e-15
3.202905827e-15
3.588151692e-15
8.271036118e-16
1.041186974e-15
1.395509028e-15
1.91884179e-15
2.633201187e-15
3.531444165e-15
4.546204447e-15
5.517303274e-15
6.176095199e-15
1.430678679e-15
1.800536612e-15
2.412079803e-15
3.31407247e-15
4.543071161e-15
6.084985982e-15
7.822453654e-15
9.480608473e-15
1.060249552e-14
2.47145516e-15
3.109221836e-15
4.162474015e-15
5.7133151e-15
7.821709067e-15
1.045978511e-14
1.342326625e-14
1.624218031e-14
1.814334438e-14
4.262443397e-15
5.359580484e-15
7.168821457e-15
9.827304324e-15
1.343191683e-14
1.792756723e-14
2.295929027e-14
2.772704488e-14
3.093057471e-14
7.336934233e-15
9.218868291e-15
1.23168331e-14
1.68577214e-14
2.299519097e-14
3.062079266e-14
3.911930879e-14
4.713599121e-14
5.249948298e-14
1.259985215e-14
1.581678666e-14
2.110133529e-14
2.882468853e-14
3.922495188e-14
5.209020259e-14
6.635808919e-14
7.97487682e-14
8.866460231e-14
2.157981335e-14
2.705634671e-14
3.603081957e-14
4.910253698e-14
6.662981585e-14
8.820273962e-14
1.119958873e-13
1.342000199e-13
1.489057259e-13
3.684612143e-14
4.612536883e-14
6.128843054e-14
8.328819409e-14
1.12643785e-13
1.485723112e-13
1.879567735e-13
2.244838639e-13
2.485371265e-13
6.269366754e-14
7.833138146e-14
1.038023278e-13
1.405949721e-13
1.894236252e-13
2.488149694e-13
3.13486875e-13
3.730689643e-13
4.120660593e-13
1.062590218e-13
1.324526601e-13
1.749626095e-13
2.360669511e-13
3.166769495e-13
4.140651501e-13
5.193593534e-13
6.156885417e-13
6.783392587e-13
1.793234919e-13
2.229041832e-13
2.933478979e-13
3.940602027e-13
5.260644187e-13
6.843999099e-13
8.543123402e-13
1.008633249e-12
1.108354081e-12
3.011980879e-13
3.731749786e-13
4.890095126e-13
6.53656325e-13
8.679785602e-13
1.123119976e-12
1.394809845e-12
1.639754051e-12
1.797011742e-12
5.032898427e-13
6.212224236e-13
8.10126398e-13
1.076985446e-12
1.421868563e-12
1.829264566e-12
2.259706175e-12
2.644927437e-12
2.890669586e-12
8.362405902e-13
1.02783185e-12
1.333213133e-12
1.761866223e-12
2.311786673e-12
2.956332404e-12
3.632086715e-12
4.232518386e-12
4.613192961e-12
1.380929701e-12
1.689386433e-12
2.178555086e-12
2.860737917e-12
3.72949988e-12
4.739978725e-12
5.791511684e-12
6.719494784e-12
7.304448414e-12
2.265157475e-12
2.757052476e-12
3.533159029e-12
4.608552713e-12
5.968319931e-12
7.538441262e-12
9.161123197e-12
1.058439664e-11
1.14770096e-11
3.688484544e-12
4.465061466e-12
5.684209166e-12
7.363037258e-12
9.471621428e-12
1.189042979e-11
1.437539411e-11
1.654424658e-11
1.789936338e-11
5.958517579e-12
7.171558625e-12
9.066748713e-12
1.166135972e-11
1.490050316e-11
1.859558166e-11
2.23747441e-11
2.566347153e-11
2.771587828e-11
9.54302877e-12
1.141649425e-11
1.433011503e-11
1.829765043e-11
2.322472835e-11
2.88210184e-11
3.452975559e-11
3.949691774e-11
4.260576311e-11
1.51441166e-11
1.8002751e-11
2.242909467e-11
2.842657021e-11
3.584014931e-11
4.423255502e-11
5.278311718e-11
6.023366527e-11
6.491373183e-11
2.380423352e-11
2.811039595e-11
3.474943795e-11
4.370131008e-11
5.471681366e-11
6.714180342e-11
7.976162497e-11
9.068465572e-11
9.728956616e-11
3.706123508e-11
4.346167341e-11
5.3285381e-11
6.646175033e-11
8.258472508e-11
1.006445486e-10
1.187308539e-10
1.33763082e-10
1.427808062e-10
5.71828006e-11
6.656733632e-11
8.089687891e-11
9.998645836e-11
1.231204426e-10
1.485491824e-10
1.729201624e-10
1.928327693e-10
2.045092468e-10
8.752501274e-11
1.01092118e-10
1.216590578e-10
1.487394572e-10
1.808036552e-10
2.143783174e-10
2.457178106e-10
2.703155053e-10
2.839335369e-10
1.330517537e-10
1.523392434e-10
1.811760097e-10
2.181037721e-10
2.597156665e-10
3.018638788e-10
3.390562277e-10
3.656465251e-10
3.781824109e-10
2.008317738e-10
2.274836683e-10
2.658571456e-10
3.131016245e-10
3.644948661e-10
4.132658147e-10
4.514296703e-10
4.726068549e-10
4.7698282e-10
2.989749634e-10
3.333275399e-10
3.819593072e-10
4.39673226e-10
4.984245041e-10
5.474629929e-10
5.757386554e-10
5.777100687e-10
5.621872185e-10
4.354061424e-10
4.781899298e-10
5.367864322e-10
6.021241815e-10
6.610133994e-10
6.975094469e-10
6.982996679e-10
6.626526061e-10
6.143182604e-10
6.1971764e-10
6.697744858e-10
7.346565059e-10
7.994424101e-10
8.442372879e-10
8.484379748e-10
8.00744081e-10
7.121599998e-10
6.252305987e-10
8.572707624e-10
9.098275851e-10
9.714831834e-10
1.019856831e-09
1.028761885e-09
9.776152702e-10
8.658453923e-10
7.226446554e-10
6.046944341e-10
1.141764437e-09
1.186556674e-09
1.227833644e-09
1.23635464e-09
1.184489005e-09
1.061390566e-09
8.860740127e-10
7.038048314e-10
5.713966759e-10
1.446225383e-09
1.467357533e-09
1.465491942e-09
1.409732086e-09
1.280988066e-09
1.088079218e-09
8.689655735e-10
6.714530018e-10
5.395559103e-10
1.719962209e-09
1.700532202e-09
1.636469561e-09
1.505046804e-09
1.305573859e-09
1.066748205e-09
8.322115684e-10
6.386669224e-10
5.151826536e-10
1.903583981e-09
1.835688515e-09
1.707878258e-09
1.514156947e-09
1.272708938e-09
1.020286822e-09
7.925482272e-10
6.12475937e-10
4.995406792e-10
1.963215588e-09
1.855915011e-09
1.685181157e-09
1.461445471e-09
1.212143402e-09
9.701065617e-10
7.59836693e-10
5.955616127e-10
4.925538745e-10
1.915298717e-09
1.789875937e-09
1.606390478e-09
1.383858367e-09
1.149439993e-09
9.285742985e-10
7.382046773e-10
5.88717434e-10
4.941636894e-10
1.810377226e-09
1.686590261e-09
1.512696942e-09
1.308905761e-09
1.098370414e-09
9.007116892e-10
7.289464359e-10
5.922120124e-10
5.045524865e-10
1.695393418e-09
1.583820929e-09
1.429317252e-09
1.249767033e-09
1.064059366e-09
8.879175607e-10
7.323700644e-10
6.062743253e-10
5.241151234e-10
1.596014108e-09
1.499738454e-09
1.366401994e-09
1.21061217e-09
1.047581548e-09
8.90298377e-10
7.485605839e-10
6.312537797e-10
5.534354013e-10
1.521301607e-09
1.439869808e-09
1.32621044e-09
1.191752121e-09
1.048618517e-09
9.076332433e-10
7.77665797e-10
6.676665956e-10
5.932722304e-10
1.472390769e-09
1.404262594e-09
1.308029756e-09
1.192280517e-09
1.06651713e-09
9.397380887e-10
8.199791981e-10
7.1618735e-10
6.445307459e-10
1.447706115e-09
1.391277237e-09
1.310347826e-09
1.211065778e-09
1.100680206e-09
9.865657076e-10
8.759285953e-10
7.776014639e-10
7.082079584e-10
1.445052915e-09
1.398962856e-09
1.331625686e-09
1.247099699e-09
1.150662223e-09
1.04818734e-09
9.460128476e-10
8.527272953e-10
7.853127741e-10
1.46235314e-09
1.42555616e-09
1.370540607e-09
1.299561618e-09
1.216137454e-09
1.124716875e-09
1.030707895e-09
9.423156318e-10
8.767645991e-10
1.497848259e-09
1.469582393e-09
1.425994471e-09
1.367764367e-09
1.296812736e-09
1.216207865e-09
1.130355968e-09
1.04693491e-09
9.832773959e-10
1.55007784e-09
1.529801485e-09
1.497031943e-09
1.451055321e-09
1.392320123e-09
1.322541558e-09
1.245049794e-09
1.166852081e-09
1.105238766e-09
1.6177794e-09
1.605101921e-09
1.58273126e-09
1.548707549e-09
1.502109526e-09
1.443319834e-09
1.374523882e-09
1.301921157e-09
1.242596376e-09
1.699770535e-09
1.694386894e-09
1.682096899e-09
1.659820015e-09
1.625355346e-09
1.577775627e-09
1.518065794e-09
1.451493168e-09
1.394766033e-09
1.79484005e-09
1.796473509e-09
1.793969645e-09
1.783239295e-09
1.760888576e-09
1.724712736e-09
1.674460324e-09
1.614361458e-09
1.560576022e-09
1.901661283e-09
1.910016388e-09
1.916963924e-09
1.91751208e-09
1.907163908e-09
1.882485236e-09
1.841977619e-09
1.788754185e-09
1.738260107e-09
2.018735295e-09
2.033462757e-09
2.049439109e-09
2.060875038e-09
2.062268398e-09
2.049023168e-09
2.01841211e-09
1.9723811e-09
1.92550654e-09
2.144368484e-09
2.165043176e-09
2.18950838e-09
2.211284916e-09
2.223973792e-09
2.221905696e-09
2.201172621e-09
2.162534355e-09
2.119562138e-09
2.276686079e-09
2.302798621e-09
2.335084752e-09
2.366487047e-09
2.389828869e-09
2.398476155e-09
2.387416132e-09
2.356233556e-09
2.3173751e-09
2.413679198e-09
2.444640535e-09
2.483959329e-09
2.524115297e-09
2.557282551e-09
2.575987381e-09
2.57421167e-09
2.550403048e-09
2.515839601e-09
2.553278969e-09
2.588436125e-09
2.633902268e-09
2.681811902e-09
2.723824296e-09
2.751762739e-09
2.75871991e-09
2.742127191e-09
2.711937483e-09
2.693447311e-09
2.732107208e-09
2.782772874e-09
2.837351288e-09
2.887122688e-09
2.923349371e-09
2.938435086e-09
2.928771115e-09
2.902993047e-09
2.832271178e-09
2.873728243e-09
2.928621999e-09
2.9887507e-09
3.04514268e-09
3.088726836e-09
3.111244389e-09
3.108221777e-09
3.086974661e-09
2.968045217e-09
3.011608241e-09
3.069758418e-09
3.134352712e-09
3.196317242e-09
3.246285375e-09
3.275572005e-09
3.278982353e-09
3.262311772e-09
3.099321965e-09
3.144365842e-09
3.204953596e-09
3.272999892e-09
3.339484513e-09
3.394945206e-09
3.430432622e-09
3.439888883e-09
3.427475535e-09
3.22512876e-09
3.271081783e-09
3.333299477e-09
3.403889747e-09
3.473995943e-09
3.534222208e-09
3.575163299e-09
3.589883308e-09
3.581388727e-09
3.344755042e-09
3.391140099e-09
3.454335206e-09
3.526731112e-09
3.599785655e-09
3.663824179e-09
3.709126366e-09
3.728359341e-09
3.723434852e-09
3.457947659e-09
3.504411451e-09
3.568149316e-09
3.641806781e-09
3.716739903e-09
3.783401666e-09
3.832073267e-09
3.855110432e-09
3.853401994e-09
3.565046625e-09
3.611340864e-09
3.675012217e-09
3.74890448e-09
3.824648674e-09
3.892915449e-09
3.944071054e-09
3.970247968e-09
3.971399411e-09
3.666139888e-09
3.711721377e-09
3.774594944e-09
3.847894748e-09
3.923570145e-09
3.992570616e-09
4.045419849e-09
4.074114052e-09
4.077769726e-09
3.760822924e-09
3.805297463e-09
3.866824131e-09
3.938873789e-09
4.013752755e-09
4.082737527e-09
4.136572526e-09
4.167201143e-09
4.173009015e-09
3.848976029e-09
3.892051667e-09
3.951810479e-09
4.022083256e-09
4.095559804e-09
4.163881083e-09
4.218066795e-09
4.250085627e-09
4.257701049e-09
3.930652029e-09
3.9721087e-09
4.029772003e-09
4.097842414e-09
4.16940927e-09
4.236506037e-09
4.290473714e-09
4.323377801e-09
4.332467664e-09
4.005994126e-09
4.045664546e-09
4.10097564e-09
4.166498976e-09
4.235731506e-09
4.30111927e-09
4.354362459e-09
4.387687512e-09
4.397934371e-09
4.075183157e-09
4.112940745e-09
4.165699432e-09
4.228397958e-09
4.294943096e-09
4.35820684e-09
4.410278896e-09
4.443602983e-09
4.454708777e-09
4.138407384e-09
4.174158447e-09
4.224211453e-09
4.283864954e-09
4.347433384e-09
4.40822246e-09
4.458734761e-09
4.491679707e-09
4.503368804e-09
4.195847839e-09
4.229526306e-09
4.276760657e-09
4.333199647e-09
4.393559921e-09
4.451583959e-09
4.500204199e-09
4.532436358e-09
4.544457768e-09
4.247673573e-09
4.279237247e-09
4.323575379e-09
4.376675854e-09
4.433649549e-09
4.488674733e-09
4.535124906e-09
4.566355128e-09
4.578483855e-09
4.294042626e-09
4.323470294e-09
4.36486616e-09
4.414545184e-09
4.468002527e-09
4.519847858e-09
4.563901747e-09
4.593884493e-09
4.605922053e-09
4.335105789e-09
4.362394818e-09
4.400830512e-09
4.447042206e-09
4.496897846e-09
4.545431208e-09
4.586911328e-09
4.615442995e-09
4.627217202e-09
4.37101121e-09
4.396175402e-09
4.431658056e-09
4.474389764e-09
4.520598537e-09
4.565732521e-09
4.604506571e-09
4.631423152e-09
4.642787286e-09
4.401908704e-09
4.424976275e-09
4.457535096e-09
4.496803627e-09
4.53935628e-09
4.581043812e-09
4.617020748e-09
4.642194987e-09
4.653026495e-09
4.427953122e-09
4.448964779e-09
4.47864817e-09
4.514496106e-09
4.553415022e-09
4.591644873e-09
4.624770759e-09
4.648108957e-09
4.658307807e-09
4.449306595e-09
4.468313675e-09
4.49518646e-09
4.527678552e-09
4.563013529e-09
4.597805835e-09
4.628059589e-09
4.649498227e-09
4.658985048e-09
4.466139635e-09
4.483202337e-09
4.507343095e-09
4.536562805e-09
4.568386979e-09
4.599788865e-09
4.627178052e-09
4.646680357e-09
4.655394458e-09
4.478631278e-09
4.493816992e-09
4.515315552e-09
4.541361779e-09
4.56976776e-09
4.597849157e-09
4.622405924e-09
4.639958488e-09
4.64785585e-09
4.486968461e-09
4.500350222e-09
4.519305333e-09
4.542289379e-09
4.567385651e-09
4.592235385e-09
4.614012618e-09
4.629622158e-09
4.636673461e-09
4.49134487e-09
4.502999944e-09
4.519517154e-09
4.539559954e-09
4.561467574e-09
4.58318977e-09
4.602257533e-09
4.615947846e-09
4.622136569e-09
4.491959452e-09
4.501968069e-09
4.516157817e-09
4.533387446e-09
4.552237083e-09
4.570947904e-09
4.587390186e-09
4.599199339e-09
4.604519977e-09
4.489014756e-09
4.49745899e-09
4.509434924e-09
4.52398439e-09
4.539913681e-09
4.555738421e-09
4.569650217e-09
4.579627986e-09
4.584084403e-09
4.482715247e-09
4.48967804e-09
4.499555544e-09
4.511560861e-09
4.524712103e-09
4.537782627e-09
4.549267337e-09
4.557472906e-09
4.56107683e-09
4.473265666e-09
4.478829987e-09
4.486724918e-09
4.496323444e-09
4.506841595e-09
4.517294103e-09
4.526461256e-09
4.532961178e-09
4.535730835e-09
4.460869506e-09
4.465117645e-09
4.471145261e-09
4.478474287e-09
4.48650525e-09
4.494478362e-09
4.501441631e-09
4.506308029e-09
4.508266933e-09
4.445727653e-09
4.448740627e-09
4.45301469e-09
4.458210247e-09
4.46389943e-09
4.469532548e-09
4.474408048e-09
4.477717051e-09
4.478892924e-09
4.428037183e-09
4.429894251e-09
4.432526288e-09
4.435722169e-09
4.439213278e-09
4.442645211e-09
4.44555005e-09
4.447380442e-09
4.447804269e-09
4.407990351e-09
4.408768621e-09
4.409867329e-09
4.411194284e-09
4.412628332e-09
4.413996155e-09
4.41504721e-09
4.415479274e-09
4.41518448e-09
4.385773741e-09
4.385547864e-09
4.385218631e-09
4.384803727e-09
4.384318235e-09
4.383756348e-09
4.383069256e-09
4.382183792e-09
4.381205528e-09
4.361567588e-09
4.360409519e-09
4.358754061e-09
4.356720179e-09
4.354448539e-09
4.352087918e-09
4.349776231e-09
4.34765374e-09
4.346028271e-09
4.335545239e-09
4.333524067e-09
4.330640151e-09
4.32710561e-09
4.323176593e-09
4.319144187e-09
4.315318708e-09
4.312038704e-09
4.309802886e-09
4.30787276e-09
4.305054585e-09
4.30103584e-09
4.296114117e-09
4.290651508e-09
4.285069782e-09
4.279838021e-09
4.275478479e-09
4.272669323e-09
4.278708652e-09
4.275156512e-09
4.270092303e-09
4.263891846e-09
4.257014182e-09
4.250000779e-09
4.24346654e-09
4.238103442e-09
4.234757747e-09
4.24820368e-09
4.243977514e-09
4.237952873e-09
4.230576994e-09
4.222397396e-09
4.214064892e-09
4.206327962e-09
4.200034946e-09
4.196188994e-09
4.216500785e-09
4.21165743e-09
4.20475304e-09
4.196299863e-09
4.186925941e-09
4.177381697e-09
4.168537626e-09
4.161385708e-09
4.157075016e-09
4.183735074e-09
4.178328291e-09
4.170620508e-09
4.161182978e-09
4.150716805e-09
4.14006288e-09
4.130202834e-09
4.122260209e-09
4.117519334e-09
4.150033885e-09
4.144114402e-09
4.135675309e-09
4.125341238e-09
4.113879374e-09
4.102212512e-09
4.091423192e-09
4.082755089e-09
4.077617471e-09
4.115516894e-09
4.109132469e-09
4.100029962e-09
4.088882119e-09
4.076515679e-09
4.063927336e-09
4.05229095e-09
4.042959544e-09
4.037457387e-09
4.080296273e-09
4.073491776e-09
4.063789664e-09
4.05190589e-09
4.038720653e-09
4.02529707e-09
4.012891352e-09
4.002955711e-09
3.997119896e-09
4.044476889e-09
4.037294389e-09
4.027052519e-09
4.014505861e-09
4.000582401e-09
3.986404713e-09
3.973302978e-09
3.962819056e-09
3.956679081e-09
4.008156526e-09
4.000635389e-09
3.989909783e-09
3.976768654e-09
3.962182499e-09
3.947326864e-09
3.933598092e-09
3.922618745e-09
3.916202691e-09
3.971426131e-09
3.963603126e-09
3.952446124e-09
3.938774473e-09
3.923596276e-09
3.908134036e-09
3.893842982e-09
3.882418013e-09
3.875752521e-09
3.934370084e-09
3.926279494e-09
3.914739905e-09
3.900597394e-09
3.884893127e-09
3.868890972e-09
3.854098294e-09
3.842274516e-09
3.835384788e-09
3.897066473e-09
3.888740202e-09
3.876863464e-09
3.862305659e-09
3.846136803e-09
3.829656959e-09
3.814419361e-09
3.802240675e-09
3.795150487e-09
3.859587379e-09
3.85105507e-09
3.838883411e-09
3.823961966e-09
3.807385715e-09
3.790486134e-09
3.774856519e-09
3.762364007e-09
3.755095732e-09
3.821999172e-09
3.813288319e-09
3.800860909e-09
3.785623766e-09
3.768693234e-09
3.751427788e-09
3.735455419e-09
3.722687446e-09
3.715262084e-09
3.784362798e-09
3.775498859e-09
3.762851978e-09
3.74734355e-09
3.730107975e-09
3.712526655e-09
3.696257323e-09
3.683249645e-09
3.675686862e-09
3.746734072e-09
3.73774058e-09
3.724907771e-09
3.709169138e-09
3.691674089e-09
3.673823205e-09
3.657299394e-09
3.64408527e-09
3.636403443e-09
3.70916397e-09
3.700062642e-09
3.687074865e-09
3.671143957e-09
3.653431532e-09
3.635353911e-09
3.618614967e-09
3.605225279e-09
3.597441542e-09
3.671698904e-09
3.662509748e-09
3.649395533e-09
3.633307313e-09
3.615416342e-09
3.597151518e-09
3.580233819e-09
3.566697183e-09
3.558827482e-09
3.634381007e-09
3.625122425e-09
3.611908014e-09
3.595694656e-09
3.577660888e-09
3.559245297e-09
3.542182416e-09
3.528525306e-09
3.520584447e-09
3.597248397e-09
3.58793728e-09
3.574646773e-09
3.55833783e-09
3.540194126e-09
3.521661285e-09
3.504484154e-09
3.490731013e-09
3.48273272e-09
3.560335433e-09
3.550987266e-09
3.537642751e-09
3.521265323e-09
3.50304183e-09
3.484422522e-09
3.467159585e-09
3.453332943e-09
3.445289912e-09
3.523672974e-09
3.514301917e-09
3.500923605e-09
3.484502495e-09
3.466226823e-09
3.447549264e-09
3.430226634e-09
3.416347218e-09
3.40827117e-09
3.487288609e-09
3.477907592e-09
3.464513937e-09
3.448071805e-09
3.429769192e-09
3.4110592e-09
3.393700801e-09
3.379787644e-09
3.371689379e-09
3.451206893e-09
3.441827695e-09
3.428435516e-09
3.411993018e-09
3.39368649e-09
3.374967639e-09
3.357595353e-09
3.343665899e-09
3.335555349e-09
3.415449561e-09
3.406082892e-09
3.392707483e-09
3.376283414e-09
3.357993931e-09
3.339287708e-09
3.321921505e-09
3.307991708e-09
3.299877988e-09
3.380035738e-09
3.370691313e-09
3.357346552e-09
3.340957971e-09
3.322704575e-09
3.304030517e-09
3.286688585e-09
3.27277301e-09
3.26466447e-09
3.344982137e-09
3.335668745e-09
3.322367192e-09
3.30602955e-09
3.287829498e-09
3.269205331e-09
3.251904199e-09
3.238016112e-09
3.229920382e-09
3.31030324e-09
3.301028815e-09
3.287781811e-09
3.271509063e-09
3.253377954e-09
3.234819723e-09
3.217574375e-09
3.203725831e-09
3.195649868e-09
3.276011477e-09
3.266783159e-09
3.253600913e-09
3.237405629e-09
3.21935753e-09
3.200879719e-09
3.183703706e-09
3.169905633e-09
3.161855766e-09
3.242117391e-09
3.232941584e-09
3.219833257e-09
3.203726728e-09
3.185774282e-09
3.167389927e-09
3.150295471e-09
3.13655775e-09
3.128539723e-09
3.208629789e-09
3.199512219e-09
3.186486007e-09
3.170478337e-09
3.152632873e-09
3.134353674e-09
3.117351764e-09
3.103683304e-09
3.095702315e-09
3.175555893e-09
3.16650166e-09
3.153564865e-09
3.137665064e-09
3.119936696e-09
3.101773116e-09
3.0848736e-09
3.071282409e-09
3.063343147e-09
3.142901474e-09
3.133915099e-09
3.121074199e-09
3.10529027e-09
3.087687991e-09
3.069649349e-09
3.052861021e-09
3.039354272e-09
3.031460956e-09
3.110670975e-09
3.101756449e-09
3.089017164e-09
3.073356179e-09
3.055887951e-09
3.037982512e-09
3.021313193e-09
3.007897287e-09
3.000053699e-09
3.078867637e-09
3.07002846e-09
3.057395813e-09
3.041863989e-09
3.02453682e-09
3.00677188e-09
2.990228494e-09
2.97690912e-09
2.969118635e-09
3.047493602e-09
3.038732825e-09
3.026211197e-09
3.010813965e-09
2.993633992e-09
2.976015954e-09
2.959604597e-09
2.946386784e-09
2.938652404e-09
3.016550019e-09
3.00787028e-09
2.995463464e-09
2.980205534e-09
2.96317809e-09
2.945712536e-09
2.929438545e-09
2.916326717e-09
2.908651096e-09
2.986037137e-09
2.977440699e-09
2.965151949e-09
2.950037369e-09
2.93316705e-09
2.915858808e-09
2.89972682e-09
2.886724843e-09
2.879110318e-09
2.955954398e-09
2.947443174e-09
2.935275251e-09
2.920307465e-09
2.903598193e-09
2.886451402e-09
2.870465413e-09
2.857576639e-09
2.85002525e-09
2.926300512e-09
2.917876101e-09
2.905831315e-09
2.89101321e-09
2.874468291e-09
2.857486457e-09
2.841649875e-09
2.828877187e-09
2.821390703e-09
2.897073536e-09
2.888737249e-09
2.876817498e-09
2.862151459e-09
2.845773633e-09
2.828959686e-09
2.813275381e-09
2.800621229e-09
2.793201171e-09
2.868270944e-09
2.860023829e-09
2.848230636e-09
2.833718585e-09
2.817510082e-09
2.800866421e-09
2.785336773e-09
2.772803211e-09
2.76545087e-09
2.839889693e-09
2.831732558e-09
2.820067105e-09
2.805710545e-09
2.789673123e-09
2.77320167e-09
2.757828609e-09
2.745417331e-09
2.73813379e-09
2.811926275e-09
2.803859714e-09
2.792322872e-09
2.778122927e-09
2.76225792e-09
2.745960159e-09
2.730745206e-09
2.718457577e-09
2.711243725e-09
2.784376781e-09
2.776401188e-09
2.764993549e-09
2.750950997e-09
2.735259355e-09
2.719136372e-09
2.704080679e-09
2.691917762e-09
2.684774316e-09
2.757236944e-09
2.749352537e-09
2.73807444e-09
2.724189746e-09
2.708672069e-09
2.692724594e-09
2.677828975e-09
2.665791564e-09
2.65871908e-09
2.730502183e-09
2.722709022e-09
2.711560576e-09
2.697833927e-09
2.682490502e-09
2.66671894e-09
2.651983907e-09
2.640072549e-09
2.633071439e-09
2.704167648e-09
2.696465649e-09
2.685446761e-09
2.67187809e-09
2.656708924e-09
2.641113389e-09
2.626539184e-09
2.614754204e-09
2.607824751e-09
2.67822825e-09
2.670617201e-09
2.659727595e-09
2.646316613e-09
2.63132146e-09
2.615901812e-09
2.601488432e-09
2.589829959e-09
2.582972328e-09
2.65267869e-09
2.645158266e-09
2.634397505e-09
2.621143724e-09
2.60632212e-09
2.591077987e-09
2.576825216e-09
2.565293204e-09
2.55850746e-09
2.627513474e-09
2.620083251e-09
2.609450757e-09
2.596353517e-09
2.581704802e-09
2.566635617e-09
2.552543052e-09
2.541137305e-09
2.534423421e-09
2.602726924e-09
2.595386393e-09
2.584881464e-09
2.571939953e-09
2.557463302e-09
2.542568325e-09
2.528635406e-09
2.517355599e-09
2.510713473e-09
2.578313166e-09
2.571061742e-09
2.560683571e-09
2.54789685e-09
2.533591296e-09
2.518869645e-09
2.505095678e-09
2.493941377e-09
2.487370843e-09
2.554266094e-09
2.547103128e-09
2.536850817e-09
2.524217838e-09
2.510082296e-09
2.49553297e-09
2.481917154e-09
2.470887843e-09
2.464388685e-09
2.53057931e-09
2.523504094e-09
2.513376667e-09
2.500896288e-09
2.486929571e-09
2.472551475e-09
2.459092924e-09
2.448188021e-09
2.441759985e-09
2.507246008e-09
2.500257783e-09
2.490254188e-09
2.477925181e-09
2.464126019e-09
2.449917973e-09
2.436615735e-09
2.425834607e-09
2.419477414e-09
2.484258802e-09
2.477356753e-09
2.467475864e-09
2.455296914e-09
2.441663947e-09
2.427624696e-09
2.414477758e-09
2.403819733e-09
2.397533079e-09
2.461609472e-09
2.454792715e-09
2.445033314e-09
2.433003003e-09
2.419534766e-09
2.405662961e-09
2.392670237e-09
2.382134595e-09
2.375918152e-09
2.439288598e-09
2.432556158e-09
2.422916898e-09
2.411033658e-09
2.397728532e-09
2.384022684e-09
2.371182975e-09
2.360768919e-09
2.354622318e-09
2.417285057e-09
2.410635819e-09
2.401115159e-09
2.389377192e-09
2.376233315e-09
2.362691702e-09
2.350003612e-09
2.339710201e-09
2.333632989e-09
2.395585345e-09
2.389017981e-09
2.379614081e-09
2.368019224e-09
2.355034339e-09
2.34165485e-09
2.329116638e-09
2.318942663e-09
2.312934233e-09
2.374172689e-09
2.36768555e-09
2.358396105e-09
2.346941629e-09
2.334112849e-09
2.320892736e-09
2.308502077e-09
2.298445869e-09
2.292505341e-09
2.353025915e-09
2.346616869e-09
2.337438881e-09
2.326121191e-09
2.313444659e-09
2.30038017e-09
2.288133803e-09
2.278192932e-09
2.272318968e-09
2.332118031e-09
2.325784245e-09
2.316713699e-09
2.305527929e-09
2.292998333e-09
2.2800842e-09
2.267977424e-09
2.258148278e-09
2.252338823e-09
2.311414511e-09
2.30515216e-09
2.296183594e-09
2.28512305e-09
2.272732988e-09
2.259961729e-09
2.247987722e-09
2.238264921e-09
2.232516846e-09
2.290871247e-09
2.284675141e-09
2.275801092e-09
2.264856549e-09
2.252595688e-09
2.239956708e-09
2.228105629e-09
2.21848127e-09
2.212789894e-09
2.270432202e-09
2.264295313e-09
2.255505629e-09
2.244664439e-09
2.232518476e-09
2.219996925e-09
2.208254795e-09
2.198717485e-09
2.193075982e-09
2.250026761e-09
2.243939664e-09
2.235220668e-09
2.224465685e-09
2.21241508e-09
2.199990481e-09
2.188337813e-09
2.178871496e-09
2.173270166e-09
2.229566869e-09
2.223517076e-09
2.214850586e-09
2.204158914e-09
2.19217741e-09
2.179822044e-09
2.168232245e-09
2.158814826e-09
2.153240239e-09
2.208944024e-09
2.202915241e-09
2.19427747e-09
2.183619042e-09
2.171671995e-09
2.159349084e-09
2.147786646e-09
2.138388443e-09
2.132822476e-09
2.188026292e-09
2.181997599e-09
2.173357954e-09
2.162693991e-09
2.150736565e-09
2.138398306e-09
2.126816856e-09
2.117398927e-09
2.111817724e-09
2.166655485e-09
2.160600495e-09
2.15192033e-09
2.141201751e-09
2.129177047e-09
2.116762587e-09
2.105102888e-09
2.095615317e-09
2.089988236e-09
2.144644765e-09
2.138530784e-09
2.129762178e-09
2.11892804e-09
2.106765288e-09
2.094198767e-09
2.082386795e-09
2.072767062e-09
2.067055673e-09
2.121776906e-09
2.115564173e-09
2.106648815e-09
2.095624914e-09
2.083237856e-09
2.070426699e-09
2.05837197e-09
2.048543547e-09
2.04270079e-09
2.09780353e-09
2.091444603e-09
2.082312916e-09
2.071010692e-09
2.058296343e-09
2.045129962e-09
2.032724331e-09
2.022595696e-09
2.01656531e-09
2.072445616e-09
2.065884996e-09
2.056455615e-09
2.044771538e-09
2.031609545e-09
2.017958728e-09
2.005075849e-09
1.994540138e-09
1.988256517e-09
2.045395623e-09
2.038569717e-09
2.028749472e-09
2.016565102e-09
2.002817909e-09
1.988535122e-09
1.975030898e-09
1.963966396e-09
1.957355013e-09
2.016321543e-09
2.009159057e-09
1.998843619e-09
1.986026526e-09
1.971540595e-09
1.956461474e-09
1.942175701e-09
1.93044745e-09
1.923426e-09
1.984873131e-09
1.977296009e-09
1.966371342e-09
1.952777086e-09
1.93738539e-09
1.921331653e-09
1.906091145e-09
1.893553852e-09
1.886034267e-09
1.95069054e-09
1.942615526e-09
1.930960273e-09
1.916435609e-09
1.899961587e-09
1.882745576e-09
1.86636894e-09
1.852871377e-09
1.844762818e-09
1.913415422e-09
1.904756321e-09
1.892245223e-09
1.876632639e-09