/*--------------------------------*- C++ -*----------------------------------*\
| =========                 |                                                 |
| \\      /  F ield         | OpenFOAM: The Open Source CFD Toolbox           |
|  \\    /   O peration     | Version:  2212                                  |
|   \\  /    A nd           | Website:  www.openfoam.com                      |
|    \\/     M anipulation  |                                                 |
\*---------------------------------------------------------------------------*/
FoamFile
{
    version     2.0;
    format      ascii;
    arch        "LSB;label=32;scalar=64";
    class       volScalarField;
    location    "20.00000000";
    object      T;
}
// * * * * * * * * * * * * * * * * * * * * * * * * * * * * * * * * * * * * * //

dimensions      [0 0 0 1 0 0 0];

internalField   nonuniform List<scalar> 
3000
(
300.9397983
300.9282739
300.9081533
300.8748215
300.818802
300.7199212
300.5325519
300.1452757
299.2493456
300.8006525
300.7650193
300.7049168
300.6109043
300.4665883
300.2444109
299.8989386
299.3593105
298.5371579
300.6330962
300.5739537
300.4776028
300.3344863
300.1300873
299.8445878
299.454637
298.9414574
298.3180598
300.4536661
300.3759565
300.2531396
300.078424
299.842804
299.5370922
299.1563611
298.7083919
298.2268535
300.2731527
300.1827346
300.0433224
299.8518181
299.6050531
299.3024657
298.9501173
298.5651981
298.1776325
300.0978505
300.0000583
299.8522205
299.654763
299.4093411
299.1211991
298.8016571
298.4691361
298.15
299.9307867
299.8298589
299.6796788
299.4835831
299.2467492
298.9778421
298.6900021
298.3999306
298.15
299.7733827
299.6725019
299.5242999
299.3342913
299.1099725
298.8617163
298.6027055
298.3472546
298.15
299.6261648
299.5276004
299.3843
299.203265
298.9933483
298.765526
298.5322198
298.3054944
298.15
299.4892261
299.3945267
299.258006
299.0875678
298.892711
298.6843521
298.473859
298.2713977
298.15
299.3624181
299.2725784
299.1439516
298.9848849
298.8050294
298.6148716
298.424672
298.2430465
298.15
299.2454691
299.161075
299.0409179
298.8934477
298.7281416
298.5548648
298.3828178
298.2193509
298.15
299.1380556
299.0594042
298.9479323
298.8119526
298.6605644
298.5029253
298.347254
298.1998437
298.15
299.0398667
298.967067
298.8642793
298.7395197
298.6013911
298.4583155
298.3176054
298.184633
298.15
298.9506698
298.8837301
298.7895305
298.6756943
298.550268
298.4209397
298.2941727
298.1744858
298.15
298.8703887
298.8092961
298.7236046
298.6204974
298.5074442
298.3914149
298.278053
298.1710236
298.15
298.7991987
298.7439985
298.6668637
298.5745288
298.473896
298.3712361
298.2713703
298.177036
298.15
298.7376476
298.6885281
298.6202522
298.5391291
298.4515269
298.3630357
298.277615
298.196918
298.15
298.6868072
298.6441987
298.5854847
298.5166046
298.4434469
298.3709387
298.3020963
298.2372362
298.1735653
298.6484639
298.6131563
298.565289
298.5105185
298.4543338
298.4010141
298.3525049
298.3074197
298.2604542
298.6253521
298.5986393
298.5637068
298.5260521
298.4908723
298.4618146
298.4395732
298.4205591
298.396023
298.6214368
298.6052907
298.5864539
298.5704299
298.5622654
298.5649917
298.5778101
298.5942739
298.6009698
298.6422452
298.6395233
298.6413365
298.6534056
298.6808044
298.7259637
298.7862776
298.851605
298.9023242
298.6952472
298.7099346
298.738717
298.7877914
298.8624741
298.9646023
299.0893583
299.2218609
299.3343726
298.7902807
298.8277648
298.8920172
298.9900178
299.1275698
299.3058998
299.5174593
299.7413407
299.9393898
298.9400134
299.0073861
299.1182453
299.2806971
299.5012897
299.7805708
300.1075907
300.4538523
300.7680711
299.1604311
299.2668108
299.4385248
299.6851663
300.0142683
300.4255377
300.9037522
301.4109446
301.8795677
299.4713374
299.6281998
299.8786053
300.2339784
300.7030117
301.284253
301.9570709
302.6717869
303.3410505
299.8968498
300.1183524
300.4693286
300.963312
301.6101948
302.4068099
303.3256371
304.3026422
305.2267568
300.4658708
300.7691535
301.2470224
301.9152625
302.7847803
303.8497986
305.073998
306.375906
307.6165151
301.2125134
301.6179531
302.2537915
303.1379805
304.2819188
305.6758675
307.2722786
308.9687067
310.5937805
302.1764558
302.7078488
303.5376698
304.6856161
306.1625893
307.9529568
309.9949183
312.1610898
314.2432586
303.4031939
304.0878371
305.1525967
306.6180294
308.4929413
310.7531782
313.3190258
316.0338356
318.6482251
304.9441606
305.8127954
307.1581744
309.0002223
311.3433046
314.1513297
317.3223792
320.6659909
323.8876797
306.8566692
307.943252
309.6191616
311.9014541
314.7868421
318.2230527
322.0811252
326.1322193
330.0334895
309.2036396
310.5448988
312.6046618
315.3940091
318.8978437
323.0426689
327.6672637
332.5001032
337.1476818
312.0530555
313.6877999
316.1869701
319.5516041
323.7496834
328.6807688
334.1460379
339.8275474
345.2800414
315.4771056
317.4452577
320.4400591
324.4474501
329.4125035
335.2016664
341.5733791
348.1604428
354.4661465
319.5509636
321.8923086
325.4377081
330.1520184
335.9507279
342.6608655
349.9935741
357.5307394
364.7259459
324.3511739
327.1038435
331.2513131
336.7306017
343.4205452
351.1027094
359.4373189
367.9550541
376.0629435
329.9536359
333.1523795
337.9474535
344.2407979
351.8675303
360.5583872
369.9202995
379.4338946
388.4640074
336.4312097
340.1055482
345.5853304
352.7300758
361.3245741
371.0444457
381.4423962
391.9515302
401.899783
343.8510141
348.023408
354.2142247
362.2335891
371.8102794
382.5619126
393.9875481
405.4764869
416.3256482
352.2715376
356.95573
363.8711412
372.7723987
383.3279334
395.0960742
407.524253
419.9625955
431.6831241
361.7397318
366.9394361
374.5788101
384.3522294
395.8651154
408.6168899
422.0066265
435.3504892
447.9016346
372.2883004
377.9963831
386.3441938
396.9628409
409.3939357
423.0799671
437.3759045
451.5694264
464.9005056
383.9334113
390.1316785
399.1576136
410.5780369
423.8718485
438.4279868
453.5622577
468.5393123
482.5910951
396.6730517
403.3326786
412.9925583
425.1562855
439.2429403
454.5924467
470.4867854
486.1728018
500.8789547
410.4862058
417.5687742
427.8061902
440.6418861
455.4395865
471.4956037
488.0635838
504.3774202
519.665942
425.3329676
432.7920085
443.540515
456.9665908
472.3843478
489.0524796
506.2017521
523.0575283
538.8522163
441.155633
448.9385302
460.1241748
474.0516032
489.9920143
507.1728432
524.8072893
542.1161458
558.3380506
457.8807349
465.9308853
477.4748702
491.8099237
508.1717078
525.7630074
543.7846977
561.4564881
578.0254147
475.4202425
483.678774
495.4998665
510.1470778
526.8282824
544.7280295
563.0395001
580.9843572
597.8196848
493.6738189
502.0817635
514.0992931
528.9645061
545.8650422
563.9732865
582.4790277
600.6086021
617.6305767
512.5333164
521.0333606
533.1692424
548.1616192
565.185103
583.4056038
602.0134903
620.2422114
637.3730741
531.8859315
540.4237694
552.6041162
567.6377627
584.6930234
602.9345955
621.5570717
639.8032199
656.9681896
551.61718
560.142496
572.2988123
587.2940027
604.296236
622.4737973
641.0288227
659.2154009
676.3434993
571.6135707
580.0806886
592.1506718
607.0346877
623.906267
641.9415971
660.3533559
678.4087658
695.4334835
591.7648997
600.1331423
612.061139
626.7687631
643.4397377
661.2619701
679.4613591
697.3198946
714.1797009
611.9661282
620.1999406
631.9371122
646.4108264
662.8191471
680.3650227
698.2899348
715.8920995
732.5308064
632.1188403
640.1877268
651.6919859
665.8819292
681.9734473
699.1873639
716.7827936
734.0754635
750.4424469
652.1322999
660.0106248
671.2463967
685.1101373
700.8384211
717.6723145
734.8903104
751.8267582
767.8770515
671.9241447
679.590838
690.5286993
704.0308688
719.3568808
735.7699709
752.5694607
769.1092608
784.8035374
691.4207627
698.8589668
709.475202
722.5870353
737.4787076
753.4371412
769.7836558
785.8924911
801.1969513
710.5574016
717.7540864
728.0301988
740.7290142
755.1607553
770.6371746
786.5024938
802.1518841
817.0380629
729.2780619
736.2236288
746.1458312
758.4144798
772.3666403
787.3397007
802.7014439
817.868414
832.3129278
747.5352185
754.2231099
763.7818143
775.608121
789.0664397
803.5203004
818.3614801
833.0281864
847.0124314
765.2894139
771.7157367
780.9050598
792.2812718
805.2363214
819.1601236
833.4686796
847.6220087
861.1318276
782.508758
788.6719305
797.4892226
808.4114787
820.8581233
834.2454722
848.013799
861.6449525
874.67028
799.1683683
805.0687919
813.5141973
823.982026
835.918901
848.7673607
861.9918401
875.0959161
887.6304147
815.2497735
820.8895343
828.9655855
838.9814369
850.4104583
862.7210687
875.4016151
887.9771955
900.0178903
830.7403048
836.1229025
843.8341511
853.4029665
864.328873
876.1056938
888.2453203
900.2940705
911.8409893
845.6324887
850.7625948
858.1152779
867.2440971
877.6740289
888.9237145
900.5281224
912.0544092
923.1102349
859.9234559
864.8066987
871.8084409
880.5060475
890.4491618
901.1805688
912.2577656
923.2682961
933.8380355
873.6143746
878.2571492
884.9166976
893.1933019
902.6604247
912.884254
923.4442
933.9476855
944.0383564
886.7099153
891.1192177
897.446208
905.3131645
914.3164787
924.0449503
934.0992358
944.1060811
953.7264212
899.2177508
903.4010329
909.4057853
916.875343
925.4281102
934.6746715
944.2362239
953.7582432
962.9184414
911.1480949
915.1131395
920.8064796
927.8915637
936.0078781
944.7869433
953.8697631
962.9199223
971.6313737
922.513281
926.2680936
931.6611988
938.3752194
946.0697907
954.3965092
963.015434
971.6076181
979.8827028
933.3273798
936.880097
941.9843633
948.3410501
955.6290145
963.5190655
971.6895571
979.8383598
987.6902446
943.6058581
946.9646695
951.7915992
957.8048596
964.7016148
972.171026
979.9089762
987.6294957
995.0719399
953.3652745
956.5383582
961.0994655
966.7832663
973.3043342
980.3693292
987.6908876
994.998496
1002.046259
962.6230111
965.6184803
969.9252142
975.2934851
981.454405
988.1313042
995.0528308
1001.964248
1008.630423
971.3970375
974.2228961
978.2865738
983.3531205
989.1693416
995.4744263
1002.013329
1008.542566
1014.842623
979.705705
982.3698104
986.2015622
990.9799941
996.4667874
1002.41732
1008.587922
1014.75167
1020.700248
987.567569
990.0776026
993.6883272
998.1919978
1003.365596
1008.975374
1014.794773
1020.608645
1026.220368
995.0012375
997.364681
1000.766256
1005.008282
1009.881101
1015.166811
1020.650822
1026.130257
1031.419646
1002.026559
1004.250717
1007.451064
1011.444148
1016.031664
1021.008551
1026.172693
1031.332887
1036.314281
1008.65946
1010.751354
1013.761685
1017.518121
1021.834258
1026.517189
1031.376633
1036.232478
1040.919966
1014.919181
1016.885578
1019.715546
1023.247246
1027.305513
1031.708939
1036.278463
1040.844494
1045.251865
1020.823373
1022.670797
1025.329718
1028.648189
1032.461657
1036.599586
1040.893535
1045.18389
1049.324586
1026.38929
1028.124016
1030.620857
1033.737191
1037.318474
1041.204442
1045.236703
1049.265093
1053.152174
1031.633733
1033.261784
1035.60516
1038.530021
1041.891264
1045.538321
1049.322299
1053.101981
1056.748098
1036.573007
1038.100153
1040.298322
1043.041945
1046.194815
1049.615513
1053.164119
1056.707878
1060.125253
1041.222887
1042.654647
1044.715513
1047.287701
1050.243383
1053.449769
1056.775411
1060.09555
1063.295959
1045.598596
1046.940239
1048.871354
1051.28148
1054.050679
1057.054295
1060.168873
1063.277204
1066.271972
1049.714785
1050.971336
1052.779904
1055.036916
1057.629861
1060.441743
1063.356648
1066.264493
1069.064486
1053.585524
1054.761768
1056.45465
1058.567079
1060.993527
1063.624216
1066.350334
1069.068524
1071.68415
1057.224297
1058.324782
1059.908509
1061.884474
1064.153723
1066.613265
1069.160986
1071.699867
1074.141079
1060.644
1061.673048
1063.153824
1065.001046
1067.121939
1069.419904
1071.79913
1074.16857
1076.444874
1063.856945
1064.818656
1066.20237
1067.928184
1069.909127
1072.054614
1074.274768
1076.48417
1078.604629
1066.874867
1067.773128
1069.065366
1070.676729
1072.525704
1074.527358
1076.597401
1078.655712
1080.628959
1069.708937
1070.547429
1071.753483
1073.256991
1074.981567
1076.847594
1078.776036
1080.691761
1082.526012
1072.36977
1073.151977
1074.276858
1075.678758
1077.28611
1079.024292
1080.81921
1082.600426
1084.303489
1074.867443
1075.596662
1076.64511
1077.951316
1079.448237
1081.065946
1082.734999
1084.389371
1085.968665
1077.211513
1077.890857
1078.867354
1080.083459
1081.476379
1082.980599
1084.531042
1086.065838
1087.528401
1079.411031
1080.043442
1080.952223
1082.083515
1083.378515
1084.775852
1086.214557
1087.636665
1088.989173
1081.474561
1082.062819
1082.907884
1083.959358
1085.162185
1086.458889
1087.792359
1089.108301
1090.357082
1083.410203
1083.956928
1084.742054
1085.718428
1086.834514
1088.036492
1089.270878
1090.486827
1091.637874
1085.225609
1085.733276
1086.462024
1087.367753
1088.402227
1089.51506
1090.656176
1091.777973
1092.836961
1086.928003
1087.398943
1088.074677
1088.913963
1089.871666
1090.900626
1091.953969
1092.987136
1093.959434
1088.524201
1088.960615
1089.586503
1090.363311
1091.248813
1092.198878
1093.169637
1094.119395
1095.010083
1090.020631
1090.424592
1091.003623
1091.721692
1092.539304
1093.415172
1094.30825
1095.17953
1095.993411
1091.423352
1091.796812
1092.331805
1092.994659
1093.748447
1094.55455
1095.374574
1096.172035
1096.913648
1092.738071
1093.082872
1093.576479
1094.187441
1094.881239
1095.621759
1096.373096
1097.101137
1097.774771
1093.970163
1094.288038
1094.74276
1095.304963
1095.942384
1096.621263
1097.308033
1097.970807
1098.580513
1095.124688
1095.417269
1095.835462
1096.351855
1096.936306
1097.557262
1098.183352
1098.784776
1099.334379
1096.206405
1096.475231
1096.859113
1097.332475
1097.867165
1098.433704
1099.002777
1099.546549
1100.039661
1097.219795
1097.466311
1097.817973
1098.250922
1098.738875
1099.254297
1099.76981
1100.259416
1100.699444
1098.169068
1098.394639
1098.716046
1099.111047
1099.555111
1100.02253
1100.487738
1100.926466
1101.316625
1099.058186
1099.264093
1099.557097
1099.916471
1100.319329
1100.741675
1101.159648
1101.550598
1101.893921
1099.890869
1100.07832
1100.344664
1100.670597
1101.034774
1101.414809
1101.788438
1102.134532
1102.433878
1100.670618
1100.840748
1101.082072
1101.37662
1101.704495
1102.044819
1102.376827
1102.680819
1102.938885
1101.400719
1101.554597
1101.772445
1102.037544
1102.331355
1102.634416
1102.927369
1103.191852
1103.411179
1102.084261
1102.222892
1102.418716
1102.656187
1102.918041
1103.186145
1103.442458
1103.669875
1103.852857
1102.724143
1102.848474
1103.023639
1103.235197
1103.467078
1103.702392
1103.924341
1104.116992
1104.265886
1103.323091
1103.43401
1103.589803
1103.77706
1103.980832
1104.185399
1104.375123
1104.535176
1104.652105
1103.883661
1103.982006
1104.119635
1104.284107
1104.461526
1104.637268
1104.796781
1104.926275
1105.013241
1104.408257
1104.494814
1104.615416
1104.75853
1104.911246
1105.059968
1105.191167
1105.292021
1105.350908
1104.899132
1104.974641
1105.079284
1105.202382
1105.331948
1105.455351
1105.560018
1105.634038
1105.666619
1105.358403
1105.423559
1105.513248
1105.61759
1105.725466
1105.825149
1105.904962
1105.953848
1105.961789
1105.788056
1105.843513
1105.919193
1106.005965
1106.093523
1106.170988
1106.227524
1106.252873
1106.237747
1106.189956
1106.236327
1106.298886
1106.369202
1106.437733
1106.494393
1106.529136
1106.532451
1106.495732
1106.565849
1106.603713
1106.653985
1106.708893
1106.759609
1106.796792
1106.811136
1106.79383
1106.736907
1106.917379
1106.947277
1106.986046
1107.02653
1107.060571
1107.079526
1107.07478
1107.038181
1106.962361
1107.246084
1107.268526
1107.296528
1107.323513
1107.341949
1107.343848
1107.321244
1107.266601
1107.173109
1107.553408
1107.568873
1107.586799
1107.601153
1107.604991
1107.590936
1107.551631
1107.480116
1107.370107
1107.840705
1107.849642
1107.858143
1107.860682
1107.850866
1107.821891
1107.766972
1107.679688
1107.554244
1108.109246
1108.112077
1108.111763
1108.103252
1108.080669
1108.037748
1107.968235
1107.866215
1107.726355
1108.360221
1108.357342
1108.348786
1108.329945
1108.295428
1108.239472
1108.156324
1108.040542
1107.887221
1108.594746
1108.586531
1108.570269
1108.541774
1108.496105
1108.427971
1108.332088
1108.203455
1108.037572
1108.81387
1108.800666
1108.777205
1108.739689
1108.683601
1108.604094
1108.49632
1108.355693
1108.17809
1109.018574
1109.000709
1108.970521
1108.924579
1108.858762
1108.768636
1108.649763
1108.497948
1108.309415
1109.209776
1109.187558
1109.151089
1109.097278
1109.022378
1108.922342
1108.793115
1108.630864
1108.432145
1109.38834
1109.362058
1109.319724
1109.258568
1109.175192
1109.065909
1108.927025
1108.755047
1108.546838
1109.555074
1109.524998
1109.47719
1109.409181
1109.317896
1109.199991
1109.052105
1108.871063
1108.654018
1109.710735
1109.677118
1109.624204
1109.549801
1109.451143
1109.325199
1109.168924
1108.979442
1108.754173
1109.856032
1109.819113
1109.761436
1109.681072
1109.575539
1109.442106
1109.278018
1109.080679
1108.847762
1109.991631
1109.951632
1109.889515
1109.803595
1109.691657
1109.551247
1109.379887
1109.175239
1108.935211
1110.118153
1110.075285
1110.009029
1109.917933
1109.80003
1109.653125
1109.474997
1109.263553
1109.016921
1110.236183
1110.190641
1110.120531
1110.024614
1109.901157
1109.748209
1109.563789
1109.346029
1109.093265
1110.346266
1110.298234
1110.224535
1110.124132
1109.995508
1109.836939
1109.64667
1109.423047
1109.164595
1110.448916
1110.398566
1110.321527
1110.216949
1110.083519
1109.919726
1109.724025
1109.49496
1109.231235
1110.54461
1110.492103
1110.411958
1110.303498
1110.165602
1109.996956
1109.796213
1109.562101
1109.293494
1110.633798
1110.579286
1110.496252
1110.384184
1110.24214
1110.068989
1109.863569
1109.624781
1109.351656
1110.716899
1110.660524
1110.574807
1110.459388
1110.313492
1110.136163
1109.926408
1109.683291
1109.405988
1110.794309
1110.736202
1110.647993
1110.529464
1110.379995
1110.198792
1109.985023
1109.737902
1109.456742
1110.866394
1110.806681
1110.716159
1110.594745
1110.441964
1110.257173
1110.039688
1109.788867
1109.50415
1110.933501
1110.872296
1110.77963
1110.655542
1110.499693
1110.311581
1110.090663
1109.836426
1109.548431
1110.99595
1110.933364
1110.83871
1110.712146
1110.553457
1110.362275
1110.138185
1109.8808
1109.589789
1111.054046
1110.99018
1110.893686
1110.76483
1110.603516
1110.409497
1110.182482
1109.922196
1109.628415
1111.108071
1111.04302
1110.944824
1110.813849
1110.650109
1110.453473
1110.223762
1109.96081
1109.664488
1111.158289
1111.092142
1110.992373
1110.85944
1110.693462
1110.494414
1110.262223
1109.996823
1109.698175
1111.204948
1111.137789
1111.036567
1110.901829
1110.733788
1110.532519
1110.298049
1110.030405
1109.729631
1111.248279
1111.180187
1111.077625
1110.941223
1110.771282
1110.567973
1110.331413
1110.061715
1109.759002
1111.288501
1111.219548
1111.115752
1110.977817
1110.806131
1110.600948
1110.362474
1110.090901
1109.786426
1111.325815
1111.25607
1111.151138
1111.011796
1110.838507
1110.631608
1110.391383
1110.118102
1109.812028
1111.360412
1111.289938
1111.183962
1111.043328
1110.868571
1110.660102
1110.418281
1110.143448
1109.835929
1111.392468
1111.321325
1111.214393
1111.072575
1110.896475
1110.686573
1110.4433
1110.16706
1109.858239
1111.42215
1111.350394
1111.242585
1111.099685
1110.922358
1110.711153
1110.466562
1110.189052
1109.879063
1111.449611
1111.377295
1111.268685
1111.124797
1110.946354
1110.733965
1110.488182
1110.209529
1109.898498
1111.474996
1111.402168
1111.292828
1111.148041
1110.968585
1110.755123
1110.508267
1110.228591
1109.916634
1111.498438
1111.425144
1111.315141
1111.169537
1110.989163
1110.774735
1110.526915
1110.246328
1109.933557
1111.520061
1111.446344
1111.335738
1111.189396
1111.008194
1110.792898
1110.544219
1110.262825
1109.949343
1111.539976
1111.465875
1111.354725
1111.207718
1111.025773
1110.809702
1110.56026
1110.278161
1109.964066
1111.558284
1111.483838
1111.372197
1111.224593
1111.041984
1110.825226
1110.575115
1110.292404
1109.977791
1111.575071
1111.500314
1111.388235
1111.240097
1111.0569
1110.839537
1110.588846
1110.305616
1109.990576
1111.590409
1111.515374
1111.402903
1111.254293
1111.070577
1110.85269
1110.601504
1110.317843
1110.002467
1111.604347
1111.529064
1111.416245
1111.267219
1111.083053
1110.864716
1110.613118
1110.329115
1110.013497
1111.616907
1111.541403
1111.428278
1111.278887
1111.094333
1110.87562
1110.623693
1110.339439
1110.023676
1111.628072
1111.552373
1111.438976
1111.289269
1111.104387
1110.885368
1110.633192
1110.348781
1110.03298
1111.637779
1111.561903
1111.448266
1111.298283
1111.113124
1110.893865
1110.641523
1110.357054
1110.041334
1111.64589
1111.569852
1111.455997
1111.30577
1111.120378
1110.900938
1110.648509
1110.364087
1110.048582
1111.652177
1111.575982
1111.461918
1111.311465
1111.125871
1110.906299
1110.653856
1110.369591
1110.054455
1111.656282
1111.579923
1111.465642
1111.314961
1111.129173
1110.909498
1110.657106
1110.373107
1110.058512
1111.65768
1111.58113
1111.4666
1111.315655
1111.129649
1110.90987
1110.657569
1110.37394
1110.060077
1111.655623
1111.57883
1111.463979
1111.312691
1111.126392
1110.90646
1110.654251
1110.371073
1110.058138
1111.649075
1111.571952
1111.456656
1111.304879
1111.118139
1110.897931
1110.645749
1110.363061
1110.051242
1111.636639
1111.559045
1111.443107
1111.290604
1111.103172
1110.882458
1110.630139
1110.3479
1110.03735
1111.616458
1111.538187
1111.42131
1111.267719
1111.0792
1110.857595
1110.60483
1110.322878
1110.013672
1111.586115
1111.50687
1111.388627
1111.233419
1111.043225
1110.82014
1110.56641
1110.284399
1109.976482
1111.542514
1111.461883
1111.341677
1111.184109
1110.991397
1110.765963
1110.510472
1110.227796
1109.920906
1111.481752
1111.399177
1111.276198
1111.115248
1110.918854
1110.689846
1110.431424
1110.147126
1109.840704
1111.39898
1111.313725
1111.186897
1111.021206
1110.819557
1110.585298
1110.322303
1110.034962
1109.728042
1111.288268
1111.199378
1111.067305
1110.895096
1110.686126
1110.444383
1110.174585
1109.882195
1109.573273
1111.142464
1111.048728
1110.909629
1110.728632
1110.509683
1110.257555
1109.978009
1109.677839
1109.364733
1110.953062
1110.852967
1110.704618
1110.511986
1110.279709
1110.01351
1109.720424
1109.408879
1109.088573
1110.710088
1110.601779
1110.441449
1110.233675
1109.983927
1109.699069
1109.38767
1109.060139
1108.728628
1110.402
1110.283239
1110.107628
1109.880468
1109.608215
1109.299096
1108.963504
1108.614221
1108.266347
1110.015623
1109.883752
1109.688936
1109.437334
1109.136568
1108.796464
1108.429573
1108.051481
1107.680791
1109.536113
1109.388023
1109.169407
1108.887438
1108.551096
1108.17208
1107.765457
1107.350093
1106.948701
1108.946969
1108.779072
1108.531356
1108.212175
1107.832089
1107.40496
1106.948767
1106.486171
1106.044654
1108.230076
1108.038296
1107.755452
1107.39127
1106.958128
1106.472373
1105.95532
1105.433975
1104.941291
1107.365814
1107.145579
1106.820848
1106.402924
1105.906267
1105.35005
1104.759375
1104.166182
1103.609629
1106.333206
1106.079457
1105.705359
1105.224019
1104.652258
1104.012443
1103.33394
1102.654231
1102.019449
1105.110112
1104.817329
1104.385696
1103.830374
1103.170845
1102.433055
1101.65113
1100.868727
1100.139741
1103.673483
1103.335711
1102.837742
1102.197051
1101.436097
1100.584808
1099.682581
1098.779893
1097.9392
1101.999638
1101.610543
1101.036873
1100.298695
1099.421778
1098.440447
1097.399892
1096.358058
1095.386764
1100.064592
1099.617519
1098.958308
1098.109912
1097.101755
1095.972982
1094.7751
1093.574169
1092.452159
1097.844403
1097.332445
1096.577484
1095.605666
1094.450418
1093.156132
1091.781158
1090.400304
1089.106462
1095.315532
1094.731612
1093.870447
1092.76168
1091.443103
1089.96478
1088.392414
1086.810183
1085.322633
1092.455224
1091.792183
1090.814236
1089.554845
1088.056515
1086.375407
1084.585073
1082.779645
1081.076027
1089.241869
1088.492558
1087.387274
1085.963606
1084.269131
1082.366509
1080.337617
1078.287097
1076.344857
1085.655364
1084.812742
1083.569722
1081.968335
1080.061569
1077.918974
1075.631199
1073.313907
1071.110602
1081.677448
1080.734673
1079.34382
1077.551662
1075.416926
1073.016421
1070.449976
1067.844743
1065.358344
1077.292006
1076.242534
1074.694191
1072.698779
1070.321075
1067.645484
1064.78139
1061.86784
1059.077039
1072.485343
1071.323015
1069.608097
1067.397691
1064.762906
1061.79605
1058.616389
1055.375216
1052.259703
1067.246406
1065.96554
1064.075663
1061.639428
1058.734531
1055.461448
1051.949601
1048.362814
1044.903536
1061.566972
1060.16244
1058.090044
1055.41821
1052.231443
1048.638605
1044.779477
1040.830617
1037.009972
1055.441762
1053.909071
1051.647537
1048.731556
1045.252633
1041.328176
1037.108444
1032.782792
1028.584726
1048.868494
1047.203848
1044.747602
1041.580304
1037.800627
1033.534658
1028.943161
1024.228115
1019.638113
1041.847847
1040.048192
1037.392767
1033.968457
1029.881302
1025.266277
1020.294815
1015.181311
1010.187563
1034.383363
1032.446371
1029.588379
1025.902767
1021.503163
1016.533837
1011.177884
1005.664911
1000.27809
1026.481343
1024.405376
1021.342398
1017.39231
1012.676254
1007.347469
1001.599656
995.6127601
989.80399
1018.150819
1015.934951
1012.665595
1008.449167
1003.414223
997.6617746
991.5152458
985.1700947
978.9370451
1009.403512
1007.047573
1003.571567
999.0279641
993.6712944
987.6136782
981.0695972
974.3055538
967.6471064
1000.253709
997.6972913
994.0139305
989.2630423
983.5878949
977.1678668
970.2277124
963.0461608
955.963322
990.6539586
988.0191721
984.1317861
979.1175671
973.1270485
966.3481363
959.0156704
951.4203152
943.9162908
980.7463074
977.9752599
973.8869173
968.6133708
962.3123061
955.1799904
947.4610931
939.457845
931.5380749
970.491225
967.5866853
963.3014943
957.7739643
951.1687848
943.6903708
935.5929152
927.189797
918.8619087
959.9107545
956.8761456
952.3991822
946.6242598
939.7228893
931.907383
923.4411122
914.6481467
905.9218589
949.0282967
945.8676453
941.2048757
935.1902994
928.002038
919.8600182
911.0364126
901.8654904
892.7524846
937.8683566
934.5862379
929.7444375
923.4989909
916.0343937
907.5778772
898.4100106
888.8747424
879.3885134
926.4562924
923.0577744
918.0444454
911.5778512
903.8486025
895.090903
885.59329
875.7088455
865.8645377
914.8180748
911.3086608
906.131948
899.4547602
891.473545
882.4291271
872.6175633
862.4005027
852.2147363
902.9800569
899.3656281
894.0342342
887.1577283
878.9381016
869.6224319
859.5138311
848.9819314
838.4726229
890.9687557
887.2555138
881.7786145
874.7146788
866.2709347
856.7003326
846.3125621
835.4846416
824.670822
878.8106482
875.0050589
869.3922199
862.1532475
853.5002898
843.6917793
833.0434967
821.9392406
810.840874
866.5319828
862.6407206
856.9018159
849.5005996
840.6538152
830.6249803
819.7354737
808.3752628
797.0130683
854.1586065
850.1885015
844.333635
836.7832657
827.7584029
817.5272473
806.4162807
794.8210256
783.2163044
841.7158092
837.6737965
831.7132272
824.026997
814.8400483
804.4248621
793.1125275
781.3035102
769.4779791
829.2281854
825.1212572
819.0653283
811.2566391
801.9237313
791.3429644
779.849542
767.8482641
755.8238973
816.7195131
812.554674
806.4137469
798.4960246
789.0333161
778.30546
766.651285
754.4793262
742.2782105
804.2126499
799.9968755
793.7812689
785.7678845
776.1914694
765.3349453
753.5402874
741.2191767
728.8633733
791.7294464
787.4696455
781.1895793
773.093776
763.4195945
752.4526545
740.5376075
728.0887027
715.6001218
779.2906749
774.9936551
768.6591984
760.494024
750.7377859
739.6784228
727.6628034
715.1071825
702.5074686
766.9159713
762.5884071
756.2094339
747.9876852
738.1647991
727.0306645
714.9339218
702.2922847
689.6027142
754.6237946
750.2722023
743.8583521
735.5925221
725.7180325
714.5263651
702.3675
689.6600821
676.9014719
742.4314013
738.0621151
731.6227579
723.3249908
713.4135235
702.1810858
689.9785814
677.2250775
664.4177057
730.3548296
725.9739812
719.5181876
711.20024
701.2659558
690.00898
677.780741
665.0002407
652.1637778
718.4088947
714.0223963
707.5589128
699.2321215
689.2886762
678.0228193
665.7861222
652.9970547
640.1505045
706.6071949
702.220726
695.7579542
687.4332091
677.493722
666.234029
654.0054803
641.2255688
628.3872196
694.9621269
690.5811225
684.1271029
675.8148269
665.8918558
654.6527301
642.4482328
629.6944577
616.8818426
683.4849075
679.114551
672.6769515
664.3870846
654.4926064
643.2877874
631.1225154
618.4110853
605.6409509
672.1856054
667.8308223
661.4169299
653.1589183
643.3043155
632.1468623
620.0352419
607.3815728
594.6698557
661.0731766
656.7386316
650.3553471
642.1381363
632.3341886
621.23647
609.1921675
596.6108683
583.9726786
650.1555054
645.8456008
639.4994368
631.3314689
621.5883492
610.5620386
598.5979541
586.1028187
573.5524297
639.4394488
635.158325
628.8554061
620.7446203
611.0718953
600.1279708
588.2562371
575.8602415
563.4110857
628.9308842
624.6824215
618.4284878
610.3823239
600.788958
589.937706
578.1696922
565.8849972
553.5496668
618.6347587
614.4225814
608.222993
600.2483977
590.7427603
579.9937837
568.3401023
556.1780604
543.9683123
608.5551414
604.3826215
598.2423657
590.3458015
580.935677
570.2979055
558.7684241
546.7395894
534.666355
598.6952746
594.5655383
588.4892377
580.6766931
571.3692932
560.8509976
549.4548524
537.5689948
525.6423921
589.0576269
584.9735608
578.965483
571.2424851
562.0444633
551.6532705
540.3988831
528.6650049
516.8943544
579.6439452
575.6082037
569.6722718
562.0438999
552.9613673
542.7042787
531.5993749
520.0257292
508.4195721
570.4553063
566.4703193
560.6101237
553.0810235
544.1195665
534.0029769
523.0546072
511.648719
500.2148376
561.4921664
557.5601478
551.7789582
544.3533579
535.5180565
525.5477755
514.7623369
503.5310253
492.2764652
552.7544095
548.8773655
543.1781436
535.8598706
527.1553183
517.3365923
506.7198531
495.6692557
484.6003479
544.2413916
540.4211294
534.8065417
527.5990393
519.0293638
509.3668997
498.9240257
488.0596259
477.182011
535.9519812
532.1901162
526.6625466
519.5688914
511.1377774
501.6357658
491.3713503
480.6980143
470.0166662
527.8845952
524.1825534
518.7441102
511.7670311
503.4777559
494.1399352
484.0580421
473.5800114
463.0992485
520.0372715
516.3963192
511.0488811
504.1907993
496.0462412
486.875846
476.9799682
466.7009023
456.4244466
512.4077595
508.8290049
503.574203
496.8372085
488.8398402
479.8396421
470.132762
460.0557682
449.9867649
504.9934926
501.4778894