/*--------------------------------*- C++ -*----------------------------------*\
| =========                 |                                                 |
| \\      /  F ield         | OpenFOAM: The Open Source CFD Toolbox           |
|  \\    /   O peration     | Version:  2212                                  |
|   \\  /    A nd           | Website:  www.openfoam.com                      |
|    \\/     M anipulation  |                                                 |
\*---------------------------------------------------------------------------*/
FoamFile
{
    version     2.0;
    format      ascii;
    arch        "LSB;label=32;scalar=64";
    class       volScalarField;
    location    "20.00000000";
    object      A1C2H3_0;
}
// * * * * * * * * * * * * * * * * * * * * * * * * * * * * * * * * * * * * * //

dimensions      [0 0 0 0 0 0 0];

internalField   nonuniform List<scalar> 
3000
(
2.105375458e-25
2.365117857e-25
2.757067867e-25
3.279377118e-25
3.926737879e-25
4.681572169e-25
5.498405717e-25
6.277824918e-25
6.828977151e-25
7.90450731e-25
8.915506437e-25
1.044044507e-24
1.247707984e-24
1.502339599e-24
1.806528176e-24
2.154993639e-24
2.530144531e-24
2.862467591e-24
1.770565309e-24
2.012701037e-24
2.381412255e-24
2.882039775e-24
3.523587942e-24
4.315364468e-24
5.254253882e-24
6.287543256e-24
7.170660848e-24
3.37246862e-24
3.87383534e-24
4.648482278e-24
5.722622562e-24
7.134312921e-24
8.919426293e-24
1.106822352e-23
1.340868388e-23
1.529778228e-23
5.988648417e-24
6.963376878e-24
8.493109897e-24
1.065555679e-23
1.355243185e-23
1.726493221e-23
2.173104464e-23
2.647389931e-23
3.011471386e-23
1.029800271e-23
1.212747353e-23
1.5039804e-23
1.922086672e-23
2.48937074e-23
3.220108044e-23
4.092475139e-23
4.996460173e-23
5.665260803e-23
1.748256148e-23
2.084322234e-23
2.62554229e-23
3.411318416e-23
4.485412279e-23
5.869182556e-23
7.505400934e-23
9.16784668e-23
1.036741862e-22
2.958700899e-23
3.566926293e-23
4.555168821e-23
6.001078868e-23
7.985319219e-23
1.053647741e-22
1.352657546e-22
1.652038982e-22
1.864461316e-22
5.015439864e-23
6.104612756e-23
7.885759072e-23
1.050500333e-22
1.410584765e-22
1.872294508e-22
2.409549854e-22
2.94187799e-22
3.315415506e-22
8.532004986e-23
1.046709292e-22
1.364609367e-22
1.833609015e-22
2.478773483e-22
3.303854985e-22
4.258620043e-22
5.197691903e-22
5.851744543e-22
1.457151104e-22
1.79892781e-22
2.362193371e-22
3.194869337e-22
4.340356337e-22
5.802005405e-22
7.486414554e-22
9.134642938e-22
1.027685405e-21
2.497646993e-22
3.098621806e-22
4.091234007e-22
5.560469994e-22
7.581229123e-22
1.015510128e-21
1.311227061e-21
1.599550648e-21
1.798668101e-21
4.294136644e-22
5.347381569e-22
7.089623071e-22
9.670464922e-22
1.321905608e-21
1.773259579e-21
2.290679894e-21
2.793887563e-21
3.140589645e-21
7.400623879e-22
9.241963805e-22
1.229102901e-21
1.680991698e-21
2.302133462e-21
3.091302121e-21
3.994486827e-21
4.871294821e-21
5.474498886e-21
1.277813746e-21
1.599148061e-21
2.131635765e-21
2.921060995e-21
4.00585759e-21
5.382904439e-21
6.956909675e-21
8.483004099e-21
9.532121581e-21
2.209407043e-21
2.769441608e-21
3.697992515e-21
5.074947012e-21
6.966838284e-21
9.367132813e-21
1.2108443e-20
1.476377937e-20
1.658830687e-20
3.824162724e-21
4.799276953e-21
6.416737562e-21
8.815915794e-21
1.211253146e-20
1.629473861e-20
2.10703155e-20
2.569345611e-20
2.886289274e-20
6.624132272e-21
8.320674766e-21
1.113560827e-20
1.53115247e-20
2.10489069e-20
2.832502602e-20
3.662864089e-20
4.466143189e-20
5.016646158e-20
1.148068777e-20
1.443073792e-20
1.932645428e-20
2.658960305e-20
3.656733837e-20
4.921712418e-20
6.364694309e-20
7.760006292e-20
8.715994565e-20
1.990642116e-20
2.503411976e-20
3.354484634e-20
4.617150758e-20
6.351556542e-20
8.549933732e-20
1.105687795e-19
1.348020726e-19
1.514005711e-19
3.452723188e-20
4.343760869e-20
5.822791482e-20
8.017119192e-20
1.103097014e-19
1.485032289e-19
1.920464401e-19
2.341255519e-19
2.629415087e-19
5.990193035e-20
7.538240386e-20
1.010794644e-19
1.392032653e-19
1.915594186e-19
2.578958854e-19
3.335053541e-19
4.065534983e-19
4.565666243e-19
1.039449539e-19
1.308360012e-19
1.75474129e-19
2.416941344e-19
3.326219311e-19
4.478040743e-19
5.790516024e-19
7.058167513e-19
7.92585262e-19
1.803948889e-19
2.271009614e-19
3.046274712e-19
4.196233666e-19
5.774950273e-19
7.774234061e-19
1.005163085e-18
1.22504956e-18
1.375511029e-18
3.130962244e-19
3.942070374e-19
5.28827555e-19
7.284755814e-19
1.002488188e-18
1.349375322e-18
1.744352932e-18
2.125544278e-18
2.386277502e-18
5.434198462e-19
6.84254843e-19
9.179616652e-19
1.264468369e-18
1.739867012e-18
2.341419248e-18
3.025996661e-18
3.686303147e-18
4.137710412e-18
9.43107295e-19
1.187584893e-18
1.593182129e-18
2.194324522e-18
3.018669068e-18
4.061118917e-18
5.246596259e-18
6.389177451e-18
7.16972534e-18
1.636471447e-18
2.060715954e-18
2.764317196e-18
3.806623408e-18
5.23499282e-18
7.039802176e-18
9.090295005e-18
1.106460239e-17
1.241204529e-17
2.838692892e-18
3.574514185e-18
4.794310584e-18
6.600124654e-18
9.072658979e-18
1.219347246e-17
1.573472245e-17
1.913988877e-17
2.146092109e-17
4.921720443e-18
6.197021032e-18
8.309883873e-18
1.143516054e-17
1.570951893e-17
2.109712045e-17
2.720076745e-17
3.305981571e-17
3.704684968e-17
8.527332805e-18
1.073540606e-17
1.439086711e-17
1.9792025e-17
2.716848235e-17
3.644975217e-17
4.694319841e-17
5.699420061e-17
6.381936753e-17
1.476042075e-17
1.85782858e-17
2.48926644e-17
3.420971181e-17
4.691127638e-17
6.285749799e-17
8.084060112e-17
9.801868172e-17
1.096527323e-16
2.551803415e-17
3.210744315e-17
4.299255493e-17
5.902635837e-17
8.083585482e-17
1.081421551e-16
1.388404275e-16
1.680670443e-16
1.877973425e-16
4.404688966e-17
5.539361294e-17
7.410950958e-17
1.016200903e-16
1.389385552e-16
1.855083465e-16
2.376662462e-16
2.871259602e-16
3.203869039e-16
7.588289078e-17
9.536516255e-17
1.274420751e-16
1.744718638e-16
2.380591972e-16
3.170971381e-16
4.052253921e-16
4.884038875e-16
5.440896334e-16
1.304249683e-16
1.637577235e-16
2.185195449e-16
2.985643753e-16
4.063697095e-16
5.397499305e-16
6.877020528e-16
8.265935328e-16
9.191030394e-16
2.235541956e-16
2.803422757e-16
3.733977031e-16
5.089279763e-16
6.906347499e-16
9.142488707e-16
1.160832698e-15
1.390914198e-15
1.543290427e-15
3.819612148e-16
4.782264936e-16
6.354951299e-16
8.635954015e-16
1.167822155e-15
1.539950834e-15
1.947604857e-15
2.325438096e-15
2.574117599e-15
6.502408537e-16
8.124847041e-16
1.076621504e-15
1.457901589e-15
1.963449089e-15
2.577675807e-15
3.245688333e-15
3.860371433e-15
4.262272497e-15
1.102426537e-15
1.374075603e-15
1.814583308e-15
2.447059469e-15
3.280222322e-15
4.285063076e-15
5.369426188e-15
6.35961232e-15
7.002580363e-15
1.860575745e-15
2.312067602e-15
3.040987362e-15
4.081390342e-15
5.442213411e-15
7.070529499e-15
8.81335605e-15
1.039223174e-14
1.141025919e-14
3.124432832e-15
3.868768109e-15
5.064667882e-15
6.760671171e-15
8.962202007e-15
1.157467453e-14
1.434724352e-14
1.683878282e-14
1.843396805e-14
5.218297064e-15
6.434663966e-15
8.378770385e-15
1.111703211e-14
1.464319984e-14
1.87917837e-14
2.315682653e-14
2.704790068e-14
2.952186231e-14
8.664298446e-15
1.063342363e-14
1.376325311e-14
1.814004182e-14
2.372991772e-14
3.024941154e-14
3.705035888e-14
4.306500923e-14
4.686350327e-14
1.429571792e-14
1.745199133e-14
2.24398469e-14
2.936353158e-14
3.813258731e-14
4.827146352e-14
5.875924309e-14
6.796378656e-14
7.373968525e-14
2.343030025e-14
2.843756551e-14
3.630393981e-14
4.714198635e-14
6.075482546e-14
7.636054585e-14
9.237242976e-14
1.063232859e-13
1.150250035e-13
3.813239587e-14
4.599274207e-14
5.826823438e-14
7.505586886e-14
9.597012639e-14
1.197497068e-13
1.439600189e-13
1.649105271e-13
1.779056023e-13
6.160518526e-14
7.381333537e-14
9.2767476e-14
1.185012696e-13
1.503094383e-13
1.861935329e-13
2.224632308e-13
2.536516666e-13
2.728987858e-13
9.877150392e-14
1.175317778e-13
1.46493608e-13
1.855414759e-13
2.334469731e-13
2.870959113e-13
3.409578191e-13
3.870068766e-13
4.152944298e-13
1.571257543e-13
1.85654526e-13
2.294585243e-13
2.881287656e-13
3.596054406e-13
4.391093448e-13
5.184389918e-13
5.859080267e-13
6.271836809e-13
2.479726742e-13
2.909173632e-13
3.565201696e-13
4.438471784e-13
5.49548668e-13
6.663920616e-13
7.82331794e-13
8.804776715e-13
9.403031241e-13
3.882150387e-13
4.522319702e-13
5.495615799e-13
6.783861712e-13
8.333940653e-13
1.003779267e-12
1.1720074e-12
1.313830157e-12
1.400007479e-12
6.029167746e-13
6.974664431e-13
8.405826964e-13
1.029023719e-12
1.254555389e-12
1.501219094e-12
1.743693036e-12
1.947373214e-12
2.070803192e-12
9.288925699e-13
1.067318623e-12
1.276010143e-12
1.549506813e-12
1.87527362e-12
2.229981797e-12
2.577321936e-12
2.868180881e-12
3.044033833e-12
1.419836552e-12
1.620852518e-12
1.92281887e-12
2.316901852e-12
2.784313321e-12
3.291257217e-12
3.786000281e-12
4.199179344e-12
4.448499282e-12
2.153518913e-12
2.443232159e-12
2.877056209e-12
3.441126943e-12
4.107658179e-12
4.828082669e-12
5.529114705e-12
6.113227611e-12
6.465118972e-12
3.241853621e-12
3.656520796e-12
4.275714865e-12
5.078188857e-12
6.023323354e-12
7.041824191e-12
8.030412367e-12
8.852516572e-12
9.347121866e-12
4.844931567e-12
5.434704797e-12
6.313210664e-12
7.44850726e-12
8.781811984e-12
1.021489209e-11
1.160288131e-11
1.275523534e-11
1.344778464e-11
7.190509732e-12
8.024523355e-12
9.264178998e-12
1.086220878e-11
1.273429326e-11
1.474197486e-11
1.668291374e-11
1.829215289e-11
1.925846454e-11
1.060098604e-11
1.177425549e-11
1.351492016e-11
1.575394807e-11
1.837132175e-11
2.117289009e-11
2.387711906e-11
2.611670405e-11
2.746065368e-11
1.553061511e-11
1.717338323e-11
1.960665285e-11
2.273072097e-11
2.637591743e-11
3.027124919e-11
3.402634824e-11
3.713344448e-11
3.899709894e-11
2.261669164e-11
2.490707751e-11
2.829484543e-11
3.263735128e-11
3.769616624e-11
4.30946064e-11
4.829309221e-11
5.259144726e-11
5.516880852e-11
3.274972175e-11
3.593082181e-11
4.063037405e-11
4.664595421e-11
5.364428833e-11
6.110372637e-11
6.828055432e-11
7.421149671e-11
7.776714056e-11
4.716931535e-11
5.157230059e-11
5.807021473e-11
6.637782439e-11
7.603148296e-11
8.631120182e-11
9.619452432e-11
1.043589586e-10
1.0925331e-10
6.759477986e-11
7.367005404e-11
8.262793839e-11
9.406899779e-11
1.073509431e-10
1.21483042e-10
1.350628709e-10
1.462781471e-10
1.53001747e-10
9.640230363e-11
1.047614679e-10
1.170775807e-10
1.327943436e-10
1.510253954e-10
1.704111996e-10
1.890321886e-10
2.044090416e-10
2.136289623e-10
1.368643203e-10
1.483365659e-10
1.652286459e-10
1.86769598e-10
2.117405036e-10
2.382804367e-10
2.637670037e-10
2.848134323e-10
2.974360204e-10
1.934712785e-10
2.091789314e-10
2.322951927e-10
2.617563516e-10
2.958915402e-10
3.321594858e-10
3.66983955e-10
3.957449608e-10
4.130003265e-10
2.723616921e-10
2.938209733e-10
3.253881737e-10
3.656016387e-10
4.121778208e-10
4.616539993e-10
5.091613067e-10
5.484057643e-10
5.719608461e-10
3.818930022e-10
4.111476099e-10
4.541673443e-10
5.08951245e-10
5.723871902e-10
6.397668668e-10
7.044724466e-10
7.579408562e-10
7.900493535e-10
5.333932345e-10
5.731900219e-10
6.316967708e-10
7.061836797e-10
7.924207248e-10
8.84019292e-10
9.719996831e-10
1.044728828e-09
1.088427586e-09
7.42141238e-10
7.961588574e-10
8.755555571e-10
9.76619075e-10
1.09361469e-09
1.21789229e-09
1.337290186e-09
1.436032271e-09
1.495394516e-09
1.028630573e-09
1.101773222e-09
1.209261784e-09
1.3460628e-09
1.504421182e-09
1.672651273e-09
1.834317442e-09
1.968071496e-09
2.048527254e-09
1.42017764e-09
1.518946567e-09
1.664071293e-09
1.848745643e-09
2.062508968e-09
2.289614196e-09
2.507907073e-09
2.688578575e-09
2.797311287e-09
1.952936701e-09
2.08589149e-09
2.281212047e-09
2.529719134e-09
2.817339908e-09
3.122914516e-09
3.416673568e-09
3.65987386e-09
3.806299298e-09
2.674381147e-09
2.852700536e-09
3.114607503e-09
3.447754246e-09
3.833262483e-09
4.242792605e-09
4.636493401e-09
4.96248326e-09
5.158812403e-09
3.646299872e-09
3.884447664e-09
4.234127222e-09
4.678773064e-09
5.193141506e-09
5.739423053e-09
6.264510334e-09
6.69928219e-09
6.96116327e-09
4.948338591e-09
5.264834066e-09
5.729379179e-09
6.319815994e-09
7.002512667e-09
7.727251613e-09
8.423632399e-09
9.000113404e-09
9.347341505e-09
6.682088034e-09
7.100372377e-09
7.714026365e-09
8.493512722e-09
9.394213867e-09
1.034977716e-08
1.12674401e-08
1.202678754e-08
1.248406555e-08
8.975685217e-09
9.525066529e-09
1.033057212e-08
1.135298587e-08
1.25334051e-08
1.378467247e-08
1.498538553e-08
1.597833502e-08
1.657605683e-08
1.198885274e-08
1.270550315e-08
1.375551722e-08
1.508707446e-08
1.662284786e-08
1.824910187e-08
1.980812941e-08
2.109633999e-08
2.18713682e-08
1.59182581e-08
1.684622737e-08
1.820474989e-08
1.992572642e-08
2.190828418e-08
2.40050665e-08
2.601282894e-08
2.767017498e-08
2.866658091e-08
2.10030333e-08
2.21952376e-08
2.393900028e-08
2.614539019e-08
2.868373045e-08
3.13645753e-08
3.392818753e-08
3.60419394e-08
3.731167278e-08
2.753026573e-08
2.90494157e-08
3.126916243e-08
3.407418569e-08
3.729647391e-08
4.06944517e-08
4.39390668e-08
4.661090768e-08
4.821436624e-08
3.584025187e-08
3.775966005e-08
4.056126118e-08
4.409666331e-08
4.815158355e-08
5.242057641e-08
5.649047478e-08
5.98373078e-08
6.184378163e-08
4.63312779e-08
4.87355222e-08
5.224087321e-08
5.665794725e-08
6.171573867e-08
6.703139182e-08
7.209076613e-08
7.624527635e-08
7.873324784e-08
5.946374111e-08
6.244914303e-08
6.679679706e-08
7.226708213e-08
7.852021532e-08
8.508052063e-08
9.131392245e-08
9.642487019e-08
9.948215751e-08
7.576340932e-08
7.943830738e-08
8.478381692e-08
9.149944049e-08
9.916290226e-08
1.071883892e-07
1.148008199e-07
1.210330547e-07
1.247567944e-07
9.582368118e-08
1.003084857e-07
1.06824436e-07
1.149980851e-07
1.243092608e-07
1.340427891e-07
1.432594333e-07
1.507936314e-07
1.552901022e-07
1.203067414e-07
1.257337686e-07
1.336095025e-07
1.43474027e-07
1.54692188e-07
1.663983534e-07
1.77463971e-07
1.864961082e-07
1.91880405e-07
1.49943559e-07
1.564566534e-07
1.658977008e-07
1.777053675e-07
1.91110788e-07
2.050749693e-07
2.182529704e-07
2.289935553e-07
2.353891278e-07
1.855327271e-07
1.932866877e-07
2.045139259e-07
2.185353562e-07
2.34428097e-07
2.509551825e-07
2.665264257e-07
2.791995222e-07
2.867375946e-07
2.279381887e-07
2.370980245e-07
2.503466022e-07
2.668694362e-07
2.855678422e-07
3.049806851e-07
3.232420406e-07
3.38084114e-07
3.469030076e-07
2.780859345e-07
2.888259762e-07
3.043440429e-07
3.236713772e-07
3.45510342e-07
3.681479963e-07
3.894107227e-07
4.066693481e-07
4.16913726e-07
3.36959787e-07
3.494626867e-07
3.675099691e-07
3.899586211e-07
4.152876751e-07
4.415034666e-07
4.660914487e-07
4.860239167e-07
4.978439739e-07
4.055964089e-07
4.200520583e-07
4.408983286e-07
4.667969781e-07
4.959782522e-07
5.261377381e-07
5.543856333e-07
5.772574898e-07
5.908081068e-07
4.850796847e-07
5.01684082e-07
5.256075578e-07
5.55294815e-07
5.887009335e-07
6.231797992e-07
6.554311338e-07
6.815146865e-07
6.969545663e-07
5.765346267e-07
5.954887197e-07
6.22774435e-07
6.565968779e-07
6.946088263e-07
7.337907642e-07
7.703960206e-07
7.999688407e-07
8.17459644e-07
6.811209543e-07
7.026294842e-07
7.335676641e-07
7.71877886e-07
8.148828938e-07
8.591575029e-07
9.004722284e-07
9.338156733e-07
9.535211677e-07
8.000264876e-07
8.242968538e-07
8.591813213e-07
9.023360198e-07
9.507254934e-07
1.000486232e-06
1.0468692e-06
1.084266977e-06
1.106352211e-06
9.344604799e-07
9.617016441e-07
1.000828283e-06
1.049186419e-06
1.103353951e-06
1.15899617e-06
1.210807613e-06
1.252544406e-06
1.277174917e-06
1.085647006e-06
1.116068447e-06
1.159733737e-06
1.213654784e-06
1.273994268e-06
1.335913343e-06
1.393513281e-06
1.439873445e-06
1.46721451e-06
1.254818498e-06
1.288629232e-06
1.337128879e-06
1.396971179e-06
1.463875032e-06
1.532464617e-06
1.596211293e-06
1.647477632e-06
1.67769357e-06
1.443209524e-06
1.480617192e-06
1.534244847e-06
1.600364088e-06
1.674221614e-06
1.749872021e-06
1.820120447e-06
1.876573093e-06
1.90982661e-06
1.65205086e-06
1.693260891e-06
1.752306986e-06
1.825054809e-06
1.906250693e-06
1.989347412e-06
2.066448047e-06
2.128363421e-06
2.164815024e-06
1.882563927e-06
1.927778785e-06
1.992529473e-06
2.072252205e-06
2.161165158e-06
2.252087517e-06
2.336385067e-06
2.404034955e-06
2.443842414e-06
2.135955631e-06
2.185374137e-06
2.256110349e-06
2.34314788e-06
2.440149423e-06
2.539269397e-06
2.631101753e-06
2.704752471e-06
2.748070343e-06
2.413413637e-06
2.467230374e-06
2.544226987e-06
2.638911777e-06
2.744365181e-06
2.852046342e-06
2.951743639e-06
3.031655309e-06
3.078634523e-06
2.716102099e-06
2.774506896e-06
2.858032015e-06
2.960688237e-06
3.074947598e-06
3.191544214e-06
3.299428027e-06
3.385853951e-06
3.436641441e-06
3.045157862e-06
3.108335359e-06
3.198649702e-06
3.309592518e-06
3.433001982e-06
3.558858248e-06
3.675240909e-06
3.768427034e-06
3.823165443e-06
3.401687142e-06
3.469816425e-06
3.567172822e-06
3.686707779e-06
3.819600895e-06
3.955050305e-06
4.080234338e-06
4.180418826e-06
4.239246249e-06
3.78676268e-06
3.860016987e-06
3.96465997e-06
4.093082518e-06
4.235781724e-06
4.381146564e-06
4.515424243e-06
4.622837119e-06
4.685886906e-06
4.201421351e-06
4.27996785e-06
4.392133341e-06
4.529728465e-06
4.682544691e-06
4.838135657e-06
4.981788657e-06
5.09665155e-06
5.164052157e-06
4.646662238e-06
4.730661859e-06
4.850576944e-06
4.997618892e-06
5.160851281e-06
5.326967201e-06
5.480266363e-06
5.602792316e-06
5.674667195e-06
5.123445119e-06
5.213052453e-06
5.34093523e-06
5.497687345e-06
5.671623068e-06
5.848550732e-06
6.011755908e-06
6.142149264e-06
6.218616799e-06
5.632689371e-06
5.728052605e-06
5.864112115e-06
6.030826745e-06
6.215740915e-06
6.403754992e-06
6.577114978e-06
6.71557133e-06
6.796744808e-06
6.175273237e-06
6.27653415e-06
6.420970361e-06
6.597888851e-06
6.794044518e-06
6.993407556e-06
7.177160095e-06
7.32386629e-06
7.409853906e-06
6.752033447e-06
6.859327439e-06
7.012331288e-06
7.199684039e-06
7.407332255e-06
7.618294754e-06
7.812666605e-06
7.967800805e-06
8.058705694e-06
7.363765149e-06
7.477221305e-06
7.638974796e-06
7.836981377e-06
8.056361329e-06
8.279161871e-06
8.484368937e-06
8.648100715e-06
8.744021011e-06
8.011222119e-06
8.130963301e-06
8.301639637e-06
8.510508952e-06
8.741848143e-06
8.976713586e-06
9.192961083e-06
9.365451563e-06
9.466480482e-06
8.695117211e-06
8.821260181e-06
9.001023935e-06
9.22095443e-06
9.46446891e-06
9.711614614e-06
9.939097288e-06
1.012049931e-05
1.022672525e-05
9.416123031e-06
9.548778587e-06
9.737785897e-06
9.968965802e-06
1.022486043e-05
1.048449053e-05
1.07233929e-05
1.091385123e-05
1.102535787e-05
1.017487278e-05
1.031414591e-05
1.05125447e-05
1.07551523e-05
1.102362105e-05
1.129592874e-05
1.154642537e-05
1.17460769e-05
1.186294336e-05
1.097196125e-05
1.111795131e-05
1.132588154e-05
1.158008544e-05
1.18613117e-05
1.214647959e-05
1.240873538e-05
1.261770936e-05
1.274001029e-05
1.180794594e-05
1.196074683e-05
1.217834072e-05
1.24443002e-05
1.273845712e-05
1.303665751e-05
1.331082801e-05
1.35292463e-05
1.365705206e-05
1.268334831e-05
1.284304862e-05
1.307043094e-05
1.334829621e-05
1.365554704e-05
1.396694233e-05
1.425317405e-05
1.448115137e-05
1.461452816e-05
1.3598655e-05
1.376533826e-05
1.400262655e-05
1.429253913e-05
1.461303757e-05
1.493778057e-05
1.523621131e-05
1.547385549e-05
1.561286549e-05
1.455431922e-05
1.472806403e-05
1.497536894e-05
1.527746191e-05
1.561135248e-05
1.594958679e-05
1.626034594e-05
1.650775818e-05
1.665245975e-05
1.555076209e-05
1.573164236e-05
1.598906782e-05
1.630346621e-05
1.665088458e-05
1.700274493e-05
1.732595384e-05
1.758322898e-05
1.773367674e-05
1.658837405e-05
1.677645913e-05
1.704410269e-05
1.737092377e-05
1.773199712e-05
1.809760973e-05
1.843338199e-05
1.870060876e-05
1.885685378e-05
1.766751621e-05
1.786287111e-05
1.814082418e-05
1.848017775e-05
1.885502512e-05
1.923450806e-05
1.958294983e-05
1.986021108e-05
2.002230102e-05
1.878852174e-05
1.89912073e-05
1.927955536e-05
1.963154412e-05
2.002027674e-05
2.041374022e-05
2.077495057e-05
2.106232354e-05
2.12303028e-05
1.995169723e-05
2.016177028e-05
2.046059318e-05
2.082531295e-05
2.122803456e-05
2.163558133e-05
2.200965249e-05
2.230720904e-05
2.24811189e-05
2.115732395e-05
2.137483751e-05
2.168420968e-05
2.206174974e-05
2.247855692e-05
2.290028254e-05
2.328730022e-05
2.359510707e-05
2.377498581e-05
2.240565921e-05
2.263066261e-05
2.29506533e-05
2.334109667e-05
2.377207913e-05
2.420807228e-05
2.460811596e-05
2.492623491e-05
2.511211795e-05
2.369693752e-05
2.392947659e-05
2.426015008e-05
2.466357376e-05
2.510881466e-05
2.555915746e-05
2.597230064e-05
2.630078878e-05
2.649270882e-05
2.503137179e-05
2.5271489e-05
2.561290483e-05
2.602938009e-05
2.648895632e-05
2.695372461e-05
2.73800351e-05
2.771894502e-05
2.791693214e-05
2.640915446e-05
2.665688908e-05
2.700910225e-05
2.743869488e-05
2.791267733e-05
2.839194095e-05
2.883148109e-05
2.918086109e-05
2.938494288e-05
2.78304586e-05
2.80858468e-05
2.844890796e-05
2.889167847e-05
2.938013231e-05
2.987395536e-05
3.03267823e-05
3.06866766e-05
3.089687827e-05
2.929543907e-05
2.955851406e-05
2.993246969e-05
3.038847355e-05
3.089145839e-05
3.139989947e-05
3.186606538e-05
3.223651425e-05
3.245285874e-05
3.08042334e-05
3.107502557e-05
3.145991814e-05
3.1929206e-05
3.244677621e-05
3.296988863e-05
3.344944086e-05
3.383048081e-05
3.405298888e-05
3.235696273e-05
3.263549976e-05
3.303136792e-05
3.351398579e-05
3.404619068e-05
3.45840227e-05
3.507700405e-05
3.5468668e-05
3.569735834e-05
3.39537326e-05
3.424003957e-05
3.464691832e-05
3.514290777e-05
3.568979183e-05
3.624238691e-05
3.674883583e-05
3.715115328e-05
3.738604257e-05
3.559463386e-05
3.588873336e-05
3.630665417e-05
3.681605258e-05
3.737765568e-05
3.794505267e-05
3.846500341e-05
3.887800057e-05
3.911910362e-05
3.727974342e-05
3.758165567e-05
3.801064665e-05
3.853348732e-05
3.910984491e-05
3.969207824e-05
4.022556108e-05
4.064926103e-05
4.089659083e-05
3.900912503e-05
3.931886797e-05
3.975895402e-05
4.029526635e-05
4.088640965e-05
4.148350952e-05
4.20305509e-05
4.24649737e-05
4.271854148e-05
4.078282997e-05
4.110041932e-05
4.155162224e-05
4.210143191e-05
4.270738805e-05
4.331938061e-05
4.388000329e-05
4.432516614e-05
4.458498148e-05
4.260089769e-05
4.292634705e-05
4.338868567e-05
4.395201475e-05
4.457280697e-05
4.519971447e-05
4.577393769e-05
4.622985501e-05
4.649592589e-05
4.446335636e-05
4.479667734e-05
4.527016761e-05
4.584703475e-05
4.648268252e-05
4.712452346e-05
4.77123631e-05
4.817904665e-05
4.845137953e-05
4.637022352e-05
4.671142577e-05
4.71960809e-05
4.778650142e-05
4.843702064e-05
4.909380991e-05
4.969527853e-05
5.017273756e-05
5.045133743e-05
4.832150652e-05
4.867059783e-05
4.916642844e-05
4.977041446e-05
5.043581744e-05
5.110756648e-05
5.172267362e-05
5.221091494e-05
5.24957854e-05
5.0317203e-05
5.067418937e-05
5.118120347e-05
5.179876405e-05
5.24790599e-05
5.316577687e-05
5.379452906e-05
5.429355714e-05
5.458470044e-05
5.235730132e-05
5.272218701e-05
5.324039023e-05
5.387153154e-05
5.456672616e-05
5.526841606e-05
5.591081699e-05
5.642063405e-05
5.671805111e-05
5.444178108e-05
5.481456869e-05
5.534396434e-05
5.598868975e-05
5.6698786e-05
5.741545079e-05
5.807150135e-05
5.859210746e-05
5.8895798e-05
5.65706135e-05
5.695130407e-05
5.74918932e-05
5.815020337e-05
5.887520117e-05
5.960683987e-05
6.027653834e-05
6.080793149e-05
6.111789398e-05
5.874376185e-05
5.913235487e-05
5.968413638e-05
6.035602937e-05
6.109592579e-05
6.184253459e-05
6.252587669e-05
6.306805286e-05
6.338428466e-05
6.096118176e-05
6.135767523e-05
6.192064594e-05
6.260611727e-05
6.336090667e-05
6.412247903e-05
6.4819458e-05
6.537241125e-05
6.56949086e-05
6.322282154e-05
6.362721203e-05
6.420136673e-05
6.490040953e-05
6.567008359e-05
6.644661036e-05
6.715721707e-05
6.772093961e-05
6.804969766e-05
6.552862251e-05
6.594090521e-05
6.652623674e-05
6.723884177e-05
6.802338963e-05
6.88148591e-05
6.953908214e-05
7.011356437e-05
7.044857725e-05
6.787851926e-05
6.829868802e-05
6.889518734e-05
6.962134309e-05
7.042075143e-05
7.122714942e-05
7.196497515e-05
7.255020575e-05
7.289146658e-05
7.027243992e-05
7.070048728e-05
7.130814353e-05
7.204783627e-05
7.286208937e-05
7.368339934e-05
7.443481198e-05
7.503077792e-05
7.537827888e-05
7.271030636e-05
7.314622363e-05
7.376502415e-05
7.451823805e-05
7.534731787e-05
7.618352096e-05
7.694850264e-05
7.755518929e-05
7.790892158e-05
7.519203445e-05
7.563581171e-05
7.626574215e-05
7.703245929e-05
7.787634553e-05
7.872742064e-05
7.950595145e-05
8.012334258e-05
8.04832965e-05
7.771753424e-05
7.816916037e-05
7.88102047e-05
7.959040513e-05
8.04490753e-05
8.131499914e-05
8.210705722e-05
8.273513504e-05
8.310130001e-05
8.028671009e-05
8.074617281e-05
8.139831336e-05
8.219197519e-05
8.306540464e-05
8.394615178e-05
8.475171332e-05
8.539045855e-05
8.57628231e-05
8.289946084e-05
8.336674675e-05
8.402996424e-05
8.483706361e-05
8.57252256e-05
8.66207685e-05
8.74398078e-05
8.808919964e-05
8.846775145e-05
8.555567988e-05
8.603077446e-05
8.670504804e-05
8.752555921e-05
8.84284249e-05
8.933873396e-05
9.017122341e-05
9.083123961e-05
9.12159655e-05
8.825525525e-05
8.873814285e-05
8.942345011e-05
9.025734543e-05
9.117488393e-05
9.209992746e-05
9.29458376e-05
9.361645441e-05
9.400734034e-05
9.09980696e-05
9.148873348e-05
9.218505043e-05
9.303230035e-05
9.396447869e-05
9.490422293e-05
9.57635224e-05
9.644471458e-05
9.684174564e-05
9.378400014e-05
9.428242244e-05
9.498972352e-05
9.585029658e-05
9.679707966e-05
9.775148872e-05
9.862414422e-05
9.9315885e-05
9.971904541e-05
9.661291853e-05
9.711908024e-05
9.783733825e-05
9.8711201e-05
9.967255157e-05
0.0001006415874
0.0001015275636
0.0001022298246
0.0001026390976
9.94846906e-05
9.999857152e-05
0.0001007277576
0.0001016148745
0.000102590753
0.0001035743752
0.0001044736347
0.0001051863859
0.0001056017538
0.0001023991759
0.0001029207546
0.000103660838
0.0001045611714
0.0001055515359
0.0001065497015
0.0001074622045
0.000108185414
0.0001086068581
0.0001053562273
0.0001058854809
0.000106636429
0.0001075499388
0.0001085547445
0.000109567408
0.0001104931123
0.0001112267462
0.0001116542463
0.0001083556899
0.0001088925941
0.0001096543721
0.0001105810154
0.0001116002147
0.0001126273273
0.0001135661877
0.0001143102097
0.0001147437446
0.0001113974001
0.0001119419288
0.0001127144994
0.0001136542303
0.0001146877721
0.0001157292815
0.0001166812496
0.0001174356206
0.0001178751672
0.0001144811839
0.000115033309
0.000115816632
0.000116769401
0.0001178172301
0.0001188730798
0.000119838103
0.0001206027809
0.0001210483143
0.0001176068547
0.0001181665457
0.0001189605774
0.0001199263308
0.000120988387
0.0001220585154
0.0001230365364
0.0001238114751
0.000124262968
0.0001207742104
0.000121341434
0.0001221461265
0.0001231248052
0.0001242010224
0.0001252853618
0.0001262763174
0.0001270614658
0.000127518888
0.0001239830299
0.0001245577491
0.0001253730494
0.0001263645878
0.0001274548925
0.0001285533671
0.0001295571868
0.0001303524877
0.0001308158055
0.0001272330676
0.000127815241
0.0001286410894
0.0001296454138
0.0001307497232
0.0001318622476
0.0001328788513
0.0001336842402
0.000134153415
0.0001305240469
0.0001311136273
0.0001319499562
0.0001329669824
0.0001340852019
0.0001352116784
0.0001362409745
0.0001370563768
0.0001375313644
0.0001338556518
0.000134452585
0.0001352993162
0.000136328947
0.0001374609671
0.0001386012821
0.000139643164
0.0001404684929
0.0001409492415
0.0001372275156
0.0001378317384
0.0001386887804
0.0001397309022
0.000140876594
0.0001420306141
0.0001430849559
0.000143920109
0.0001444065576
0.0001406392076
0.000141250645
0.0001421178895
0.0001431723671
0.0001443315781
0.0001454991441
0.0001465657959
0.0001474106507
0.000147902726
0.0001440902148
0.0001447087772
0.0001455860946
0.0001466527662
0.0001478253125
0.0001490062334
0.0001500850144
0.0001509394231
0.0001514370367
0.0001475799211
0.0001482055003
0.0001490927337
0.0001501714035
0.0001513570627
0.0001525511062
0.0001536417968
0.0001545055796
0.0001550086239
0.0001511075803
0.0001517400446
0.0001526370033
0.0001537274324
0.0001549259332
0.0001561328161
0.0001572351479
0.0001581080852
0.0001586164285
0.0001546722845
0.0001553114729
0.0001562179234
0.0001573198197
0.0001585308298
0.0001597502051
0.0001608638492
0.0001617456712
0.000162259152
0.000158272926
0.0001589186411
0.0001598342973
0.0001609473024
0.0001621704142
0.0001634018557
0.0001645264083
0.000165416784
0.0001659352038
0.0001619081533
0.000162560153
0.0001634846636
0.0001646083379
0.0001658430513
0.0001670860365
0.0001682210021
0.0001691195254
0.0001696426408
0.0001655763195
0.0001662343072
0.0001671672422
0.0001683010474
0.00016954675
0.0001708006392
0.0001719454116
0.0001728515859
0.0001733790991
0.0001692754249
0.0001699390384
0.0001708798728
0.0001720231517
0.0001732790968
0.0001745431101
0.0001756969507
0.0001766101708
0.0001771417192
0.0001730030531
0.0001736718519
0.0001746199475
0.0001757719023
0.0001770371833
0.000178310375
0.0001794723886
0.0001803919217
0.0001809270666
0.0001767563009
0.0001774297526
0.0001783843386
0.0001795440061
0.0001808175298
0.0001820987602
0.0001832678692
0.0001841928338
0.0001847310476
0.0001805317049
0.0001812091705
0.0001821693221
0.0001833355478
0.0001846160052
0.0001859039114
0.0001870788283
0.0001880081724
0.000188548826
0.0001843251655
0.0001850058838
0.0001859705003
0.0001871419115
0.0001884277481
0.0001897207134
0.0001908999131
0.0001918323921
0.0001923747416
0.0001881318712
0.0001888149433
0.0001897827257
0.0001909577042
0.0001922470904
0.0001935432148
0.0001947249074
0.0001956590621
0.0001962022367
0.0001919462259
0.0001926306002
0.0001936000305
0.000194776687
0.0001960674887
0.0001973645603
0.000198546666
0.0001994808034
0.0002000237935
0.0001957617819
0.0001964462403
0.0001974155619
0.0001985917135
0.0001998814693
0.00020117694
0.0002023570659
0.0002032892422
0.0002038308906
0.0001995711874
0.0002002543335
0.000201221535
0.0002023946858
0.0002036805862
0.0002049715533
0.0002061469791
0.000207074987
0.0002076139814
0.0002033661485
0.0002040463992
0.0002050092029
0.0002061765313
0.0002074554062
0.0002087386009
0.000209906269
0.0002108276326
0.000211362503
0.000207137413
0.0002078129945
0.0002087688515
0.0002099272053
0.00021119552
0.0002124673057
0.0002136238221
0.0002145357986
0.0002150649196
0.0002108747811
0.0002115437298
0.000212489823
0.0002136357245