/*--------------------------------*- C++ -*----------------------------------*\
| =========                 |                                                 |
| \\      /  F ield         | OpenFOAM: The Open Source CFD Toolbox           |
|  \\    /   O peration     | Version:  2212                                  |
|   \\  /    A nd           | Website:  www.openfoam.com                      |
|    \\/     M anipulation  |                                                 |
\*---------------------------------------------------------------------------*/
FoamFile
{
    version     2.0;
    format      ascii;
    arch        "LSB;label=32;scalar=64";
    class       volScalarField;
    location    "20.00000000";
    object      A2;
}
// * * * * * * * * * * * * * * * * * * * * * * * * * * * * * * * * * * * * * //

dimensions      [0 0 0 0 0 0 0];

internalField   nonuniform List<scalar> 
3000
(
6.350489118e-24
7.13395593e-24
8.316203531e-24
9.891656685e-24
1.184430557e-23
1.412112933e-23
1.65849629e-23
1.893594279e-23
2.059839586e-23
2.384253585e-23
2.689203537e-23
3.149174233e-23
3.763489012e-23
4.531540165e-23
5.449071138e-23
6.500155508e-23
7.631731757e-23
8.63412543e-23
5.34059476e-23
6.070954325e-23
7.183106466e-23
8.693160844e-23
1.062827749e-22
1.301653149e-22
1.584852557e-22
1.896526051e-22
2.162902882e-22
1.017245186e-22
1.168473607e-22
1.402132186e-22
1.726127661e-22
2.151939179e-22
2.690387186e-22
3.338534042e-22
4.044492722e-22
4.614306025e-22
1.806369568e-22
2.100379254e-22
2.561796311e-22
3.214060404e-22
4.08785188e-22
5.207662439e-22
6.554786898e-22
7.985385838e-22
9.083573735e-22
3.106210398e-22
3.658038172e-22
4.536491585e-22
5.797635868e-22
7.508748898e-22
9.712890048e-22
1.234423275e-21
1.50709455e-21
1.708826567e-21
5.273306439e-22
6.286990955e-22
7.919486545e-22
1.028964277e-21
1.35294591e-21
1.770336024e-21
2.263872701e-21
2.765320408e-21
3.12715032e-21
8.924401011e-22
1.075900653e-21
1.37398673e-21
1.810120209e-21
2.408631604e-21
3.178143843e-21
4.08005459e-21
4.983086275e-21
5.623821029e-21
1.5128194e-21
1.841349335e-21
2.378600923e-21
3.168650048e-21
4.254781572e-21
5.647447943e-21
7.267984255e-21
8.873658401e-21
1.000036849e-20
2.573529598e-21
3.157214882e-21
4.116104547e-21
5.530759383e-21
7.476784162e-21
9.965496632e-21
1.284537629e-20
1.567791989e-20
1.765075336e-20
4.39524031e-21
5.426149364e-21
7.125140224e-21
9.636759491e-21
1.309191705e-20
1.750072024e-20
2.258143854e-20
2.755302342e-20
3.099829736e-20
7.533712196e-21
9.346445776e-21
1.234048329e-20
1.677217008e-20
2.28674252e-20
3.063104316e-20
3.955080605e-20
4.824756115e-20
5.425357207e-20
1.295250415e-20
1.612942856e-20
2.138458579e-20
2.916922537e-20
3.98728977e-20
5.34871561e-20
6.909419075e-20
8.427252777e-20
9.473012864e-20
2.232266925e-20
2.787673829e-20
3.707368711e-20
5.070407702e-20
6.943966195e-20
9.324349911e-20
1.204865255e-19
1.469339708e-19
1.65128354e-19
3.854297914e-20
4.823544524e-20
6.429696002e-20
8.810851369e-20
1.208294501e-19
1.623658771e-19
2.098438754e-19
2.558769886e-19
2.875209018e-19
6.664283005e-20
8.353525995e-20
1.115433117e-19
1.530766632e-19
2.101423607e-19
2.825440083e-19
3.652338798e-19
4.453320025e-19
5.003623091e-19
1.153490621e-19
1.44761635e-19
1.935494266e-19
2.659162902e-19
3.653525856e-19
4.91500578e-19
6.35544904e-19
7.749895614e-19
8.705923868e-19
1.998051601e-19
2.509783405e-19
3.358857985e-19
4.618448784e-19
6.349026828e-19
8.543732851e-19
1.104835567e-18
1.347128834e-18
1.513179668e-18
3.462945025e-19
4.352775091e-19
5.829480834e-19
8.020280669e-19
1.102988725e-18
1.4845469e-18
1.919796343e-18
2.340667087e-18
2.629024361e-18
6.004417208e-19
7.551096047e-19
1.011820505e-18
1.392681255e-18
1.915833888e-18
2.578935208e-18
3.335110194e-18
4.066064212e-18
4.566728369e-18
1.041452379e-18
1.310217996e-18
1.756341192e-18
2.418221001e-18
3.327295379e-18
4.479334997e-18
5.792738244e-18
7.061979515e-18
7.931161391e-18
1.80683485e-18
2.2737757e-18
3.04888166e-18
4.198818062e-18
5.778047962e-18
7.778969054e-18
1.005959368e-17
1.22629605e-17
1.377151713e-17
3.135314001e-18
3.946434436e-18
5.292863863e-18
7.290272092e-18
1.003294673e-17
1.350721041e-17
1.746605774e-17
2.128970208e-17
2.390691925e-17
5.441289767e-18
6.850095056e-18
9.188543792e-18
1.265718964e-17
1.74191064e-17
2.344958895e-17
3.031894971e-17
3.695143258e-17
4.14898341e-17
9.443988587e-18
1.189055143e-17
1.595113896e-17
2.197316519e-17
3.02382662e-17
4.070149718e-17
5.261529152e-17
6.411324779e-17
7.197779987e-17
1.639128936e-17
2.063932556e-17
2.768867454e-17
3.814043054e-17
5.247998174e-17
7.062473077e-17
9.127378606e-17
1.111907521e-16
1.248066461e-16
2.844714756e-17
3.582137775e-17
4.805549412e-17
6.618788102e-17
9.105276224e-17
1.224964005e-16
1.582542077e-16
1.92718129e-16
2.162619621e-16
4.936123908e-17
6.215781705e-17
8.338069213e-17
1.148199978e-16
1.579042106e-16
2.12343062e-16
2.741925167e-16
3.337439732e-16
3.74387182e-16
8.562410217e-17
1.078188376e-16
1.446118177e-16
1.990809745e-16
2.736605573e-16
3.677943231e-16
4.746098054e-16
5.773205664e-16
6.473303611e-16
1.484549085e-16
1.869220735e-16
2.506528081e-16
3.449211977e-16
4.738495858e-16
6.363569649e-16
8.204625768e-16
9.971903039e-16
1.117452063e-15
2.572117667e-16
3.238143533e-16
4.34074808e-16
5.969910906e-16
8.194887542e-16
1.099441684e-15
1.41595775e-15
1.719128281e-15
1.924997251e-15
4.452217338e-16
5.603808149e-16
7.508427691e-16
1.031874866e-15
1.414994879e-15
1.895984176e-15
2.438412367e-15
2.956558489e-15
3.307478846e-15
7.697059309e-16
9.684636853e-16
1.296793643e-15
1.780424691e-15
2.438269204e-15
3.261914986e-15
4.18787355e-15
5.069442247e-15
5.664571452e-15
1.328595767e-15
1.670849411e-15
2.23538101e-15
3.065188548e-15
4.190833395e-15
5.595527984e-15
7.168777879e-15
8.660641816e-15
9.663898774e-15
2.288871886e-15
2.876519822e-15
3.844062602e-15
5.262632191e-15
7.180630544e-15
9.564668881e-15
1.222290027e-14
1.473183103e-14
1.641149209e-14
3.934036248e-15
4.939459284e-15
6.591251828e-15
9.005661186e-15
1.225741657e-14
1.628059273e-14
2.074330427e-14
2.493271769e-14
2.772310172e-14
6.743113069e-15
8.456024093e-15
1.126287487e-14
1.535090352e-14
2.083176385e-14
2.757668446e-14
3.501444523e-14
4.195444274e-14
4.655059952e-14
1.15211779e-14
1.442484812e-14
1.916857567e-14
2.6048813e-14
3.522526972e-14
4.644986675e-14
5.874602234e-14
7.014268715e-14
7.764366019e-14
1.961335407e-14
2.450715007e-14
3.247436492e-14
4.397499778e-14
5.922393531e-14
7.775098735e-14
9.790039218e-14
1.1644121e-13
1.285638378e-13
3.325272758e-14
4.144653654e-14
5.473366475e-14
7.381117868e-14
9.894204828e-14
1.292512752e-13
1.619591519e-13
1.91826348e-13
2.112203307e-13
5.612094431e-14
6.973938983e-14
9.172595265e-14
1.231078506e-13
1.641546484e-13
2.132698954e-13
2.658391459e-13
3.13463111e-13
3.441700909e-13
9.424293565e-14
1.1669448e-13
1.527666609e-13
2.039235715e-13
2.703288178e-13
3.491293865e-13
4.327589788e-13
5.07911812e-13
5.560277258e-13
1.574006092e-13
1.940901445e-13
2.527306427e-13
3.353254178e-13
4.416859707e-13
5.668205951e-13
6.984843176e-13
8.158516207e-13
8.904742556e-13
2.613430823e-13
3.207382269e-13
4.151439435e-13
5.47161959e-13
7.157705844e-13
9.124194749e-13
1.117557909e-12
1.298979096e-12
1.413553888e-12
4.312047821e-13
5.264081319e-13
6.768578868e-13
8.856984714e-13
1.150201381e-12
1.45602248e-12
1.772367628e-12
2.050006249e-12
2.224225924e-12
7.067331137e-13
8.577683252e-13
1.095043456e-12
1.421953775e-12
1.832560763e-12
2.303279462e-12
2.786249363e-12
3.207052041e-12
3.469523827e-12
1.150195494e-12
1.387288791e-12
1.757557086e-12
2.263926099e-12
2.894767341e-12
3.612035945e-12
4.342296816e-12
4.974231524e-12
5.366204798e-12
1.858210073e-12
2.226447095e-12
2.798164873e-12
3.57437879e-12
4.533815416e-12
5.616195108e-12
6.71020587e-12
7.650949443e-12
8.231504512e-12
2.97926524e-12
3.54513533e-12
4.418717144e-12
5.596526299e-12
7.041510097e-12
8.65973463e-12
1.02843831e-11
1.167337092e-11
1.252661464e-11
4.739415924e-12
5.599935188e-12
6.92120436e-12
8.690887249e-12
1.084685349e-11
1.324494698e-11
1.563778452e-11
1.767286798e-11
1.891787478e-11
7.479648657e-12
8.774998019e-12
1.075378892e-11
1.338785165e-11
1.657614807e-11
2.010052059e-11
2.359763626e-11
2.655803234e-11
2.836256107e-11
1.170980411e-11
1.364075925e-11
1.657653147e-11
2.046229357e-11
2.513782873e-11
3.027719383e-11
3.535149585e-11
3.962932752e-11
4.222871387e-11
1.818588851e-11
2.103780714e-11
2.535464894e-11
3.10386311e-11
3.784138705e-11
4.528155477e-11
5.259534786e-11
5.873899798e-11
6.246204447e-11
2.801834763e-11
3.219371405e-11
3.848850954e-11
4.673803485e-11
5.656419582e-11
6.726332409e-11
7.774021271e-11
8.651345095e-11
9.181774132e-11
4.282676563e-11
4.889003266e-11
5.799827874e-11
6.988505208e-11
8.398364619e-11
9.92746684e-11
1.141976817e-10
1.266604724e-10
1.34180755e-10
6.495694515e-11
7.369557698e-11
8.678102958e-11
1.037951212e-10
1.238997398e-10
1.456299529e-10
1.667752407e-10
1.84393896e-10
1.950080347e-10
9.778460462e-11
1.102921754e-10
1.289688715e-10
1.531738232e-10
1.816818354e-10
2.124028012e-10
2.422215293e-10
2.670186271e-10
2.819373978e-10
1.461387303e-10
1.639278877e-10
1.904259891e-10
2.246695728e-10
2.648856001e-10
3.081111211e-10
3.49976599e-10
3.847347142e-10
4.056238955e-10
2.168896135e-10
2.420454361e-10
2.794363279e-10
3.27636541e-10
3.841027919e-10
4.446589046e-10
5.032018991e-10
5.517401215e-10
5.808862505e-10
3.197629635e-10
3.551508907e-10
4.07652318e-10
4.75184984e-10
5.541288763e-10
6.386280914e-10
7.201912281e-10
7.877399866e-10
8.282752051e-10
4.684635904e-10
5.180109992e-10
5.914001965e-10
6.85623639e-10
7.95563634e-10
9.130467778e-10
1.026299605e-09
1.120008165e-09
1.176214788e-09
6.822219204e-10
7.512989693e-10
8.534713339e-10
9.844357565e-10
1.137000368e-09
1.299804253e-09
1.456574812e-09
1.586197593e-09
1.663920141e-09
9.879165339e-10
1.083850632e-09
1.225574288e-09
1.406979727e-09
1.618013394e-09
1.842942367e-09
2.059340103e-09
2.23816367e-09
2.345365593e-09
1.422979219e-09
1.555749093e-09
1.751682709e-09
2.002170993e-09
2.293225349e-09
2.603131085e-09
2.901061168e-09
3.147154568e-09
3.294669403e-09
2.039359743e-09
2.222530429e-09
2.49259413e-09
2.837488747e-09
3.237830652e-09
3.663739235e-09
4.072941557e-09
4.410840128e-09
4.613383345e-09
2.908920531e-09
3.160900755e-09
3.532119429e-09
4.005764493e-09
4.555075067e-09
5.139045782e-09
5.699835329e-09
6.16280388e-09
6.440333117e-09
4.130752257e-09
4.476481778e-09
4.985458238e-09
5.634356023e-09
6.386350449e-09
7.185309244e-09
7.952250424e-09
8.585317694e-09
8.964856704e-09
5.841055943e-09
6.314263796e-09
7.010487982e-09
7.897495938e-09
8.924764284e-09
1.001562902e-08
1.106244716e-08
1.192646144e-08
1.244453771e-08
8.226430807e-09
8.872647043e-09
9.822908132e-09
1.103283269e-08
1.243328923e-08
1.391979527e-08
1.534591516e-08
1.65229418e-08
1.722882995e-08
1.154164238e-08
1.242219631e-08
1.371643771e-08
1.53634537e-08
1.72688862e-08
1.929062911e-08
2.122983236e-08
2.283029639e-08
2.379030837e-08
1.613321935e-08
1.733051522e-08
1.908955611e-08
2.132698449e-08
2.391431162e-08
2.665864374e-08
2.929044813e-08
3.146251473e-08
3.276562986e-08
2.247052588e-08
2.409494874e-08
2.648058372e-08
2.951366786e-08
3.301963157e-08
3.673716843e-08
4.030164045e-08
4.324340975e-08
4.500858579e-08
3.118624738e-08
3.338510861e-08
3.661317656e-08
4.071559098e-08
4.545570903e-08
5.048029483e-08
5.529708521e-08
5.927223489e-08
6.16577709e-08
4.312845331e-08
4.609742261e-08
5.045448311e-08
5.598935761e-08
6.238200272e-08
6.915601026e-08
7.564841036e-08
8.100591291e-08
8.422122446e-08
5.942646972e-08
6.342393399e-08
6.928817065e-08
7.673437126e-08
8.533077275e-08
9.443651239e-08
1.031612083e-07
1.103596317e-07
1.14679719e-07
8.15725795e-08
8.693728817e-08
9.480412552e-08
1.047883424e-07
1.163090548e-07
1.285067673e-07
1.401896505e-07
1.498262663e-07
1.556089768e-07
1.115209171e-07
1.186930822e-07
1.292057056e-07
1.425404938e-07
1.579183761e-07
1.741907169e-07
1.897685322e-07
2.026129532e-07
2.10318812e-07
1.518036896e-07
1.613493771e-07
1.753338433e-07
1.93061102e-07
2.134900591e-07
2.35092113e-07
2.557588744e-07
2.727902221e-07
2.830042173e-07
2.056629473e-07
2.183011158e-07
2.368050285e-07
2.602434872e-07
2.872311609e-07
3.157439049e-07
3.42999925e-07
3.654457175e-07
3.788999139e-07
2.771935894e-07
2.938245305e-07
3.181573829e-07
3.489515816e-07
3.843729536e-07
4.217568022e-07
4.574571001e-07
4.868311141e-07
5.044264212e-07
3.714903622e-07
3.932236634e-07
4.249960469e-07
4.651631838e-07
5.113108918e-07
5.599549443e-07
6.0635275e-07
6.444881599e-07
6.673126025e-07
4.947887707e-07
5.229683467e-07
5.641264916e-07
6.160967895e-07
6.757232816e-07
7.384851396e-07
7.982655325e-07
8.473390501e-07
8.766812439e-07
6.545876769e-07
6.9081121e-07
7.436631159e-07
8.103090962e-07
8.866553819e-07
9.668860957e-07
1.043184702e-06
1.10572955e-06
1.143085004e-06
8.597408055e-07
9.058710692e-07
9.731004284e-07
1.057750655e-06
1.154556705e-06
1.256106316e-06
1.352511331e-06
1.431415901e-06
1.478485033e-06
1.120505309e-06
1.17867107e-06
1.263336136e-06
1.369769191e-06
1.49126331e-06
1.618466512e-06
1.739001364e-06
1.837492853e-06
1.896170357e-06
1.44853715e-06
1.521121448e-06
1.62663641e-06
1.759056458e-06
1.909924448e-06
2.067564963e-06
2.216652313e-06
2.338266025e-06
2.410622148e-06
1.856826847e-06
1.946445271e-06
2.076547615e-06
2.239541164e-06
2.424875316e-06
2.618131289e-06
2.800540626e-06
2.949076989e-06
3.037332002e-06
2.359583747e-06
2.469052211e-06
2.627755612e-06
2.826232278e-06
3.051463998e-06
3.285838159e-06
3.506620613e-06
3.686092896e-06
3.792586533e-06
2.972070673e-06
3.104365252e-06
3.295901859e-06
3.535023226e-06
3.805843887e-06
4.087083164e-06
4.351497838e-06
4.566073917e-06
4.693231689e-06
3.710400642e-06
3.868612173e-06
4.097368136e-06
4.382469377e-06
4.704744382e-06
5.038753872e-06
5.352189974e-06
5.606131398e-06
5.756429592e-06
4.591308487e-06
4.778594758e-06
5.049042864e-06
5.385551645e-06
5.765232453e-06
6.157988216e-06
6.525886794e-06
6.823487923e-06
6.999418788e-06
5.63191054e-06
5.85144859e-06
6.168081444e-06
6.561438046e-06
7.004476128e-06
7.461940435e-06
7.889718706e-06
8.235248086e-06
8.439286368e-06
6.849464252e-06
7.104404812e-06
7.471671266e-06
7.927252917e-06
8.439518596e-06
8.967560295e-06
9.460540723e-06
9.858186204e-06
1.009275783e-05
8.261137345e-06
8.554562847e-06
8.976809517e-06
9.499860961e-06
1.008706911e-05
1.069139082e-05
1.12547363e-05
1.170855486e-05
1.197600826e-05
9.883793418e-06
1.021868039e-05
1.070009936e-05
1.129567081e-05
1.196331448e-05
1.26493875e-05
1.32880434e-05
1.38019162e-05
1.410449656e-05
1.173379829e-05
1.211298452e-05
1.265756765e-05
1.333046056e-05
1.40837529e-05
1.485676029e-05
1.557540357e-05
1.615299639e-05
1.649282296e-05
1.382684915e-05
1.425300563e-05
1.486450546e-05
1.56192261e-05
1.646305059e-05
1.732783818e-05
1.813083362e-05
1.87755628e-05
1.915460924e-05
1.617782697e-05
1.665343432e-05
1.733533131e-05
1.817605176e-05
1.911492039e-05
2.00759556e-05
2.096731895e-05
2.168232257e-05
2.210240036e-05
1.880067138e-05
1.932800059e-05
2.008347617e-05
2.101400233e-05
2.205202119e-05
2.311335925e-05
2.409672694e-05
2.488484127e-05
2.534758604e-05
2.170827663e-05
2.22893736e-05
2.312128871e-05
2.414503472e-05
2.528587668e-05
2.645113379e-05
2.752973902e-05
2.839347987e-05
2.890034064e-05
2.491240698e-05
2.554908063e-05
2.645995917e-05
2.757992794e-05
2.882681185e-05
3.009914498e-05
3.127579986e-05
3.221734875e-05
3.276958e-05
2.842362983e-05
2.911744347e-05
3.010946042e-05
3.132822964e-05
3.26839058e-05
3.406599875e-05
3.53430822e-05
3.636427722e-05
3.696293362e-05
3.225126506e-05
3.300353077e-05
3.407850459e-05
3.53982182e-05
3.686495962e-05
3.835901512e-05
3.973846637e-05
4.084079745e-05
4.148673123e-05
3.640334921e-05
3.721512516e-05
3.837451436e-05
3.979687895e-05
4.137647834e-05
4.298421586e-05
4.446753326e-05
4.56521417e-05
4.634600254e-05
4.088661366e-05
4.175870413e-05
4.300360775e-05
4.452989387e-05
4.622366591e-05
4.7946325e-05
4.953456984e-05
5.080225192e-05
5.154448917e-05
4.570647579e-05
4.663943386e-05
4.797059573e-05
4.960164378e-05
5.141043259e-05
5.324878132e-05
5.494258651e-05
5.629380083e-05
5.708466802e-05
5.086704264e-05
5.186117539e-05
5.327899198e-05
5.501522251e-05
5.693941389e-05
5.889376223e-05
6.069334528e-05
6.212822367e-05
6.296778492e-05
5.637112637e-05
5.742650251e-05
5.893103416e-05
6.077246224e-05
6.281200038e-05
6.488221795e-05
6.678739806e-05
6.830575952e-05
6.919389792e-05
6.222027103e-05
6.333673071e-05
6.492771599e-05
6.687396934e-05
6.902837757e-05
7.121391541e-05
7.322413402e-05
7.48255015e-05
7.576192894e-05
6.841479e-05
6.959195663e-05
7.12688295e-05
7.331916989e-05
7.558757499e-05
7.788749074e-05
8.000183517e-05
8.168545459e-05
8.266972293e-05
7.495381317e-05
7.619110706e-05
7.795301643e-05
8.010636403e-05
8.248752344e-05
8.490050939e-05
8.711773889e-05
8.888260007e-05
8.991411339e-05
8.183534331e-05
8.313199663e-05
8.497782797e-05
8.72327879e-05
8.972511946e-05
9.224953282e-05
9.456810652e-05
9.641296546e-05
9.749099306e-05
8.905632015e-05
9.041139321e-05
9.233979167e-05
9.469468236e-05
9.729629565e-05
9.993019042e-05
0.0001023482966
0.0001042716987
0.0001053953886
9.661269134e-05
9.80250896e-05
0.0001000344842
0.0001024873669
0.0001051960959
0.0001079372557
0.0001104528418
0.0001124531455
0.0001136215381
0.0001044994889
0.0001059679804
0.0001080566089
0.0001106053179
0.0001134187538
0.000116264725
0.0001188755278
0.0001209509285
0.0001221629705
0.0001127109095
0.0001142341427
0.0001164000766
0.0001190422493
0.0001219577739
0.0001249058987
0.000127609474
0.0001297580274
0.0001310125851
0.0001212403981
0.0001228169192
0.0001250580883
0.0001277911953
0.0001308060131
0.0001338534617
0.0001366472137
0.0001388668584
0.0001401627311
0.0001300807323
0.0001317090027
0.0001340232193
0.000136844593
0.0001399557627
0.0001430995644
0.0001459807735
0.0001482693531
0.0001496052854
0.0001392241075
0.0001409025197
0.0001432875019
0.0001461943644
0.0001493988288
0.0001526359019
0.0001556017512
0.0001579570349
0.0001593317287
0.0001486622203
0.0001503891141
0.0001528425073
0.0001558319966
0.0001591266108
0.0001624537899
0.0001655013904
0.0001679210923
0.0001693332179
0.0001583863505
0.0001601600274
0.000162679425
0.0001657486191
0.000169130177
0.0001725442391
0.0001756706522
0.0001781524492
0.0001796006557
0.0001683874395
0.000170206176
0.0001727891383
0.0001759350782
0.000179400336
0.0001828980242
0.0001861002832
0.0001886418311
0.0001901247556
0.0001786561651
0.0001805182255
0.0001831622966
0.0001863820062
0.0001899277049
0.0001935057495
0.0001967808782
0.0001993798269
0.000200896103
0.0001891830123
0.0001910866593
0.0001937893828
0.0001970798874
0.0002007027718
0.0002043579096
0.0002077029399
0.0002103569461
0.0002119052114
0.0001999583382
0.000201901843
0.0002046607757
0.0002080191182
0.0002117159546
0.0002154449458
0.000218856932
0.000221563671
0.0002231425739
0.0002109724328
0.0002129540838
0.0002157668074
0.0002191900626
0.0002229576535
0.0002267572964
0.0002302333287
0.0002329905044
0.0002345987098
0.0002222155738
0.0002242336838
0.0002270978155
0.000230583102
0.0002344182996
0.0002382854433
0.0002418226587
0.0002446280125
0.0002462642069
0.0002336780761
0.0002357309887
0.0002386441899
0.0002421886809
0.0002460883976
0.0002500199525
0.0002536155446
0.0002564668624
0.000258129758
0.0002453503357
0.0002474364308
0.0002503964143
0.0002539973457
0.0002579585637
0.0002619515105
0.000265602737
0.0002684978556
0.000270186194
0.0002572228686
0.0002593405666
0.0002623451028
0.0002659997806
0.0002700195589
0.0002740709559
0.0002777751453
0.000280711957
0.0002824245119
0.0002692863449
0.0002714341097
0.0002744810313
0.000278186837
0.0002822623175
0.0002863693062
0.0002901238627
0.0002931003196
0.0002948358992
0.0002815316168
0.0002837079593
0.0002867951646
0.0002905495595
0.0002946779715
0.0002988377809
0.0003026401882
0.000305654305
0.0003074117536
0.0002939497438
0.0002961532231
0.0002992786789
0.0003030792073
0.0003072578706
0.0003114678206
0.0003153156448
0.0003183655009
0.0003201437003
0.0003065320124
0.0003087612373
0.0003119229808
0.0003157672717
0.0003199935992
0.0003242511022
0.0003281419934
0.0003312257345
0.0003330236049
0.0003192699521
0.000321523582
0.0003247197216
0.0003286054903
0.0003328769886
0.0003371795511
0.0003411112448
0.0003442270834
0.0003460435839
0.0003321553483
0.0003344320935
0.0003376608092
0.0003415858577
0.0003459001277
0.0003502453505
0.0003542156674
0.0003573618836
0.000359196012
0.0003451802517
0.000347478873
0.0003507384165
0.0003547006328
0.0003590553697
0.0003634409476
0.0003674477938
0.0003706227344
0.0003724735276
0.0003583369843
0.000360656293
0.0003639449869
0.0003679423447
0.000372335337
0.0003767590577
0.0003808004237
0.0003840025021
0.0003858690355
0.0003716181441
0.0003739570008
0.0003772732373
0.0003813037947
0.0003857329227
0.0003901926659
0.0003942666252
0.0003974943204
0.0003993757074
0.0003850166078
0.0003873739216
0.0003907161613
0.0003947780585
0.0003992412923
0.0004037350274
0.0004078397351
0.00041109159
0.0004129869816
0.0003985255298
0.0004009002572
0.0004042670275
0.0004083584854
0.0004128538828
0.0004173796666
0.0004215133571
0.0004247879775
0.0004266965608
0.0004121383401
0.0004145294836
0.0004179193768
0.0004220386946
0.0004265643987
0.0004311203735
0.0004352813587
0.0004385774113
0.0004404984092
0.0004258487407
0.0004282553475
0.0004316670188
0.0004358125718
0.0004403668089
0.0004449511997
0.0004491378667
0.0004524540777
0.0004543867476
0.0004396507012
0.0004420718619
0.0004455040276
0.0004496742646
0.000454255341
0.0004588664533
0.0004630772621
0.0004664124151
0.0004683560477
0.0004535384534
0.0004559733003
0.0004594247358
0.0004636181768
0.0004682244764
0.0004728606931
0.0004770941738
0.0004804471081
0.0004824010267
0.0004675064848
0.0004699541906
0.000473423728
0.0004776389615
0.0004822689432
0.0004869287217
0.0004911834726
0.0004945530807
0.0004965166397
0.0004815495308
0.0004840093078
0.0004874958342
0.000491731515
0.0004963837092
0.0005010655789
0.0005053402633
0.0005087254894
0.0005106980734
0.0004956625684
0.0004981336666
0.000501636122
0.0005058909682
0.0005105639747
0.0005152665339
0.0005195598778
0.0005229597157
0.0005249407381
0.0005098408101
0.0005123225146
0.0005158398897
0.0005201126801
0.0005248051648
0.0005295270781
0.0005338378675
0.0005372513584
0.0005392402601
0.0005240796966
0.0005265713255
0.0005301026585
0.00053439223
0.0005391029219
0.0005438429167
0.000548169995
0.0005515962253
0.0005535924743
0.0005383748882
0.0005408757915
0.000544420165
0.0005487254089
0.0005534530967
0.0005582099608
0.0005625522265
0.0005659903267
0.000567993416
0.0005527222538
0.0005552318115
0.000558788351
0.0005631082109
0.0005678517411
0.0005726243202
0.0005769807244
0.0005804298661
0.0005824393131
0.0005671178628
0.0005696354841
0.0005732033559
0.0005775368259
0.0005822950999
0.0005870822946
0.0005914518383
0.0005949112328
0.0005969265781
0.0005815579772
0.0005840830998
0.0005876615102
0.0005920076313
0.0005967796024
0.0006015803655
0.0006059620974
0.0006094309938
0.0006114517999
0.0005960390433
0.0005985711313
0.000602159324
0.0006065171829
0.0006113018542
0.0006161151884
0.0006205082025
0.0006239858857
0.0006260117363
0.0006105576833
0.0006130962263
0.0006166934809
0.0006210622072
0.000625858629
0.0006306835844
0.0006350870181
0.0006385728074
0.0006406033062
0.000625110687
0.0006276551988
0.000631260829
0.0006356395936
0.0006404468613
0.0006452825334
0.000649695565
0.0006531888124
0.0006552235821
0.0006396950044
0.0006422450219
0.0006458583741
0.0006502463873
0.0006550636391
0.0006599091659
0.0006643310132
0.0006678311014
0.0006698697828
0.000654307738
0.0006568628199
0.0006604832712
0.0006648797806
0.0006697061955
0.0006745607563
0.000678990674
0.0006824970153
0.0006845392667
0.0006689461354
0.0006715058612
0.0006751328182
0.0006795371067
0.0006843719026
0.0006892347153
0.0006936719937
0.0006971840285
0.0006992295244
0.0006836075823
0.0006861715512
0.0006898044484
0.0006942158328
0.0006990582643
0.0007039285838
0.0007083725465
0.0007118897419
0.0007139381722
0.0006982895953
0.0007008574255
0.0007044957239
0.0007089135534
0.0007137629097
0.0007186400257
0.0007230900283
0.0007266118762
0.0007286629459
0.0007129898157
0.000715561143
0.0007192043286
0.0007236279822
0.000728483586
0.0007333668215
0.0007378222499
0.0007413482664
0.000743401694
0.0007277060026
0.0007302804796
0.0007339280623
0.0007383569477
0.0007432181531
0.0007481068624
0.0007525671308
0.0007560968545
0.0007581523721
0.0007424360266
0.0007450133219
0.0007486648339
0.0007530983863
0.0007579645767
0.0007628581439
0.0007673226936
0.0007708556844
0.0007729130363
0.0007571778638
0.000759757661
0.0007634126557
0.0007678503356
0.0007727209226
0.0007776187596
0.0007820870572
0.0007856228951
0.0007876818375
0.0007719295895
0.0007745115862
0.0007781696371
0.0007826109292
0.0007874853505
0.0007923868954
0.0007968584315
0.0008003967152
0.0008024570152
0.0007866893723
0.0007892732795
0.0007929339785
0.00079737839
0.0008022561079
0.0008071608235
0.0008116351108
0.0008151754567
0.0008172368915
0.000801455468
0.000804041009
0.0008077039656
0.0008121510246
0.0008170315242
0.0008219388958
0.0008264154676
0.0008299575083
0.0008320198646
0.0008162262134
0.0008188131228
0.0008224779624
0.0008269272164
0.0008318100038
0.0008367195376
0.0008411979462
0.0008447413289
0.0008468044022
0.0008310000197
0.0008335880425
0.0008372544052
0.0008417054191
0.0008465900193
0.0008515012406
0.0008559810549
0.0008595254404
0.0008615890335
0.0008457753657
0.0008483642562
0.000852031795
0.0008564841493
0.0008613701042
0.0008662825546
0.0008707633586
0.0008743084189
0.0008763723416
0.0008605507897
0.0008631403104
0.0008668086896
0.0008712619782
0.0008761488439
0.000881062079
0.000885543469
0.0008890888859
0.0008911529533
0.0008753248814
0.0008779148012
0.0008815836942
0.0008860375219
0.0008909248659
0.0008958384523
0.0009003200342
0.0009038654965
0.0009059295277
0.0008900962711
0.000892686364
0.0008963554511
0.0009008094302
0.000905696828
0.0009106103394
0.000915091725
0.000918636926
0.0009207007426
0.0009048636178
0.0009074536607
0.0009111226257
0.0009155763727
0.0009204634032
0.0009253764165
0.0009298572195
0.0009334018533
0.0009354652769
0.0009196255944
0.0009222153644
0.0009258838914
0.0009303370219
0.0009352232627
0.0009401353517
0.0009446151823
0.0009481589394
0.0009502217894
0.000934380869
0.0009369701403
0.0009406379088
0.0009450900322
0.0009499750523
0.0009548857813
0.0009593642394
0.0009629068015
0.0009649688915
0.0009491280815
0.0009517166219
0.0009553833009
0.0009598340127
0.0009647173644
0.0009696262791
0.0009741029462
0.0009776439788
0.0009797051124
0.000963865815
0.0009664533799
0.0009701186207
0.0009745674932
0.0009794487017
0.0009843553179
0.0009888297461
0.0009923688898
0.0009944288553
0.0009785925574
0.0009811788842
0.0009848423108
0.0009892888815
0.0009941674307
0.0009990712202
0.001003542919
0.001007079778
0.001009138342
0.0009933066553
0.0009958914546
0.0009995526518
0.001003996408
0.001008871724
0.001013772096
0.001018240513
0.001021774643
0.00102383154
0.001008006254
0.001010589199
0.001014247698
0.001018688058
0.001023559486
0.001028455765
0.001032920268
0.001036451153
0.001038506078
0.001022689223
0.001025269938
0.001028925194
0.001033361483
0.001038228262
0.00104311966
0.001047579505
0.001051106541
0.001053159132
0.001037353063
0.001039931105
0.001043582479
0.001048013899
0.001052875126
0.001057760703
0.001062215005
0.001065737467
0.001067787292
0.001051994795
0.001054569633
0.001058216359
0.001062641953
0.001067496541
0.001072375164
0.001076822851
0.001080339863
0.001082386396
0.00106661082
0.001069181813
0.001072822961
0.001077241566
0.001082088195
0.001086958485
0.00109139825
0.00109490874
0.001096951338
0.001081196755
0.001083763121
0.001087397555
0.00109180775
0.001096644803
0.001101505069
0.00110593531
0.001109437963
0.001111475837
0.001095747241
0.001098308019
0.001101934348
0.001106334389
0.001111159881
0.001116008048
0.001120426794
0.001123919993
0.001125952173
0.001110255719
0.001112809732
0.001116426247
0.001120813993
0.001125625486
0.001130459005
0.001134863838
0.001138345599
0.001140370893
0.00112471418
0.001127259984
0.00113086459
0.001135237419
0.001140031929
0.00114484768
0.00114923564
0.001152703536
0.001154720488
0.001139112883
0.001141648715
0.001145238857
0.001149593571
0.00115436746
0.001159161644
0.00116352913
0.001166980209
0.001168987049
0.001153440055
0.001155963778
0.001159536357
0.001163869079
0.001168617944
0.001173385964
0.001177728626
0.001181159326
0.001183153922
0.001167681583
0.001170190619
0.001173741905
0.001178047976
0.001182766529
0.001187502873
0.001191815501
0.001195221562
0.001197201363
0.001181820694
0.00118431197
0.001187837515
0.001192111383
0.001196793334
0.001201491456
0.001205767869
0.001209144245
0.001211106237
0.001195837666
0.001198307548
0.001201802103
0.001206037224
0.001210675168
0.001215327377
0.001219560329
0.001222901114
0.001224841774
0.001209709568
0.001212153811
0.001215611246
0.001219799996
0.00122438532
0.001228982688
0.001233163786
0.001236462151
0.001238377411
0.001223410062
0.001225823766
0.001229237016
0.001233370618
0.001237893435
0.001242425734
0.001246545382
0.00124979354
0.001251678771
0.001236909296
0.001239286881
0.001242647914
0.001246716408
0.001251165517
0.001255621194
0.001259668586
0.001262857789
0.0012647078
0.001250173908
0.001252509112
0.001255808927
0.00125980118
0.001264164096
0.001268530307
0.00127249346
0.001275614034
0.001277423104
0.001263167189
0.001265453095
0.001268681769
0.001272585537
0.001276848571
0.001281111279
0.001284977141
0.001288018582
0.001289780513
0.001275849421
0.00127807852
0.001281225306
0.001285027364
0.001289175779
0.001293319928
0.001297074556
0.001300025682
0.001301733895
0.001288178415
0.001290342712
0.001293396191
0.001297082537
0.00130110079
0.00130511057
0.001308739383
0.001311588553
0.001313236225
0.001300110265
0.001302201426
0.001305149733
0.001308705867
0.001312577939
0.001316437134
0.00131992526
0.001322660657
0.001324240896
0.001311600319
0.001313609868
0.001316440972
0.001319852263
0.001323562071
0.001327254507
0.0013305872
0.001333197183