/*--------------------------------*- C++ -*----------------------------------*\
| =========                 |                                                 |
| \\      /  F ield         | OpenFOAM: The Open Source CFD Toolbox           |
|  \\    /   O peration     | Version:  2212                                  |
|   \\  /    A nd           | Website:  www.openfoam.com                      |
|    \\/     M anipulation  |                                                 |
\*---------------------------------------------------------------------------*/
FoamFile
{
    version     2.0;
    format      ascii;
    arch        "LSB;label=32;scalar=64";
    class       volScalarField;
    location    "20.00000000";
    object      A2CH2-2_0;
}
// * * * * * * * * * * * * * * * * * * * * * * * * * * * * * * * * * * * * * //

dimensions      [0 0 0 0 0 0 0];

internalField   nonuniform List<scalar> 
3000
(
1.296138144e-23
1.456044079e-23
1.697341352e-23
2.018892047e-23
2.417428551e-23
2.882129284e-23
3.384998792e-23
3.864834803e-23
4.204142186e-23
4.866273806e-23
5.488678007e-23
6.427480218e-23
7.681299341e-23
9.248895033e-23
1.112157963e-22
1.326684726e-22
1.557639913e-22
1.762228884e-22
1.090018044e-22
1.239084736e-22
1.466075449e-22
1.774278162e-22
2.169236246e-22
2.656679834e-22
3.234690939e-22
3.870817756e-22
4.414493901e-22
2.076202238e-22
2.384860029e-22
2.861758081e-22
3.523034058e-22
4.39211693e-22
5.491091254e-22
6.813961288e-22
8.254825428e-22
9.41781635e-22
3.686808298e-22
4.286883099e-22
5.228636907e-22
6.559910127e-22
8.343321406e-22
1.062885838e-21
1.337834365e-21
1.629820053e-21
1.853960537e-21
6.339788105e-22
7.466070337e-22
9.258996482e-22
1.183299581e-21
1.532538258e-21
1.982404108e-21
2.519461903e-21
3.075984738e-21
3.487720341e-21
1.076283809e-21
1.283177113e-21
1.616369929e-21
2.100119483e-21
2.761366892e-21
3.613261256e-21
4.620570952e-21
5.644027074e-21
6.382522903e-21
1.821473292e-21
2.195916791e-21
2.8043113e-21
3.694460941e-21
4.916024369e-21
6.486601011e-21
8.327403411e-21
1.017049369e-20
1.147823523e-20
3.087669237e-21
3.758199783e-21
4.854731854e-21
6.467224495e-21
8.684022305e-21
1.152645884e-20
1.483397884e-20
1.811116532e-20
2.041078468e-20
5.252582e-21
6.443885561e-21
8.400982615e-21
1.128829815e-20
1.526014202e-20
2.033961408e-20
2.621746055e-20
3.199869451e-20
3.602525677e-20
8.970699819e-21
1.10747892e-20
1.454243651e-20
1.966866249e-20
2.672065559e-20
3.571904583e-20
4.608881997e-20
5.623585339e-20
6.326767877e-20
1.537633327e-20
1.9076131e-20
2.518697667e-20
3.423207432e-20
4.667252883e-20
6.251812792e-20
8.07234297e-20
9.847357274e-20
1.107318943e-19
2.643611156e-20
3.292023197e-20
4.364604066e-20
5.95345473e-20
8.13808349e-20
1.09167661e-19
1.410217469e-19
1.720008557e-19
1.933449688e-19
4.556066317e-20
5.689655392e-20
7.566759627e-20
1.034873478e-19
1.417268646e-19
1.903106657e-19
2.459136674e-19
2.998928324e-19
3.370280437e-19
7.866639494e-20
9.844878567e-20
1.312304689e-19
1.798300652e-19
2.466136871e-19
3.313891902e-19
4.282900987e-19
5.222414618e-19
5.868285542e-19
1.360183228e-19
1.704958803e-19
2.276605075e-19
3.124303238e-19
4.289013301e-19
5.76671306e-19
7.454353315e-19
9.089065322e-19
1.021230386e-18
2.354279575e-19
2.954591743e-19
3.950353318e-19
5.427365782e-19
7.456870013e-19
1.003157323e-18
1.297157413e-18
1.581773021e-18
1.776893897e-18
4.078032262e-19
5.122479216e-19
6.855444186e-19
9.426274679e-19
1.295839445e-18
1.743781086e-18
2.254978711e-18
2.749503533e-18
3.088411136e-18
7.067886364e-19
8.88403353e-19
1.189799631e-18
1.636942775e-18
2.251204723e-18
3.029966817e-18
3.918313551e-18
4.777313131e-18
5.365850704e-18
1.225504279e-18
1.541182138e-18
2.065130236e-18
2.8424687e-18
3.910225485e-18
5.263618199e-18
6.806974839e-18
8.298855404e-18
9.320713108e-18
2.125609085e-18
2.67416095e-18
3.584700441e-18
4.935600155e-18
6.791025097e-18
9.14234321e-18
1.182300529e-17
1.441353263e-17
1.618753688e-17
3.68775828e-18
4.640786717e-18
6.222781566e-18
8.56980707e-18
1.179302258e-17
1.587691177e-17
2.053167716e-17
2.502875905e-17
2.810773013e-17
6.399190412e-18
8.054690962e-18
1.080275965e-17
1.487947906e-17
2.047729063e-17
2.756827881e-17
3.564830443e-17
4.345238014e-17
4.879413244e-17
1.110569761e-17
1.398107568e-17
1.875386032e-17
2.583338243e-17
3.555247637e-17
4.786071888e-17
6.188111563e-17
7.54180435e-17
8.468094175e-17
1.927522428e-17
2.426867024e-17
3.255634797e-17
4.484733101e-17
6.171643985e-17
8.307194192e-17
1.073880503e-16
1.308554313e-16
1.469070179e-16
3.34546968e-17
4.212495803e-17
5.651271136e-17
7.784479279e-17
1.071118818e-16
1.441453967e-16
1.862902118e-16
2.269408295e-16
2.547309307e-16
5.806075792e-17
7.311159514e-17
9.808148195e-17
1.350897654e-16
1.858391e-16
2.500157071e-16
3.229975523e-16
3.933385705e-16
4.413916397e-16
1.007465127e-16
1.268643859e-16
1.701803693e-16
2.343481332e-16
3.222832044e-16
4.333931436e-16
5.596281568e-16
6.811729457e-16
7.641259167e-16
1.74759178e-16
2.200587321e-16
2.951533689e-16
4.063251608e-16
5.585424211e-16
7.506698557e-16
9.686807295e-16
1.178313849e-15
1.321204151e-15
3.029971318e-16
3.815087862e-16
5.115834983e-16
7.039856994e-16
9.671291095e-16
1.298807389e-15
1.674567755e-15
2.035269827e-15
2.280724609e-15
5.249703561e-16
6.60906529e-16
8.859486028e-16
1.218461453e-15
1.672580162e-15
2.243965321e-15
2.889976002e-15
3.508748388e-15
3.928927861e-15
9.086995142e-16
1.143739703e-15
1.532473384e-15
2.106061122e-15
2.88801074e-15
3.869711996e-15
4.9768103e-15
6.034348797e-15
6.750578781e-15
1.570973149e-15
1.976638589e-15
2.646761456e-15
3.63385452e-15
4.97651802e-15
6.657582631e-15
8.547468071e-15
1.034675361e-14
1.15614149e-14
2.711669657e-15
3.410210814e-15
4.562422229e-15
6.256062978e-15
8.553508945e-15
1.142049664e-14
1.463150644e-14
1.767640717e-14
1.972405895e-14
4.671597165e-15
5.870989091e-15
7.84574801e-15
1.074105456e-14
1.465569736e-14
1.952152975e-14
2.494699137e-14
3.006772977e-14
3.34959252e-14
8.029384189e-15
1.008145679e-14
1.345277227e-14
1.838059188e-14
2.501743827e-14
3.322875777e-14
4.233717089e-14
5.088778149e-14
5.658296719e-14
1.37627207e-14
1.725877908e-14
2.298757301e-14
3.13312563e-14
4.251771488e-14
5.628412589e-14
7.146462675e-14
8.562919093e-14
9.500996638e-14
2.351476813e-14
2.944117054e-14
3.912313736e-14
5.316572938e-14
7.189491469e-14
9.480436316e-14
1.199008676e-13
1.431615081e-13
1.584710256e-13
4.003092604e-14
5.001918223e-14
6.628029828e-14
8.975313458e-14
1.208762762e-13
1.586900636e-13
1.99815081e-13
2.376569671e-13
2.623993011e-13
6.786892559e-14
8.459251891e-14
1.117115957e-13
1.506488722e-13
2.019410723e-13
2.638023224e-13
3.305592297e-13
3.915182997e-13
4.311014993e-13
1.145430057e-13
1.423382972e-13
1.872129451e-13
2.512635069e-13
3.35040168e-13
4.352845706e-13
5.425786159e-13
6.397793223e-13
7.024523965e-13
1.923500399e-13
2.381737046e-13
3.11797131e-13
4.162085428e-13
5.517418683e-13
7.125741056e-13
8.832624175e-13
1.036649651e-12
1.134854431e-12
3.212548593e-13
3.961382797e-13
5.158236728e-13
6.843998198e-13
9.014820106e-13
1.156882176e-12
1.425608299e-12
1.665155422e-12
1.817460529e-12
5.334012922e-13
6.546268561e-13
8.473090634e-13
1.116758071e-12
1.460888646e-12
1.862249557e-12
2.280937753e-12
2.651219068e-12
2.885066685e-12
8.800884023e-13
1.074398437e-12
1.381466429e-12
1.807710211e-12
2.347560981e-12
2.971742426e-12
3.617403698e-12
4.184065045e-12
4.539648078e-12
1.442439943e-12
1.750702537e-12
2.234980743e-12
2.902204425e-12
3.740253229e-12
4.700990427e-12
5.686732794e-12
6.54559216e-12
7.081297969e-12
2.347542166e-12
2.831448574e-12
3.587164761e-12
4.620662342e-12
5.90820792e-12
7.372152333e-12
8.862614835e-12
1.015239442e-11
1.095241281e-11
3.792589481e-12
4.544158421e-12
5.711030336e-12
7.295278034e-12
9.253483141e-12
1.146261582e-11
1.36954891e-11
1.561554589e-11
1.680045907e-11
6.080640188e-12
7.23557409e-12
9.018544326e-12
1.142243999e-11
1.437163789e-11
1.767442083e-11
2.099031778e-11
2.382523546e-11
2.556670339e-11
9.673059923e-12
1.14293638e-11
1.412605032e-11
1.773794249e-11
2.213823469e-11
2.703270826e-11
3.191645889e-11
3.607004223e-11
3.861109023e-11
1.526577933e-11
1.790955261e-11
2.194821208e-11
2.732426504e-11
3.383149685e-11
4.102465558e-11
4.816218944e-11
5.420429681e-11
5.788730692e-11
2.389934336e-11
2.784034989e-11
3.383214895e-11
4.176283982e-11
5.130542667e-11
6.179467409e-11
7.215113462e-11
8.088203568e-11
8.618729602e-11
3.71166952e-11
4.293731329e-11
5.174775736e-11
6.33484522e-11
7.723249077e-11
9.241743934e-11
1.073444582e-10
1.198832858e-10
1.274818105e-10
5.718415405e-11
6.570578653e-11
7.855300659e-11
9.53896547e-11
1.154440499e-10
1.372800499e-10
1.586624343e-10
1.765677984e-10
1.873933621e-10
8.740714878e-11
9.978172413e-11
1.18370773e-10
1.426304379e-10
1.714040723e-10
2.026111688e-10
2.33067063e-10
2.585018735e-10
2.73849691e-10
1.325732802e-10
1.504078098e-10
1.771135771e-10
2.118369969e-10
2.528674597e-10
2.972151554e-10
3.403687669e-10
3.763249272e-10
3.979861827e-10
1.995721831e-10
2.250983235e-10
2.632145129e-10
3.126125715e-10
3.707918087e-10
4.334865185e-10
4.943392647e-10
5.449436204e-10
5.753887655e-10
2.98259614e-10
3.34564179e-10
3.886417241e-10
4.585255235e-10
5.405967004e-10
6.288082936e-10
7.142433579e-10
7.85173847e-10
8.278021166e-10
4.426576582e-10
4.939955984e-10
5.703020769e-10
6.686667034e-10
7.838986294e-10
9.074752706e-10
1.026942848e-09
1.12599393e-09
1.185472439e-09
6.526163722e-10
7.248352644e-10
8.319779297e-10
9.697940835e-10
1.130895836e-09
1.303333575e-09
1.469780456e-09
1.607630209e-09
1.690354189e-09
9.561075522e-10
1.057222834e-09
1.206992855e-09
1.399279532e-09
1.623639801e-09
1.863396328e-09
2.0945253e-09
2.285774741e-09
2.40049139e-09
1.392382965e-09
1.533356898e-09
1.74187251e-09
2.009149274e-09
2.320513885e-09
2.652786266e-09
2.972760218e-09
3.237340174e-09
3.395993627e-09
2.016312684e-09
2.212108256e-09
2.501361023e-09
2.871611685e-09
3.302350992e-09
3.761478252e-09
4.203223908e-09
4.568297838e-09
4.787172592e-09
2.904329795e-09
3.175334544e-09
3.575277629e-09
4.086601375e-09
4.68077114e-09
5.313478277e-09
5.921797697e-09
6.424332496e-09
6.725598786e-09
4.16255239e-09
4.536498726e-09
5.087862935e-09
5.792049301e-09
6.609518685e-09
7.479292222e-09
8.315060055e-09
9.00529438e-09
9.4190935e-09
5.937845494e-09
6.45239729e-09
7.210484186e-09
8.17782845e-09
9.299840012e-09
1.049282093e-08
1.163863675e-08
1.258475166e-08
1.315200439e-08
8.432840977e-09
9.13907294e-09
1.017885653e-08
1.150463504e-08
1.304127964e-08
1.467418373e-08
1.624196733e-08
1.753636133e-08
1.831254057e-08
1.192626207e-08
1.289333021e-08
1.431630344e-08
1.612946074e-08
1.822970138e-08
2.046043626e-08
2.26016048e-08
2.436929865e-08
2.542948069e-08
1.68003101e-08
1.812170287e-08
2.006503783e-08
2.253980375e-08
2.540487343e-08
2.844672073e-08
3.136577479e-08
3.377562411e-08
3.522122294e-08
2.357737614e-08
2.53792481e-08
2.802800243e-08
3.139936342e-08
3.530059468e-08
3.944106768e-08
4.34136395e-08
4.669321559e-08
4.866091182e-08
3.296893718e-08
3.542116243e-08
3.902445976e-08
4.360865032e-08
4.891106691e-08
5.453683389e-08
5.993351121e-08
6.438871796e-08
6.706221367e-08
4.59401714e-08
4.927090608e-08
5.416323632e-08
6.038468578e-08
6.757798555e-08
7.520755278e-08
8.252506843e-08
8.856577959e-08
9.219113366e-08
6.379452716e-08
6.830922882e-08
7.493823907e-08
8.33646805e-08
9.310353487e-08
1.034296749e-07
1.133313105e-07
1.215045063e-07
1.264099104e-07
8.828312236e-08
9.438911672e-08
1.033514603e-07
1.147391385e-07
1.27894971e-07
1.41839101e-07
1.552063303e-07
1.66238331e-07
1.728592414e-07
1.217442966e-07
1.299820724e-07
1.420689982e-07
1.574200291e-07
1.751465283e-07
1.939272936e-07
2.119246914e-07
2.267740476e-07
2.356845427e-07
1.67278697e-07
1.783610953e-07
1.946154135e-07
2.152492455e-07
2.390636931e-07
2.642817632e-07
2.884369049e-07
3.083592043e-07
3.203102343e-07
2.289647094e-07
2.438249858e-07
2.656107369e-07
2.9325122e-07
3.251331287e-07
3.588735035e-07
3.911728174e-07
4.17797967e-07
4.337626627e-07
3.121175836e-07
3.319668873e-07
3.610523659e-07
3.979310101e-07
4.40438412e-07
4.853902202e-07
5.283903937e-07
5.638117003e-07
5.850372625e-07
4.235929995e-07
4.499870622e-07
4.886407048e-07
5.376151973e-07
5.940170918e-07
6.536088167e-07
7.10561218e-07
7.574338211e-07
7.8549775e-07
5.721319039e-07
6.070456267e-07
6.581426218e-07
7.228275296e-07
7.972484525e-07
8.757936798e-07
9.507766938e-07
1.012419848e-06
1.049286472e-06
7.687381984e-07
8.146453776e-07
8.817807112e-07
9.666844904e-07
1.064254021e-06
1.16709984e-06
1.26515044e-06
1.345648345e-06
1.393733352e-06
1.027074432e-06
1.08702807e-06
1.174629264e-06
1.285288976e-06
1.412285505e-06
1.545950818e-06
1.673186082e-06
1.77749045e-06
1.839708437e-06
1.36385337e-06
1.441560645e-06
1.554990963e-06
1.698091918e-06
1.862065583e-06
2.034360793e-06
2.198091718e-06
2.332089221e-06
2.411891731e-06
1.799196049e-06
1.8990792e-06
2.044719267e-06
2.22818448e-06
2.438057548e-06
2.658182099e-06
2.866970992e-06
3.037525341e-06
3.138920289e-06
2.356916784e-06
2.484149811e-06
2.669448105e-06
2.902512188e-06
3.168635753e-06
3.447201499e-06
3.710877732e-06
3.925831535e-06
4.053378796e-06
3.06471169e-06
3.225249799e-06
3.458753219e-06
3.751954403e-06
4.086084081e-06
4.435083992e-06
4.764700278e-06
5.032829334e-06
5.191608821e-06
3.954257596e-06
4.15480387e-06
4.446101843e-06
4.811217972e-06
5.226429478e-06
5.659134616e-06
6.066857584e-06
6.397773853e-06
6.593324541e-06
5.061072871e-06
5.309015239e-06
5.668643009e-06
6.118559527e-06
6.629087789e-06
7.159868999e-06
7.658802943e-06
8.062806685e-06
8.301037563e-06
6.424219249e-06
6.727525528e-06
7.166807864e-06
7.71531598e-06
8.336319647e-06
8.98039738e-06
9.584346019e-06
1.007223218e-05
1.035930867e-05
8.085806612e-06
8.452879478e-06
8.983719072e-06
9.645249787e-06
1.039250932e-05
1.116564154e-05
1.188881829e-05
1.247164636e-05
1.281385793e-05
1.009030724e-05
1.052980481e-05
1.116442428e-05
1.195373005e-05
1.284329366e-05
1.376141736e-05
1.461811924e-05
1.530695897e-05
1.571057533e-05
1.248370167e-05
1.30043326e-05
1.375498321e-05
1.468678382e-05
1.573458017e-05
1.681342611e-05
1.781768924e-05
1.862335653e-05
1.909448044e-05
1.531249257e-05
1.592279683e-05
1.680144994e-05
1.789006224e-05
1.911150146e-05
2.036620351e-05
2.153145949e-05
2.246425691e-05
2.300868173e-05
1.862263391e-05
1.933076163e-05
2.034880025e-05
2.160777241e-05
2.301735749e-05
2.446207795e-05
2.580082933e-05
2.687030487e-05
2.749338419e-05
2.245842949e-05
2.327193004e-05
2.443985733e-05
2.588162728e-05
2.749259626e-05
2.914018618e-05
3.066371705e-05
3.187845258e-05
3.258498761e-05
2.686145608e-05
2.778708851e-05
2.911426815e-05
3.07498632e-05
3.257387925e-05
3.443558924e-05
3.615372339e-05
3.752116111e-05
3.831531024e-05
3.186956355e-05
3.29131371e-05
3.440757731e-05
3.624636793e-05
3.829327002e-05
4.037852247e-05
4.229943731e-05
4.382574966e-05
4.471096247e-05
3.75159963e-05
3.868224734e-05
4.035043655e-05
4.239995287e-05
4.467757458e-05
4.699380337e-05
4.912390363e-05
5.081390856e-05
5.179288484e-05
4.382867074e-05
4.512117941e-05
4.696797755e-05
4.923379213e-05
5.17478515e-05
5.430041039e-05
5.664426167e-05
5.850138256e-05
5.957605549e-05
5.082963117e-05
5.225077818e-05
5.427936387e-05
5.676504027e-05
5.95190988e-05
6.231123591e-05
6.487155471e-05
6.689782156e-05
6.806936291e-05
5.853469458e-05
6.008565654e-05
6.229752698e-05
6.500462978e-05
6.800011525e-05
7.103300754e-05
7.381070179e-05
7.600678898e-05
7.727563329e-05
6.695328378e-05
6.863406305e-05
7.102908124e-05
7.395724042e-05
7.719352554e-05
8.046636491e-05
8.346061733e-05
8.582591162e-05
8.719179604e-05
7.608843851e-05
7.789792257e-05
8.047440441e-05
8.362142515e-05
8.709595215e-05
9.060607356e-05
9.381445925e-05
9.634715163e-05
9.780916751e-05
8.593698679e-05
8.787303122e-05
9.062786425e-05
9.398987239e-05
9.769831311e-05
0.0001014413544
0.0001048599837
0.0001075571784
0.0001091138312
9.648985359e-05
9.854938254e-05
0.0001014781678
0.0001050497808
0.0001089862216
0.0001129563051
0.0001165799834
0.0001194378176
0.0001210870921
0.0001077324809
0.000109911599
0.0001130088078
0.0001167833219
0.0001209404638
0.0001251303903
0.0001289527865
0.0001319665559
0.0001337059829
0.0001196453323
0.0001219394424
0.0001251985808
0.0001291681651
0.00013353753
0.0001379389773
0.000141952795
0.0001451170795
0.0001469438024
0.0001322044558
0.0001346083783
0.0001380221516
0.000142178043
0.0001467501786
0.0001513538974
0.0001555510426
0.0001588598286
0.0001607706683
0.0001453820803
0.0001478901691
0.0001514506432
0.0001557833345
0.0001605480123
0.0001653440139
0.0001697157552
0.0001731625523
0.0001751540673
0.0001591472241
0.0001617534771
0.0001654522306
0.0001699516486
0.0001748980495
0.0001798757825
0.0001844129
0.0001879908489
0.0001900593916
0.0001734662974
0.000176164459
0.0001799927234
0.0001846483929
0.0001897652785
0.0001949137894
0.0001996067118
0.0002033086824
0.00020545045
0.0001883036834
0.0001910873366
0.0001950361241
0.0001998373156
0.0002051131816
0.0002104212605
0.000215260187
0.0002190788669
0.0002212899462
0.000203622286
0.0002064849347
0.0002105451504
0.0002154810115
0.0002209042241
0.0002263605322
0.0002313355403
0.0002352635118
0.0002375399194
0.0002193840369
0.0002223191772
0.000226481717
0.0002315413855
0.000237100299
0.0002426934796
0.000247794619
0.0002518244265
0.0002541621432
0.0002355503554
0.0002385515364
0.0002428073704
0.0002479800709
0.0002536631282
0.0002593819011
0.000264599273
0.0002687234802
0.0002711184806
0.0002520825586
0.0002551434328
0.0002594836746
0.0002647587993
0.0002705546155
0.0002763878561
0.0002817116801
0.0002859229188
0.000288371196
0.0002689422207
0.0002720565854
0.0002764725485
0.0002818397231
0.0002877371539
0.0002936739578
0.0002990946273
0.0003033856373
0.0003058832242
0.0002860914823
0.0002892533121
0.0002937365552
0.0002991856909
0.0003051738876
0.0003112036228
0.0003167117494
0.0003210754111
0.0003236183978
0.0003034933111
0.0003066967834
0.0003112391444
0.0003167604787
0.0003228289306
0.0003289412784
0.0003345277276
0.0003389570887
0.0003415416365
0.0003211117178
0.0003243512309
0.0003289448534
0.00033452898
0.0003406675463
0.0003468525322
0.0003525084502
0.0003569967467
0.0003596190997
0.0003389119296
0.000342182116
0.0003468194664
0.0003524573567
0.0003586562895
0.0003649043058
0.0003706211405
0.0003751618123
0.0003778183071
0.0003568605263
0.0003601562606
0.0003648301399
0.0003705131566
0.0003767631158
0.0003830649372
0.0003888344524
0.0003934211557
0.0003961082282
0.0003749255419
0.0003782419448
0.0003829454943
0.000388665399
0.0003949574615
0.0004013042544
0.0004071185395
0.0004117451553
0.000414459347
0.0003930765359
0.0003964089752
0.0004011356784
0.0004068846338
0.0004132102965
0.0004195936241
0.0004254450997
0.0004301057397
0.0004328437018
0.0004112846394
0.0004146287283
0.0004193724087
0.0004251429771
0.0004314941564
0.0004379059786
0.000443787399
0.0004484764091
0.0004512349057
0.0004295225778
0.0004328741711
0.0004376289872
0.0004434141257
0.000449783153
0.0004562158246
0.0004621202771
0.0004668322387
0.0004696081492
0.0004477646749
0.0004511198638
0.0004558803025
0.0004616733548
0.0004680529701
0.0004744992352
0.0004804201376
0.0004851498678
0.0004879401884
0.0004659868413
0.0004693419467
0.0004741028142
0.0004798975019
0.0004862808446
0.0004927338298
0.0004986649257
0.0005034074761
0.0005062093207
0.0004841665488
0.0004875181143
0.0004922745267
0.0004980649383
0.0005044455367
0.0005108987421
0.0005168340957
0.0005215847495
0.0005243953498
0.0005022827957
0.0005056275794
0.0005103749521
0.0005161555307
0.0005225272905
0.0005289745802
0.0005349085692
0.0005396628383
0.0005424795436
0.0005203160623
0.0005236510287
0.0005283850652
0.0005341505963
0.0005405077883
0.0005469433795
0.0005528706873
0.0005576243086
0.0005604445852
0.000538248261
0.0005415705725
0.0005462872528
0.0005520328514
0.0005583700986
0.0005647885506
0.0005707041582
0.0005754530884
0.0005782745184
0.0005560626812
0.0005593696894
0.0005640652586
0.0005697863559
0.0005760986202
0.0005824948226
0.0005883939998
0.0005931344111
0.0005959546911
0.0005737439306
0.0005770331683
0.0005817041251
0.0005873964553
0.0005936790242
0.0006000481849
0.0006059264812
0.0006106547555
0.000613471695
0.0005912778751
0.0005945470475
0.0005991901327
0.0006048497198
0.0006110981933
0.0006174358266
0.0006232890619
0.0006280017852
0.0006308133046
0.0006086515767
0.0006118985534
0.0006165107387
0.0006221338839
0.0006283441608
0.0006346460756
0.0006404703305
0.0006451642872
0.0006479684155
0.0006258532313
0.0006290760384
0.0006336545155
0.0006392377843
0.0006454060496
0.000651668337
0.0006574599438
0.0006621321103
0.0006649269829
0.0006428721072
0.0006460689195
0.0006506110897
0.0006561512995
0.0006622740115
0.0006684930332
0.0006742485657
0.0006788961045
0.0006816799606
0.0006596984842
0.0006628676174
0.0006673710806
0.0006728652886
0.0006789391663
0.000685111543
0.0006908278076
0.000695448061
0.0006982192409
0.0006763235958
0.0006794634996
0.0006839260445
0.0006893715354
0.0006953935458
0.0007015161452
0.0007071901709
0.0007117806542
0.0007145375968
0.00069273957
0.0006958488209
0.0007002684153
0.0007056626907
0.000711630037
0.0007176999626
0.0007233289913
0.0007278873863
0.0007306286256
0.0007089393736
0.0007120166682
0.0007163914497
0.0007217322162
0.0007276423263
0.0007336569063
0.000739238384
0.0007437625329
0.0007464866952
0.0007249167572
0.0007279609057
0.0007322891728
0.0007375743323
0.0007434248473
0.0007493816243
0.000754913192
0.0007594010909
0.0007621068917
0.0007406662045
0.0007436761248
0.0007479563283
0.0007531839672
0.0007589727311
0.0007648694513
0.000770348936
0.0007747987282
0.0007774849692
0.0007561828832
0.0007591575948
0.0007633883293
0.000768556709
0.0007742817577
0.0007801163609
0.0007855417668
0.0007899517372
0.0007926173028
0.0007714625979
0.0007744012164
0.0007785812127
0.0007836887597
0.0007893483112
0.0007951189209
0.0008004884211
0.0008048569891
0.0008075008437
0.0007865017452
0.0007894034774
0.0007935315948
0.0007985768921
0.0008041693363
0.0008098742502
0.0008151861782
0.0008195118921
0.0008221330765
0.0008012972718
0.000804161411
0.0008082366302
0.0008132184082
0.0008187422979
0.0008243799787
0.0008296328203
0.0008339143512
0.0008365119796
0.0008158466369
0.0008186725557
0.0008226939726
0.0008276111011
0.0008330651428
0.0008386342092
0.0008438265947
0.0008480627307
0.0008506359875
0.0008301477774
0.0008329349211
0.0008369017385
0.0008417532185
0.0008471362637
0.0008526354819
0.0008577661786
0.0008619558189
0.0008645039558
0.0008441990655
0.0008469469509
0.0008508584723
0.0008556434282
0.0008609544648
0.0008663827404
0.0008714506457
0.0008755927959
0.0008781151287
0.0008579992791
0.0008607074913
0.0008645631134
0.0008692807858
0.0008745189311
0.0008798753019
0.0008848794362
0.0008889732018
0.0008914691076
0.0008715475699
0.0008742157567
0.0008780149655
0.0008826647055
0.0008878291988
0.0008931128267
0.0008980523265
0.0009020969083
0.0009045658223
0.0008848434358
0.0008874713044
0.0008912136708
0.000895794932
0.0009008851267
0.0009060952908
0.0009109694023
0.0009149640914
0.0009174055043
0.0008978866944
0.0009004740078
0.0009041591829
0.0009086715143
0.0009136868708
0.0009188229604
0.0009236310332
0.0009275752059
0.000929988661
0.000910677457
0.0009132240302
0.0009168517387
0.0009212947799
0.0009262348598
0.0009312963673
0.0009360378484
0.0009399309617
0.0009423160524
0.0009232161049
0.0009257218011
0.0009292918369
0.000933665312
0.0009385297716
0.0009435162871
0.0009481907151
0.0009520323018
0.0009543886687
0.000935503267
0.000937967995
0.0009414802165
0.0009457839299
0.0009505725132
0.0009554837175
0.0009600907169
0.0009638803818
0.0009662077101
0.000947539799
0.0009499635096
0.0009534178359
0.0009576516654
0.0009623641995
0.0009671998586
0.0009717391351
0.00097547655
0.0009777745675
0.0009593267635
0.0009617094473
0.0009651058532
0.0009692697459
0.0009739061351
0.0009786660952
0.0009831374297
0.0009868223301
0.0009890908041
0.0009708654122
0.0009732070962
0.0009765456093
0.0009806395767
0.0009851997973
0.0009898839786
0.0009942872233
0.0009979194041
0.00100015814
0.0009821571683
0.0009844579137
0.0009877386101
0.0009917627234
0.0009962468192
0.001000855212
0.001005190285
0.001008769597
0.001010978435
0.0009932036114
0.0009954635111
0.0009986865125
0.0010026409
0.001007048976
0.001011581634
0.001015848516
0.001019374862
0.001021553675
0.001004006462
0.001006225638
0.001009391108
0.001013275948
0.001017608168
0.001022065208
0.001026263936
0.001029737267
0.001031885962
0.001014567568
0.001016746171
0.001019854312
0.001023669832
0.001027926413
0.001032308005
0.00103643867
0.001039858984
0.001041977494
0.001024888893
0.001027027097
0.001030078147
0.001033824618
0.001038005827
0.001042312194
0.001046374939
0.001049742275
0.001051830561
0.001034972503
0.001037070505
0.001040064736
0.00104374247
0.00104784862
0.001052080032
0.001056075043
0.001059389482
0.001061447531
0.001044820554
0.001046878573
0.001049816286
0.001053425633
0.00105745708
0.001061613851
0.001065541359
0.001068803015
0.001070830838
0.001054435286
0.00105645356
0.001059335085
0.001062876428
0.001066833564
0.001070916051
0.001074776324
0.001077985346
0.001079982976
0.001063819006
0.001065797792
0.001068623483
0.001072097236
0.001075980491
0.001079989084
0.001083782427
0.001086938995
0.001088906485
0.001072974087
0.001074913656
0.001077683889
0.001081090495
0.001084900329
0.001088835453
0.001092562202
0.001095666524
0.001097603945
0.001081902951
0.001083803588
0.001086518761
0.001089858687
0.001093595587
0.001097457696
0.001101118216
0.001104170525
0.001106077964
0.001090608064
0.001092470067
0.001095130593
0.001098404328
0.001102068806
0.001105858379
0.00110945306
0.00111245361
0.001114331168
0.001099091927
0.001100915603
0.001103521911
0.00110672996
0.001110322548
0.001114040085
0.001117569338
0.001120518399
0.001122366192
0.001107357064
0.001109142729
0.00111169526
0.001114838143
0.001118359387
0.001122005404
0.001125469653
0.001128367513
0.001130185663
0.001115406018
0.001117153994
0.001119653194
0.00112273144
0.001126181898
0.001129756919
0.0011331566
0.001136003551
0.001137792189
0.001123241337
0.001124951947
0.001127398269
0.00113041241
0.001133792641
0.001137297196
0.001140632746
0.001143429085
0.001145188341
0.001130865567
0.001132539135
0.001134933027
0.001137883593
0.001141194154
0.001144628766
0.001147900615
0.001150646633
0.001152376635
0.001138281241
0.001139918086
0.001142259991
0.001145147502
0.001148388936
0.001151754111
0.001154962674
0.001157658645
0.00115935951
0.00114549087
0.001147091302
0.001149381649
0.001152206606
0.001155379431
0.001158675649
0.001161821309
0.001164467479
0.001166139306
0.001152496938
0.001154061253
0.001156300448
0.001159063322
0.001162168019
0.001165395715
0.001168478811
0.001171075385
0.001172718242
0.00115930189
0.001160830364
0.001163018784
0.001165720004
0.001168757003
0.001171916552
0.001174937357
0.001177484478
0.001179098395
0.001165908135
0.001167401017
0.001169538997
0.001172178939
0.001175148601
0.0011782403
0.001181199002
0.001183696736
0.001185281685
0.001172318046
0.001173775553
0.001175863379
0.001178442348
0.00118134495
0.001184368994
0.001187265678
0.00118971399
0.001191269873
0.001178533973
0.001179956281
0.001181994176
0.001184512398
0.001187348115
0.001190304586
0.001193139207
0.001195537942
0.001197064579
0.001184558261
0.001185945503
0.001187933623
0.00119039123
0.001193160123
0.001196048967
0.001198821339
0.001201170208
0.001202667319
0.001190393289
0.001191745548
0.001193683975
0.001196081002
0.00119878301
0.001201604034
0.001204313819
0.001206612385
0.001208079588
0.00119604152
0.001197358832
0.001199247576
0.001201583962
0.001204218904
0.001206971773
0.001209618484
0.001211866172
0.001213302982
0.001201505576
0.001202787934
0.001204626942
0.001206902538
0.00120947013
0.001212154391
0.001214737414
0.001216933527
0.001218339376
0.001206788337
0.001208035703
0.001209824875
0.001212039474
0.001214539361
0.001217154484
0.001219673126
0.001221816894
0.001223191159
0.001211893056
0.001213105384
0.001214844606
0.001216997989
0.001219429803
0.001221975252
0.001224428818
0.001226519475
0.001227861539
0.001216823517
0.001218000781
0.001219689974
0.001221781972
0.001224145421
0.001226620753
0.001229008666
0.001231045566
0.001232354901
0.0012215842
0.001222726436
0.001224365624
0.001226396213
0.001228691193
0.001231096206
0.00123341816
0.001235400934
0.001236677218
0.001226180475
0.001227287839
0.001228877229
0.001230846646
0.001233073394
0.001235408303
0.001237664469
0.001239593223
0.001240836488
0.001230618804
0.001231691637
0.001233231728
0.001235140611
0.001237299885
0.00123956554
0.001241756807
0.001243632365
0.001244843174
0.001234906935
0.00123594584
0.001237437542
0.001239287097
0.001241380386
0.001243578522
0.001245706775
0.001247530948
0.0012487106
0.001239054085
0.001240060017
0.001241504781
0.001243296957
0.001245326705
0.001247460208
0.001249528621
0.001251304503
0.001252455249
0.001243071075
0.001244045428
0.001245445383
0.001247183058
0.001249152889
0.001251226065
0.001253239397
0.001254971649
0.001256096905
0.001246970401
0.001247915093
0.001249273174
0.001250960322
0.00125287525
0.001254894062
0.001256858919
0.001258554029
0.001259658566
0.001250766204
0.001251683748
0.001253003801
0.001254645629
0.001256512221
0.001258484477
0.001260409502
0.001262075963
0.001263166041
0.001254474111
0.00125536766
0.001256654506
0.001258257529
0.001260083988
0.001262019426
0.001263915385
0.001265563769
0.001266647189
0.001258110899
0.001258984254
0.001260243692
0.001261815728
0.00126361187
0.001265522103
0.001267401807
0.001269044679
0.00127013071
0.001261693965
0.00126255153
0.001263790258
0.001265340307
0.001267117382
0.001269015674
0.001270893699
0.001272545321
0.001273644477
0.001265240561
0.001266087233
0.001267312676
0.001268850661
0.001270621008
0.001272521823
0.001274413993
0.001276089791
0.001277213422
0.001268766799
0.001269607788
0.001270827802
0.001272364157
0.001274140654
0.001276058976
0.001277981573
0.001279697337
0.001280857025
0.001272286429
0.001273126996
0.001274349458
0.001275894549
0.001277689861
0.001279640271
0.00128160898
0.0012833798
0.001284586555
0.001275809432