/*--------------------------------*- C++ -*----------------------------------*\
| =========                 |                                                 |
| \\      /  F ield         | OpenFOAM: The Open Source CFD Toolbox           |
|  \\    /   O peration     | Version:  2212                                  |
|   \\  /    A nd           | Website:  www.openfoam.com                      |
|    \\/     M anipulation  |                                                 |
\*---------------------------------------------------------------------------*/
FoamFile
{
    version     2.0;
    format      ascii;
    arch        "LSB;label=32;scalar=64";
    class       volScalarField;
    location    "20.00000000";
    object      AC3H4;
}
// * * * * * * * * * * * * * * * * * * * * * * * * * * * * * * * * * * * * * //

dimensions      [0 0 0 0 0 0 0];

internalField   nonuniform List<scalar> 
3000
(
1.389576872e-22
1.561010494e-22
1.819702993e-22
2.164434429e-22
2.591701626e-22
3.089902873e-22
3.62902451e-22
4.143452163e-22
4.50722041e-22
5.217084182e-22
5.884357814e-22
6.890838763e-22
8.235046395e-22
9.915650957e-22
1.192333851e-21
1.422325978e-21
1.669930867e-21
1.88926878e-21
1.168597691e-21
1.328410695e-21
1.571765314e-21
1.902186569e-21
2.32561746e-21
2.848201213e-21
3.46788157e-21
4.149867255e-21
4.732737434e-21
2.225876374e-21
2.556785546e-21
3.068063563e-21
3.77701148e-21
4.708747299e-21
5.886947679e-21
7.305184653e-21
8.849922071e-21
1.009675415e-20
3.95259213e-21
4.595926896e-21
5.605572663e-21
7.032818726e-21
8.944798023e-21
1.139510185e-20
1.434280063e-20
1.747315337e-20
1.987614374e-20
6.796827671e-21
8.004304858e-21
9.92648512e-21
1.26860471e-20
1.643020431e-20
2.125317673e-20
2.701092651e-20
3.297735944e-20
3.739154111e-20
1.153874019e-20
1.375682521e-20
1.732895632e-20
2.251519317e-20
2.960436922e-20
3.873745485e-20
4.953673488e-20
6.05091194e-20
6.842646923e-20
1.952785122e-20
2.35422274e-20
3.006477205e-20
3.960798896e-20
5.270426414e-20
6.954227941e-20
8.927736111e-20
1.090369705e-19
1.230571523e-19
3.310262709e-20
4.029132636e-20
5.204715034e-20
6.933454168e-20
9.310063428e-20
1.235741425e-19
1.59033767e-19
1.941681862e-19
2.18822195e-19
5.631246523e-20
6.908432408e-20
9.006618497e-20
1.210208319e-19
1.63602604e-19
2.180591496e-19
2.810749861e-19
3.430550428e-19
3.862234269e-19
9.617406994e-20
1.187318168e-19
1.559081377e-19
2.108659165e-19
2.864696466e-19
3.829404908e-19
4.941137873e-19
6.028990902e-19
6.782865529e-19
1.648482698e-19
2.045134422e-19
2.700272141e-19
3.669987839e-19
5.003715801e-19
6.702505131e-19
8.654275315e-19
1.055724824e-18
1.187144832e-18
2.834190951e-19
3.529346908e-19
4.679249577e-19
6.382638737e-19
8.724753526e-19
1.170374569e-18
1.511878546e-18
1.844002012e-18
2.072829103e-18
4.884515486e-19
6.099824283e-19
8.112246663e-19
1.109476862e-18
1.519437942e-18
2.040299542e-18
2.636415454e-18
3.215122925e-18
3.613241757e-18
8.433748495e-19
1.055459705e-18
1.406908348e-18
1.927938796e-18
2.643919126e-18
3.552794821e-18
4.591680442e-18
5.598949936e-18
6.291363514e-18
1.458239292e-18
1.82786953e-18
2.440725281e-18
3.349533702e-18
4.598211783e-18
6.182462054e-18
7.991833083e-18
9.744492978e-18
1.094863393e-17
2.524000467e-18
3.167589121e-18
4.235134937e-18
5.818624166e-18
7.994430823e-18
1.075472719e-17
1.390662069e-17
1.695786698e-17
1.904979182e-17
4.372019216e-18
5.491760703e-18
7.349655842e-18
1.010581847e-17
1.389256773e-17
1.869489461e-17
2.417536329e-17
2.947708233e-17
3.311050907e-17
7.577412983e-18
9.524486878e-18
1.275572766e-17
1.754950719e-17
2.413495154e-17
3.248398345e-17
4.200785614e-17
5.121710255e-17
5.752676701e-17
1.313851315e-17
1.652286495e-17
2.214006209e-17
3.047383333e-17
4.192115196e-17
5.643074552e-17
7.297692238e-17
8.897122884e-17
9.99264678e-17
2.278844935e-17
2.86694207e-17
3.843122643e-17
5.291409162e-17
7.280592315e-17
9.801417732e-17
1.267532956e-16
1.545260874e-16
1.735450146e-16
3.953609898e-17
4.975342438e-17
6.671383767e-17
9.187607049e-17
1.264318514e-16
1.702148313e-16
2.201181194e-16
2.683308978e-16
3.013402476e-16
6.860509937e-17
8.635356021e-17
1.158153379e-16
1.595214514e-16
2.195350465e-16
2.955568433e-16
3.821820147e-16
4.658487539e-16
5.231171624e-16
1.190631064e-16
1.498897561e-16
2.010583175e-16
2.769571882e-16
3.811546532e-16
5.131101296e-16
6.634214463e-16
8.085495399e-16
9.078561758e-16
2.066478105e-16
2.601820614e-16
3.490334522e-16
4.808038924e-16
6.616559775e-16
8.906062511e-16
1.1512969e-15
1.402888425e-15
1.574975934e-15
3.586645649e-16
4.516175974e-16
6.058673108e-16
8.345664961e-16
1.148336132e-15
1.545368873e-15
1.997199371e-15
2.433010724e-15
2.73094572e-15
6.224637721e-16
7.838223456e-16
1.051522094e-15
1.448284334e-15
1.992363061e-15
2.680394285e-15
3.462825623e-15
4.216944908e-15
4.732117238e-15
1.080093639e-15
1.360100842e-15
1.82448733e-15
2.512423754e-15
3.455167196e-15
4.646366175e-15
5.999719624e-15
7.302789629e-15
8.192120461e-15
1.873576312e-15
2.359228478e-15
3.164310865e-15
4.356172971e-15
5.988079612e-15
8.047859407e-15
1.038513308e-14
1.263258966e-14
1.416450288e-14
3.24840312e-15
4.09011904e-15
5.484637556e-15
7.547363117e-15
1.036849842e-14
1.39243895e-14
1.795288043e-14
2.181993283e-14
2.445143006e-14
5.628156832e-15
7.085515535e-15
9.498170082e-15
1.306300855e-14
1.793157184e-14
2.405733755e-14
3.098315637e-14
3.761695602e-14
4.212166004e-14
9.742080544e-15
1.226192397e-14
1.642950067e-14
2.25788801e-14
3.096208741e-14
4.148681301e-14
5.335590844e-14
6.469367789e-14
7.23723113e-14
1.684225322e-14
2.119135377e-14
2.837567726e-14
3.89582081e-14
5.33527758e-14
7.137530966e-14
9.163659184e-14
1.10926561e-13
1.239488292e-13
2.907155237e-14
3.656054581e-14
4.891329507e-14
6.70706569e-14
9.170135724e-14
1.224380605e-13
1.568629921e-13
1.89507084e-13
2.114597645e-13
5.00837501e-14
6.294231754e-14
8.411352118e-14
1.15153829e-13
1.571223444e-13
2.092884735e-13
2.674543346e-13
3.223532866e-13
3.591066454e-13
8.608226891e-14
1.080823461e-13
1.442259019e-13
1.970565919e-13
2.682095971e-13
3.562423801e-13
4.538928188e-13
5.455631086e-13
6.06620657e-13
1.475488322e-13
1.850297467e-13
2.464476097e-13
3.358994566e-13
4.558284308e-13
6.034168325e-13
7.661655575e-13
9.180225188e-13
1.01859293e-12
2.520996209e-13
3.156360297e-13
4.194354951e-13
5.699848173e-13
7.707786693e-13
1.016388731e-12
1.285446012e-12
1.534821163e-12
1.698953067e-12
4.291678055e-13
5.362509791e-13
7.105849048e-13
9.622350183e-13
1.295903347e-12
1.701301468e-12
2.14219897e-12
2.547898314e-12
2.813158572e-12
7.276163803e-13
9.069085003e-13
1.197649654e-12
1.615092652e-12
2.164991658e-12
2.828200476e-12
3.543895168e-12
4.197431749e-12
4.621799576e-12
1.228004723e-12
1.525995553e-12
2.007092642e-12
2.693773e-12
3.59193511e-12
4.666646388e-12
5.816936212e-12
6.859016193e-12
7.530928516e-12
2.062166182e-12
2.55343768e-12
3.342748029e-12
4.462133738e-12
5.915174822e-12
7.639443338e-12
9.469377899e-12
1.111382897e-11
1.216667371e-11
3.444140868e-12
4.246959685e-12
5.530096788e-12
7.337387759e-12
9.664708193e-12
1.240283256e-11
1.528382332e-11
1.785198814e-11
1.948483835e-11
5.718536652e-12
7.018186163e-12
9.08391701e-12
1.197265932e-11
1.56620577e-11
1.996501866e-11
2.445374417e-11
2.842350257e-11
3.0930565e-11
9.435316556e-12
1.151849989e-11
1.481055414e-11
1.93802856e-11
2.516799231e-11
3.185980475e-11
3.87819018e-11
4.485704463e-11
4.866922837e-11
1.546417322e-11
1.876903583e-11
2.396095388e-11
3.111422562e-11
4.009891203e-11
5.039894192e-11
6.096705488e-11
7.017485915e-11
7.591814248e-11
2.516750894e-11
3.035544231e-11
3.845744411e-11
4.953754628e-11
6.334131219e-11
7.903626883e-11
9.501553955e-11
1.088432894e-10
1.174202979e-10
4.065921498e-11
4.871675418e-11
6.122676998e-11
7.82115146e-11
9.920552435e-11
1.228898017e-10
1.468286486e-10
1.674137785e-10
1.801173537e-10
6.518779029e-11
7.756981006e-11
9.668507568e-11
1.224574323e-10
1.540761898e-10
1.894859582e-10
2.25036463e-10
2.554303449e-10
2.741010738e-10
1.03698048e-10
1.225273809e-10
1.514387718e-10
1.90162513e-10
2.373392978e-10
2.898148354e-10
3.421758173e-10
3.867085607e-10
4.139525084e-10
1.636473752e-10
1.919913263e-10
2.352904322e-10
2.929288653e-10
3.626962649e-10
4.398191822e-10
5.163468754e-10
5.811302744e-10
6.206196579e-10
2.561825349e-10
2.984341959e-10
3.626738267e-10
4.477031228e-10
5.500175761e-10
6.624855495e-10
7.735330025e-10
8.671525332e-10
9.240404222e-10
3.978243733e-10
4.602272576e-10
5.546873272e-10
6.790683117e-10
8.279387609e-10
9.907671927e-10
1.150838567e-09
1.285306256e-09
1.366796178e-09
6.128217575e-10
7.041812202e-10
8.419223189e-10
1.022449085e-09
1.237496024e-09
1.471669907e-09
1.701001649e-09
1.89305883e-09
2.009184332e-09
9.365042593e-10
1.069166796e-09
1.268468782e-09
1.528597823e-09
1.837171882e-09
2.171896111e-09
2.498618387e-09
2.771520938e-09
2.936217667e-09
1.419965694e-09
1.611149803e-09
1.89746842e-09
2.269810521e-09
2.709878522e-09
3.185644987e-09
3.648729152e-09
4.034684854e-09
4.267255086e-09
2.136576914e-09
2.41017975e-09
2.818803112e-09
3.34850676e-09
3.972571208e-09
4.645325152e-09
5.298588343e-09
5.842068431e-09
6.169169861e-09
3.190992616e-09
3.580035381e-09
4.159679434e-09
4.909009743e-09
5.789412634e-09
6.736188866e-09
7.653707808e-09
8.415918425e-09
8.874245858e-09
4.731533943e-09
5.281460204e-09
6.099117112e-09
7.15362802e-09
8.389695941e-09
9.716204926e-09
1.099959436e-08
1.206448298e-08
1.270437052e-08
6.967107043e-09
7.740212125e-09
8.887657838e-09
1.03644699e-08
1.209208635e-08
1.394286565e-08
1.573101217e-08
1.721330584e-08
1.810355765e-08
1.019016103e-08
1.127150688e-08
1.287398378e-08
1.493281619e-08
1.733716413e-08
1.990908364e-08
2.239110136e-08
2.444701706e-08
2.568134844e-08
1.480759122e-08
1.631284933e-08
1.854056843e-08
2.139833933e-08
2.47307566e-08
2.829088678e-08
3.172326592e-08
3.456468477e-08
3.62702408e-08
2.138194429e-08
2.346771428e-08
2.65509798e-08
3.050099906e-08
3.510113666e-08
4.001023754e-08
4.473937339e-08
4.865244709e-08
5.100098166e-08
3.068578758e-08
3.356307031e-08
3.781202531e-08
4.32490468e-08
4.957377824e-08
5.63169157e-08
6.280844657e-08
6.817781867e-08
7.140024899e-08
4.377267062e-08
4.772431804e-08
5.35545053e-08
6.100712857e-08
6.966789553e-08
7.889395158e-08
8.777060148e-08
9.511065068e-08
9.951583746e-08
6.206861645e-08
6.747168995e-08
7.54367699e-08
8.560886361e-08
9.741936896e-08
1.099914669e-07
1.220813319e-07
1.320760433e-07
1.38074768e-07
8.748833464e-08
9.484237017e-08
1.056754413e-07
1.194984034e-07
1.355347301e-07
1.525937595e-07
1.689911229e-07
1.82544311e-07
1.906794901e-07
1.22580274e-07
1.325424727e-07
1.472074676e-07
1.659051594e-07
1.875803895e-07
2.106237864e-07
2.32764498e-07
2.510620459e-07
2.620461782e-07
1.707041363e-07
1.84132415e-07
2.038868999e-07
2.290548694e-07
2.582099861e-07
2.891875683e-07
3.189406359e-07
3.435260522e-07
3.582866519e-07
2.36243342e-07
2.542479146e-07
2.807182086e-07
3.144182578e-07
3.534303977e-07
3.948582176e-07
4.346343641e-07
4.674981503e-07
4.872313899e-07
3.248530199e-07
3.488566952e-07
3.841254776e-07
4.289956084e-07
4.809034618e-07
5.359951737e-07
5.888715913e-07
6.32553544e-07
6.587854538e-07
4.43741392e-07
4.755480197e-07
5.222534404e-07
5.816316733e-07
6.502759363e-07
7.230890322e-07
7.929473582e-07
8.506489973e-07
8.853023462e-07
6.019790287e-07
6.438485e-07
7.052922626e-07
7.833507835e-07
8.735251061e-07
9.691166395e-07
1.060788446e-06
1.136490411e-06
1.181953942e-06
8.108266441e-07
8.655536188e-07
9.45813669e-07
1.047697385e-06
1.165302468e-06
1.289885884e-06
1.409297056e-06
1.507873905e-06
1.567069156e-06
1.084068305e-06
1.155060525e-06
1.259102068e-06
1.391063266e-06
1.543254066e-06
1.704346004e-06
1.858648877e-06
1.985971748e-06
2.062411587e-06
1.438333646e-06
1.529684507e-06
1.663461411e-06
1.832980254e-06
2.028294224e-06
2.234838283e-06
2.432518931e-06
2.595535642e-06
2.693368272e-06
1.893390361e-06
2.009939582e-06
2.180477174e-06
2.396356662e-06
2.644810064e-06
2.907264088e-06
3.158212245e-06
3.364994875e-06
3.489027518e-06
2.472387209e-06
2.619763162e-06
2.835213166e-06
3.107637276e-06
3.420777156e-06
3.751151719e-06
4.06668245e-06
4.326433972e-06
4.482131339e-06
3.202028005e-06
3.386665605e-06
3.656324726e-06
3.996869653e-06
4.38777092e-06
4.799609203e-06
5.192428269e-06
5.515443642e-06
5.708901851e-06
4.112658368e-06
4.34178736e-06
4.67607247e-06
5.097662965e-06
5.580862378e-06
6.089153662e-06
6.573260518e-06
6.970839495e-06
7.20873077e-06
5.238248955e-06
5.519848825e-06
5.93022369e-06
6.447028776e-06
7.038390215e-06
7.659411847e-06
8.249935415e-06
8.734230655e-06
9.023689047e-06
6.616261061e-06
6.958980075e-06
7.457830615e-06
8.085095815e-06
8.80160649e-06
9.552695779e-06
1.026565653e-05
1.084945256e-05
1.119795803e-05
8.28738189e-06
8.700419138e-06
9.300878441e-06
1.005469826e-05
1.091419488e-05
1.181344144e-05
1.266543799e-05
1.336191831e-05
1.377715216e-05
1.029511958e-05
1.078807451e-05
1.150379608e-05
1.240082179e-05
1.342163827e-05
1.44875076e-05
1.549538912e-05
1.63178617e-05
1.680754324e-05
1.268524985e-05
1.326793395e-05
1.4112813e-05
1.516988384e-05
1.637045099e-05
1.76213953e-05
1.8801889e-05
1.976348529e-05
2.033519461e-05
1.550507583e-05
1.618727707e-05
1.717512098e-05
1.84088937e-05
1.980732858e-05
2.126135712e-05
2.26306699e-05
2.374402691e-05
2.440501922e-05
1.880250767e-05
1.959377028e-05
2.073798444e-05
2.216453359e-05
2.377819429e-05
2.545242305e-05
2.702583024e-05
2.8302766e-05
2.905978392e-05
2.262510866e-05
2.353449264e-05
2.484773819e-05
2.648214082e-05
2.832717158e-05
3.023736931e-05
3.202880541e-05
3.348000015e-05
3.433909096e-05
2.701902453e-05
2.805486104e-05
2.954871031e-05
3.140463239e-05
3.349551691e-05
3.565566561e-05
3.767733386e-05
3.931202971e-05
4.027837502e-05
3.202785225e-05
3.319750572e-05
3.488211029e-05
3.697141288e-05
3.932055496e-05
4.174244375e-05
4.400446102e-05
4.583019304e-05
4.690795819e-05
3.769149515e-05
3.900114299e-05
4.088492933e-05
4.321731209e-05
4.583466239e-05
4.85275326e-05
5.103762534e-05
5.305999577e-05
5.425220543e-05
4.40450555e-05
4.54994956e-05
4.758890224e-05
5.017160082e-05
5.306434645e-05
5.603460394e-05
5.879786841e-05
6.102037361e-05
6.232881882e-05
5.11178161e-05
5.272031104e-05
5.501957937e-05
5.785713011e-05
6.102946089e-05
6.428046776e-05
6.729920449e-05
6.972312155e-05
7.114830182e-05
5.893235835e-05
6.068452326e-05
6.319555103e-05
6.628963307e-05
6.974259386e-05
7.327454756e-05
7.654817592e-05
7.917251267e-05
8.071361475e-05
6.750385678e-05
6.94055953e-05
7.21278585e-05
7.54772189e-05
7.920865286e-05
8.301855608e-05
8.654361054e-05
8.936511903e-05
9.102003213e-05
7.68395795e-05
7.888906973e-05
8.181961463e-05
8.542007779e-05
8.942466043e-05
9.350638009e-05
9.727658561e-05
0.0001002898365
0.0001020552019
8.693861236e-05
8.913234185e-05
9.226584558e-05
9.611040366e-05
0.000100379763
0.0001047241728
0.000108730593
0.0001119281051
0.0001137993967
9.779181199e-05
0.0001001246586
0.0001034535529
0.0001075325303
0.0001120554449
0.0001166506413
0.0001208818905
0.0001242543076
0.0001262259385
0.0001093819813
0.0001118473345
0.0001153619848
0.0001196632669
0.0001244259295
0.0001292575103
0.000133700017
0.0001372363228
0.0001393017729
0.0001216842507
0.0001242741665
0.0001279630966
0.0001324724097
0.0001374587438
0.0001425101337
0.0001471484439
0.0001508362052
0.0001529881635
0.0001346666397
0.0001373720215
0.0001412221727
0.0001459234027
0.0001511154159
0.0001563682256
0.0001611853324
0.0001650109595
0.0001672414755
0.0001482907677
0.0001511015645
0.0001550985773
0.0001599741128
0.0001653522735
0.0001707866776
0.0001757643629
0.0001797133786
0.0001820140169
0.0001625126796
0.000165418094
0.0001695466015
0.0001745776875
0.0001801213098
0.0001857164285
0.0001908356071
0.0001948929137
0.0001972549071
0.0001772837497
0.0001802724472
0.0001845163692
0.0001896834597
0.000195371084
0.0002011053582
0.0002063464115
0.0002104965491
0.0002129109457
0.000192551628
0.0001956119419
0.0001999547708
0.0002052378695
0.0002110476267
0.0002168991746
0.0002222422665
0.0002264696553
0.000228927456
0.0002082611978
0.0002113813226
0.000215806393
0.0002211853725
0.0002270953246
0.0002330422718
0.000238467639
0.0002427568007
0.000245249084
0.0002243555125
0.0002275236826
0.0002320144191
0.0002374693121
0.0002434577603
0.0002494785373
0.0002549667489
0.0002593025043
0.0002618205371
0.0002407766897
0.0002439813391
0.0002485214764
0.0002540327347
0.000260078491
0.000266152094
0.0002716842779
0.000276051917
0.0002785872501
0.0002574667404
0.0002606966419
0.0002652704158
0.0002708191329
0.0002769017533
0.0002830079651
0.0002885659983
0.0002929514235
0.0002954959708
0.00027436832
0.000277612702
0.0002822050102
0.0002877731067
0.000293873083
0.000299992655
0.0003055593194
0.0003099491604
0.000312495263
0.0002914253906
0.0002946740322
0.0002992705631
0.0003048409355
0.0003109398487
0.0003170546436
0.0003226137457
0.0003269954491
0.0003295359237
0.0003085837896
0.0003118270939
0.0003164144261
0.0003219710599
0.0003280516947
0.000334144792
0.0003396812521
0.0003440431444
0.0003465713184
0.0003257917018
0.0003290207495
0.0003335864228
0.0003391144726
0.0003451608971
0.0003512166651
0.0003567165746
0.0003610479043
0.0003635576372
0.0003430000389
0.0003462066225
0.0003507391839
0.0003562250227
0.0003622226361
0.000368226773
0.0003736774264
0.0003779683842
0.0003804540787
0.000360162728
0.0003633393703
0.000367828396
0.0003732596387
0.0003791951909
0.0003851347384
0.0003905246413
0.0003947663641
0.0003972229663
0.0003772369181
0.0003803768754
0.0003848129742
0.0003901784766
0.0003960400635
0.0004019033983
0.0004072222554
0.0004114068141
0.0004138298063
0.0003941831101
0.0003972803637
0.0004016551623
0.0004069450019
0.0004127220404
0.0004184988453
0.0004237375322
0.0004278579081
0.000430243294
0.0004109652197
0.0004140144572
0.0004183205724
0.000423526012
0.0004292091984
0.0004348904189
0.0004400409402
0.0004440909909
0.0004464352758
0.0004275505824
0.0004305471702
0.0004347781702
0.0004398916097
0.0004454728652
0.0004510506529
0.0004561060903
0.0004600805083
0.0004623806748
0.0004439099079
0.0004468498588
0.0004510002155
0.0004560151336
0.0004614875396
0.0004669551873
0.0004719096401
0.0004758039055
0.0004780573865
0.0004600171949
0.0004628971298
0.0004669621654
0.0004718730549
0.0004772307818
0.0004825826519
0.000487431172
0.0004912415019
0.000493446151
0.0004758496116
0.0004786667192
0.0004826425487
0.0004874448466
0.0004926830785
0.0004979145276
0.0005026530512
0.0005063763464
0.0005085304078
0.0004913873513
0.0004941393456
0.0004980228172
0.0005027128333
0.0005078276894
0.000512934991
0.0005175602695
0.0005211940607
0.0005232961381
0.0005066134692
0.0005092985463
0.0005130871809
0.0005176620248
0.0005226504814
0.0005276307482
0.000532140279
0.0005356826725
0.0005377316984
0.0005215137056
0.000524130501
0.000527822432
0.0005322799416
0.0005371397545
0.0005419908622
0.00054638282
0.0005498324455
0.000551827651
0.0005360763014
0.0005386238483
0.0005422177632
0.0005465564344
0.0005512860635
0.0005560065767
0.0005602797477
0.0005636357069
0.0005655765925
0.0005502918105
0.000552769499
0.0005562645827
0.0005604835024
0.0005650820393
0.0005696711404
0.0005738248591
0.0005770866767
0.0005789729847
0.0005641529109
0.0005665604497
0.0005699563312
0.0005740551128
0.0005785222122
0.0005829796341
0.0005870137232
0.0005901813008
0.0005920129885
0.0005776542197
0.0005799916001
0.0005832883011
0.0005872670249
0.0005916028399
0.0005959288024
0.0005998435168
0.0006029170894
0.0006046943047
0.0005907921133
0.0005930595748
0.0005962574631
0.0006001166192
0.0006043217411
0.0006085168921
0.000612312866
0.0006152929616
0.0006170160198
0.0006035645536
0.0006057625527
0.0006088622981
0.0006126027347
0.000616678137
0.0006207434978
0.0006244216968
0.0006273090988
0.0006289784614
0.0006159709236
0.000618100105
0.0006211026386
0.0006247255141
0.0006286725016
0.0006326094165
0.0006361710924
0.0006389668055
0.0006405830603
0.0006280118715
0.0006300730413
0.0006329795193
0.0006364862583
0.0006403064195
0.0006441165103
0.0006475631608
0.0006502683793
0.0006518322227
0.000639689165
0.000641683267
0.0006444950365
0.0006478872902
0.0006515824553
0.0006552675791
0.0006586009107
0.00066121699
0.0006627292106
0.0006510055553
0.000652933649
0.0006556522181
0.0006589318281
0.0006625040302
0.0006660662423
0.0006692881367
0.0006718165676
0.0006732780314
0.0006619646516
0.0006638278928
0.0006664549034
0.0006696238692
0.0006730753099
0.0006765168295
0.0006796293137
0.0006820716989
0.0006834833362
0.0006725708053
0.0006743704286
0.0006769076318
0.0006799680824
0.0006833011006
0.0006866242807
0.0006896294998
0.0006919875333
0.0006933503267
0.0006828290043
0.0006845663075
0.0006870155422
0.0006899697099
0.0006931867545
0.0006963940547
0.0006992942483
0.0007015696967
0.0007028846702
0.0006927447766
0.0006944211069
0.0006967842802
0.0006996344779
0.0007027380831
0.000705832046
0.0007086295264
0.0007108242127
0.0007120924226
0.0007023241041
0.0007039408457
0.0007062199161
0.0007089685169
0.0007119612804
0.0007149445099
0.0007176416437
0.0007197574321
0.0007209799586
0.0007115733428
0.0007131319066
0.000715328869
0.0007179782884
0.0007208628527
0.0007237379954
0.0007263371865
0.00072837597
0.0007295539096
0.000720499152
0.0007220009658
0.0007241178385
0.0007266705192
0.0007294495547
0.0007322192839
0.0007347229592
0.0007366866482
0.0007378211074
0.0007291084304
0.0007305549313
0.0007325937446
0.0007350521429
0.0007377283336
0.0007403953352
0.0007428059317
0.0007446964443
0.000745788534
0.0007374082603
0.0007388008872
0.0007407636739
0.0007431302479
0.0007457062791
0.0007482732389
0.0007505931934
0.0007524124468
0.0007534632773
0.0007454058571
0.0007467460451
0.0007486348316
0.0007509120315
0.0007533905787
0.0007558601723
0.0007580919113
0.0007598418146
0.0007608524914
0.0007531085256
0.0007543977002
0.0007562144998
0.000758404759
0.000760788479
0.0007631633624
0.0007653092943
0.0007669917419
0.0007679633622
0.0007605236204
0.0007617631938
0.0007635100002
0.0007656157281
0.0007679072508
0.0007701900528
0.0007722525609
0.0007738694274
0.0007748030769
0.0007676585124
0.0007688498794
0.0007705286615
0.0007725522373
0.0007747541594
0.0007769474749
0.0007789289118
0.0007804820475
0.0007813787976
0.000774520559
0.0007756650939
0.0007772777916
0.0007792215592
0.0007813364383
0.0007834428233
0.0007853455056
0.0007868367325
0.0007876976385
0.0007811170785
0.0007822161325
0.0007837646532
0.0007856309167
0.000787661267
0.0007896832335
0.0007915094382
0.000792940547
0.000793766646
0.0007874553279
0.0007885102271
0.0007899964424
0.0007917874629
0.0007937357511
0.0007956757638
0.0007974277248
0.0007988004724
0.000799592782
0.0007935424836
0.0007945545273
0.0007959802709
0.0007976982635
0.0007995669064
0.0008014273797
0.0008031072855
0.0008044233927
0.0008051829097
0.0007993856255
0.000800356085
0.000801723151
0.0008033702828
0.0008051616446
0.0008069449407
0.0008085549317
0.000809816082
0.0008105437813
0.000804991724
0.0008059218414
0.0008072319828
0.0008088103714
0.0008105267622
0.0008122351886
0.0008137773562
0.0008149851943
0.0008156820286
0.0008103676283
0.0008112586161
0.000812513544
0.0008140252559
0.0008156689301
0.0008173047391
0.0008187811242
0.0008199372551
0.0008206041541
0.0008155200578
0.0008163730983
0.0008175744809
0.0008190215313
0.000820594687
0.0008221600741
0.0008235726667
0.0008246786551
0.0008253165253
0.0008204555945
0.0008212718393
0.000822421302
0.0008238056536
0.0008253104319
0.0008268075362
0.0008281582745
0.0008292156447
0.0008298253691
0.0008251806773
0.0008259612474
0.000827060372
0.0008283839355
0.0008298224206
0.0008312533239
0.0008325440944
0.0008335543302
0.0008341367681
0.0008297015974
0.0008304475833
0.0008314979086
0.0008327625424
0.0008341367614
0.0008355034886
0.0008367361265
0.0008377006708
0.0008382566583
0.0008340244954
0.0008347369571
0.0008357399788
0.0008369474895
0.000838259413
0.0008395639325
0.0008407402215
0.0008416604772
0.0008421908269
0.0008381553592
0.0008388353264
0.0008397924978
0.0008409446405
0.0008421961829
0.000843440407
0.00084456208
0.0008454394099
0.0008459449113
0.0008421000225
0.0008427484952
0.0008436612275
0.0008447597064
0.0008459527267
0.0008471385124
0.0008482072523
0.0008490429799
0.0008495243996
0.0008458641646
0.0008464821136
0.0008473517763
0.0008483982458
0.0008495345485
0.0008506636983
0.0008516811385
0.0008524765482
0.0008529346305
0.0008494533108
0.0008500416778
0.0008508696001
0.0008518656652
0.0008529470011
0.0008540212638
0.0008549889891
0.0008557453273
0.0008561807941
0.0008528728332
0.0008534325316
0.0008542200025
0.0008551672202
0.0008561952874
0.0008572163594
0.0008581359069
0.0008588543825
0.0008592679343
0.0008561279519
0.0008566598676
0.000857408137
0.0008583080168
0.0008592844621
0.0008602539881
0.0008611268485
0.0008618086338
0.0008622009494
0.0008592237373
0.0008597287289
0.0008604390085
0.0008612930138
0.0008622194334
0.0008631390081
0.0008639666263
0.0008646128575
0.0008649845955
0.0008621651117
0.0008626440113
0.0008633174755
0.0008641270248
0.0008650049658
0.0008658761345
0.000866659911
0.0008672716895
0.0008676234877
0.000864956852
0.0008654104661
0.0008660482529
0.0008668147205
0.0008676456821
0.0008684699423
0.0008692112341
0.0008697896271
0.0008701221038
0.0008676035925
0.0008680327024
0.0008686359142
0.0008693606318
0.0008701460664
0.000870924869
0.0008716249909
0.0008721710323
0.0008724847864
0.0008701098277
0.0008705151902
0.000871084895
0.0008717691524
0.0008725104671
0.0008732452176
0.0008739054431
0.0008744201344
0.0008747157461
0.000872479915
0.0008728622631
0.0008733994955
0.000874044542
0.0008747430996
0.0008754351592
0.000876056722
0.0008765410332
0.0008768190644
0.000874718078
0.0008750781218
0.0008755838835
0.0008761909292
0.0008768480495
0.0008774987366
0.0008780828313
0.0008785377019
0.0008787986968
0.0008768284098
0.0008771668366
0.0008776420979
0.0008782123145
0.0008788292756
0.0008794398669
0.0008799876503
0.00088041399
0.0008806584755
0.0008788148757
0.0008791323513
0.0008795780514
0.0008801125735
0.000880690613
0.0008812623445
0.0008817749367
0.0008821736264
0.0008824021127
0.0008806813162
0.000880978485
0.0008813955335
0.0008818954596
0.0008824357756
0.0008829698442
0.0008834483297
0.000883820222
0.0008840332029
0.00088243145
0.0008827089361
0.0008830982135
0.0008835646069
0.0008840683594
0.0008845659235
0.0008850113521
0.0008853572724
0.0008855552261
0.0008840688769
0.0008843272841
0.0008846896427
0.0008851235327
0.0008855918442
0.0008860540253
0.0008864674129
0.0008867881601
0.0008869715493
0.0008855970796
0.0008858369924
0.0008861732568
0.0008865756395
0.0008870095966
0.0008874374797
0.0008878198095
0.0008881161566
0.000888285429
0.0008870194259
0.0008872414099
0.0008875523781
0.0008879242171
0.0008883248707
0.0008887195055
0.0008890717287
0.0008893444236
0.0008895000121
0.0008883391704
0.0008885437723
0.0008888302161
0.0008891724433
0.0008895408099
0.0008899032116
0.0008902262477
0.0008904760134
0.0008906183369
0.000889559455
0.0008897472035
0.0008900098686
0.0008903233849
0.0008906604467
0.0008909915963
0.0008912863343
0.0008915138694
0.0008916433325
0.0008906833092
0.0008908547149
0.0008910943218
0.000891379997
0.0008916867027
0.0008919875475
0.0008922548453
0.0008924608246
0.000892577818
0.0008917136493
0.0008918692048
0.0008920864486
0.000892345122
0.0008926223866
0.0008928938401
0.0008931345254
0.0008933195993
0.0008934244998
0.000892653277
0.000892793457
0.0008929890072
0.000893221487
0.0008934701918
0.0008937131338
0.0008939280032
0.0008940927979
0.0008941859681
0.0008935048765
0.0008936301374
0.0008938046378
0.0008940117009
0.0008942326926
0.0008944479683
0.0008946377871
0.0008947829039
0.0008948646919
0.0008942710113
0.0008943817908
0.0008945358586
0.0008947182498
0.00089491234
0.0008951007587
0.0008952662595
0.000895392274
0.000895463013
0.0008949541196
0.0008950508361
0.0008951850612
0.000895343492
0.0008955114552
0.0008956737893
0.0008958156706
0.0008959231313
0.0008959831386
0.0008955565096
0.0008956395615
0.0008957545051
0.000895889652
0.0008960322241
0.0008961692067
0.000896288131
0.0008963775576
0.0008964271338
0.0008960803542
0.0008961501187
0.0008962463121
0.0008963588148
0.0008964766912
0.0008965890139
0.0008966856054
0.0008967574867
0.0008967969143
0.0008965276866
0.0008965845189
0.0008966624618
0.0008967529211
0.0008968467538
0.0008969350642
0.000897009906
0.0008970646981
0.0008970942398
0.0008969003969
0.000896944629
0.0008970047877
0.0008970737639
0.0008971441593
0.0008972090582
0.00089726269
0.0008973008133
0.0008973207109
0.0008972002308
0.0008972321704
0.000897274977
0.0008973229874
0.0008973705044
0.0008974125434
0.0008974454589
0.0008974672967
0.0008974777692
0.0008974287918
0.0008974487219
0.0008974745728
0.000897502091
0.0008975272391
0.0008975469195
0.0008975595646
0.0008975654608
0.0008975667039
0.0008975875479
0.0008975957269
0.0008976049827
0.0008976124379
0.0008976156776
0.0008976134493
0.0008976062217
0.0008975964807
0.0008975886654
0.0008976778444
0.000897674506
0.0008976674923
0.0008976552714
0.000897637015
0.0008976132786
0.0008975865293
0.0008975614162
0.0008975446898
0.000897700922
0.0008976862775
0.0008976632882
0.0008976317389
0.0008975923551
0.0008975474658
0.0008975015024
0.0008974612464
0.0008974357333
0.000897657945
0.0008976321869
0.0008975934894
0.0008975429267
0.0008974827475
0.0008974170222
0.000897352116
0.0008972969154
0.0008972627206
0.0008975500395
0.0008975133468
0.0008974591892
0.0008973899044
0.0008973092358
0.0008972229647
0.0008971393607
0.0008970693916
0.0008970266057
0.0008973783413
0.0008973308863
0.0008972615074
0.0008971737813
0.0008970729176
0.000896966379
0.0008968643114
0.0008967797396
0.0008967284457
0.000897144053
0.0008970860103
0.0008970016528
0.0008968957717
0.0008967750146
0.000896648495
0.0008965282054
0.0008964292023
0.0008963694858
0.0008968485099
0.0008967800671
0.0008966809933
0.0008965572692
0.0008964169505
0.000896270769
0.0008961325301
0.0008960192922
0.0008959512527
0.0008964932523
0.0008964146228
0.0008963011333
0.0008961599268
0.0008960004352
0.0008958349714
0.0008956791142
0.0008955518858
0.0008954756513
0.0008960801011
0.0008959915381
0.0008958639917
0.0008957057379