/*--------------------------------*- C++ -*----------------------------------*\
| =========                 |                                                 |
| \\      /  F ield         | OpenFOAM: The Open Source CFD Toolbox           |
|  \\    /   O peration     | Version:  2212                                  |
|   \\  /    A nd           | Website:  www.openfoam.com                      |
|    \\/     M anipulation  |                                                 |
\*---------------------------------------------------------------------------*/
FoamFile
{
    version     2.0;
    format      ascii;
    arch        "LSB;label=32;scalar=64";
    class       volScalarField;
    location    "20.00000000";
    object      AC3H4_0;
}
// * * * * * * * * * * * * * * * * * * * * * * * * * * * * * * * * * * * * * //

dimensions      [0 0 0 0 0 0 0];

internalField   nonuniform List<scalar> 
3000
(
1.38957687e-22
1.561010439e-22
1.819702856e-22
2.164434172e-22
2.59170121e-22
3.089902262e-22
3.62902368e-22
4.143451112e-22
4.507219195e-22
5.217083956e-22
5.884357335e-22
6.890837887e-22
8.235044946e-22
9.915648755e-22
1.192333535e-21
1.422325551e-21
1.669930319e-21
1.889268126e-21
1.168597548e-21
1.328410471e-21
1.571764965e-21
1.902186039e-21
2.325616685e-21
2.848200121e-21
3.467880095e-21
4.149865346e-21
4.732735147e-21
2.225875848e-21
2.556784804e-21
3.068062476e-21
3.77700989e-21
4.708745014e-21
5.88694448e-21
7.305180312e-21
8.849916452e-21
1.009674747e-20
3.952590628e-21
4.595924866e-21
5.605569774e-21
7.032814575e-21
8.944792096e-21
1.139509358e-20
1.434278943e-20
1.747313897e-20
1.987612682e-20
6.796823942e-21
8.004299934e-21
9.926478241e-21
1.268603734e-20
1.643019049e-20
2.125315754e-20
2.701090076e-20
3.297732674e-20
3.739150319e-20
1.153873189e-20
1.375681444e-20
1.73289415e-20
2.251517237e-20
2.960434008e-20
3.873741485e-20
4.953668192e-20
6.050905322e-20
6.842639355e-20
1.952783428e-20
2.354220581e-20
3.006474285e-20
3.960794865e-20
5.270420872e-20
6.954220476e-20
8.927726432e-20
1.090368521e-19
1.230570192e-19
3.31025952e-20
4.029128655e-20
5.204709793e-20
6.933447134e-20
9.310054049e-20
1.235740203e-19
1.59033614e-19
1.94168005e-19
2.188219961e-19
5.631241003e-20
6.908425726e-20
9.006610058e-20
1.210207241e-19
1.636024684e-19
2.18058985e-19
2.81074795e-19
3.43054832e-19
3.862232077e-19
9.617398268e-20
1.187317165e-19
1.5590802e-19
2.108657814e-19
2.86469502e-19
3.829403546e-19
4.941136792e-19
6.028990233e-19
6.782865298e-19
1.648481454e-19
2.045133113e-19
2.700270842e-19
3.669986836e-19
5.003715697e-19
6.702506767e-19
8.65427925e-19
1.055725463e-18
1.187145723e-18
2.834189375e-19
3.529345533e-19
4.67924892e-19
6.382640081e-19
8.724759101e-19
1.170375744e-18
1.511880271e-18
1.844004257e-18
2.072832402e-18
4.884513733e-19
6.099823437e-19
8.112248448e-19
1.10947767e-18
1.519439782e-18
2.040301948e-18
2.636416267e-18
3.215121593e-18
3.613244574e-18
8.433746728e-19
1.055459744e-18
1.406908957e-18
1.927940468e-18
2.643921136e-18
3.552790968e-18
4.591656017e-18
5.598899282e-18
6.291331242e-18
1.458239071e-18
1.827869589e-18
2.440725963e-18
3.349534869e-18
4.598209111e-18
6.182436457e-18
7.991738799e-18
9.74429728e-18
1.094851049e-17
2.524000038e-18
3.167588844e-18
4.235135096e-18
5.818625733e-18
7.994437423e-18
1.075475169e-17
1.390669816e-17
1.695803458e-17
1.90499064e-17
4.372018454e-18
5.491759834e-18
7.349654659e-18
1.010581694e-17
1.38925681e-17
1.869490682e-17
2.417540689e-17
2.947715945e-17
3.311055473e-17
7.57741187e-18
9.524485535e-18
1.275572565e-17
1.75495037e-17
2.41349462e-17
3.248397876e-17
4.200785765e-17
5.121710855e-17
5.752676254e-17
1.313851175e-17
1.652286332e-17
2.214005986e-17
3.047382985e-17
4.192114644e-17
5.643073806e-17
7.29769145e-17
8.8971221e-17
9.992645811e-17
2.27884478e-17
2.866941897e-17
3.84312243e-17
5.291408878e-17
7.280591925e-17
9.801417229e-17
1.2675329e-16
1.545260821e-16
1.735450095e-16
3.953609752e-17
4.97534228e-17
6.671383591e-17
9.187606843e-17
1.264318491e-16
1.702148287e-16
2.20118117e-16
2.683308959e-16
3.013402463e-16
6.860509828e-17
8.635355904e-17
1.158153368e-16
1.595214503e-16
2.195350456e-16
2.955568427e-16
3.821820147e-16
4.658487547e-16
5.231171639e-16
1.190631059e-16
1.498897556e-16
2.010583173e-16
2.769571883e-16
3.811546536e-16
5.131101307e-16
6.634214482e-16
8.08549543e-16
9.078561798e-16
2.066478107e-16
2.601820618e-16
3.490334531e-16
4.808038939e-16
6.616559794e-16
8.906062541e-16
1.151296904e-15
1.40288843e-15
1.574975941e-15
3.586645659e-16
4.51617599e-16
6.05867313e-16
8.345664989e-16
1.148336136e-15
1.545368878e-15
1.997199378e-15
2.433010732e-15
2.73094573e-15
6.224637742e-16
7.838223487e-16
1.051522098e-15
1.448284338e-15
1.992363067e-15
2.680394294e-15
3.462825632e-15
4.216944922e-15
4.732117257e-15
1.080093643e-15
1.360100847e-15
1.824487337e-15
2.512423762e-15
3.455167206e-15
4.646366189e-15
5.99971964e-15
7.302789653e-15
8.192120494e-15
1.873576319e-15
2.359228486e-15
3.164310876e-15
4.356172985e-15
5.988079628e-15
8.04785943e-15
1.038513311e-14
1.26325897e-14
1.416450294e-14
3.248403132e-15
4.090119053e-15
5.484637575e-15
7.547363143e-15
1.036849845e-14
1.392438954e-14
1.795288048e-14
2.181993291e-14
2.445143017e-14
5.628156852e-15
7.085515558e-15
9.498170115e-15
1.30630086e-14
1.793157189e-14
2.405733762e-14
3.098315647e-14
3.761695618e-14
4.212166024e-14
9.742080575e-15
1.226192401e-14
1.642950073e-14
2.257888017e-14
3.096208751e-14
4.148681314e-14
5.335590862e-14
6.469367817e-14
7.237231166e-14
1.684225327e-14
2.119135385e-14
2.837567736e-14
3.895820823e-14
5.335277597e-14
7.13753099e-14
9.163659216e-14
1.109265615e-13
1.239488299e-13
2.907155247e-14
3.656054595e-14
4.891329525e-14
6.707065712e-14
9.170135755e-14
1.224380609e-13
1.568629927e-13
1.895070849e-13
2.114597656e-13
5.008375029e-14
6.294231775e-14
8.411352147e-14
1.151538294e-13
1.571223449e-13
2.092884743e-13
2.674543356e-13
3.223532882e-13
3.591066474e-13
8.608226921e-14
1.080823464e-13
1.442259024e-13
1.970565926e-13
2.68209598e-13
3.562423813e-13
4.538928206e-13
5.455631113e-13
6.066206605e-13
1.475488327e-13
1.850297472e-13
2.464476105e-13
3.358994577e-13
4.558284323e-13
6.034168345e-13
7.661655604e-13
9.180225235e-13
1.018592936e-12
2.520996217e-13
3.156360307e-13
4.194354965e-13
5.699848193e-13
7.707786718e-13
1.016388735e-12
1.285446017e-12
1.534821171e-12
1.698953077e-12
4.291678069e-13
5.362509808e-13
7.105849072e-13
9.622350217e-13
1.295903352e-12
1.701301474e-12
2.142198978e-12
2.547898327e-12
2.813158589e-12
7.276163824e-13
9.069085033e-13
1.197649658e-12
1.615092657e-12
2.164991665e-12
2.828200486e-12
3.543895182e-12
4.197431773e-12
4.621799605e-12
1.228004726e-12
1.525995558e-12
2.007092649e-12
2.693773008e-12
3.591935122e-12
4.666646405e-12
5.816936237e-12
6.859016234e-12
7.530928565e-12
2.062166188e-12
2.553437689e-12
3.342748041e-12
4.462133754e-12
5.915174842e-12
7.639443366e-12
9.46937794e-12
1.111382903e-11
1.216667379e-11
3.44414088e-12
4.246959699e-12
5.530096808e-12
7.337387787e-12
9.664708227e-12
1.240283261e-11
1.528382339e-11
1.785198825e-11
1.948483848e-11
5.718536671e-12
7.018186186e-12
9.083917044e-12
1.197265937e-11
1.566205775e-11
1.996501874e-11
2.445374429e-11
2.842350277e-11
3.093056521e-11
9.435316587e-12
1.151849993e-11
1.48105542e-11
1.938028568e-11
2.516799241e-11
3.185980488e-11
3.8781902e-11
4.485704496e-11
4.866922872e-11
1.546417327e-11
1.87690359e-11
2.396095398e-11
3.111422574e-11
4.009891219e-11
5.039894215e-11
6.096705522e-11
7.017485968e-11
7.591814303e-11
2.516750904e-11
3.035544244e-11
3.845744428e-11
4.95375465e-11
6.334131246e-11
7.903626921e-11
9.501554011e-11
1.088432902e-10
1.174202988e-10
4.065921514e-11
4.871675439e-11
6.122677026e-11
7.821151496e-11
9.92055248e-11
1.228898023e-10
1.468286495e-10
1.674137799e-10
1.80117355e-10
6.518779055e-11
7.756981042e-11
9.668507614e-11
1.224574329e-10
1.540761906e-10
1.894859592e-10
2.250364645e-10
2.554303471e-10
2.741010759e-10
1.036980484e-10
1.225273815e-10
1.514387726e-10
1.901625139e-10
2.373392989e-10
2.898148369e-10
3.421758196e-10
3.86708564e-10
4.139525116e-10
1.636473759e-10
1.919913272e-10
2.352904334e-10
2.929288668e-10
3.626962667e-10
4.398191847e-10
5.16346879e-10
5.811302795e-10
6.206196626e-10
2.56182536e-10
2.984341974e-10
3.626738285e-10
4.477031251e-10
5.500175789e-10
6.624855532e-10
7.73533008e-10
8.671525408e-10
9.240404292e-10
3.97824375e-10
4.602272599e-10
5.546873301e-10
6.790683152e-10
8.279387651e-10
9.907671982e-10
1.150838575e-09
1.285306267e-09
1.366796189e-09
6.128217601e-10
7.041812239e-10
8.419223233e-10
1.022449091e-09
1.23749603e-09
1.471669916e-09
1.701001662e-09
1.893058848e-09
2.009184347e-09
9.365042633e-10
1.069166802e-09
1.268468788e-09
1.528597831e-09
1.837171891e-09
2.171896124e-09
2.498618406e-09
2.771520964e-09
2.936217689e-09
1.4199657e-09
1.611149811e-09
1.897468429e-09
2.269810532e-09
2.709878536e-09
3.185645006e-09
3.648729181e-09
4.034684891e-09
4.267255118e-09
2.136576923e-09
2.410179763e-09
2.818803127e-09
3.348506777e-09
3.972571229e-09
4.645325181e-09
5.298588386e-09
5.842068485e-09
6.169169906e-09
3.19099263e-09
3.5800354e-09
4.159679456e-09
4.909009769e-09
5.789412664e-09
6.736188908e-09
7.653707871e-09
8.415918505e-09
8.874245925e-09
4.731533963e-09
5.281460233e-09
6.099117145e-09
7.153628058e-09
8.389695986e-09
9.716204988e-09
1.099959445e-08
1.20644831e-08
1.270437062e-08
6.967107072e-09
7.740212168e-09
8.887657887e-09
1.036446996e-08
1.209208642e-08
1.394286574e-08
1.573101231e-08
1.721330601e-08
1.810355779e-08
1.019016107e-08
1.127150694e-08
1.287398386e-08
1.493281627e-08
1.733716423e-08
1.990908378e-08
2.239110157e-08
2.444701731e-08
2.568134865e-08
1.480759128e-08
1.631284943e-08
1.854056854e-08
2.139833946e-08
2.473075675e-08
2.829088699e-08
3.172326622e-08
3.456468512e-08
3.627024109e-08
2.138194439e-08
2.346771442e-08
2.655097996e-08
3.050099924e-08
3.510113687e-08
4.001023784e-08
4.473937381e-08
4.865244759e-08
5.100098208e-08
3.068578772e-08
3.356307051e-08
3.781202554e-08
4.324904706e-08
4.957377856e-08
5.631691614e-08
6.280844718e-08
6.817781939e-08
7.140024958e-08
4.377267082e-08
4.772431833e-08
5.355450563e-08
6.100712895e-08
6.966789599e-08
7.88939522e-08
8.777060235e-08
9.51106517e-08
9.951583829e-08
6.206861673e-08
6.747169037e-08
7.543677039e-08
8.560886415e-08
9.741936961e-08
1.099914677e-07
1.220813331e-07
1.320760448e-07
1.380747691e-07
8.748833504e-08
9.484237076e-08
1.05675442e-07
1.194984042e-07
1.35534731e-07
1.525937608e-07
1.689911246e-07
1.82544313e-07
1.906794917e-07
1.225802746e-07
1.325424735e-07
1.472074685e-07
1.659051604e-07
1.875803908e-07
2.106237881e-07
2.327645004e-07
2.510620487e-07
2.620461804e-07
1.707041371e-07
1.841324162e-07
2.038869012e-07
2.290548709e-07
2.582099879e-07
2.891875708e-07
3.189406392e-07
3.43526056e-07
3.582866549e-07
2.362433431e-07
2.542479162e-07
2.807182104e-07
3.144182599e-07
3.534304002e-07
3.948582209e-07
4.346343687e-07
4.674981554e-07
4.872313941e-07
3.248530214e-07
3.488566974e-07
3.841254802e-07
4.289956113e-07
4.809034653e-07
5.359951783e-07
5.888715974e-07
6.325535509e-07
6.587854594e-07
4.43741394e-07
4.755480228e-07
5.222534439e-07
5.816316772e-07
6.50275941e-07
7.230890384e-07
7.929473665e-07
8.506490066e-07
8.853023538e-07
6.019790314e-07
6.438485041e-07
7.052922673e-07
7.833507888e-07
8.735251124e-07
9.691166479e-07
1.060788457e-06
1.136490424e-06
1.181953953e-06
8.108266477e-07
8.655536244e-07
9.458136754e-07
1.047697392e-06
1.165302476e-06
1.289885895e-06
1.409297071e-06
1.507873921e-06
1.56706917e-06
1.08406831e-06
1.155060533e-06
1.259102076e-06
1.391063276e-06
1.543254077e-06
1.704346019e-06
1.858648897e-06
1.985971769e-06
2.062411605e-06
1.438333653e-06
1.529684516e-06
1.663461423e-06
1.832980267e-06
2.028294239e-06
2.234838302e-06
2.432518956e-06
2.595535669e-06
2.693368295e-06
1.893390369e-06
2.009939595e-06
2.180477189e-06
2.396356678e-06
2.644810082e-06
2.907264113e-06
3.158212278e-06
3.364994911e-06
3.489027547e-06
2.47238722e-06
2.619763179e-06
2.835213185e-06
3.107637297e-06
3.42077718e-06
3.751151751e-06
4.066682492e-06
4.326434017e-06
4.482131375e-06
3.202028018e-06
3.386665626e-06
3.656324749e-06
3.996869679e-06
4.387770951e-06
4.799609243e-06
5.19242832e-06
5.515443698e-06
5.708901897e-06
4.112658385e-06
4.341787386e-06
4.676072499e-06
5.097662998e-06
5.580862417e-06
6.089153711e-06
6.573260582e-06
6.970839564e-06
7.208730826e-06
5.238248976e-06
5.519848857e-06
5.930223726e-06
6.447028816e-06
7.038390261e-06
7.659411907e-06
8.249935493e-06
8.73423074e-06
9.023689115e-06
6.616261087e-06
6.958980115e-06
7.457830659e-06
8.085095864e-06
8.801606547e-06
9.552695852e-06
1.026565663e-05
1.084945266e-05
1.119795812e-05
8.287381921e-06
8.700419186e-06
9.300878495e-06
1.005469832e-05
1.091419495e-05
1.181344153e-05
1.26654381e-05
1.336191843e-05
1.377715226e-05
1.029511962e-05
1.078807456e-05
1.150379615e-05
1.240082186e-05
1.342163835e-05
1.44875077e-05
1.549538926e-05
1.631786184e-05
1.680754336e-05
1.26852499e-05
1.326793402e-05
1.411281308e-05
1.516988392e-05
1.637045108e-05
1.762139543e-05
1.880188915e-05
1.976348546e-05
2.033519474e-05
1.550507588e-05
1.618727715e-05
1.717512107e-05
1.840889379e-05
1.980732869e-05
2.126135726e-05
2.263067008e-05
2.37440271e-05
2.440501938e-05
1.880250773e-05
1.959377037e-05
2.073798455e-05
2.21645337e-05
2.377819442e-05
2.545242322e-05
2.702583045e-05
2.830276622e-05
2.90597841e-05
2.262510873e-05
2.353449275e-05
2.484773832e-05
2.648214095e-05
2.832717173e-05
3.02373695e-05
3.202880564e-05
3.34800004e-05
3.433909116e-05
2.701902461e-05
2.805486116e-05
2.954871045e-05
3.140463254e-05
3.349551708e-05
3.565566583e-05
3.767733413e-05
3.931202999e-05
4.027837525e-05
3.202785234e-05
3.319750586e-05
3.488211045e-05
3.697141304e-05
3.932055515e-05
4.174244398e-05
4.400446132e-05
4.583019336e-05
4.690795845e-05
3.769149525e-05
3.900114315e-05
4.08849295e-05
4.321731227e-05
4.58346626e-05
4.852753286e-05
5.103762567e-05
5.305999612e-05
5.425220571e-05
4.404505561e-05
4.549949577e-05
4.758890243e-05
5.017160102e-05
5.306434669e-05
5.603460423e-05
5.879786878e-05
6.1020374e-05
6.232881913e-05
5.111781622e-05
5.272031123e-05
5.501957958e-05
5.785713034e-05
6.102946115e-05
6.428046807e-05
6.729920489e-05
6.972312197e-05
7.114830216e-05
5.893235848e-05
6.068452346e-05
6.319555126e-05
6.628963332e-05
6.974259414e-05
7.327454791e-05
7.654817636e-05
7.917251312e-05
8.071361512e-05
6.750385692e-05
6.940559552e-05
7.212785874e-05
7.547721916e-05
7.920865316e-05
8.301855645e-05
8.6543611e-05
8.936511952e-05
9.102003252e-05
7.683957965e-05
7.888906997e-05
8.18196149e-05
8.542007808e-05
8.942466074e-05
9.350638049e-05
9.727658611e-05
0.0001002898371
0.0001020552023
8.693861252e-05
8.913234211e-05
9.226584587e-05
9.611040396e-05
0.0001003797634
0.0001047241732
0.0001087305935
0.0001119281057
0.0001137993972
9.779181216e-05
0.0001001246589
0.0001034535532
0.0001075325306
0.0001120554453
0.0001166506418
0.0001208818911
0.0001242543082
0.000126225939
0.0001093819815
0.0001118473348
0.0001153619851
0.0001196632672
0.0001244259299
0.0001292575108
0.0001337000176
0.0001372363234
0.0001393017734
0.0001216842509
0.0001242741668
0.000127963097
0.0001324724101
0.0001374587442
0.0001425101342
0.0001471484446
0.0001508362058
0.0001529881641
0.0001346666399
0.0001373720218
0.0001412221731
0.0001459234031
0.0001511154163
0.0001563682262
0.000161185333
0.0001650109602
0.0001672414761
0.0001482907679
0.0001511015648
0.0001550985777
0.0001599741132
0.000165352274
0.0001707866781
0.0001757643636
0.0001797133793
0.0001820140174
0.0001625126798
0.0001654180944
0.0001695466019
0.0001745776879
0.0001801213103
0.0001857164291
0.0001908356078
0.0001948929145
0.0001972549077
0.0001772837499
0.0001802724476
0.0001845163696
0.0001896834601
0.0001953710844
0.0002011053588
0.0002063464122
0.0002104965499
0.0002129109463
0.0001925516282
0.0001956119423
0.0001999547712
0.0002052378699
0.0002110476272
0.0002168991752
0.0002222422673
0.0002264696561
0.0002289274566
0.000208261198
0.0002113813229
0.0002158063935
0.0002211853729
0.0002270953251
0.0002330422724
0.0002384676397
0.0002427568015
0.0002452490846
0.0002243555127
0.000227523683
0.0002320144195
0.0002374693126
0.0002434577608
0.0002494785379
0.0002549667497
0.0002593025051
0.0002618205378
0.00024077669
0.0002439813395
0.0002485214768
0.0002540327352
0.0002600784915
0.0002661520946
0.0002716842786
0.0002760519178
0.0002785872507
0.0002574667406
0.0002606966423
0.0002652704163
0.0002708191334
0.0002769017538
0.0002830079657
0.0002885659991
0.0002929514243
0.0002954959714
0.0002743683202
0.0002776127024
0.0002822050106
0.0002877731071
0.0002938730835
0.0002999926557
0.0003055593201
0.0003099491612
0.0003124952637
0.0002914253909
0.0002946740326
0.0002992705635
0.0003048409359
0.0003109398492
0.0003170546442
0.0003226137465
0.0003269954499
0.0003295359244
0.0003085837898
0.0003118270943
0.0003164144265
0.0003219710603
0.0003280516952
0.0003341447926
0.0003396812528
0.0003440431452
0.000346571319
0.0003257917021
0.0003290207499
0.0003335864233
0.0003391144731
0.0003451608976
0.0003512166658
0.0003567165754
0.0003610479051
0.0003635576379
0.0003430000391
0.0003462066229
0.0003507391843
0.0003562250232
0.0003622226366
0.0003682267736
0.0003736774272
0.000377968385
0.0003804540794
0.0003601627282
0.0003633393707
0.0003678283965
0.0003732596392
0.0003791951914
0.0003851347391
0.0003905246421
0.0003947663649
0.000397222967
0.0003772369183
0.0003803768758
0.0003848129747
0.0003901784771
0.000396040064
0.0004019033989
0.0004072222562
0.0004114068149
0.000413829807
0.0003941831103
0.0003972803642
0.0004016551628
0.0004069450023
0.0004127220409
0.000418498846
0.000423737533
0.0004278579089
0.0004302432946
0.00041096522
0.0004140144576
0.0004183205729
0.0004235260124
0.0004292091989
0.0004348904195
0.000440040941
0.0004440909917
0.0004464352764
0.0004275505826
0.0004305471706
0.0004347781707
0.0004398916102
0.0004454728657
0.0004510506535
0.0004561060911
0.0004600805091
0.0004623806754
0.0004439099081
0.0004468498592
0.0004510002159
0.0004560151341
0.0004614875401
0.0004669551879
0.0004719096409
0.0004758039063
0.0004780573871
0.0004600171951
0.0004628971302
0.0004669621658
0.0004718730553
0.0004772307823
0.0004825826525
0.0004874311727
0.0004912415026
0.0004934461516
0.0004758496118
0.0004786667196
0.0004826425491
0.0004874448471
0.000492683079
0.0004979145282
0.0005026530519
0.0005063763472
0.0005085304084
0.0004913873516
0.000494139346
0.0004980228176
0.0005027128337
0.0005078276899
0.0005129349915
0.0005175602703
0.0005211940614
0.0005232961387
0.0005066134694
0.0005092985467
0.0005130871813
0.0005176620252
0.0005226504819
0.0005276307487
0.0005321402797
0.0005356826732
0.000537731699
0.0005215137058
0.0005241305014
0.0005278224324
0.000532279942
0.0005371397549
0.0005419908627
0.0005463828206
0.0005498324462
0.0005518276516
0.0005360763016
0.0005386238487
0.0005422177636
0.0005465564348
0.0005512860639
0.0005560065772
0.0005602797483
0.0005636357076
0.0005655765931
0.0005502918107
0.0005527694993
0.0005562645831
0.0005604835028
0.0005650820397
0.000569671141
0.0005738248597
0.0005770866774
0.0005789729852
0.0005641529111
0.00056656045
0.0005699563315
0.0005740551132
0.0005785222126
0.0005829796346
0.0005870137239
0.0005901813015
0.000592012989
0.0005776542199
0.0005799916004
0.0005832883015
0.0005872670253
0.0005916028403
0.0005959288029
0.0005998435174
0.00060291709
0.0006046943052
0.0005907921135
0.0005930595751
0.0005962574635
0.0006001166195
0.0006043217414
0.0006085168926
0.0006123128666
0.0006152929622
0.0006170160203
0.0006035645538
0.000605762553
0.0006088622984
0.000612602735
0.0006166781374
0.0006207434983
0.0006244216974
0.0006273090994
0.0006289784619
0.0006159709238
0.0006181001053
0.0006211026389
0.0006247255144
0.0006286725019
0.0006326094169
0.000636171093
0.0006389668061
0.0006405830607
0.0006280118717
0.0006300730416
0.0006329795196
0.0006364862587
0.0006403064199
0.0006441165107
0.0006475631614
0.0006502683799
0.0006518322231
0.0006396891651
0.0006416832673
0.0006444950368
0.0006478872905
0.0006515824556
0.0006552675795
0.0006586009113
0.0006612169906
0.000662729211
0.0006510055554
0.0006529336493
0.0006556522184
0.0006589318284
0.0006625040305
0.0006660662427
0.0006692881372
0.0006718165681
0.0006732780319
0.0006619646517
0.0006638278931
0.0006664549037
0.0006696238695
0.0006730753102
0.0006765168299
0.0006796293142
0.0006820716994
0.0006834833366
0.0006725708054
0.0006743704289
0.0006769076321
0.0006799680827
0.000683301101
0.0006866242811
0.0006896295003
0.0006919875338
0.0006933503271
0.0006828290044
0.0006845663077
0.0006870155425
0.0006899697102
0.0006931867549
0.0006963940551
0.0006992942487
0.0007015696972
0.0007028846706
0.0006927447767
0.0006944211071
0.0006967842804
0.0006996344782
0.0007027380834
0.0007058320464
0.0007086295269
0.0007108242131
0.0007120924229
0.0007023241042
0.000703940846
0.0007062199164
0.0007089685171
0.0007119612807
0.0007149445102
0.0007176416442
0.0007197574326
0.000720979959
0.0007115733429
0.0007131319068
0.0007153288692
0.0007179782886
0.000720862853
0.0007237379958
0.000726337187
0.0007283759705
0.00072955391
0.0007204991521
0.0007220009661
0.0007241178387
0.0007266705194
0.0007294495549
0.0007322192843
0.0007347229596
0.0007366866486
0.0007378211077
0.0007291084305
0.0007305549315
0.0007325937449
0.0007350521431
0.0007377283338
0.0007403953355
0.0007428059321
0.0007446964448
0.0007457885344
0.0007374082604
0.0007388008874
0.0007407636741
0.0007431302481
0.0007457062793
0.0007482732392
0.0007505931938
0.0007524124472
0.0007534632777
0.0007454058573
0.0007467460453
0.0007486348319
0.0007509120317
0.000753390579
0.0007558601727
0.0007580919117
0.000759841815
0.0007608524918
0.0007531085257
0.0007543977004
0.0007562145001
0.0007584047593
0.0007607884793
0.0007631633627
0.0007653092947
0.0007669917423
0.0007679633625
0.0007605236206
0.000761763194
0.0007635100004
0.0007656157283
0.0007679072511
0.0007701900531
0.0007722525613
0.0007738694278
0.0007748030772
0.0007676585125
0.0007688498796
0.0007705286617
0.0007725522375
0.0007747541596
0.0007769474752
0.0007789289122
0.0007804820479
0.0007813787979
0.0007745205591
0.0007756650941
0.0007772777918
0.0007792215594
0.0007813364385
0.0007834428235
0.000785345506
0.0007868367329
0.0007876976388
0.0007811170786
0.0007822161327
0.0007837646534
0.0007856309169
0.0007876612673
0.0007896832337
0.0007915094385
0.0007929405473
0.0007937666462
0.000787455328
0.0007885102273
0.0007899964426
0.0007917874631
0.0007937357513
0.000795675764
0.0007974277251
0.0007988004727
0.0007995927822
0.0007935424837
0.0007945545275
0.0007959802711
0.0007976982637
0.0007995669066
0.00080142738
0.0008031072858
0.000804423393
0.0008051829099
0.0007993856256
0.0008003560852
0.0008017231512
0.000803370283
0.0008051616448
0.0008069449409
0.000808554932
0.0008098160823
0.0008105437816
0.0008049917241
0.0008059218416
0.000807231983
0.0008088103715
0.0008105267623
0.0008122351888
0.0008137773565
0.0008149851946
0.0008156820288
0.0008103676284
0.0008112586163
0.0008125135442
0.0008140252561
0.0008156689303
0.0008173047393
0.0008187811245
0.0008199372554
0.0008206041544
0.0008155200579
0.0008163730984
0.0008175744811
0.0008190215314
0.0008205946871
0.0008221600743
0.000823572667
0.0008246786554
0.0008253165255
0.0008204555946
0.0008212718395
0.0008224213021
0.0008238056537
0.0008253104321
0.0008268075364
0.0008281582747
0.000829215645
0.0008298253693
0.0008251806773
0.0008259612475
0.0008270603722
0.0008283839357
0.0008298224208
0.0008312533241
0.0008325440947
0.0008335543304
0.0008341367683
0.0008297015975
0.0008304475834
0.0008314979087
0.0008327625425
0.0008341367616
0.0008355034888
0.0008367361267
0.0008377006711
0.0008382566585
0.0008340244955
0.0008347369572
0.000835739979
0.0008369474897
0.0008382594132
0.0008395639327
0.0008407402217
0.0008416604774
0.000842190827
0.0008381553593
0.0008388353265
0.000839792498
0.0008409446406
0.000842196183
0.0008434404072
0.0008445620802
0.0008454394102
0.0008459449115
0.0008421000226
0.0008427484954
0.0008436612276
0.0008447597065
0.0008459527269
0.0008471385126
0.0008482072525
0.0008490429801
0.0008495243998
0.0008458641647
0.0008464821137
0.0008473517764
0.0008483982459
0.0008495345487
0.0008506636985
0.0008516811386
0.0008524765484
0.0008529346306
0.0008494533109
0.0008500416779
0.0008508696002
0.0008518656653
0.0008529470012
0.000854021264
0.0008549889893
0.0008557453275
0.0008561807943
0.0008528728333
0.0008534325317
0.0008542200026
0.0008551672203
0.0008561952875
0.0008572163595
0.0008581359071
0.0008588543827
0.0008592679344
0.000856127952
0.0008566598677
0.0008574081371
0.0008583080169
0.0008592844622
0.0008602539883
0.0008611268487
0.0008618086339
0.0008622009496
0.0008592237374
0.0008597287289
0.0008604390086
0.0008612930139
0.0008622194335
0.0008631390082
0.0008639666265
0.0008646128577
0.0008649845956
0.0008621651117
0.0008626440114
0.0008633174756
0.0008641270249
0.0008650049659
0.0008658761346
0.0008666599111
0.0008672716896
0.0008676234878
0.000864956852
0.0008654104662
0.000866048253
0.0008668147206
0.0008676456822
0.0008684699424
0.0008692112343
0.0008697896272
0.0008701221039
0.0008676035926
0.0008680327025
0.0008686359143
0.0008693606319
0.0008701460665
0.0008709248692
0.0008716249911
0.0008721710324
0.0008724847865
0.0008701098277
0.0008705151903
0.0008710848951
0.0008717691525
0.0008725104672
0.0008732452177
0.0008739054433
0.0008744201345
0.0008747157462
0.000872479915
0.0008728622632
0.0008733994955
0.0008740445421
0.0008747430997
0.0008754351593
0.0008760567221
0.0008765410334
0.0008768190645
0.0008747180781
0.0008750781218
0.0008755838836
0.0008761909293
0.0008768480496
0.0008774987367
0.0008780828314
0.000878537702
0.0008787986969
0.0008768284099
0.0008771668367
0.0008776420979
0.0008782123146
0.0008788292757
0.000879439867
0.0008799876504
0.0008804139901
0.0008806584756
0.0008788148757
0.0008791323513
0.0008795780515
0.0008801125736
0.0008806906131
0.0008812623446
0.0008817749369
0.0008821736265
0.0008824021128
0.0008806813162
0.0008809784851
0.0008813955336
0.0008818954597
0.0008824357757
0.0008829698443
0.0008834483298
0.0008838202221
0.000884033203
0.0008824314501
0.0008827089362
0.0008830982136
0.000883564607
0.0008840683594
0.0008845659236
0.0008850113522
0.0008853572724
0.0008855552262
0.000884068877
0.0008843272842
0.0008846896427
0.0008851235327
0.0008855918443
0.0008860540254
0.000886467413
0.0008867881602
0.0008869715494
0.0008855970796
0.0008858369925
0.0008861732569
0.0008865756396
0.0008870095966
0.0008874374797
0.0008878198096
0.0008881161567
0.000888285429
0.000887019426
0.0008872414099
0.0008875523781
0.0008879242171
0.0008883248707
0.0008887195056
0.0008890717288
0.0008893444236
0.0008895000122
0.0008883391705
0.0008885437724
0.0008888302161
0.0008891724434
0.0008895408099
0.0008899032116
0.0008902262478
0.0008904760134
0.000890618337
0.0008895594551
0.0008897472036
0.0008900098687
0.0008903233849
0.0008906604468
0.0008909915964
0.0008912863343
0.0008915138694
0.0008916433326
0.0008906833092
0.0008908547149
0.0008910943219
0.000891379997
0.0008916867028
0.0008919875475
0.0008922548454
0.0008924608246
0.0008925778181
0.0008917136493
0.0008918692049
0.0008920864487
0.000892345122
0.0008926223867
0.0008928938402
0.0008931345255
0.0008933195994
0.0008934244998
0.000892653277
0.000892793457
0.0008929890073
0.000893221487
0.0008934701918
0.0008937131338
0.0008939280033
0.000894092798
0.0008941859681
0.0008935048765
0.0008936301374
0.0008938046378
0.0008940117009
0.0008942326927
0.0008944479683
0.0008946377871
0.000894782904
0.000894864692
0.0008942710113
0.0008943817908
0.0008945358586
0.0008947182498
0.00089491234
0.0008951007587
0.0008952662595
0.0008953922741
0.000895463013
0.0008949541197
0.0008950508362
0.0008951850612
0.000895343492
0.0008955114552
0.0008956737893
0.0008958156706
0.0008959231313
0.0008959831386
0.0008955565096
0.0008956395615
0.0008957545051
0.000895889652
0.0008960322242
0.0008961692067
0.0008962881311
0.0008963775576
0.0008964271339
0.0008960803542
0.0008961501187
0.0008962463121
0.0008963588148
0.0008964766912
0.0008965890139
0.0008966856054
0.0008967574867
0.0008967969143
0.0008965276866
0.0008965845189
0.0008966624618
0.0008967529211
0.0008968467538
0.0008969350642
0.0008970099061
0.0008970646981
0.0008970942398
0.000896900397
0.000896944629
0.0008970047877
0.0008970737639
0.0008971441593
0.0008972090582
0.00089726269
0.0008973008133
0.0008973207109
0.0008972002309
0.0008972321704
0.000897274977
0.0008973229874
0.0008973705044
0.0008974125434
0.0008974454589
0.0008974672967
0.0008974777693
0.0008974287918
0.000897448722
0.0008974745728
0.000897502091
0.0008975272391
0.0008975469195
0.0008975595646
0.0008975654608
0.0008975667039
0.0008975875479
0.0008975957269
0.0008976049827
0.0008976124379
0.0008976156776
0.0008976134493
0.0008976062217
0.0008975964807
0.0008975886654
0.0008976778444
0.000897674506
0.0008976674923
0.0008976552714
0.000897637015
0.0008976132786
0.0008975865293
0.0008975614162
0.0008975446898
0.000897700922
0.0008976862775
0.0008976632882
0.0008976317389
0.0008975923551
0.0008975474658
0.0008975015024
0.0008974612464
0.0008974357333
0.000897657945
0.0008976321869
0.0008975934894
0.0008975429267
0.0008974827475
0.0008974170222
0.0008973521159
0.0008972969154
0.0008972627206
0.0008975500395
0.0008975133468
0.0008974591892
0.0008973899044
0.0008973092358
0.0008972229647
0.0008971393607
0.0008970693916
0.0008970266057
0.0008973783413
0.0008973308863
0.0008972615074
0.0008971737813
0.0008970729176
0.000896966379
0.0008968643114
0.0008967797396
0.0008967284457
0.000897144053
0.0008970860103
0.0008970016527
0.0008968957717
0.0008967750146
0.000896648495
0.0008965282054
0.0008964292023
0.0008963694858
0.0008968485099
0.0008967800671
0.0008966809933
0.0008965572692
0.0008964169505
0.000896270769
0.0008961325301
0.0008960192922
0.0008959512527
0.0008964932523
0.0008964146228
0.0008963011332
0.0008961599268
0.0008960004352
0.0008958349714
0.0008956791141
0.0008955518858
0.0008954756513
0.0008960801011
0.0008959915381
0.0008958639916