/*--------------------------------*- C++ -*----------------------------------*\
| =========                 |                                                 |
| \\      /  F ield         | OpenFOAM: The Open Source CFD Toolbox           |
|  \\    /   O peration     | Version:  2212                                  |
|   \\  /    A nd           | Website:  www.openfoam.com                      |
|    \\/     M anipulation  |                                                 |
\*---------------------------------------------------------------------------*/
FoamFile
{
    version     2.0;
    format      ascii;
    arch        "LSB;label=32;scalar=64";
    class       volScalarField;
    location    "20.00000000";
    object      C2H4;
}
// * * * * * * * * * * * * * * * * * * * * * * * * * * * * * * * * * * * * * //

dimensions      [0 0 0 0 0 0 0];

internalField   nonuniform List<scalar> 
3000
(
3.242021322e-23
3.64199164e-23
4.245544835e-23
5.049834618e-23
6.046687726e-23
7.209036311e-23
8.466855811e-23
9.667061997e-23
1.051576617e-22
1.217197263e-22
1.372878226e-22
1.607699289e-22
1.921314981e-22
2.313415043e-22
2.781826451e-22
3.318418588e-22
3.896102916e-22
4.407837959e-22
2.726451942e-22
3.099309806e-22
3.667077557e-22
4.437979303e-22
5.425880516e-22
6.645113854e-22
8.090881915e-22
9.682013709e-22
1.10419005e-21
5.193180744e-22
5.96522025e-22
7.158075526e-22
8.812111179e-22
1.098592942e-21
1.373476969e-21
1.704363491e-21
2.064763579e-21
2.355659851e-21
9.221760832e-22
1.072271403e-21
1.307830049e-21
1.640818174e-21
2.08689837e-21
2.658573853e-21
3.346295368e-21
4.076631334e-21
4.637267823e-21
1.585759978e-21
1.867473935e-21
2.315933624e-21
2.959760783e-21
3.833301282e-21
4.958537183e-21
6.301863219e-21
7.693876139e-21
8.723737089e-21
2.692085356e-21
3.209581151e-21
4.042985714e-21
5.252972544e-21
6.90692818e-21
9.0377416e-21
1.155728884e-20
1.411722155e-20
1.596439307e-20
4.556003351e-21
5.49258541e-21
7.014340118e-21
9.240837439e-21
1.229628578e-20
1.622470497e-20
2.082902641e-20
2.543906824e-20
2.871006412e-20
7.723090269e-21
9.400260514e-21
1.214296943e-20
1.617622622e-20
2.172100145e-20
2.883065379e-20
3.710359242e-20
4.530065473e-20
5.105257464e-20
1.31380891e-20
1.611784e-20
2.101303109e-20
2.823492744e-20
3.816949256e-20
5.087450076e-20
6.557642945e-20
8.003669767e-20
9.010810098e-20
2.243802498e-20
2.770086957e-20
3.637430242e-20
4.9196236e-20
6.683496517e-20
8.934208206e-20
1.152793366e-19
1.406594472e-19
1.582476806e-19
3.846006044e-20
4.771413771e-20
6.299881085e-20
8.562272306e-20
1.167391875e-19
1.563726688e-19
2.019082727e-19
2.463053918e-19
2.769661912e-19
6.61231586e-20
8.234144443e-20
1.091691514e-19
1.489099026e-19
2.035523408e-19
2.73053325e-19
3.527274091e-19
4.302129431e-19
4.835990565e-19
1.139580146e-19
1.423116176e-19
1.892621496e-19
2.588454051e-19
3.544906573e-19
4.760092769e-19
6.15084871e-19
7.500989472e-19
8.429811406e-19
1.967627658e-19
2.462428207e-19
3.282368346e-19
4.497947074e-19
6.168348198e-19
8.288777889e-19
1.071252249e-18
1.306250458e-18
1.467791986e-18
3.402122541e-19
4.26447916e-19
5.694286218e-19
7.814556489e-19
1.07277482e-18
1.442383426e-18
1.864512879e-18
2.273411294e-18
2.554339153e-18
5.888564907e-19
7.390069553e-19
9.880672992e-19
1.357497914e-18
1.865116782e-18
2.509097486e-18
3.244437801e-18
3.95629658e-18
4.444344536e-18
1.020001884e-18
1.281239046e-18
1.714688186e-18
2.357703763e-18
3.241155625e-18
4.361541815e-18
5.640138089e-18
6.877031256e-18
7.724710799e-18
1.767822854e-18
2.222076587e-18
2.975926953e-18
4.094317772e-18
5.630703652e-18
7.57853357e-18
9.80045246e-18
1.19489678e-17
1.342101057e-17
3.06522867e-18
3.854798329e-18
5.165290329e-18
7.109557712e-18
9.780213229e-18
1.316529401e-17
1.702550605e-17
2.075696489e-17
2.331281213e-17
5.316554909e-18
6.688582649e-18
8.96600588e-18
1.234484708e-17
1.698559257e-17
2.286665023e-17
2.957145004e-17
3.605080331e-17
4.048789014e-17
9.223764631e-18
1.160745548e-17
1.556429915e-17
2.143461333e-17
2.949642351e-17
3.971091758e-17
5.135326127e-17
6.260120554e-17
7.030221682e-17
1.600551521e-17
2.014620097e-17
2.701957984e-17
3.721612933e-17
5.121717183e-17
6.895288065e-17
8.916231864e-17
1.086815502e-16
1.220421138e-16
2.777725517e-17
3.496904141e-17
4.690654214e-17
6.461355189e-17
8.892253291e-17
1.197073595e-16
1.547745265e-16
1.886324435e-16
2.11800351e-16
4.821051572e-17
6.06999002e-17
8.142865892e-17
1.121702806e-16
1.543624628e-16
2.077757525e-16
2.685939192e-16
3.272892594e-16
3.674365977e-16
8.367549276e-17
1.053611066e-16
1.413469997e-16
1.947016467e-16
2.679028534e-16
3.605289455e-16
4.659390581e-16
5.676119131e-16
6.371187927e-16
1.452187545e-16
1.828630385e-16
2.453162425e-16
3.378791121e-16
4.648101756e-16
6.253245827e-16
8.078619671e-16
9.837941868e-16
1.103981232e-15
2.519816013e-16
3.173059394e-16
4.256450229e-16
5.861371035e-16
8.060742184e-16
1.08397452e-15
1.399704382e-15
1.70370322e-15
1.911178958e-15
4.370967438e-16
5.503967502e-16
7.382179897e-16
1.01627261e-15
1.396986849e-15
1.87752106e-15
2.422792574e-15
2.947110017e-15
3.304495542e-15
7.578352741e-16
9.542024506e-16
1.279534927e-15
1.760755646e-15
2.41890809e-15
3.248473717e-15
4.188293153e-15
5.090449578e-15
5.704359289e-15
1.313015139e-15
1.653006991e-15
2.215862576e-15
3.047514196e-15
4.183314887e-15
5.612410936e-15
7.228152528e-15
8.775767403e-15
9.826680013e-15
2.272761229e-15
2.860621655e-15
3.832885351e-15
5.267487631e-15
7.223223381e-15
9.678556907e-15
1.244751951e-14
1.509252676e-14
1.688388721e-14
3.92916907e-15
4.943777885e-15
6.619819801e-15
9.088633494e-15
1.244676087e-14
1.665125891e-14
2.137803474e-14
2.587820979e-14
2.891618566e-14
6.782143951e-15
8.52925698e-15
1.141103824e-14
1.56469796e-14
2.13930871e-14
2.856366349e-14
3.659466441e-14
4.421020953e-14
4.933155158e-14
1.168405639e-14
1.468382884e-14
1.962285285e-14
2.686423469e-14
3.66550503e-14
4.882485808e-14
6.239433526e-14
7.520167282e-14
8.377583468e-14
2.008205815e-14
2.52144267e-14
3.364630652e-14
4.597110153e-14
6.25702788e-14
8.310730937e-14
1.058880229e-13
1.27273632e-13
1.415176415e-13
3.442132473e-14
4.316514759e-14
5.749315593e-14
7.836113502e-14
1.063390388e-13
1.407695341e-13
1.787367388e-13
2.14163031e-13
2.376248205e-13
5.881129208e-14
7.363343122e-14
9.784836894e-14
1.329693866e-13
1.798117475e-13
2.371091086e-13
2.998763898e-13
3.580521152e-13
3.963417843e-13
1.001178778e-13
1.250986488e-13
1.657679415e-13
2.244738757e-13
3.023133828e-13
3.968863633e-13
4.997408491e-13
5.943841984e-13
6.562653019e-13
1.697391176e-13
2.115646319e-13
2.793891651e-13
3.76770965e-13
5.050524412e-13
6.597672053e-13
8.267261603e-13
9.791848549e-13
1.078182516e-12
2.864660523e-13
3.5598085e-13
4.682104577e-13
6.283984057e-13
8.379208571e-13
1.088628946e-12
1.356968397e-12
1.600065007e-12
1.756808961e-12
4.810483258e-13
5.956493741e-13
7.797754645e-13
1.0409002e-12
1.379859101e-12
1.782089653e-12
2.208970563e-12
2.592583288e-12
2.83818813e-12
8.034070014e-13
9.906799564e-13
1.289996885e-12
1.711583941e-12
2.254479862e-12
2.893206345e-12
3.565261614e-12
4.164344905e-12
4.545245302e-12
1.333909411e-12
1.637069062e-12
2.118927841e-12
2.792766756e-12
3.653372771e-12
4.657105212e-12
5.704174321e-12
6.630189045e-12
7.215005998e-12
2.200801285e-12
2.686711994e-12
3.454598512e-12
4.520512705e-12
5.870531895e-12
7.431446942e-12
9.046085343e-12
1.046317029e-11
1.135240086e-11
3.606858544e-12
4.377693127e-12
5.588672771e-12
7.257131452e-12
9.352767073e-12
1.17552133e-11
1.422020211e-11
1.636791159e-11
1.770752938e-11
5.869680096e-12
7.079649308e-12
8.969265367e-12
1.155346953e-11
1.47729283e-11
1.843349078e-11
2.21603842e-11
2.538548559e-11
2.738594017e-11
9.481935355e-12
1.136101705e-11
1.427845972e-11
1.823946324e-11
2.313548896e-11
2.865894153e-11
3.424178781e-11
3.904251882e-11
4.200516701e-11
1.520049922e-11
1.808776104e-11
2.254510309e-11
2.855477974e-11
3.592776495e-11
4.418478206e-11
5.247463739e-11
5.956204774e-11
6.391578091e-11
2.417701934e-11
2.856702363e-11
3.530763518e-11
4.433597982e-11
5.533514522e-11
6.756971209e-11
7.977755917e-11
9.016023276e-11
9.651203387e-11
3.814743288e-11
4.47544215e-11
5.48474419e-11
6.828292613e-11
8.454561947e-11
1.025228058e-10
1.203611399e-10
1.354617794e-10
1.44666406e-10
5.970479444e-11
6.955100707e-11
8.452112343e-11
1.043357903e-10
1.281782372e-10
1.543864771e-10
1.802633516e-10
2.020787106e-10
2.153345182e-10
9.268918436e-11
1.072259934e-10
1.29230164e-10
1.582036897e-10
1.928810188e-10
2.308087439e-10
2.680933223e-10
2.994133003e-10
3.18393155e-10
1.427314195e-10
1.640028581e-10
1.960722639e-10
2.381012679e-10
2.881644995e-10
3.426777034e-10
3.960610023e-10
4.407653587e-10
4.677939261e-10
2.180262165e-10
2.48892819e-10
2.952610994e-10
3.557754432e-10
4.275521593e-10
5.054030266e-10
5.813843376e-10
6.448425458e-10
6.83135322e-10
3.304110563e-10
3.748518971e-10
4.413979423e-10
5.279223233e-10
6.301634729e-10
7.406728317e-10
8.482096985e-10
9.378127912e-10
9.917922512e-10
4.968663378e-10
5.603857115e-10
6.552290854e-10
7.781365773e-10
9.228817612e-10
1.078848204e-09
1.230217459e-09
1.356078011e-09
1.431787076e-09
7.415923349e-10
8.31765117e-10
9.660631328e-10
1.139581275e-09
1.343309963e-09
1.562214253e-09
1.774148139e-09
1.950022198e-09
2.055670057e-09
1.098869437e-09
1.226068586e-09
1.415077361e-09
1.658623638e-09
1.943778652e-09
2.2493748e-09
2.544565324e-09
2.789084237e-09
2.93578554e-09
1.616969014e-09
1.795329081e-09
2.059805852e-09
2.39974895e-09
2.796744564e-09
3.221164605e-09
3.630272749e-09
3.968608625e-09
4.171390524e-09
2.363448567e-09
2.612131549e-09
2.980175692e-09
3.45214989e-09
4.002022804e-09
4.588580341e-09
5.152935887e-09
5.619041596e-09
5.898189151e-09
3.432239475e-09
3.777091572e-09
4.286560884e-09
4.938521452e-09
5.696459993e-09
6.50340552e-09
7.278615279e-09
7.918192283e-09
8.301019242e-09
4.95305611e-09
5.428790808e-09
6.130503367e-09
7.026801142e-09
8.066864423e-09
9.172382426e-09
1.023308852e-08
1.110747973e-08
1.163064944e-08
7.103893247e-09
7.757002553e-09
8.719014082e-09
9.945827906e-09
1.136719158e-08
1.287595636e-08
1.432205174e-08
1.551332525e-08
1.622588315e-08
1.01276956e-08
1.102032155e-08
1.233358386e-08
1.400605059e-08
1.594114659e-08
1.799284201e-08
1.9957549e-08
2.157510815e-08
2.25424242e-08
1.43544428e-08
1.556942551e-08
1.735512889e-08
1.962656186e-08
2.22515936e-08
2.503192448e-08
2.769223888e-08
2.988136358e-08
3.119022091e-08
2.022990239e-08
2.187725722e-08
2.429624821e-08
2.736996776e-08
3.091841044e-08
3.467324308e-08
3.826333604e-08
4.12161279e-08
4.298123348e-08
2.835246456e-08
3.057762909e-08
3.384240504e-08
3.798680686e-08
4.276660493e-08
4.781996002e-08
5.264820515e-08
5.661747e-08
5.898969853e-08
3.951968897e-08
4.251392665e-08
4.690376747e-08
5.247132487e-08
5.888654501e-08
6.566321641e-08
7.213355683e-08
7.745019269e-08
8.062688723e-08
5.478622019e-08
5.87995877e-08
6.467939326e-08
7.213027256e-08
8.07079694e-08
8.976153485e-08
9.83998898e-08
1.054943233e-07
1.097319621e-07
7.553455123e-08
8.089178017e-08
8.873511081e-08
9.866600629e-08
1.100889576e-07
1.221358307e-07
1.336221134e-07
1.43050222e-07
1.486796894e-07
1.03559612e-07
1.106791641e-07
1.210958368e-07
1.342744293e-07
1.494201509e-07
1.653800431e-07
1.805860892e-07
1.930598089e-07
2.00504367e-07
1.411674108e-07
1.505837819e-07
1.643520991e-07
1.817571761e-07
2.017431871e-07
2.227858778e-07
2.42819117e-07
2.592415501e-07
2.69037374e-07
1.912868761e-07
2.036759428e-07
2.217792058e-07
2.4464594e-07
2.708806165e-07
2.984782398e-07
3.247302811e-07
3.462345744e-07
3.590534016e-07
2.575926851e-07
2.737995167e-07
2.974659367e-07
3.273351217e-07
3.61572666e-07
3.975558725e-07
4.317543681e-07
4.597449852e-07
4.764180494e-07
3.446353918e-07
3.657035245e-07
3.964480161e-07
4.352172793e-07
4.796144518e-07
5.262298994e-07
5.704912216e-07
6.066855861e-07
6.282276575e-07
4.579737518e-07
4.851744945e-07
5.248402349e-07
5.748145153e-07
6.319859852e-07
6.919518371e-07
7.488314312e-07
7.952994125e-07
8.229314358e-07
6.0430305e-07
6.391630483e-07
6.899602168e-07
7.53898263e-07
8.269669057e-07
9.035225788e-07
9.760595828e-07
1.035258217e-06
1.070427274e-06
7.91572685e-07
8.358977874e-07
9.004366735e-07
9.815901003e-07
1.074228417e-06
1.171174795e-06
1.262927642e-06
1.337729132e-06
1.382125591e-06
1.029086399e-06
1.084979891e-06
1.166295626e-06
1.268437207e-06
1.384896209e-06
1.506622612e-06
1.621692588e-06
1.715404018e-06
1.77097535e-06
1.327579338e-06
1.397452869e-06
1.499019402e-06
1.626457694e-06
1.771580063e-06
1.923074701e-06
2.06611364e-06
2.182478728e-06
2.251412027e-06
1.699267439e-06
1.785843296e-06
1.911574848e-06
2.069153197e-06
2.248369195e-06
2.435211752e-06
2.61140653e-06
2.754569169e-06
2.839288811e-06
2.157865953e-06
2.264169882e-06
2.418409312e-06
2.611489074e-06
2.830793801e-06
3.059117118e-06
3.274129099e-06
3.448614508e-06
3.551764334e-06
2.718575798e-06
2.84792102e-06
3.035413667e-06
3.269839587e-06
3.535728529e-06
3.812139075e-06
4.072065763e-06
4.282736938e-06
4.407154288e-06
3.398037472e-06
3.553999104e-06
3.779846018e-06
4.061852174e-06
4.381237215e-06
4.712759632e-06
5.024066003e-06
5.276067024e-06
5.424749142e-06
4.214215311e-06
4.400560676e-06
4.670128283e-06
5.006280748e-06
5.386423895e-06
5.780413742e-06
6.149848429e-06
6.448535893e-06
6.624599494e-06
5.186172016e-06
5.406830805e-06
5.725706589e-06
6.122819904e-06
6.571233594e-06
7.035273754e-06
7.469771465e-06
7.820635492e-06
8.027270357e-06
6.33392289e-06
6.592932248e-06
6.966843599e-06
7.43188122e-06
7.956215284e-06
8.497999234e-06
9.004571872e-06
9.413148593e-06
9.653566345e-06
7.678202953e-06
7.979644958e-06
8.414369016e-06
8.954332334e-06
9.562249903e-06
1.018945479e-05
1.077507404e-05
1.124685186e-05
1.152423125e-05
9.240192883e-06
9.588126488e-06
1.008939289e-05
1.071120212e-05
1.141024766e-05
1.213040052e-05
1.28018751e-05
1.334219725e-05
1.365962751e-05
1.104120915e-05
1.14395985e-05
1.201298754e-05
1.272335784e-05
1.352082101e-05
1.43411619e-05
1.510501294e-05
1.571897926e-05
1.607940309e-05
1.310236565e-05
1.355500686e-05
1.420584603e-05
1.501116242e-05
1.591394174e-05
1.684128783e-05
1.770362611e-05
1.839599686e-05
1.880215495e-05
1.544421606e-05
1.595466461e-05
1.668792661e-05
1.759412158e-05
1.860859204e-05
1.964920684e-05
2.061561576e-05
2.139072057e-05
2.18450992e-05
1.808638754e-05
1.865788868e-05
1.947809408e-05
2.049053169e-05
2.16224206e-05
2.278189246e-05
2.385732022e-05
2.471897495e-05
2.522375847e-05
2.104721757e-05
2.168264185e-05
2.25937696e-05
2.371713979e-05
2.497141468e-05
2.625454835e-05
2.744321287e-05
2.839464696e-05
2.895167641e-05
2.434340558e-05
2.504519171e-05
2.605060038e-05
2.728882688e-05
2.866959908e-05
3.008032367e-05
3.138563303e-05
3.242942944e-05
3.30401687e-05
2.798969106e-05
2.875979786e-05
2.986216007e-05
3.121832481e-05
3.27287715e-05
3.42700676e-05
3.569455824e-05
3.683260761e-05
3.749811788e-05
3.199856856e-05
3.283843751e-05
3.403968948e-05
3.55159756e-05
3.715828273e-05
3.883213055e-05
4.037742476e-05
4.161089501e-05
4.233181811e-05
3.638004849e-05
3.729057791e-05
3.859188562e-05
4.018954065e-05
4.196486784e-05
4.377221753e-05
4.543900118e-05
4.676832277e-05
4.754487371e-05
4.114147103e-05
4.212300241e-05
4.352474497e-05
4.524406477e-05
4.715253283e-05
4.909329725e-05
5.08813176e-05
5.230618466e-05
5.313815317e-05
4.628737776e-05
4.733969452e-05
4.884146471e-05
5.068179804e-05
5.27224988e-05
5.479556817e-05
5.670365116e-05
5.822303761e-05
5.910979831e-05
5.181944397e-05
5.294178197e-05
5.454240352e-05
5.65021764e-05
5.867320351e-05
6.087648058e-05
6.290256634e-05
6.451475592e-05
6.545528641e-05
5.773647155e-05
5.892754088e-05
6.062510108e-05
6.270185925e-05
6.500035829e-05
6.733081203e-05
6.94720065e-05
7.117463521e-05
7.216754112e-05
6.40344408e-05
6.529245738e-05
6.708435344e-05
6.927482089e-05
7.169705617e-05
7.415079151e-05
7.640343194e-05
7.819354084e-05
7.923708679e-05
7.070661685e-05
7.202934263e-05
7.39123396e-05
7.621249044e-05
7.875392571e-05
8.132626632e-05
8.368599796e-05
8.556009434e-05
8.665223952e-05
7.774370518e-05
7.912849506e-05
8.1098793e-05
8.350393393e-05
8.615932383e-05
8.884490481e-05
9.130676586e-05
9.32608905e-05
9.439932766e-05
8.5134049e-05
8.657790283e-05
8.863121067e-05
9.113607095e-05
9.38995599e-05
9.669242722e-05
9.925093927e-05
0.0001012807376
0.0001024629341
9.286386052e-05
9.436347829e-05
9.649509196e-05
9.909391788e-05
0.0001019591433
0.0001048528567
0.0001075021178
0.0001096029128
0.0001108261526
0.0001009174776
0.0001024693162
0.0001046741984
0.0001073608495
0.0001103210461
0.0001133087829
0.0001160425608
0.0001182094254
0.0001194708508
0.0001092776372
0.0001108779669
0.0001131508268
0.0001159188709
0.0001189669736
0.0001220416302
0.0001248534531
0.0001270812813
0.0001283779333
0.0001179257571
0.0001195707168
0.0001219060867
0.0001247488922
0.0001278776351
0.0001310319242
0.0001339151678
0.0001361987416
0.0001375275987
0.000126842219
0.0001285278683
0.0001309201769
0.0001338309994
0.000137033009
0.0001402595507
0.0001432075192
0.0001455415713
0.0001468995851
0.0001360066448
0.0001377290126
0.0001401726527
0.0001431447153
0.0001464125959
0.0001497040019
0.0001527100018
0.0001550892728
0.0001564734006
0.0001453981612
0.0001471532902
0.0001496426797
0.0001526692458
0.000155995657
0.000159344605
0.0001624020119
0.0001648213012
0.0001662285355
0.0001549956483
0.0001567796339
0.0001593092705
0.0001623837076
0.0001657614322
0.0001691607325
0.0001722630489
0.0001747172595
0.0001761446531
0.0001647779668
0.0001665869912
0.0001691514996
0.000172267335
0.0001756893377
0.0001791319896
0.0001822728947
0.0001847570713
0.0001862017591
0.0001747241636
0.0001765545248
0.0001791486962
0.0001822996635
0.00018575914
0.0001892383789
0.0001924117703
0.0001949211309
0.0001963803482
0.0001848136519
0.0001866617873
0.0001892806124
0.0001924606896
0.0001959511065
0.0001994604427
0.0002026604693
0.0002051904309
0.0002066615279
0.0001950263674
0.0001968888728
0.0001995275671
0.0002027310068
0.0002062461331
0.0002097793811
0.0002130004697
0.0002155466678
0.0002170271206
0.0002053428995
0.0002072165429
0.0002098705666
0.0002130919181
0.0002166258481
0.0002201771492
0.0002234140228
0.0002259723259
0.0002274597452
0.0002157445977
0.0002176263298
0.0002202914011
0.0002235255261
0.0002270726957
0.0002306365324
0.0002338842234
0.0002364507427
0.0002379428788
0.0002262136567
0.0002281006169
0.0002307727204
0.0002340148025
0.0002375699985
0.0002411412033
0.0002443950605
0.0002469661552
0.0002484609015
0.0002367331793
0.0002386226988
0.0002412980896
0.0002445436382
0.0002481020018
0.0002516757606
0.0002549314517
0.0002575037304
0.0002589991241
0.0002472872207
0.0002491768227
0.000251852026
0.0002550968761
0.0002586539021
0.0002622257522
0.0002654792619
0.0002680495816
0.0002695438029
0.0002578608156
0.0002597482132
0.000262420021
0.0002656603285
0.0002692118605
0.0002727776852
0.0002760253101
0.0002785907716
0.0002800821413
0.0002684399904
0.000270323082
0.0002729885476
0.0002762207819
0.000279763003
0.0002833190234
0.000286557364
0.0002891153057
0.0002906022819
0.0002790117621
0.000280888626
0.0002835450552
0.0002867659893
0.0002902954118
0.0002938381749
0.0002970641253
0.0002996121154
0.0003010932887
0.0002895641265
0.000291433014
0.0002940779555
0.0002972846537
0.0003007981054
0.0003043244715
0.0003075352076
0.0003100710346
0.0003115451226
0.0003000860372
0.0003019453648
0.0003045765988
0.0003077664038
0.0003112610137
0.0003147681413
0.0003179611077
0.0003204827699
0.0003219486119
0.0003105673774
0.000312415718
0.0003150312449
0.0003182017627
0.0003216749451
0.0003251602758
0.0003283331713
0.0003308388666
0.0003322954165
0.0003209989259
0.000322835
0.0003254330273
0.0003285821129
0.0003320315512
0.0003354927929
0.0003386435566
0.0003411316703
0.000342577991
0.0003313723181
0.0003331949852
0.000335773915
0.0003388996563
0.0003423232864
0.0003457583976
0.0003488851935
0.0003513542871
0.0003527895434
0.0003416800052
0.000343488254
0.0003460466701
0.0003491473733
0.0003525433668
0.0003559505395
0.0003590517421
0.0003615005421
0.0003629239939
0.0003519152097
0.0003537081495
0.0003562448048
0.0003593189787
0.0003626857269
0.0003660633705
0.0003691375501
0.0003715649363
0.0003729759326
0.000362071881
0.0003638487328
0.0003663625371
0.0003694088784
0.0003727449757
0.0003760917014
0.0003791376098
0.0003815426042
0.0003829405765
0.0003721446499
0.000373904738
0.0003763947456
0.0003794121247
0.0003827163535
0.0003860309589
0.0003890475158
0.0003914292719
0.0003928137278
0.0003821287835
0.0003838715269
0.0003863369257
0.0003893243729
0.0003925956888
0.0003958771428
0.0003988634226
0.0004012212152
0.0004025917327
0.0003920201407
0.000393745046
0.0003961851461
0.0003991418385
0.000402379356
0.0004056267853
0.0004085820042
0.0004109152195
0.0004122714414
0.0004018151295
0.0004035217827
0.0004059360063
0.0004088612553
0.0004120642343
0.0004152769099
0.0004182004145
0.000420508541
0.0004218501692
0.0004115106658
0.0004131987259
0.0004155865972
0.0004184798367
0.0004216476696
0.0004248249944
0.0004277162499
0.0004299988691
0.0004313256598
0.0004211041331
0.0004227733252
0.0004251344613
0.0004279952368
0.0004311274372
0.0004342689335
0.0004371275133
0.0004393842917
0.0004406960506
0.0004305933439
0.0004322434533
0.0004345775559
0.0004374055141
0.000440501705
0.0004436070045
0.0004464325802
0.0004486632617
0.0004499598393
0.0004399765036
0.00044160737
0.0004439142173
0.0004467090967
0.0004497690008
0.0004528378338
0.0004556301662
0.0004578345647
0.0004591158523
0.0004492521765
0.0004508636889
0.0004531431281
0.0004559047504
0.0004589281801
0.0004619603663
0.0004647192971
0.0004668972897
0.0004681632156
0.0004584192538
0.0004600113456
0.0004622632863
0.0004649915478
0.000467978397
0.0004709738364
0.0004736992798
0.000475850801
0.0004771013266
0.000467476924
0.0004690495684
0.0004712739762
0.0004739688406
0.0004769190758
0.0004798777412
0.0004825696766
0.0004846947124
0.0004859298292
0.0004764246446
0.0004779778506
0.0004801747413
0.0004828362326
0.0004857498856
0.0004886718145
0.0004913302804
0.0004934288627
0.0004946485891
0.0004852621165
0.0004867959247
0.0004889653592
0.0004915935552
0.0004944707165
0.0004973560046
0.0004999810915
0.0005020532936
0.000503257672
0.0004939892593
0.0004955037394
0.0004976458181
0.0005002408448
0.0005030816569
0.0005059304515
0.0005085222971
0.000510568229
0.0005117573233
0.0005026061895
0.0005041014365
0.0005062162959
0.0005087783218
0.0005115829736
0.000514395468
0.000516954251
0.0005189740556
0.0005201479488
0.0005111132004
0.0005125893318
0.0005146771396
0.0005172063712
0.000519975092
0.0005227515202
0.0005252774566
0.0005272713058
0.0005284300978
0.0005195107423
0.0005209678953
0.0005230288473
0.0005255255241
0.0005282585798
0.0005309992118
0.0005334925499
0.000535460641
0.0005366044467
0.0005277994059
0.0005292377348
0.0005312720512
0.0005337364422
0.0005364341305
0.0005391392679
0.0005416002846
0.0005435428374
0.0005446717846
0.0005359799059
0.0005373995804
0.0005394075026
0.0005418399024
0.0005445025487
0.0005471725207
0.0005496015177
0.0005515187717
0.0005526329997
0.0005440530667
0.0005454542697
0.0005474360575
0.0005498367832
0.000552464737
0.0005550998968
0.0005574971974
0.0005593894089
0.0005604890671
0.0005520198093
0.0005534027349
0.0005553586643
0.000557728052
0.0005603216837
0.0005629224049
0.0005652883511
0.0005671557912
0.0005682410373
0.0005598811385
0.0005612459907
0.0005631763514
0.0005655147538
0.0005680744514
0.0005706411255
0.0005729760751
0.0005748190274
0.0005758900267
0.0005676381326
0.0005689851236
0.0005708902169
0.0005731980006
0.0005757241674
0.0005782572006
0.0005805615251
0.0005823802839
0.0005834372077
0.0005752919326
0.0005766212818
0.0005785014187
0.000580778962
0.0005832720139
0.0005857718252
0.0005880459073
0.0005898407757
0.0005908838005
0.0005828437338
0.0005841556663
0.0005860111659
0.0005882588569
0.0005907192201
0.0005931862388
0.0005954304706
0.0005972017591
0.0005982310658
0.0005902947769
0.0005915895225
0.0005934207107
0.0005956389452
0.0005980670547
0.0006005017184
0.0006027164994
0.0006044645243
0.0006054802972
0.0005976463412
0.0005989241334
0.0006007313413
0.0006029205215
0.0006053168188
0.0006077195716
0.0006099053073
0.0006116303897
0.0006126328159
0.0006048997372
0.0006061608125
0.0006079443751
0.0006101049078
0.0006124698395
0.0006148411309
0.0006169982312
0.0006187006956
0.0006196899641
0.000612056301
0.000613300898
0.0006150611532
0.0006171934486
0.0006195274651
0.0006218677478
0.0006239966259
0.0006256767993
0.0006266531006
0.0006191173885
0.000620345747
0.0006220830347
0.0006241875055
0.0006264910594
0.0006288007884
0.0006309018594
0.0006325600703
0.0006335235959
0.0006260843704
0.0006272967312
0.0006290113924
0.0006310884521
0.0006333619973
0.0006356416287
0.0006377153086
0.0006393518862
0.0006403028278
0.0006329586281
0.000634155232
0.0006358476076
0.0006378976702
0.0006401416605
0.0006423916506
0.0006444383552
0.0006460536287
0.000646992178
0.0006397415488
0.0006409226364
0.000642593067
0.0006446165456
0.0006468314341
0.000649052238
0.0006510723823
0.00065266668
0.0006535930282
0.0006464345226
0.0006476003336
0.0006492491585
0.0006512464648
0.0006534327026
0.0006556247736
0.0006576187709
0.0006591924195
0.0006601067572
0.0006530389385
0.0006541897113
0.0006558172681
0.0006577888112
0.0006599468471
0.0006621106356
0.0006640788966
0.000665632221
0.0006665347373
0.0006595561814
0.0006606921527
0.0006622987763
0.0006642449625
0.0006663752416
0.0006685111948
0.0006704541267
0.000671987449
0.0006728783315
0.0006659876287
0.0006671090331
0.0006686950556
0.0006706162873
0.0006727192506
0.0006748278111
0.0006767458172
0.0006782594561
0.0006791388905
0.0006723346477
0.0006734417173
0.000675007467
0.0006769041421
0.0006789802255
0.0006810618307
0.0006829553093
0.0006844495799
0.0006853177496
0.0006785985921
0.000679691556
0.0006812373569
0.0006831098681
0.0006851595015
0.0006872145828
0.0006890839267
0.0006905591391
0.0006914162246
0.0006847807989
0.0006858598827
0.0006873860539
0.0006892347877
0.0006912583941
0.0006932873757
0.0006951329708
0.00069658943
0.0006974356088
0.0006908825847
0.0006919480099
0.0006934548646
0.0006952802004
0.0006972781948
0.0006992814925
0.0007011037171
0.0007025417216
0.0007033771673
0.0006969052412
0.0006979572248
0.0006994450696
0.0007012473782
0.0007032201661
0.000705198186
0.0007069974091
0.0007084172501
0.000709242132
0.0007028500306
0.0007038887839
0.0007053579175
0.0007071375599
0.0007090855358
0.0007110386725
0.0007128152523
0.0007142172119
0.0007150316939
0.0007087181789
0.000709743907
0.0007111946185
0.0007129519441
0.000714875489
0.0007168041233
0.0007185584049
0.0007199427548
0.0007207469944
0.0007145108687
0.0007155237686
0.0007169563359
0.00071869168
0.0007205911591
0.0007224956551
0.000724227968
0.0007255949669
0.0007263891139
0.0007202292288
0.0007212294881
0.0007226441755
0.0007243578562
0.0007262336153
0.0007281143169
0.0007298249713
0.0007311748622
0.0007319590571
0.0007258743222
0.0007268621171
0.0007282591721
0.0007299514868
0.0007318038478
0.0007336610741
0.0007353503567
0.0007366833632
0.0007374577346
0.0007314471307
0.0007324226232
0.0007338022728
0.0007354734929
0.0007373027485
0.0007391367878
0.000740804956
0.0007421212777
0.0007428859399
0.0007369485353
0.0007379118699
0.0007392743156
0.0007409246808
0.0007427310873
0.0007445421898
0.0007461894649
0.0007474892716
0.0007482443211
0.0007423792926
0.0007433305919
0.0007446760038
0.0007463057142
0.0007480894828
0.0007498778515
0.0007515044099
0.0007527878346
0.0007535333454
0.000747740005
0.0007486793649
0.0007500078739
0.0007516170806
0.0007533783667
0.0007551441461
0.0007567501085
0.0007580172386
0.0007587532574
0.0007530310857
0.0007539585687
0.0007552702575
0.0007568590511
0.0007585979411
0.0007603412038
0.0007619266226
0.0007631774888
0.0007639040286
0.0007582527166
0.0007591683445
0.0007604632365
0.0007620316333
0.0007637481292
0.000765468859
0.0007670337025
0.0007682682671
0.0007689852992
0.0007634047993
0.0007643085438
0.0007655865901
0.000767134516
0.0007688285167
0.0007705265902
0.0007720707249
0.0007732888664
0.0007739963124
0.0007684868993
0.0007693786718
0.000770639736
0.0007721670074
0.0007738382879
0.000775513452
0.0007770366221
0.0007782381188
0.00077893584
0.0007734981827
0.0007743778225
0.0007756216636
0.0007771279666
0.0007787761538
0.0007804280016
0.0007819298055
0.000783114317
0.0007838021036
0.0007784373482
0.000779304609
0.0007805308626
0.0007820157294
0.000783640276
0.0007852682195
0.0007867480853
0.000787915132
0.0007885926914
0.0007833025541
0.0007841570899
0.0007853652479
0.0007868280315
0.0007884281882
0.00079003143
0.0007914885889
0.000792637531
0.0007933044752
0.0007880913435
0.0007889326939
0.000790122083
0.0007915619316
0.0007931367183
0.0007947142224
0.0007961476817
0.0007972776983
0.0007979335314
0.0007928005712
0.0007936281464
0.0007947979072
0.0007962137383
0.0007977619159
0.0007993123793
0.0008007208972
0.0008018309653
0.000802475072
0.000797426336
0.0007982394026
0.0007993884693
0.0008007789459
0.0008022989902
0.0008038208176
0.0008052028794
0.0008062917568
0.0008069233921
0.0008019639233
0.0008027615916
0.000803888675
0.000805252185
0.0008067422651
0.0008082335471
0.0008095873478
0.0008106535589
0.0008112718408
0.0008064077639
0.0008071889787
0.0008082925529
0.0008096271938
0.0008110851567
0.0008125436567
0.0008138670897
0.0008149089183
0.0008155128237
0.0008107514148
0.0008115149504
0.0008125932467
0.0008138968187
0.000815320183
0.0008167433331
0.0008180339887
0.0008190494788
0.0008196378451
0.0008149875683
0.0008157320285
0.0008167830366
0.0008180530477
0.0008194390118
0.0008208239222
0.0008220790983
0.0008230660647
0.0008236375974
0.0008191080981
0.0008198319237
0.0008208534042
0.0008220870864
0.0008234325495
0.000824776035
0.0008259927647
0.0008269488163
0.0008275021035
0.000823104147
0.0008238056321
0.0008247951406
0.0008259894826
0.0008272910846
0.0008285897075
0.000829764803
0.0008306873811
0.0008312209171
0.0008269662609
0.0008276435787
0.0008285985045
0.0008297503016
0.0008310044815
0.000832254616
0.0008333847312
0.0008342711625
0.0008347833806
0.0008306845726
0.0008313358114
0.0008322534312
0.0008333593537