/*--------------------------------*- C++ -*----------------------------------*\
| =========                 |                                                 |
| \\      /  F ield         | OpenFOAM: The Open Source CFD Toolbox           |
|  \\    /   O peration     | Version:  2212                                  |
|   \\  /    A nd           | Website:  www.openfoam.com                      |
|    \\/     M anipulation  |                                                 |
\*---------------------------------------------------------------------------*/
FoamFile
{
    version     2.0;
    format      ascii;
    arch        "LSB;label=32;scalar=64";
    class       volScalarField;
    location    "20.00000000";
    object      C2H4_0;
}
// * * * * * * * * * * * * * * * * * * * * * * * * * * * * * * * * * * * * * //

dimensions      [0 0 0 0 0 0 0];

internalField   nonuniform List<scalar> 
3000
(
3.242021317e-23
3.641991512e-23
4.245544513e-23
5.049834017e-23
6.046686755e-23
7.209034884e-23
8.466853873e-23
9.667059544e-23
1.051576333e-22
1.21719721e-22
1.372878114e-22
1.607699084e-22
1.921314643e-22
2.313414529e-22
2.781825715e-22
3.318417593e-22
3.896101637e-22
4.407836433e-22
2.726451607e-22
3.099309284e-22
3.667076743e-22
4.437978064e-22
5.425878705e-22
6.645111307e-22
8.090878473e-22
9.682009254e-22
1.104189516e-21
5.193179514e-22
5.965218518e-22
7.158072988e-22
8.812107469e-22
1.098592408e-21
1.373476222e-21
1.704362478e-21
2.064762267e-21
2.355658292e-21
9.221757328e-22
1.072270929e-21
1.307829375e-21
1.640817205e-21
2.086896987e-21
2.658571921e-21
3.346292754e-21
4.076627973e-21
4.637263875e-21
1.585759108e-21
1.867472786e-21
2.315932019e-21
2.959758505e-21
3.833298057e-21
4.958532706e-21
6.30185721e-21
7.69386851e-21
8.723728242e-21
2.692083418e-21
3.209578638e-21
4.042982256e-21
5.252967689e-21
6.906921382e-21
9.037732268e-21
1.155727648e-20
1.411720611e-20
1.596437542e-20
4.555999399e-21
5.492580372e-21
7.014333305e-21
9.240828034e-21
1.229627285e-20
1.622468755e-20
2.082900383e-20
2.543904061e-20
2.871003305e-20
7.723082828e-21
9.400251226e-21
1.21429572e-20
1.617620981e-20
2.172097957e-20
2.883062528e-20
3.710355673e-20
4.530061246e-20
5.105252822e-20
1.313807622e-20
1.611782442e-20
2.10130114e-20
2.82349023e-20
3.816946094e-20
5.087446237e-20
6.557638486e-20
8.003664849e-20
9.010804984e-20
2.243800462e-20
2.770084616e-20
3.637427495e-20
4.919620447e-20
6.683493144e-20
8.93420503e-20
1.152793114e-19
1.406594316e-19
1.582476753e-19
3.846003143e-20
4.771410717e-20
6.299878056e-20
8.562269966e-20
1.167391851e-19
1.563727069e-19
2.019083646e-19
2.463055407e-19
2.76966399e-19
6.612312182e-20
8.234141237e-20
1.091691361e-19
1.48909934e-19
2.035524709e-19
2.730535991e-19
3.527278118e-19
4.302134668e-19
4.835998264e-19
1.139579737e-19
1.423115979e-19
1.892621913e-19
2.588455937e-19
3.544910865e-19
4.760098383e-19
6.150850605e-19
7.500986363e-19
8.429817974e-19
1.967627246e-19
2.462428297e-19
3.282369766e-19
4.497950977e-19
6.168352886e-19
8.288768893e-19
1.07124655e-18
1.306238639e-18
1.467784455e-18
3.402122024e-19
4.2644793e-19
5.69428781e-19
7.814559212e-19
1.072774196e-18
1.442377454e-18
1.864490883e-18
2.27336564e-18
2.554310355e-18
5.888563906e-19
7.390068906e-19
9.880673363e-19
1.357498279e-18
1.865118322e-18
2.509103201e-18
3.244455873e-18
3.956335678e-18
4.444371266e-18
1.020001707e-18
1.281238844e-18
1.71468791e-18
2.357703407e-18
3.241155714e-18
4.361544665e-18
5.640148262e-18
6.877049247e-18
7.724721453e-18
1.767822595e-18
2.222076273e-18
2.975926484e-18
4.094316957e-18
5.630702405e-18
7.578532478e-18
9.800452813e-18
1.19489692e-17
1.342100953e-17
3.065228342e-18
3.854797947e-18
5.165289809e-18
7.109556899e-18
9.780211941e-18
1.316529227e-17
1.702550421e-17
2.075696306e-17
2.331280987e-17
5.316554547e-18
6.688582245e-18
8.966005383e-18
1.234484642e-17
1.698559166e-17
2.286664905e-17
2.957144875e-17
3.605080206e-17
4.048788895e-17
9.223764291e-18
1.160745511e-17
1.556429874e-17
2.143461285e-17
2.949642296e-17
3.971091698e-17
5.13532607e-17
6.260120509e-17
7.030221651e-17
1.600551496e-17
2.01462007e-17
2.701957958e-17
3.721612907e-17
5.121717161e-17
6.895288051e-17
8.916231862e-17
1.086815504e-16
1.220421142e-16
2.777725505e-17
3.496904129e-17
4.690654208e-17
6.461355192e-17
8.892253302e-17
1.197073597e-16
1.547745269e-16
1.886324443e-16
2.118003519e-16
4.821051577e-17
6.069990028e-17
8.142865913e-17
1.121702809e-16
1.543624632e-16
2.077757532e-16
2.685939202e-16
3.272892606e-16
3.674365992e-16
8.3675493e-17
1.05361107e-16
1.413470002e-16
1.947016473e-16
2.679028542e-16
3.605289468e-16
4.659390595e-16
5.676119151e-16
6.371187953e-16
1.45218755e-16
1.828630392e-16
2.453162434e-16
3.378791132e-16
4.648101771e-16
6.253245847e-16
8.078619694e-16
9.837941902e-16
1.103981236e-15
2.519816022e-16
3.173059406e-16
4.256450245e-16
5.861371054e-16
8.060742208e-16
1.083974523e-15
1.399704386e-15
1.703703226e-15
1.911178966e-15
4.370967454e-16
5.50396752e-16
7.382179924e-16
1.016272613e-15
1.396986853e-15
1.877521065e-15
2.422792581e-15
2.947110027e-15
3.304495555e-15
7.578352769e-16
9.542024536e-16
1.279534932e-15
1.760755653e-15
2.418908097e-15
3.248473727e-15
4.188293166e-15
5.090449597e-15
5.704359315e-15
1.313015144e-15
1.653006996e-15
2.215862584e-15
3.047514207e-15
4.183314899e-15
5.612410953e-15
7.228152551e-15
8.775767439e-15
9.82668006e-15
2.272761237e-15
2.860621666e-15
3.832885365e-15
5.267487648e-15
7.223223403e-15
9.678556939e-15
1.244751955e-14
1.509252682e-14
1.68838873e-14
3.929169082e-15
4.943777904e-15
6.619819826e-15
9.088633523e-15
1.244676091e-14
1.665125897e-14
2.137803482e-14
2.58782099e-14
2.891618581e-14
6.782143975e-15
8.529257012e-15
1.141103828e-14
1.564697965e-14
2.139308717e-14
2.856366359e-14
3.659466454e-14
4.421020973e-14
4.933155184e-14
1.168405644e-14
1.468382889e-14
1.962285292e-14
2.686423479e-14
3.665505042e-14
4.882485825e-14
6.239433549e-14
7.520167318e-14
8.377583514e-14
2.008205822e-14
2.521442677e-14
3.364630663e-14
4.597110169e-14
6.257027901e-14
8.310730966e-14
1.058880233e-13
1.272736327e-13
1.415176423e-13
3.442132485e-14
4.316514772e-14
5.749315612e-14
7.836113529e-14
1.063390392e-13
1.407695346e-13
1.787367395e-13
2.141630321e-13
2.376248219e-13
5.881129228e-14
7.363343145e-14
9.784836929e-14
1.32969387e-13
1.798117481e-13
2.371091094e-13
2.998763909e-13
3.580521171e-13
3.963417866e-13
1.001178782e-13
1.250986492e-13
1.657679421e-13
2.244738765e-13
3.023133838e-13
3.968863646e-13
4.99740851e-13
5.943842016e-13
6.562653058e-13
1.697391181e-13
2.115646326e-13
2.793891661e-13
3.767709662e-13
5.050524428e-13
6.597672075e-13
8.267261637e-13
9.791848605e-13
1.078182523e-12
2.864660531e-13
3.559808512e-13
4.682104593e-13
6.283984077e-13
8.379208597e-13
1.08862895e-12
1.356968403e-12
1.600065016e-12
1.756808973e-12
4.810483273e-13
5.956493762e-13
7.797754673e-13
1.040900203e-12
1.379859105e-12
1.78208966e-12
2.208970573e-12
2.592583304e-12
2.838188149e-12
8.034070042e-13
9.906799597e-13
1.289996889e-12
1.711583948e-12
2.25447987e-12
2.893206356e-12
3.56526163e-12
4.164344932e-12
4.545245332e-12
1.333909416e-12
1.637069067e-12
2.118927849e-12
2.792766767e-12
3.653372785e-12
4.65710523e-12
5.704174348e-12
6.630189091e-12
7.215006047e-12
2.200801292e-12
2.686712004e-12
3.454598526e-12
4.520512723e-12
5.870531918e-12
7.431446973e-12
9.046085391e-12
1.046317037e-11
1.135240094e-11
3.606858557e-12
4.377693145e-12
5.588672794e-12
7.257131482e-12
9.352767111e-12
1.175521336e-11
1.422020219e-11
1.636791172e-11
1.770752951e-11
5.869680119e-12
7.079649338e-12
8.969265406e-12
1.155346958e-11
1.477292837e-11
1.843349087e-11
2.216038433e-11
2.538548579e-11
2.738594037e-11
9.481935393e-12
1.13610171e-11
1.427845979e-11
1.823946332e-11
2.313548907e-11
2.865894167e-11
3.424178802e-11
3.904251914e-11
4.200516732e-11
1.520049928e-11
1.808776112e-11
2.254510319e-11
2.855477988e-11
3.592776512e-11
4.418478228e-11
5.247463774e-11
5.956204825e-11
6.391578139e-11
2.417701944e-11
2.856702377e-11
3.530763535e-11
4.433598004e-11
5.533514549e-11
6.756971246e-11
7.977755972e-11
9.016023354e-11
9.651203461e-11
3.814743305e-11
4.475442173e-11
5.484744218e-11
6.828292648e-11
8.45456199e-11
1.025228063e-10
1.203611407e-10
1.354617806e-10
1.446664071e-10
5.97047947e-11
6.955100743e-11
8.452112386e-11
1.043357909e-10
1.281782379e-10
1.543864779e-10
1.802633529e-10
2.020787124e-10
2.153345198e-10
9.268918476e-11
1.07225994e-10
1.292301647e-10
1.582036905e-10
1.928810198e-10
2.308087452e-10
2.680933243e-10
2.99413303e-10
3.183931574e-10
1.427314201e-10
1.640028589e-10
1.960722649e-10
2.381012691e-10
2.88164501e-10
3.426777054e-10
3.960610053e-10
4.407653628e-10
4.677939298e-10
2.180262175e-10
2.488928203e-10
2.952611009e-10
3.557754449e-10
4.275521614e-10
5.054030296e-10
5.813843422e-10
6.448425519e-10
6.831353272e-10
3.304110578e-10
3.748518991e-10
4.413979446e-10
5.27922326e-10
6.301634761e-10
7.406728362e-10
8.482097053e-10
9.378127999e-10
9.917922586e-10
4.968663399e-10
5.603857144e-10
6.552290888e-10
7.781365813e-10
9.228817661e-10
1.078848211e-09
1.230217469e-09
1.356078024e-09
1.431787086e-09
7.415923381e-10
8.317651214e-10
9.66063138e-10
1.139581281e-09
1.34330997e-09
1.562214263e-09
1.774148153e-09
1.950022216e-09
2.055670072e-09
1.098869441e-09
1.226068593e-09
1.415077369e-09
1.658623647e-09
1.943778663e-09
2.249374815e-09
2.544565346e-09
2.789084264e-09
2.935785562e-09
1.616969021e-09
1.795329091e-09
2.059805864e-09
2.399748963e-09
2.79674458e-09
3.221164627e-09
3.630272781e-09
3.968608665e-09
4.171390557e-09
2.363448577e-09
2.612131564e-09
2.980175709e-09
3.452149909e-09
4.002022828e-09
4.588580373e-09
5.152935934e-09
5.619041652e-09
5.898189197e-09
3.43223949e-09
3.777091594e-09
4.286560909e-09
4.93852148e-09
5.696460027e-09
6.503405567e-09
7.278615346e-09
7.918192363e-09
8.301019308e-09
4.953056132e-09
5.42879084e-09
6.130503403e-09
7.026801183e-09
8.066864473e-09
9.172382494e-09
1.023308862e-08
1.110747984e-08
1.163064953e-08
7.103893279e-09
7.757002599e-09
8.719014135e-09
9.945827965e-09
1.136719166e-08
1.287595646e-08
1.432205188e-08
1.551332541e-08
1.622588328e-08
1.012769564e-08
1.102032162e-08
1.233358393e-08
1.400605067e-08
1.59411467e-08
1.799284215e-08
1.99575492e-08
2.157510838e-08
2.254242439e-08
1.435444287e-08
1.556942561e-08
1.7355129e-08
1.962656199e-08
2.225159374e-08
2.503192468e-08
2.769223915e-08
2.98813639e-08
3.119022117e-08
2.022990249e-08
2.187725735e-08
2.429624837e-08
2.736996793e-08
3.091841064e-08
3.467324336e-08
3.826333643e-08
4.121612834e-08
4.298123384e-08
2.835246469e-08
3.057762929e-08
3.384240526e-08
3.79868071e-08
4.276660522e-08
4.781996041e-08
5.264820569e-08
5.661747062e-08
5.898969903e-08
3.951968915e-08
4.251392692e-08
4.690376778e-08
5.247132521e-08
5.888654541e-08
6.566321696e-08
7.213355759e-08
7.745019354e-08
8.062688792e-08
5.478622044e-08
5.879958808e-08
6.467939368e-08
7.213027304e-08
8.070796998e-08
8.976153561e-08
9.839989083e-08
1.054943245e-07
1.09731963e-07
7.553455157e-08
8.089178069e-08
8.87351114e-08
9.866600695e-08
1.100889584e-07
1.221358318e-07
1.336221148e-07
1.430502235e-07
1.486796907e-07
1.035596125e-07
1.106791648e-07
1.210958377e-07
1.342744302e-07
1.494201519e-07
1.653800446e-07
1.805860911e-07
1.930598111e-07
2.005043687e-07
1.411674114e-07
1.505837829e-07
1.643521003e-07
1.817571774e-07
2.017431885e-07
2.227858797e-07
2.428191196e-07
2.59241553e-07
2.690373763e-07
1.91286877e-07
2.036759441e-07
2.217792073e-07
2.446459416e-07
2.708806185e-07
2.984782424e-07
3.247302846e-07
3.462345782e-07
3.590534046e-07
2.575926863e-07
2.737995184e-07
2.974659387e-07
3.273351239e-07
3.615726686e-07
3.97555876e-07
4.317543726e-07
4.597449902e-07
4.764180534e-07
3.446353933e-07
3.657035269e-07
3.964480188e-07
4.352172822e-07
4.796144553e-07
5.262299039e-07
5.704912276e-07
6.066855927e-07
6.282276628e-07
4.579737539e-07
4.851744976e-07
5.248402384e-07
5.748145191e-07
6.319859898e-07
6.919518431e-07
7.48831439e-07
7.952994211e-07
8.229314428e-07
6.043030526e-07
6.391630523e-07
6.899602214e-07
7.53898268e-07
8.269669116e-07
9.035225866e-07
9.76059593e-07
1.035258228e-06
1.070427283e-06
7.915726884e-07
8.358977926e-07
9.004366794e-07
9.815901067e-07
1.074228425e-06
1.171174805e-06
1.262927655e-06
1.337729146e-06
1.382125602e-06
1.029086403e-06
1.084979898e-06
1.166295634e-06
1.268437215e-06
1.384896219e-06
1.506622625e-06
1.621692604e-06
1.715404036e-06
1.770975365e-06
1.327579344e-06
1.397452877e-06
1.499019412e-06
1.626457704e-06
1.771580075e-06
1.923074717e-06
2.06611366e-06
2.18247875e-06
2.251412045e-06
1.699267445e-06
1.785843306e-06
1.91157486e-06
2.069153209e-06
2.24836921e-06
2.435211771e-06
2.611406555e-06
2.754569196e-06
2.839288833e-06
2.157865961e-06
2.264169894e-06
2.418409327e-06
2.61148909e-06
2.83079382e-06
3.059117142e-06
3.27412913e-06
3.448614541e-06
3.551764361e-06
2.718575808e-06
2.847921035e-06
3.035413685e-06
3.269839606e-06
3.535728552e-06
3.812139104e-06
4.0720658e-06
4.282736978e-06
4.40715432e-06
3.398037484e-06
3.553999123e-06
3.77984604e-06
4.061852197e-06
4.381237242e-06
4.712759666e-06
5.024066047e-06
5.276067071e-06
5.42474918e-06
4.214215325e-06
4.400560698e-06
4.670128308e-06
5.006280776e-06
5.386423928e-06
5.780413784e-06
6.149848481e-06
6.448535949e-06
6.62459954e-06
5.186172033e-06
5.406830832e-06
5.725706619e-06
6.122819937e-06
6.571233632e-06
7.035273802e-06
7.469771527e-06
7.820635558e-06
8.027270411e-06
6.33392291e-06
6.592932279e-06
6.966843634e-06
7.431881258e-06
7.956215328e-06
8.49799929e-06
9.004571944e-06
9.41314867e-06
9.653566407e-06
7.678202977e-06
7.979644995e-06
8.414369057e-06
8.954332378e-06
9.562249953e-06
1.018945485e-05
1.077507412e-05
1.124685194e-05
1.152423132e-05
9.24019291e-06
9.58812653e-06
1.008939293e-05
1.071120217e-05
1.141024772e-05
1.213040059e-05
1.280187519e-05
1.334219735e-05
1.365962759e-05
1.104120918e-05
1.143959855e-05
1.201298759e-05
1.272335789e-05
1.352082108e-05
1.434116199e-05
1.510501304e-05
1.571897937e-05
1.607940318e-05
1.310236569e-05
1.355500691e-05
1.420584609e-05
1.501116249e-05
1.591394181e-05
1.684128792e-05
1.770362623e-05
1.839599699e-05
1.880215505e-05
1.54442161e-05
1.595466467e-05
1.668792668e-05
1.759412166e-05
1.860859212e-05
1.964920695e-05
2.06156159e-05
2.139072071e-05
2.184509932e-05
1.808638759e-05
1.865788875e-05
1.947809415e-05
2.049053177e-05
2.162242069e-05
2.278189258e-05
2.385732037e-05
2.471897511e-05
2.522375859e-05
2.104721762e-05
2.168264192e-05
2.259376968e-05
2.371713988e-05
2.497141478e-05
2.625454848e-05
2.744321304e-05
2.839464714e-05
2.895167655e-05
2.434340563e-05
2.504519179e-05
2.605060047e-05
2.728882698e-05
2.866959919e-05
3.008032381e-05
3.138563322e-05
3.242942963e-05
3.304016886e-05
2.798969112e-05
2.875979795e-05
2.986216017e-05
3.121832491e-05
3.272877163e-05
3.427006776e-05
3.569455844e-05
3.683260782e-05
3.749811805e-05
3.199856862e-05
3.283843761e-05
3.403968959e-05
3.551597571e-05
3.715828287e-05
3.883213072e-05
4.037742498e-05
4.161089524e-05
4.233181829e-05
3.638004856e-05
3.729057801e-05
3.859188574e-05
4.018954078e-05
4.196486799e-05
4.377221771e-05
4.543900141e-05
4.676832302e-05
4.754487391e-05
4.11414711e-05
4.212300253e-05
4.35247451e-05
4.524406491e-05
4.715253299e-05
4.909329745e-05
5.088131785e-05
5.230618493e-05
5.313815338e-05
4.628737784e-05
4.733969464e-05
4.884146485e-05
5.068179819e-05
5.272249897e-05
5.479556838e-05
5.670365143e-05
5.822303789e-05
5.910979854e-05
5.181944405e-05
5.294178211e-05
5.454240367e-05
5.650217656e-05
5.867320369e-05
6.08764808e-05
6.290256662e-05
6.451475622e-05
6.545528665e-05
5.773647164e-05
5.892754102e-05
6.062510124e-05
6.270185942e-05
6.500035848e-05
6.733081227e-05
6.94720068e-05
7.117463553e-05
7.216754137e-05
6.403444089e-05
6.529245754e-05
6.708435362e-05
6.927482107e-05
7.169705637e-05
7.415079176e-05
7.640343226e-05
7.819354118e-05
7.923708705e-05
7.070661694e-05
7.20293428e-05
7.391233978e-05
7.621249063e-05
7.875392592e-05
8.132626658e-05
8.368599829e-05
8.556009468e-05
8.665223979e-05
7.774370528e-05
7.912849523e-05
8.109879319e-05
8.350393412e-05
8.615932405e-05
8.884490508e-05
9.13067662e-05
9.326089086e-05
9.439932795e-05
8.513404911e-05
8.6577903e-05
8.863121086e-05
9.113607115e-05
9.389956013e-05
9.66924275e-05
9.925093963e-05
0.000101280738
0.0001024629344
9.286386063e-05
9.436347847e-05
9.649509216e-05
9.909391808e-05
0.0001019591435
0.000104852857
0.0001075021182
0.0001096029131
0.0001108261529
0.0001009174777
0.0001024693164
0.0001046741987
0.0001073608497
0.0001103210463
0.0001133087832
0.0001160425612
0.0001182094258
0.0001194708511
0.0001092776373
0.0001108779671
0.000113150827
0.0001159188711
0.0001189669738
0.0001220416305
0.0001248534535
0.0001270812817
0.0001283779337
0.0001179257572
0.000119570717
0.0001219060869
0.0001247488924
0.0001278776354
0.0001310319245
0.0001339151682
0.000136198742
0.0001375275991
0.0001268422191
0.0001285278685
0.0001309201772
0.0001338309996
0.0001370330092
0.0001402595511
0.0001432075196
0.0001455415717
0.0001468995854
0.0001360066449
0.0001377290128
0.0001401726529
0.0001431447156
0.0001464125962
0.0001497040022
0.0001527100022
0.0001550892732
0.000156473401
0.0001453981613
0.0001471532905
0.00014964268
0.0001526692461
0.0001559956573
0.0001593446054
0.0001624020124
0.0001648213016
0.0001662285359
0.0001549956484
0.0001567796341
0.0001593092708
0.0001623837079
0.0001657614325
0.0001691607329
0.0001722630494
0.00017471726
0.0001761446535
0.000164777967
0.0001665869915
0.0001691514999
0.0001722673353
0.000175689338
0.0001791319899
0.0001822728952
0.0001847570718
0.0001862017595
0.0001747241637
0.000176554525
0.0001791486965
0.0001822996638
0.0001857591403
0.0001892383793
0.0001924117707
0.0001949211314
0.0001963803486
0.000184813652
0.0001866617875
0.0001892806126
0.0001924606899
0.0001959511069
0.0001994604431
0.0002026604698
0.0002051904314
0.0002066615283
0.0001950263676
0.000196888873
0.0001995275674
0.0002027310071
0.0002062461334
0.0002097793815
0.0002130004701
0.0002155466683
0.000217027121
0.0002053428996
0.0002072165431
0.0002098705669
0.0002130919184
0.0002166258485
0.0002201771496
0.0002234140232
0.0002259723264
0.0002274597456
0.0002157445979
0.00021762633
0.0002202914014
0.0002235255264
0.0002270726961
0.0002306365328
0.0002338842239
0.0002364507432
0.0002379428792
0.0002262136569
0.0002281006172
0.0002307727207
0.0002340148028
0.0002375699988
0.0002411412037
0.000244395061
0.0002469661557
0.0002484609019
0.0002367331794
0.0002386226991
0.0002412980899
0.0002445436385
0.0002481020021
0.000251675761
0.0002549314522
0.0002575037309
0.0002589991245
0.0002472872208
0.000249176823
0.0002518520263
0.0002550968764
0.0002586539025
0.0002622257526
0.0002654792624
0.0002680495821
0.0002695438033
0.0002578608158
0.0002597482134
0.0002624200213
0.0002656603288
0.0002692118608
0.0002727776856
0.0002760253106
0.0002785907721
0.0002800821418
0.0002684399906
0.0002703230822
0.0002729885479
0.0002762207822
0.0002797630034
0.0002833190238
0.0002865573645
0.0002891153062
0.0002906022824
0.0002790117623
0.0002808886263
0.0002835450555
0.0002867659896
0.0002902954121
0.0002938381753
0.0002970641258
0.0002996121159
0.0003010932891
0.0002895641266
0.0002914330143
0.0002940779558
0.000297284654
0.0003007981058
0.0003043244719
0.0003075352081
0.0003100710351
0.0003115451231
0.0003000860373
0.000301945365
0.0003045765991
0.0003077664041
0.000311261014
0.0003147681417
0.0003179611082
0.0003204827705
0.0003219486123
0.0003105673776
0.0003124157182
0.0003150312452
0.000318201763
0.0003216749455
0.0003251602762
0.0003283331718
0.0003308388671
0.000332295417
0.000320998926
0.0003228350003
0.0003254330276
0.0003285821132
0.0003320315515
0.0003354927933
0.0003386435571
0.0003411316708
0.0003425779914
0.0003313723183
0.0003331949854
0.0003357739153
0.0003388996566
0.0003423232867
0.000345758398
0.000348885194
0.0003513542876
0.0003527895438
0.0003416800053
0.0003434882542
0.0003460466703
0.0003491473735
0.0003525433671
0.0003559505399
0.0003590517425
0.0003615005426
0.0003629239943
0.0003519152099
0.0003537081497
0.0003562448051
0.000359318979
0.0003626857272
0.0003660633709
0.0003691375506
0.0003715649368
0.000372975933
0.0003620718812
0.0003638487331
0.0003663625374
0.0003694088786
0.000372744976
0.0003760917018
0.0003791376103
0.0003815426047
0.0003829405769
0.0003721446501
0.0003739047382
0.0003763947458
0.0003794121249
0.0003827163538
0.0003860309592
0.0003890475163
0.0003914292724
0.0003928137282
0.0003821287836
0.0003838715272
0.000386336926
0.0003893243731
0.0003925956891
0.0003958771432
0.0003988634231
0.0004012212157
0.0004025917331
0.0003920201408
0.0003937450462
0.0003961851464
0.0003991418388
0.0004023793563
0.0004056267856
0.0004085820047
0.00041091522
0.0004122714418
0.0004018151296
0.000403521783
0.0004059360066
0.0004088612556
0.0004120642346
0.0004152769103
0.000418200415
0.0004205085415
0.0004218501696
0.000411510666
0.0004131987262
0.0004155865974
0.0004184798369
0.0004216476699
0.0004248249947
0.0004277162503
0.0004299988696
0.0004313256602
0.0004211041332
0.0004227733254
0.0004251344616
0.0004279952371
0.0004311274375
0.0004342689339
0.0004371275137
0.0004393842922
0.000440696051
0.000430593344
0.0004322434535
0.0004345775562
0.0004374055144
0.0004405017053
0.0004436070049
0.0004464325806
0.0004486632622
0.0004499598397
0.0004399765037
0.0004416073702
0.0004439142175
0.000446709097
0.0004497690011
0.0004528378341
0.0004556301667
0.0004578345652
0.0004591158527
0.0004492521766
0.0004508636891
0.0004531431283
0.0004559047506
0.0004589281804
0.0004619603666
0.0004647192975
0.0004668972902
0.0004681632159
0.000458419254
0.0004600113458
0.0004622632865
0.0004649915481
0.0004679783973
0.0004709738368
0.0004736992802
0.0004758508015
0.000477101327
0.0004674769242
0.0004690495687
0.0004712739765
0.0004739688409
0.000476919076
0.0004798777415
0.0004825696771
0.0004846947129
0.0004859298296
0.0004764246448
0.0004779778508
0.0004801747416
0.0004828362329
0.0004857498859
0.0004886718149
0.0004913302808
0.0004934288631
0.0004946485895
0.0004852621166
0.000486795925
0.0004889653594
0.0004915935554
0.0004944707168
0.0004973560049
0.000499981092
0.0005020532941
0.0005032576724
0.0004939892595
0.0004955037396
0.0004976458184
0.0005002408451
0.0005030816572
0.0005059304519
0.0005085222975
0.0005105682295
0.0005117573237
0.0005026061897
0.0005041014367
0.0005062162961
0.0005087783221
0.0005115829739
0.0005143954683
0.0005169542514
0.0005189740561
0.0005201479492
0.0005111132005
0.000512589332
0.0005146771399
0.0005172063715
0.0005199750923
0.0005227515206
0.000525277457
0.0005272713062
0.0005284300982
0.0005195107425
0.0005209678955
0.0005230288475
0.0005255255244
0.0005282585801
0.0005309992122
0.0005334925504
0.0005354606415
0.0005366044471
0.000527799406
0.000529237735
0.0005312720514
0.0005337364424
0.0005364341307
0.0005391392682
0.000541600285
0.0005435428379
0.000544671785
0.000535979906
0.0005373995806
0.0005394075028
0.0005418399027
0.000544502549
0.0005471725211
0.0005496015181
0.0005515187721
0.0005526330001
0.0005440530669
0.0005454542699
0.0005474360578
0.0005498367834
0.0005524647373
0.0005550998971
0.0005574971978
0.0005593894093
0.0005604890674
0.0005520198094
0.0005534027351
0.0005553586645
0.0005577280523
0.000560321684
0.0005629224052
0.0005652883515
0.0005671557916
0.0005682410377
0.0005598811387
0.0005612459909
0.0005631763516
0.0005655147541
0.0005680744517
0.0005706411258
0.0005729760755
0.0005748190279
0.000575890027
0.0005676381327
0.0005689851239
0.0005708902171
0.0005731980008
0.0005757241677
0.0005782572009
0.0005805615255
0.0005823802844
0.000583437208
0.0005752919327
0.0005766212821
0.0005785014189
0.0005807789622
0.0005832720141
0.0005857718255
0.0005880459077
0.0005898407761
0.0005908838009
0.0005828437339
0.0005841556665
0.0005860111661
0.0005882588571
0.0005907192204
0.0005931862391
0.000595430471
0.0005972017595
0.0005982310661
0.000590294777
0.0005915895227
0.000593420711
0.0005956389455
0.000598067055
0.0006005017187
0.0006027164998
0.0006044645247
0.0006054802976
0.0005976463413
0.0005989241336
0.0006007313415
0.0006029205217
0.000605316819
0.0006077195719
0.0006099053077
0.0006116303901
0.0006126328162
0.0006048997373
0.0006061608127
0.0006079443754
0.000610104908
0.0006124698398
0.0006148411312
0.0006169982316
0.000618700696
0.0006196899645
0.0006120563011
0.0006133008982
0.0006150611534
0.0006171934489
0.0006195274654
0.0006218677481
0.0006239966263
0.0006256767997
0.000626653101
0.0006191173886
0.0006203457472
0.000622083035
0.0006241875058
0.0006264910597
0.0006288007887
0.0006309018598
0.0006325600707
0.0006335235962
0.0006260843706
0.0006272967315
0.0006290113926
0.0006310884524
0.0006333619975
0.0006356416291
0.0006377153089
0.0006393518866
0.0006403028281
0.0006329586282
0.0006341552322
0.0006358476078
0.0006378976705
0.0006401416608
0.0006423916509
0.0006444383556
0.0006460536291
0.0006469921783
0.0006397415489
0.0006409226366
0.0006425930672
0.0006446165459
0.0006468314344
0.0006490522383
0.0006510723827
0.0006526666804
0.0006535930286
0.0006464345228
0.0006476003338
0.0006492491588
0.000651246465
0.0006534327029
0.0006556247739
0.0006576187713
0.0006591924199
0.0006601067575
0.0006530389387
0.0006541897115
0.0006558172683
0.0006577888114
0.0006599468473
0.0006621106359
0.000664078897
0.0006656322214
0.0006665347376
0.0006595561815
0.0006606921529
0.0006622987765
0.0006642449627
0.0006663752419
0.0006685111951
0.0006704541271
0.0006719874493
0.0006728783318
0.0006659876288
0.0006671090333
0.0006686950558
0.0006706162875
0.0006727192509
0.0006748278114
0.0006767458175
0.0006782594565
0.0006791388908
0.0006723346478
0.0006734417175
0.0006750074672
0.0006769041423
0.0006789802257
0.000681061831
0.0006829553097
0.0006844495803
0.0006853177499
0.0006785985923
0.0006796915562
0.0006812373571
0.0006831098683
0.0006851595018
0.0006872145831
0.000689083927
0.0006905591395
0.000691416225
0.0006847807991
0.0006858598829
0.0006873860541
0.0006892347879
0.0006912583944
0.000693287376
0.0006951329712
0.0006965894304
0.0006974356091
0.0006908825848
0.0006919480101
0.0006934548649
0.0006952802006
0.000697278195
0.0006992814928
0.0007011037174
0.0007025417219
0.0007033771676
0.0006969052413
0.000697957225
0.0006994450699
0.0007012473784
0.0007032201664
0.0007051981863
0.0007069974095
0.0007084172504
0.0007092421323
0.0007028500307
0.0007038887841
0.0007053579178
0.0007071375602
0.000709085536
0.0007110386728
0.0007128152526
0.0007142172122
0.0007150316942
0.0007087181791
0.0007097439072
0.0007111946187
0.0007129519444
0.0007148754893
0.0007168041236
0.0007185584053
0.0007199427552
0.0007207469947
0.0007145108689
0.0007155237688
0.0007169563361
0.0007186916802
0.0007205911593
0.0007224956554
0.0007242279683
0.0007255949672
0.0007263891142
0.0007202292289
0.0007212294883
0.0007226441757
0.0007243578565
0.0007262336155
0.0007281143172
0.0007298249717
0.0007311748626
0.0007319590574
0.0007258743223
0.0007268621173
0.0007282591723
0.000729951487
0.000731803848
0.0007336610744
0.000735350357
0.0007366833635
0.0007374577348
0.0007314471308
0.0007324226234
0.000733802273
0.0007354734932
0.0007373027488
0.0007391367881
0.0007408049563
0.000742121278
0.0007428859402
0.0007369485355
0.00073791187
0.0007392743158
0.000740924681
0.0007427310876
0.0007445421901
0.0007461894652
0.000747489272
0.0007482443214
0.0007423792927
0.0007433305921
0.000744676004
0.0007463057144
0.000748089483
0.0007498778518
0.0007515044102
0.000752787835
0.0007535333457
0.0007477400051
0.0007486793651
0.0007500078741
0.0007516170808
0.0007533783669
0.0007551441464
0.0007567501089
0.0007580172389
0.0007587532577
0.0007530310858
0.0007539585689
0.0007552702577
0.0007568590513
0.0007585979414
0.0007603412041
0.0007619266229
0.0007631774891
0.0007639040288
0.0007582527167
0.0007591683446
0.0007604632367
0.0007620316335
0.0007637481294
0.0007654688592
0.0007670337028
0.0007682682674
0.0007689852995
0.0007634047995
0.000764308544
0.0007655865903
0.0007671345161
0.0007688285169
0.0007705265904
0.0007720707253
0.0007732888667
0.0007739963126
0.0007684868994
0.000769378672
0.0007706397362
0.0007721670076
0.0007738382881
0.0007755134523
0.0007770366224
0.0007782381191
0.0007789358402
0.0007734981828
0.0007743778226
0.0007756216638
0.0007771279668
0.000778776154
0.0007804280018
0.0007819298058
0.0007831143173
0.0007838021038
0.0007784373483
0.0007793046091
0.0007805308628
0.0007820157296
0.0007836402762
0.0007852682197
0.0007867480856
0.0007879151323
0.0007885926917
0.0007833025542
0.0007841570901
0.0007853652481
0.0007868280317
0.0007884281884
0.0007900314302
0.0007914885891
0.0007926375313
0.0007933044755
0.0007880913436
0.0007889326941
0.0007901220832
0.0007915619318
0.0007931367185
0.0007947142226
0.000796147682
0.0007972776986
0.0007979335316
0.0007928005713
0.0007936281466
0.0007947979074
0.0007962137385
0.000797761916
0.0007993123796
0.0008007208974
0.0008018309656
0.0008024750722
0.0007974263361
0.0007982394028
0.0007993884694
0.0008007789461
0.0008022989904
0.0008038208178
0.0008052028797
0.000806291757
0.0008069233923
0.0008019639234
0.0008027615917
0.0008038886752
0.0008052521851
0.0008067422653
0.0008082335473
0.0008095873481
0.0008106535592
0.000811271841
0.000806407764
0.0008071889788
0.000808292553
0.0008096271939
0.0008110851569
0.000812543657
0.0008138670899
0.0008149089186
0.0008155128239
0.0008107514149
0.0008115149506
0.0008125932468
0.0008138968189
0.0008153201832
0.0008167433333
0.000818033989
0.000819049479
0.0008196378453
0.0008149875684
0.0008157320286
0.0008167830367
0.0008180530479
0.0008194390119
0.0008208239224
0.0008220790985
0.0008230660649
0.0008236375976
0.0008191080982
0.0008198319238
0.0008208534043
0.0008220870865
0.0008234325497
0.0008247760352
0.000825992765
0.0008269488166
0.0008275021037
0.0008231041471
0.0008238056322
0.0008247951407
0.0008259894827
0.0008272910847
0.0008285897076
0.0008297648033
0.0008306873814
0.0008312209172
0.000826966261
0.0008276435788
0.0008285985046
0.0008297503017
0.0008310044816
0.0008322546162
0.0008333847314
0.0008342711628
0.0008347833808
0.0008306845727
0.0008313358116
0.0008322534313