/*--------------------------------*- C++ -*----------------------------------*\
| =========                 |                                                 |
| \\      /  F ield         | OpenFOAM: The Open Source CFD Toolbox           |
|  \\    /   O peration     | Version:  2212                                  |
|   \\  /    A nd           | Website:  www.openfoam.com                      |
|    \\/     M anipulation  |                                                 |
\*---------------------------------------------------------------------------*/
FoamFile
{
    version     2.0;
    format      ascii;
    arch        "LSB;label=32;scalar=64";
    class       volScalarField;
    location    "20.00000000";
    object      C3H3;
}
// * * * * * * * * * * * * * * * * * * * * * * * * * * * * * * * * * * * * * //

dimensions      [0 0 0 0 0 0 0];

internalField   nonuniform List<scalar> 
3000
(
1.082256942e-23
1.215776158e-23
1.417256002e-23
1.685746335e-23
2.018518745e-23
2.406537365e-23
2.826426382e-23
3.227082755e-23
3.510399688e-23
4.06326963e-23
4.582968442e-23
5.366855179e-23
6.413776657e-23
7.722697205e-23
9.286362759e-23
1.107763135e-22
1.300607501e-22
1.471436441e-22
9.101496597e-23
1.034618274e-22
1.224152363e-22
1.481497348e-22
1.811281867e-22
2.218290504e-22
2.700921764e-22
3.232078843e-22
3.686040894e-22
1.733599651e-22
1.991324635e-22
2.389527914e-22
2.941684218e-22
3.667356425e-22
4.584984835e-22
5.689563094e-22
6.892664818e-22
7.86374624e-22
3.07843332e-22
3.579487521e-22
4.365839002e-22
5.477433854e-22
6.966557814e-22
8.874949861e-22
1.117073243e-21
1.360877298e-21
1.548031538e-21
5.293634864e-22
6.234065111e-22
7.731133919e-22
9.880388174e-22
1.279648345e-21
1.655280192e-21
2.103716128e-21
2.568405112e-21
2.912198732e-21
8.98682095e-22
1.071435181e-21
1.349646639e-21
1.753570921e-21
2.305703495e-21
3.01702368e-21
3.858113548e-21
4.712685458e-21
5.3293194e-21
1.520905127e-21
1.833560339e-21
2.341561452e-21
3.084824249e-21
4.104813015e-21
5.416223022e-21
6.953267807e-21
8.492222901e-21
9.584169101e-21
2.578161422e-21
3.138045241e-21
4.05363447e-21
5.400043651e-21
7.251039255e-21
9.624434454e-21
1.238616778e-20
1.512257289e-20
1.704272293e-20
4.385833814e-21
5.380555809e-21
7.014704682e-21
9.42557292e-21
1.274200693e-20
1.698329456e-20
2.189121317e-20
2.671846132e-20
3.008058324e-20
7.490410617e-21
9.247295712e-21
1.214273229e-20
1.642305813e-20
2.231137123e-20
2.982489675e-20
3.848350687e-20
4.695613097e-20
5.282760108e-20
1.283902474e-20
1.592830298e-20
2.103077106e-20
2.858329543e-20
3.897088987e-20
5.220172552e-20
6.74028756e-20
8.2223974e-20
9.245947925e-20
2.207378308e-20
2.748792919e-20
3.644382068e-20
4.971048203e-20
6.795178975e-20
9.115334947e-20
1.177510199e-19
1.436180998e-19
1.614400537e-19
3.804251136e-20
4.750781182e-20
6.318134556e-20
8.641039652e-20
1.183397762e-19
1.589065259e-19
2.053343755e-19
2.504063867e-19
2.814134547e-19
6.568532568e-20
8.220332515e-20
1.095755238e-19
1.501554215e-19
2.059187845e-19
2.767055913e-19
3.576180605e-19
4.360681342e-19
4.899960555e-19
1.135733739e-19
1.423616253e-19
1.900932347e-19
2.608748009e-19
3.58126747e-19
4.815143449e-19
6.224351626e-19
7.589390608e-19
8.527223677e-19
1.96579025e-19
2.467042307e-19
3.298488817e-19
4.531772293e-19
6.226375852e-19
8.376203093e-19
1.083102198e-18
1.320745317e-18
1.48367255e-18
3.405099605e-19
4.277198133e-19
5.72419963e-19
7.870807011e-19
1.082007562e-18
1.456031598e-18
1.882872e-18
2.29579068e-18
2.578776129e-18
5.901585819e-19
7.418043238e-19
9.934660127e-19
1.366824337e-18
1.879724532e-18
2.529979834e-18
3.271736349e-18
3.988988541e-18
4.480409912e-18
1.023278851e-18
1.286865429e-18
1.724354749e-18
2.373421502e-18
3.264983523e-18
4.395047513e-18
5.683728596e-18
6.929427856e-18
7.782664795e-18
1.774853697e-18
2.232886789e-18
2.993174469e-18
4.12115676e-18
5.670410543e-18
7.633728155e-18
9.872043303e-18
1.203509717e-17
1.351636575e-17
3.079226283e-18
3.874991622e-18
5.195935069e-18
7.155668362e-18
9.847007992e-18
1.325699803e-17
1.714366167e-17
2.089866178e-17
2.346955929e-17
5.343233951e-18
6.72555363e-18
9.02015233e-18
1.242415571e-17
1.709824966e-17
2.30191251e-17
2.976583289e-17
3.628212639e-17
4.074241445e-17
9.27310127e-18
1.167400154e-17
1.565920961e-17
2.157051107e-17
2.968581793e-17
3.99630275e-17
5.166986181e-17
6.297300641e-17
7.070739632e-17
1.609454123e-17
2.026399847e-17
2.718409294e-17
3.744689114e-17
5.153236015e-17
6.936390455e-17
8.966751375e-17
1.092624475e-16
1.226652969e-16
2.793420173e-17
3.517374812e-17
4.718732019e-17
6.499930883e-17
8.943691749e-17
1.203593829e-16
1.555497125e-16
1.894924081e-16
2.126967529e-16
4.847991764e-17
6.104715557e-17
8.189666086e-17
1.127980586e-16
1.551730416e-16
2.087596091e-16
2.696984271e-16
3.284321917e-16
3.685558311e-16
8.412192477e-17
1.059299829e-16
1.42098222e-16
1.95677406e-16
2.691019589e-16
3.618772023e-16
4.672816711e-16
5.687698682e-16
6.380344376e-16
1.459214645e-16
1.83745958e-16
2.464489284e-16
3.392758188e-16
4.663751015e-16
6.267988216e-16
8.088348521e-16
9.83875575e-16
1.103186979e-15
2.529983635e-16
3.185544971e-16
4.271650626e-16
5.878182106e-16
8.075392803e-16
1.084486008e-15
1.398240664e-15
1.699421854e-15
1.904373168e-15
4.383429082e-16
5.518477137e-16
7.397547022e-16
1.017398288e-15
1.396581071e-15
1.873679702e-15
2.413089604e-15
2.929755909e-15
3.280599905e-15
7.587514105e-16
9.550066889e-16
1.279593891e-15
1.758531652e-15
2.41144868e-15
3.23115554e-15
4.155567189e-15
5.038597089e-15
5.63663914e-15
1.311740692e-15
1.650465683e-15
2.210008944e-15
3.034217907e-15
4.155323232e-15
5.558988773e-15
7.137016802e-15
8.639395169e-15
9.653620432e-15
2.264206471e-15
2.847478625e-15
3.809559137e-15
5.223725616e-15
7.142061056e-15
9.535955916e-15
1.221710445e-14
1.475955421e-14
1.646931497e-14
3.900718887e-15
4.902194511e-15
6.551090812e-15
8.96863161e-15
1.223730402e-14
1.630020653e-14
2.083039165e-14
2.510613711e-14
2.796863268e-14
6.704424947e-15
8.417877191e-15
1.123287898e-14
1.534754015e-14
2.088921499e-14
2.774555304e-14
3.535095177e-14
4.249059307e-14
4.724599416e-14
1.149168276e-14
1.441084335e-14
1.919430731e-14
2.616116775e-14
3.550170625e-14
4.699646927e-14
5.967197762e-14
7.149919274e-14
7.933201044e-14
1.96345107e-14
2.458297549e-14
3.266728497e-14
4.439265646e-14
6.003126871e-14
7.916034282e-14
1.001155781e-13
1.195378921e-13
1.32321128e-13
3.342528262e-14
4.176534065e-14
5.534315099e-14
7.494264899e-14
1.009300467e-13
1.325040413e-13
1.668428665e-13
1.984403214e-13
2.190998302e-13
5.666964874e-14
7.063362395e-14
9.327768722e-14
1.257897865e-13
1.686180781e-13
2.202713807e-13
2.760124881e-13
3.269124786e-13
3.59963909e-13
9.564191284e-14
1.188506125e-13
1.563203467e-13
2.098017109e-13
2.797541006e-13
3.634568283e-13
4.530459074e-13
5.342071804e-13
5.865383474e-13
1.606098371e-13
1.988720023e-13
2.603466043e-13
3.475287668e-13
4.606973103e-13
5.949901002e-13
7.375125699e-13
8.655888598e-13
9.475885369e-13
2.682438773e-13
3.307705924e-13
4.30706384e-13
5.714653242e-13
7.527261746e-13
9.659820181e-13
1.190364839e-12
1.390383553e-12
1.51755632e-12
4.453839078e-13
5.466058017e-13
7.074931218e-13
9.324797673e-13
1.219824574e-12
1.554955958e-12
1.904555359e-12
2.213735579e-12
2.408995373e-12
7.348644314e-13
8.971111452e-13
1.153509469e-12
1.509418188e-12
1.960187377e-12
2.481371616e-12
3.020491162e-12
3.493646626e-12
3.790554193e-12
1.20442374e-12
1.461819936e-12
1.866187367e-12
2.423312343e-12
3.123074425e-12
3.925279885e-12
4.748364231e-12
5.465502496e-12
5.912810999e-12
1.960179421e-12
2.364237257e-12
2.995253931e-12
3.858215607e-12
4.933305002e-12
6.155685651e-12
7.400208426e-12
8.47716258e-12
9.145170557e-12
3.166791002e-12
3.794346584e-12
4.768677586e-12
6.091514695e-12
7.726603721e-12
9.571215427e-12
1.143565012e-11
1.303888487e-11
1.402827951e-11
5.077318253e-12
6.041684937e-12
7.530460232e-12
9.53770651e-12
1.200027856e-11
1.475809306e-11
1.752685765e-11
1.989400587e-11
2.13481267e-11
8.077016286e-12
9.543533316e-12
1.179527184e-11
1.481120928e-11
1.848546292e-11
2.257235976e-11
2.665030355e-11
3.011855624e-11
3.224033781e-11
1.27470207e-11
1.495459346e-11
1.832690892e-11
2.281596126e-11
2.824956055e-11
3.425591793e-11
4.021583023e-11
4.526105139e-11
4.833640304e-11
1.995625875e-11
2.324706854e-11
2.825032961e-11
3.487260625e-11
4.284085398e-11
5.159958969e-11
6.024745167e-11
6.753794273e-11
7.196795349e-11
3.099323752e-11
3.585363356e-11
4.321063628e-11
5.289760345e-11
6.449125905e-11
7.717124115e-11
8.963586552e-11
1.001062812e-10
1.064513629e-10
4.775063086e-11
5.486662176e-11
6.55947205e-11
7.965424116e-11
9.640081221e-11
1.146351953e-10
1.324908592e-10
1.474430592e-10
1.564831874e-10
7.298903594e-11
8.332277347e-11
9.884614585e-11
1.191050602e-10
1.43133696e-10
1.691947108e-10
1.94628636e-10
2.158696379e-10
2.286869692e-10
1.1070711e-10
1.256010596e-10
1.479037239e-10
1.769024528e-10
2.111688854e-10
2.482063047e-10
2.842471573e-10
3.142774938e-10
3.323691961e-10
1.666594383e-10
1.879783263e-10
2.198126234e-10
2.610702812e-10
3.096633141e-10
3.620294434e-10
4.128588863e-10
4.55129626e-10
4.805619609e-10
2.490784729e-10
2.794024793e-10
3.245728409e-10
3.82948106e-10
4.515068895e-10
5.251992063e-10
5.965764838e-10
6.558397129e-10
6.914582831e-10
3.696772554e-10
4.125647829e-10
4.763137171e-10
5.584957766e-10
6.547776647e-10
7.580414563e-10
8.578817059e-10
9.406680674e-10
9.903843034e-10
5.450375929e-10
6.053825079e-10
6.949154404e-10
8.100917153e-10
9.447448496e-10
1.088893346e-09
1.228054753e-09
1.343323533e-09
1.412504963e-09
7.985261953e-10
8.830434246e-10
1.008242241e-09
1.169006377e-09
1.356620423e-09
1.557150282e-09
1.750504899e-09
1.910528895e-09
2.006530841e-09
1.16293238e-09
1.280817815e-09
1.455210608e-09
1.678796512e-09
1.939330722e-09
2.217438416e-09
2.485328807e-09
2.706899216e-09
2.839789421e-09
1.684088488e-09
1.847915008e-09
2.08999275e-09
2.399950172e-09
2.76067303e-09
3.145316087e-09
3.515537476e-09
3.821605062e-09
4.005151478e-09
2.425820809e-09
2.652753123e-09
2.98775518e-09
3.416223076e-09
3.914346344e-09
4.445045648e-09
4.95554348e-09
5.377454109e-09
5.630471511e-09
3.476688999e-09
3.790128615e-09
4.252461935e-09
4.843251505e-09
5.529506248e-09
6.260154514e-09
6.96269437e-09
7.543233472e-09
7.89141905e-09
4.95911375e-09
5.390923729e-09
6.027437081e-09
6.840208228e-09
7.783693938e-09
8.787725706e-09
9.752881236e-09
1.055041671e-08
1.102885053e-08
7.041666968e-09
7.635173754e-09
8.509578398e-09
9.625483347e-09
1.092022747e-08
1.229762189e-08
1.362154076e-08
1.471565054e-08
1.537219602e-08
9.955494307e-09
1.076952069e-08
1.196833331e-08
1.349761061e-08
1.52714063e-08
1.715813618e-08
1.897168423e-08
2.04707739e-08
2.137068693e-08
1.401603869e-08
1.513028632e-08
1.677076623e-08
1.886289364e-08
2.128913089e-08
2.386983201e-08
2.635087516e-08
2.840242689e-08
2.963456543e-08
1.96514007e-08
2.117356578e-08
2.341421436e-08
2.627135134e-08
2.958470081e-08
3.310949264e-08
3.649923069e-08
3.930345612e-08
4.098856332e-08
2.743874439e-08
2.951379714e-08
3.256805535e-08
3.646259138e-08
4.097949786e-08
4.578598894e-08
5.041035404e-08
5.423810547e-08
5.653968809e-08
3.815002936e-08
4.097208804e-08
4.512586287e-08
5.042287254e-08
5.656778541e-08
6.31092533e-08
6.940633204e-08
7.462207314e-08
7.776036068e-08
5.280789628e-08
5.663503191e-08
6.226852992e-08
6.945371816e-08
7.779170315e-08
8.667210117e-08
9.522617983e-08
1.023164937e-07
1.065857575e-07
7.275160545e-08
7.792365941e-08
8.553760427e-08
9.525076628e-08
1.065264281e-07
1.185420331e-07
1.301239842e-07
1.397313122e-07
1.45520328e-07
9.97114134e-08
1.066704235e-07
1.169159694e-07
1.299889279e-07
1.451702187e-07
1.613561444e-07
1.769682001e-07
1.899280172e-07
1.977425228e-07
1.358876505e-07
1.451997063e-07
1.589101399e-07
1.76406427e-07
1.967297393e-07
2.184069619e-07
2.393271683e-07
2.567043252e-07
2.671887725e-07
1.840281778e-07
1.964044724e-07
2.146251438e-07
2.378763873e-07
2.648863303e-07
2.937012218e-07
3.215188072e-07
3.446349156e-07
3.585883396e-07
2.474951792e-07
2.638088451e-07
2.878199372e-07
3.184513782e-07
3.54025315e-07
3.919694609e-07
4.285971643e-07
4.590349633e-07
4.774094001e-07
3.303097658e-07
3.516041078e-07
3.829294561e-07
4.228652919e-07
4.692106823e-07
5.186062794e-07
5.662520766e-07
6.058156867e-07
6.296810936e-07
4.371607703e-07
4.646441477e-07
5.050391412e-07
5.564789344e-07
6.160935491e-07
6.795342621e-07
7.406211042e-07
7.912435978e-07
8.217008172e-07
5.733620463e-07
6.083850957e-07
6.597979153e-07
7.251585783e-07
8.007504902e-07
8.810015902e-07
9.580651574e-07
1.021742758e-06
1.060032969e-06
7.447402938e-07
7.887524391e-07
8.532544783e-07
9.350726921e-07
1.029442985e-06
1.129318849e-06
1.224935304e-06
1.303857923e-06
1.35129939e-06
9.574339729e-07
1.011916012e-06
1.091605428e-06
1.192416882e-06
1.308324188e-06
1.430641647e-06
1.547575744e-06
1.644010514e-06
1.701962922e-06
1.217588268e-06
1.283977098e-06
1.380873881e-06
1.503089082e-06
1.643294764e-06
1.791019577e-06
1.932061672e-06
2.048277487e-06
2.118095493e-06
1.530977946e-06
1.610585376e-06
1.72659794e-06
1.87272698e-06
2.040082188e-06
2.21613255e-06
2.383990388e-06
2.522167962e-06
2.605147166e-06
1.902906862e-06
1.997136769e-06
2.134284392e-06
2.306777714e-06
2.503990776e-06
2.71109954e-06
2.908275628e-06
3.070409985e-06
3.16772946e-06
2.338759357e-06
2.448936063e-06
2.609088714e-06
2.810191472e-06
3.039697247e-06
3.280279659e-06
3.508951145e-06
3.69675636e-06
3.8094226e-06
2.843521568e-06
2.970810739e-06
3.155590592e-06
3.387220063e-06
3.651055303e-06
3.927087129e-06
4.188996196e-06
4.403818864e-06
4.532614786e-06
3.421543659e-06
3.566887122e-06
3.777581787e-06
4.041223872e-06
4.340918911e-06
4.653831424e-06
4.950191829e-06
5.192937757e-06
5.338379425e-06
4.07632369e-06
4.240386499e-06
4.477877324e-06
4.774502705e-06
5.11099399e-06
5.461590292e-06
5.793014049e-06
6.064091417e-06
6.226394495e-06
4.810320922e-06
4.993450744e-06
5.258158005e-06
5.588159425e-06
5.961725546e-06
6.35012114e-06
6.716568124e-06
7.015849425e-06
7.194906872e-06
5.624804877e-06
5.827004127e-06
6.118850331e-06
6.482002313e-06
6.892225238e-06
7.31781472e-06
7.718566944e-06
8.045371204e-06
8.240743198e-06
6.519745291e-06
6.740656469e-06
7.059048497e-06
7.454490362e-06
7.900242813e-06
8.361693569e-06
8.795354904e-06
9.148450775e-06
9.359367291e-06
7.49374724e-06
7.732651613e-06
8.076481953e-06
8.502724284e-06
8.982183268e-06
9.47745599e-06
9.941976958e-06
1.03196063e-05
1.054498212e-05
8.544034349e-06
8.799863766e-06
9.167530372e-06
9.622484208e-06
1.013316962e-05
1.065956424e-05
1.115229031e-05
1.15522108e-05
1.179067207e-05
9.666481221e-06
9.937842263e-06
1.032728582e-05
1.080831281e-05
1.134714884e-05
1.190137323e-05
1.241911385e-05
1.283865821e-05
1.308857899e-05
1.085569377e-05
1.11409029e-05
1.154965942e-05
1.205364019e-05
1.26170362e-05
1.319529388e-05
1.373440841e-05
1.417055692e-05
1.443010368e-05
1.210513352e-05
1.240226137e-05
1.282752733e-05
1.33509444e-05
1.393489092e-05
1.453298305e-05
1.50894791e-05
1.55389415e-05
1.580612315e-05
1.340727955e-05
1.371420202e-05
1.415290862e-05
1.469193963e-05
1.529211452e-05
1.590555106e-05
1.647519007e-05
1.693449275e-05
1.720721362e-05
1.475381947e-05
1.506827306e-05
1.551716601e-05
1.606778259e-05
1.667966228e-05
1.73037768e-05
1.788218192e-05
1.834775612e-05
1.862386939e-05
1.613585972e-05
1.64554986e-05
1.691121953e-05
1.746928727e-05
1.808825785e-05
1.871832093e-05
1.930108239e-05
1.976934965e-05
2.004670879e-05
1.754414484e-05
1.78665969e-05
1.832576295e-05
1.888713817e-05
1.95086018e-05
2.013992843e-05
2.072270224e-05
2.119015368e-05
2.146666002e-05
1.896927543e-05
1.929219528e-05
1.975147375e-05
2.031209336e-05
2.093156603e-05
2.15596131e-05
2.213820967e-05
2.260147668e-05
2.287512149e-05
2.040191588e-05
2.072303282e-05
2.117920826e-05
2.173516985e-05
2.234836746e-05
2.296881859e-05
2.353927894e-05
2.399519312e-05
2.42640932e-05
2.183298405e-05
2.215014371e-05
2.260017562e-05
2.314780559e-05
2.375071632e-05
2.435955213e-05
2.491821009e-05
2.536385171e-05
2.562627775e-05
2.325381715e-05
2.356501581e-05
2.400608592e-05
2.454199454e-05
2.513093635e-05
2.572448931e-05
2.626801911e-05
2.670075352e-05
2.695515128e-05
2.465631003e-05
2.495972132e-05
2.538926983e-05
2.591039273e-05
2.648205579e-05
2.70570496e-05
2.758249915e-05
2.800000144e-05
2.824500576e-05
2.603302391e-05
2.632701787e-05
2.674276877e-05
2.724639523e-05
2.779786975e-05
2.835144403e-05
2.885625452e-05
2.925652327e-05
2.949096549e-05
2.737726539e-05
2.766042016e-05
2.80603964e-05
2.854418521e-05
2.907297576e-05
2.960269719e-05
3.008471041e-05
3.046607159e-05
3.068898111e-05
2.868313694e-05
2.895424389e-05
2.933677307e-05
2.97987573e-05
3.030278515e-05
3.08066467e-05
3.126410166e-05
3.162520404e-05
3.183580481e-05
2.994556123e-05
3.020362415e-05
3.056733624e-05
3.100591829e-05
3.148351344e-05
3.195992362e-05
3.239144421e-05
3.273124771e-05
3.292895058e-05
3.116028233e-05
3.140451182e-05
3.174832995e-05
3.216226872e-05
3.261215351e-05
3.305991746e-05
3.34644929e-05
3.378225146e-05
3.396664322e-05
3.232384745e-05
3.25536512e-05
3.287677709e-05
3.326516878e-05
3.368643494e-05
3.410472924e-05
3.448168917e-05
3.47769294e-05
3.494775951e-05
3.34335727e-05
3.364854285e-05
3.395043809e-05
3.431269225e-05
3.470477311e-05
3.509311614e-05
3.544210186e-05
3.571459892e-05
3.587176457e-05
3.448749668e-05
3.468739492e-05
3.496775933e-05
3.530357173e-05
3.566621119e-05
3.602443058e-05
3.6345364e-05
3.659511576e-05
3.673864602e-05
3.548432516e-05
3.566906653e-05
3.592781474e-05
3.623713824e-05
3.657035794e-05
3.689855649e-05
3.719160792e-05
3.741880848e-05
3.75488481e-05
3.642337007e-05
3.659300596e-05
3.683024314e-05
3.711325774e-05
3.741732357e-05
3.771584484e-05
3.798140074e-05
3.8186414e-05
3.830320741e-05
3.730448531e-05
3.745918641e-05
3.767518386e-05
3.793226685e-05
3.820765586e-05
3.847705031e-05
3.871568179e-05
3.889901588e-05
3.900289167e-05
3.812800175e-05
3.826804125e-05
3.846321263e-05
3.869490961e-05
3.894227788e-05
3.91832704e-05
3.939570316e-05
3.955798607e-05
3.964934232e-05
3.889466318e-05
3.902040072e-05
3.919527924e-05
3.940227643e-05
3.962242882e-05
3.983588805e-05
4.002297416e-05
4.0164931e-05
4.024422164e-05
3.960556467e-05
3.971743114e-05
3.987264822e-05
4.005574666e-05
4.024960846e-05
4.043651845e-05
4.059921031e-05
4.072164246e-05
4.078936475e-05
4.026209426e-05
4.036057782e-05
4.049684333e-05
4.065693506e-05
4.082552614e-05
4.09869604e-05
4.112628711e-05
4.123005331e-05
4.128673661e-05
4.086587895e-05
4.09515122e-05
4.106959648e-05
4.120764301e-05
4.135205439e-05
4.148915257e-05
4.160619876e-05
4.169219825e-05
4.173839395e-05
4.141873516e-05
4.149208368e-05
4.159280142e-05
4.170981438e-05
4.183118739e-05
4.194513459e-05
4.204102164e-05
4.211017934e-05
4.214645211e-05
4.192262415e-05
4.198427623e-05
4.206847221e-05
4.216549634e-05
4.226500421e-05
4.235701282e-05
4.243288257e-05
4.248613617e-05
4.251305634e-05
4.237961222e-05
4.243016994e-05
4.249870652e-05
4.257680481e-05
4.265563674e-05
4.272693078e-05
4.278393143e-05
4.282222032e-05
4.284035741e-05
4.279183578e-05
4.283190727e-05
4.288565362e-05
4.294589449e-05
4.300524202e-05
4.305704373e-05
4.30963179e-05
4.312057391e-05
4.313049118e-05
4.316147099e-05
4.31916638e-05
4.323148674e-05
4.327493323e-05
4.331597865e-05
4.334949723e-05
4.337217201e-05
4.33833116e-05
4.338556156e-05
4.349070769e-05
4.351162325e-05
4.353837953e-05
4.356608022e-05
4.358998699e-05
4.360640933e-05
4.361358804e-05
4.361250604e-05
4.36076268e-05
4.378172739e-05
4.379395638e-05
4.380848636e-05
4.382146793e-05
4.382937283e-05
4.382985594e-05
4.382261156e-05
4.381017608e-05
4.37986885e-05
4.403668487e-05
4.404080352e-05
4.404392597e-05
4.40431872e-05
4.403619404e-05
4.402185906e-05
4.400122906e-05
4.39782776e-05
4.396068307e-05
4.425769309e-05
4.425426016e-05
4.424676825e-05
4.423327528e-05
4.421245006e-05
4.418437765e-05
4.415136e-05
4.411869654e-05
4.409547538e-05
4.444681103e-05
4.443636555e-05
4.441902369e-05
4.439370648e-05
4.436007363e-05
4.431930058e-05
4.427485096e-05
4.423324387e-05
4.42048542e-05
4.460603416e-05
4.458909371e-05
4.456263524e-05
4.452638492e-05
4.448092478e-05
4.442844159e-05
4.437347142e-05
4.432365215e-05
4.429052922e-05
4.473728715e-05
4.471434664e-05
4.467947228e-05
4.46331394e-05
4.45767864e-05
4.451353585e-05
4.444891119e-05
4.439157351e-05
4.435412938e-05
4.484241853e-05
4.481394948e-05
4.477132629e-05
4.471571976e-05
4.464936154e-05
4.457623789e-05
4.450277894e-05
4.443857879e-05
4.439720232e-05
4.492319708e-05
4.488964718e-05
4.48399081e-05
4.477579476e-05
4.470027182e-05
4.461812072e-05
4.453660193e-05
4.446615761e-05
4.442121467e-05
4.498130961e-05
4.494310265e-05
4.488684647e-05
4.481495112e-05
4.473105702e-05
4.46406759e-05
4.45518265e-05
4.447571927e-05
4.442755319e-05
4.501835996e-05
4.497589599e-05
4.491368762e-05
4.483469351e-05
4.474317556e-05
4.464531441e-05
4.454981931e-05
4.446859422e-05
4.441752638e-05
4.5035869e-05
4.498952472e-05
4.492189578e-05
4.483644538e-05
4.473800558e-05
4.463336815e-05
4.453186912e-05
4.44460361e-05
4.439236662e-05
4.503527553e-05
4.498540479e-05
4.491285438e-05
4.482155045e-05
4.471684679e-05
4.460609193e-05
4.449918901e-05
4.44092241e-05
4.435323266e-05
4.501793792e-05
4.496487234e-05
4.4887868e-05
4.479127477e-05
4.468092266e-05
4.456466591e-05
4.445291897e-05
4.435926567e-05
4.430121236e-05
4.498513663e-05
4.49291862e-05
4.484816486e-05
4.474680932e-05
4.463138312e-05
4.451019839e-05
4.439412878e-05
4.429719945e-05
4.423732568e-05
4.493807818e-05
4.487953147e-05
4.479490008e-05
4.468927314e-05
4.45693076e-05
4.444372882e-05
4.432382105e-05
4.422399837e-05
4.416252777e-05
4.48779025e-05
4.481702512e-05
4.472916016e-05
4.461971704e-05
4.449570849e-05
4.436623112e-05
4.424293443e-05
4.414057278e-05
4.407771211e-05
4.480570012e-05
4.474272583e-05
4.465196914e-05
4.453912819e-05
4.441153489e-05
4.427861709e-05
4.415234689e-05
4.40477737e-05
4.398371369e-05
4.472256051e-05
4.465765057e-05
4.456429636e-05
4.444843499e-05
4.431767645e-05
4.418173981e-05
4.405287896e-05
4.394639592e-05
4.388131211e-05
4.462955334e-05
4.456277756e-05
4.446705999e-05
4.434851003e-05
4.421496623e-05
4.407639657e-05
4.394529664e-05
4.383718097e-05
4.377123454e-05
4.452754969e-05
4.44590596e-05
4.436112522e-05
4.424016969e-05
4.410418198e-05
4.396333097e-05
4.383031393e-05
4.372081978e-05
4.365415838e-05
4.441722554e-05
4.434724136e-05
4.424726341e-05
4.412416493e-05
4.398604511e-05
4.384323435e-05
4.370859506e-05
4.359795519e-05
4.35307139e-05
4.429926312e-05
4.422799578e-05
4.412620045e-05
4.400119286e-05
4.386122487e-05
4.371674857e-05
4.3580757e-05
4.346918445e-05
4.340148675e-05
4.417430405e-05
4.410193597e-05
4.399858978e-05
4.387189423e-05
4.373033989e-05
4.358446824e-05
4.344737197e-05
4.333506178e-05
4.326702044e-05
4.404296559e-05
4.396967659e-05
4.386505305e-05
4.373686187e-05
4.359396153e-05
4.344694339e-05
4.330896992e-05
4.319610082e-05
4.312781894e-05
4.390581866e-05
4.383176512e-05
4.372608361e-05
4.359662203e-05
4.345261196e-05
4.330468122e-05
4.316604107e-05
4.305277731e-05
4.298434915e-05
4.376339744e-05
4.368871661e-05
4.358216592e-05
4.345166742e-05
4.330677604e-05
4.315815185e-05
4.301903968e-05
4.290553203e-05
4.283704372e-05
4.36162079e-05
4.354102759e-05
4.343378884e-05
4.330247541e-05
4.315691116e-05
4.300779377e-05
4.286838752e-05
4.275477362e-05
4.268630358e-05
4.346472636e-05
4.338916826e-05
4.328142101e-05
4.314953637e-05
4.300345135e-05
4.285401538e-05
4.271447572e-05
4.260088059e-05
4.253249995e-05
4.33093932e-05
4.323356433e-05
4.312545593e-05
4.299316034e-05
4.284676344e-05
4.269718565e-05
4.255766372e-05
4.244420245e-05
4.23759761e-05
4.31506209e-05
4.3074621e-05
4.296629419e-05
4.28337684e-05
4.268721692e-05
4.2537653e-05
4.239828581e-05
4.228506297e-05
4.221704971e-05
4.298879301e-05
4.291271442e-05
4.280430214e-05
4.267171443e-05
4.252514916e-05
4.237573951e-05
4.223665125e-05
4.212376164e-05
4.205601458e-05
4.28242635e-05
4.274818917e-05
4.263980851e-05
4.250729891e-05
4.236086347e-05
4.221174022e-05
4.207304504e-05
4.19605749e-05
4.189314209e-05
4.265735942e-05
4.2581364e-05
4.247312037e-05
4.234081744e-05
4.219464283e-05
4.204592782e-05
4.190773025e-05
4.179575804e-05
4.172868285e-05
4.248838299e-05
4.241253308e-05
4.230451941e-05
4.217253263e-05
4.202674695e-05
4.187855389e-05
4.17409498e-05
4.162954674e-05
4.15628683e-05
4.231761434e-05
4.224197022e-05
4.213427117e-05
4.200270269e-05
4.185742005e-05
4.170985212e-05
4.157292844e-05
4.146215884e-05
4.139591221e-05
4.214531304e-05
4.206992946e-05
4.196262206e-05
4.183156512e-05
4.168688852e-05
4.15400389e-05
4.1403874e-05
4.129379554e-05
4.122801203e-05
4.19717192e-05
4.18966458e-05
4.178979996e-05
4.165933905e-05
4.151536152e-05
4.136931415e-05
4.123397835e-05
4.11246426e-05
4.105934998e-05
4.17970546e-05
4.172233631e-05
4.161601524e-05
4.148622666e-05
4.134303205e-05
4.119786229e-05
4.106341851e-05
4.09548713e-05
4.089009409e-05
4.162152381e-05
4.154720116e-05
4.144146184e-05
4.131241429e-05
4.117007796e-05
4.10258533e-05
4.089235755e-05
4.078463948e-05
4.072039922e-05
4.144531531e-05
4.137142477e-05
4.126631841e-05
4.113807353e-05
4.099666299e-05
4.085344361e-05
4.072094561e-05
4.061409243e-05
4.055040791e-05
4.126860254e-05
4.119517682e-05
4.109074928e-05
4.096336222e-05
4.082293775e-05
4.068077712e-05
4.054932076e-05
4.044336379e-05
4.038025128e-05
4.109154493e-05
4.101861325e-05
4.091490549e-05
4.078842539e-05
4.06490406e-05
4.050798602e-05
4.037760984e-05
4.027257633e-05
4.021004979e-05
4.091428877e-05
4.084187717e-05
4.073892561e-05
4.061339609e-05
4.047509847e-05
4.033519154e-05
4.020592918e-05
4.010184265e-05
4.003991395e-05
4.073696815e-05
4.066509969e-05
4.056293657e-05
4.043839617e-05
4.030122757e-05
4.01625047e-05
4.003438532e-05
3.993126587e-05
3.986994497e-05
4.055970556e-05
4.048840061e-05
4.038705433e-05
4.026353694e-05
4.012753402e-05
3.999002684e-05
3.986307546e-05
3.976094009e-05
3.970023518e-05
4.038261255e-05
4.031188898e-05
4.021138441e-05
4.00889196e-05
3.995411429e-05
3.981785003e-05
3.969208791e-05
3.959095075e-05
3.953086842e-05
4.02057901e-05
4.013566346e-05
4.00360222e-05
3.991463558e-05
3.978105542e-05
3.964605728e-05
3.952150219e-05
3.942137474e-05
3.936192012e-05
4.002932867e-05
3.995981235e-05
3.986105298e-05
3.97407665e-05
3.960843499e-05
3.947472239e-05
3.935138886e-05
3.925228018e-05
3.919345705e-05
3.985330801e-05
3.978441339e-05
3.96865516e-05
3.956738375e-05
3.943632059e-05
3.930390942e-05
3.918180893e-05
3.908372577e-05
3.902553659e-05
3.967779638e-05
3.960953287e-05
3.951258162e-05
3.939454754e-05
3.926476881e-05
3.913367151e-05
3.901281253e-05
3.891575936e-05
3.885820533e-05
3.950284908e-05
3.943522413e-05
3.933919361e-05
3.922230515e-05
3.90938233e-05
3.896404883e-05
3.884443675e-05
3.874841568e-05
3.869149667e-05
3.932850617e-05
3.926152514e-05
3.91664226e-05
3.90506881e-05
3.892351183e-05
3.879506538e-05
3.867670222e-05
3.858171271e-05
3.85254271e-05
3.915478881e-05
3.90884547e-05
3.899428408e-05
3.887970791e-05
3.875384174e-05
3.86267242e-05
3.850960795e-05
3.841564633e-05
3.835999068e-05
3.898169418e-05
3.891600712e-05
3.882276827e-05
3.87093499e-05
3.858479353e-05
3.84590005e-05
3.834312413e-05
3.825018261e-05
3.819515109e-05
3.88091885e-05
3.874414495e-05
3.865183228e-05
3.853956364e-05
3.8416312e-05
3.829183236e-05
3.817718207e-05
3.808524729e-05
3.803083079e-05
3.863719791e-05
3.857278999e-05
3.848139207e-05
3.837025936e-05
3.824829645e-05
3.812510867e-05
3.801166093e-05
3.792071164e-05
3.786689635e-05
3.846559598e-05
3.840181007e-05
3.831130747e-05
3.820128715e-05
3.808058407e-05
3.795865246e-05
3.784637013e-05
3.775637388e-05
3.770313934e-05
3.829418796e-05
3.823100295e-05
3.814136557e-05
3.803242028e-05
3.791293105e-05
3.779220012e-05
3.768102699e-05
3.759193563e-05
3.753925199e-05
3.812269101e-05
3.806007654e-05
3.797126333e-05
3.786335041e-05
3.774499168e-05
3.762537599e-05
3.751522909e-05
3.742697277e-05
3.737479713e-05
3.795070858e-05
3.788861939e-05
3.780056615e-05
3.76936069e-05
3.757627638e-05
3.745765787e-05
3.734842017e-05
3.726090016e-05
3.72091721e-05
3.777770424e-05
3.771607686e-05
3.762869374e-05
3.75225794e-05
3.740613105e-05
3.728834413e-05
3.717985237e-05
3.709293141e-05
3.704156707e-05
3.760297195e-05
3.754172127e-05
3.745489078e-05
3.73494914e-05
3.723370156e-05
3.711651335e-05
3.700854276e-05
3.692203306e-05
3.687091797e-05
3.742560321e-05
3.736461437e-05
3.727817141e-05
3.717328346e-05
3.705787212e-05
3.694097421e-05
3.683322424e-05
3.674687434e-05
3.66958552e-05
3.724446312e-05
3.718359419e-05
3.709734464e-05
3.699265211e-05
3.687723924e-05
3.676022229e-05
3.665229648e-05
3.656577538e-05
3.65146505e-05
3.705816497e-05
3.699724062e-05
3.691094448e-05
3.680598848e-05
3.669006367e-05
3.657239176e-05
3.646377569e-05
3.637665536e-05
3.632516412e-05
3.68650706e-05
3.680387901e-05
3.671714229e-05
3.661131462e-05
3.649421771e-05
3.637520597e-05
3.626524591e-05
3.617698371e-05
3.612479595e-05
3.666334313e-05
3.660156794e-05
3.651368759e-05
3.640623056e-05
3.628713808e-05
3.616593372e-05
3.605381703e-05
3.596373911e-05
3.591044492e-05
3.645066304e-05
3.638765755e-05
3.629785923e-05
3.61878743e-05
3.606579026e-05
3.59413568e-05
3.582609501e-05
3.573338178e-05
3.567848252e-05
3.622391965e-05
3.61590484e-05
3.606646861e-05
3.595290734e-05
3.582665154e-05
3.569775497e-05
3.557817003e-05
3.548184473e-05
3.542474618e-05
3.597963335e-05
3.59122071e-05
3.581586684e-05
3.569751668e-05
3.556571372e-05
3.543091252e-05
3.530562799e-05
3.520455007e-05
3.514455865e-05
3.571392464e-05
3.564317186e-05
3.554195987e-05
3.541743475e-05
3.52785083e-05
3.51361503e-05
3.500359035e-05
3.489645563e-05
3.483277911e-05
3.542251776e-05
3.534757453e-05
3.524024206e-05
3.510798219e-05
3.496015911e-05
3.480838877e-05
3.46667873e-05
3.45521374e-05
3.448389137e-05
3.510077795e-05
3.502068927e-05
3.490585608e-05
3.476413952e-05
3.460546658e-05
3.444224573e-05
3.428966895e-05
3.416591189e-05
3.409213347e-05
3.474378203e-05
3.465751233e-05
3.453368433e-05
3.438065201e-05
3.42090278e-05
3.403217243e-05
3.386655706e-05
3.373200138e-05
3.365167124e-05
3.434642311e-05
3.425287565e-05
3.41184748e-05