/*--------------------------------*- C++ -*----------------------------------*\
| =========                 |                                                 |
| \\      /  F ield         | OpenFOAM: The Open Source CFD Toolbox           |
|  \\    /   O peration     | Version:  2212                                  |
|   \\  /    A nd           | Website:  www.openfoam.com                      |
|    \\/     M anipulation  |                                                 |
\*---------------------------------------------------------------------------*/
FoamFile
{
    version     2.0;
    format      ascii;
    arch        "LSB;label=32;scalar=64";
    class       volScalarField;
    location    "20.00000000";
    object      C4H6;
}
// * * * * * * * * * * * * * * * * * * * * * * * * * * * * * * * * * * * * * //

dimensions      [0 0 0 0 0 0 0];

internalField   nonuniform List<scalar> 
3000
(
3.173468197e-24
3.564982449e-24
4.155775546e-24
4.94306143e-24
5.918839666e-24
7.056614665e-24
8.287842251e-24
9.462674562e-24
1.029343607e-23
1.191459866e-23
1.34384954e-23
1.573706223e-23
1.880691773e-23
2.264502505e-23
2.723011333e-23
3.248259501e-23
3.813731093e-23
4.314647532e-23
2.668803496e-23
3.033778978e-23
3.589543949e-23
4.344148732e-23
5.311165746e-23
6.504624681e-23
7.919829526e-23
9.477325153e-23
1.080846417e-22
5.083380451e-23
5.839099522e-23
7.006738806e-23
8.625809858e-23
1.075367632e-22
1.344441013e-22
1.668333133e-22
2.021114992e-22
2.305862247e-22
9.026794945e-23
1.049602093e-22
1.280181547e-22
1.606131132e-22
2.042782439e-22
2.602374465e-22
3.275559853e-22
3.990459129e-22
4.53924587e-22
1.5522363e-22
1.827995819e-22
2.266976788e-22
2.897196138e-22
3.752273984e-22
4.853727969e-22
6.168663221e-22
7.531256816e-22
8.539352567e-22
2.6351781e-22
3.141736787e-22
3.957527904e-22
5.141942982e-22
6.760944823e-22
8.846727764e-22
1.13130305e-21
1.381886625e-21
1.56270036e-21
4.459704019e-22
5.376493558e-22
6.866090056e-22
9.045537384e-22
1.203642004e-21
1.588182854e-21
2.03888592e-21
2.49014914e-21
2.810337273e-21
7.559865032e-22
9.201595654e-22
1.188635064e-21
1.583438613e-21
2.126200531e-21
2.822144121e-21
3.631958935e-21
4.434346824e-21
4.997386672e-21
1.286044872e-21
1.57772423e-21
2.056900815e-21
2.763832487e-21
3.736300483e-21
4.979960509e-21
6.419094704e-21
7.834574115e-21
8.820438958e-21
2.196390612e-21
2.711556746e-21
3.560576891e-21
4.815683911e-21
6.542296132e-21
8.745464397e-21
1.128440226e-20
1.376880394e-20
1.549047713e-20
3.764748583e-21
4.670608274e-21
6.16678947e-21
8.381393141e-21
1.142731562e-20
1.530695282e-20
1.976433908e-20
2.411028383e-20
2.711160921e-20
6.472628694e-21
8.060202184e-21
1.068631073e-20
1.457645287e-20
1.992529485e-20
2.672861569e-20
3.452776721e-20
4.211268984e-20
4.733856502e-20
1.115509003e-20
1.393057087e-20
1.852647257e-20
2.533785466e-20
3.47004062e-20
4.659566606e-20
6.020955828e-20
7.342588248e-20
8.251798486e-20
1.926070753e-20
2.410422925e-20
3.21304937e-20
4.402960969e-20
6.038092473e-20
8.113751843e-20
1.048632345e-19
1.278669124e-19
1.43680018e-19
3.330277238e-20
4.174426192e-20
5.574045298e-20
7.64955104e-20
1.050123954e-19
1.411929639e-19
1.825147636e-19
2.22541414e-19
2.500411753e-19
5.76422634e-20
7.234032209e-20
9.67205702e-20
1.328837585e-19
1.825740907e-19
2.456128002e-19
3.17594672e-19
3.872779968e-19
4.350526652e-19
9.984668687e-20
1.25418962e-19
1.678489392e-19
2.307932437e-19
3.172737354e-19
4.269476436e-19
5.521087238e-19
6.731875806e-19
7.561665449e-19
1.730503795e-19
2.175169909e-19
2.91310969e-19
4.007896758e-19
5.511858145e-19
7.418581663e-19
9.593611327e-19
1.169678771e-18
1.313776743e-18
3.000528942e-19
3.773435697e-19
5.05627208e-19
6.959510422e-19
9.57381013e-19
1.288746178e-18
1.66662214e-18
2.031894674e-18
2.282086697e-18
5.204348561e-19
6.547424805e-19
8.776792809e-19
1.208434033e-18
1.662716919e-18
2.238414459e-18
2.894748673e-18
3.529014253e-18
3.963362048e-18
9.02911985e-19
1.136251789e-18
1.523587942e-18
2.098234462e-18
2.887407641e-18
3.887308453e-18
5.026982786e-18
6.12804983e-18
6.881906142e-18
1.566779935e-18
1.97211325e-18
2.644951316e-18
3.643096678e-18
5.013666764e-18
6.749826719e-18
8.728142941e-18
1.063889549e-17
1.194677194e-17
2.719122748e-18
3.423131295e-18
4.591701508e-18
6.325054118e-18
8.704680404e-18
1.171823472e-17
1.515099348e-17
1.846537954e-17
2.073331074e-17
4.719352448e-18
5.941949473e-18
7.971107332e-18
1.098043585e-17
1.511067429e-17
2.033936281e-17
2.629292722e-17
3.203868893e-17
3.596876496e-17
8.191059405e-18
1.031388916e-17
1.383659168e-17
1.905954592e-17
2.622531019e-17
3.529260891e-17
4.561136021e-17
5.556427168e-17
6.23684098e-17
1.421561601e-17
1.790066825e-17
2.401430408e-17
3.307542519e-17
4.550091014e-17
6.121393325e-17
7.908283403e-17
9.630515378e-17
1.080704842e-16
2.466681128e-17
3.106152058e-17
4.166702125e-17
5.737787932e-17
7.890793338e-17
1.061121304e-16
1.370195561e-16
1.667786256e-16
1.870888605e-16
4.27880987e-17
5.387925767e-17
7.226545533e-17
9.948479663e-17
1.367537253e-16
1.837942754e-16
2.371721362e-16
2.884987846e-16
3.234840975e-16
7.418592564e-17
9.340874741e-17
1.252562868e-16
1.723641112e-16
2.36792239e-16
3.180004691e-16
4.100017738e-16
4.983162e-16
5.584134378e-16
1.285339312e-16
1.618165932e-16
2.169159765e-16
2.98328544e-16
4.095151349e-16
5.494132864e-16
7.075827783e-16
8.590832357e-16
9.619601317e-16
2.224863209e-16
2.800336471e-16
3.752113449e-16
5.156487782e-16
7.071016117e-16
9.474617102e-16
1.218524069e-15
1.477452185e-15
1.652814199e-15
3.846376479e-16
4.839609251e-16
6.48034058e-16
8.897142927e-16
1.218452526e-15
1.630045013e-15
2.092765272e-15
2.533303014e-15
2.830701138e-15
6.639262206e-16
8.349573016e-16
1.11706518e-15
1.531736823e-15
2.094244363e-15
2.796198715e-15
3.582383569e-15
4.327898211e-15
4.829246044e-15
1.143795646e-15
1.437455227e-15
1.92095596e-15
2.62984393e-15
3.588306575e-15
4.779658846e-15
6.108030945e-15
7.361794489e-15
8.201155163e-15
1.965917588e-15
2.468347851e-15
3.293782056e-15
4.500311339e-15
6.125279403e-15
8.135742071e-15
1.036584948e-14
1.245938428e-14
1.385379573e-14
3.36967012e-15
4.225646464e-15
5.628286674e-15
7.671157436e-15
1.041005442e-14
1.378062796e-14
1.749742779e-14
2.096548523e-14
2.326227794e-14
5.757365719e-15
7.208388555e-15
9.578925328e-15
1.301711936e-14
1.760278077e-14
2.321193946e-14
2.935657771e-14
3.50517222e-14
3.880011053e-14
9.80118952e-15
1.224671851e-14
1.622809718e-14
2.197519649e-14
2.959539969e-14
3.885374327e-14
4.892280953e-14
5.81880323e-14
6.424595532e-14
1.661705917e-14
2.071167141e-14
2.735151852e-14
3.688493884e-14
4.944334391e-14
6.45894794e-14
8.093426915e-14
9.58595133e-14
1.055510801e-13
2.804476585e-14
3.485017864e-14
4.583730927e-14
6.15194796e-14
8.203139689e-14
1.065752827e-13
1.328452049e-13
1.56643868e-13
1.7198877e-13
4.709508494e-14
5.831457545e-14
7.634057415e-14
1.019047188e-13
1.350887676e-13
1.744670125e-13
2.162584207e-13
2.538138212e-13
2.778583231e-13
7.865622094e-14
9.699072199e-14
1.26294564e-13
1.675688457e-13
2.207193728e-13
2.832516899e-13
3.490467353e-13
4.076975719e-13
4.449880263e-13
1.305982935e-13
1.602792419e-13
2.074556824e-13
2.734277559e-13
3.576849096e-13
4.559543672e-13
5.584662352e-13
6.491261186e-13
7.063814905e-13
2.154814e-13
2.630564192e-13
3.382391851e-13
4.426010435e-13
5.747785196e-13
7.276035685e-13
8.856877288e-13
1.024429461e-12
1.111490621e-12
3.531679107e-13
4.286432037e-13
5.472143262e-13
7.105779952e-13
9.157666446e-13
1.150994414e-12
1.392344424e-12
1.602628228e-12
1.733790813e-12
5.747735886e-13
6.932537522e-13
8.78284142e-13
1.131326873e-12
1.446571028e-12
1.805004858e-12
2.16993132e-12
2.485722225e-12
2.681599409e-12
9.285792014e-13
1.112594292e-12
1.39829278e-12
1.78618224e-12
2.265632069e-12
2.806519381e-12
3.353219222e-12
3.823328348e-12
4.113443739e-12
1.488784338e-12
1.771560048e-12
2.208105357e-12
2.796679423e-12
3.518766604e-12
4.327426344e-12
5.139296679e-12
5.833402553e-12
6.25978584e-12
2.368345987e-12
2.798362256e-12
3.458624023e-12
4.34296748e-12
5.420345546e-12
6.618720718e-12
7.814470086e-12
8.831442263e-12
9.453596586e-12
3.7376452e-12
4.384950726e-12
5.373784096e-12
6.690070192e-12
8.283319807e-12
1.00445157e-11
1.179209208e-11
1.327145841e-11
1.417321408e-11
5.851421261e-12
6.816340937e-12
8.283382709e-12
1.02251524e-11
1.256159019e-11
1.512981745e-11
1.766553443e-11
1.980323953e-11
2.110219297e-11
9.087379892e-12
1.051249466e-11
1.266964477e-11
1.550997503e-11
1.89093807e-11
2.262732177e-11
2.62821199e-11
2.935218059e-11
3.121262661e-11
1.400024659e-11
1.608663847e-11
1.923210241e-11
2.335435272e-11
2.82644695e-11
3.361083605e-11
3.884616971e-11
4.323018654e-11
4.588074452e-11
2.139896868e-11
2.442858535e-11
2.897969478e-11
3.491917669e-11
4.19638813e-11
4.96044541e-11
5.70611732e-11
6.328857298e-11
6.704627421e-11
3.245500581e-11
3.682106597e-11
4.335891518e-11
5.185961626e-11
6.190442076e-11
7.276139589e-11
8.332607855e-11
9.212867795e-11
9.743157839e-11
4.885377671e-11
5.51020876e-11
6.443216108e-11
7.652372529e-11
9.076457754e-11
1.061104422e-10
1.210050231e-10
1.333906013e-10
1.408416702e-10
7.300571165e-11
8.189070249e-11
9.512503816e-11
1.122269786e-10
1.323103063e-10
1.53894521e-10
1.747970266e-10
1.921483311e-10
2.025745558e-10
1.083392651e-10
1.208998032e-10
1.395680625e-10
1.636304615e-10
1.918150174e-10
2.220346452e-10
2.512419344e-10
2.754506379e-10
2.899834543e-10
1.597060304e-10
1.773676922e-10
2.035668344e-10
2.372597381e-10
2.766343665e-10
3.187640241e-10
3.594121404e-10
3.930613469e-10
4.132466637e-10
2.339379383e-10
2.586504538e-10
2.952457855e-10
3.422136874e-10
3.969906128e-10
4.554936884e-10
5.118576028e-10
5.58470375e-10
5.864180014e-10
3.406088232e-10
3.750304037e-10
4.259255976e-10
4.911303554e-10
5.670423864e-10
6.479942128e-10
7.258951472e-10
7.902709453e-10
8.288563859e-10
4.930700861e-10
5.408156693e-10
6.113177335e-10
7.015040608e-10
8.063449622e-10
9.180072467e-10
1.025363232e-09
1.114031791e-09
1.167168603e-09
7.098600671e-10
7.758387889e-10
8.731550093e-10
9.974838387e-10
1.141840719e-09
1.295436719e-09
1.443004518e-09
1.56483801e-09
1.637845603e-09
1.016631259e-09
1.107505823e-09
1.241418147e-09
1.412322354e-09
1.610561802e-09
1.82131953e-09
2.023694314e-09
2.190733333e-09
2.290833801e-09
1.448782503e-09
1.573588406e-09
1.757360235e-09
1.991693767e-09
2.263286971e-09
2.551843161e-09
2.828805909e-09
3.057374081e-09
3.194363355e-09
2.055025466e-09
2.226000277e-09
2.477591607e-09
2.798171494e-09
3.169475167e-09
3.563764958e-09
3.942098148e-09
4.254305861e-09
4.441460257e-09
2.902186335e-09
3.135879898e-09
3.479575828e-09
3.917251218e-09
4.423900278e-09
4.961698657e-09
5.477631012e-09
5.903402746e-09
6.15870286e-09
4.08164519e-09
4.400405043e-09
4.868996383e-09
5.465421433e-09
6.15553812e-09
6.887872174e-09
7.590365276e-09
8.170168977e-09
8.517949846e-09
5.717934606e-09
6.151889303e-09
6.789585134e-09
7.60092465e-09
8.539410861e-09
9.535128843e-09
1.049028376e-08
1.127879569e-08
1.175196591e-08
7.980159955e-09
8.569856384e-09
9.436158524e-09
1.053802036e-08
1.181227556e-08
1.31641397e-08
1.44610804e-08
1.553208489e-08
1.617509763e-08
1.109706586e-08
1.189695763e-08
1.307178683e-08
1.456575062e-08
1.629324498e-08
1.812600764e-08
1.988468711e-08
2.133758453e-08
2.221038842e-08
1.537675621e-08
1.645978524e-08
1.805021431e-08
2.007240822e-08
2.241063395e-08
2.489165397e-08
2.727312069e-08
2.924149204e-08
3.04247344e-08
2.12322627e-08
2.26958213e-08
2.484483517e-08
2.757709135e-08
3.073650256e-08
3.408954632e-08
3.73092882e-08
3.997202644e-08
4.157381728e-08
2.921432458e-08
3.118792318e-08
3.408567749e-08
3.776985702e-08
4.203046887e-08
4.655339508e-08
5.089842024e-08
5.449396613e-08
5.66585237e-08
4.005285122e-08
4.270783446e-08
4.660590442e-08
5.156199703e-08
5.729431819e-08
6.338133139e-08
6.923161516e-08
7.407579727e-08
7.699426778e-08
5.470852987e-08
5.827016416e-08
6.349923704e-08
7.014777693e-08
7.783865269e-08
8.600768273e-08
9.386246187e-08
1.003702971e-07
1.04293938e-07
7.443583935e-08
7.919801596e-08
8.618935221e-08
9.507850627e-08
1.05362207e-07
1.162876801e-07
1.267967623e-07
1.355082825e-07
1.407640245e-07
1.008582475e-07
1.072008842e-07
1.165116201e-07
1.283489593e-07
1.420434147e-07
1.565941834e-07
1.705939173e-07
1.822036597e-07
1.892118067e-07
1.360555212e-07
1.444644828e-07
1.568064462e-07
1.72494876e-07
1.906422998e-07
2.099237512e-07
2.284765846e-07
2.43865746e-07
2.531591096e-07
1.826618002e-07
1.937507868e-07
2.100219367e-07
2.306985213e-07
2.546088034e-07
2.800072639e-07
3.044428859e-07
3.247121713e-07
3.3695506e-07
2.439713684e-07
2.585047376e-07
2.798216443e-07
3.068972072e-07
3.38191503e-07
3.714180115e-07
4.033729109e-07
4.298731935e-07
4.458794327e-07
3.240469551e-07
3.429619362e-07
3.706910283e-07
4.058875501e-07
4.465383509e-07
4.896675243e-07
5.311187586e-07
5.654771957e-07
5.862246214e-07
4.278231888e-07
4.522495213e-07
4.880339619e-07
5.334157135e-07
5.857785403e-07
6.412776632e-07
6.945673621e-07
7.387044401e-07
7.653437189e-07
5.611956678e-07
5.924700112e-07
6.382485581e-07
6.962419228e-07
7.630739473e-07
8.338181109e-07
9.016629405e-07
9.57796757e-07
9.916522586e-07
7.310836468e-07
7.707556749e-07
8.287693361e-07
9.021681997e-07
9.866292734e-07
1.075896514e-06
1.161377806e-06
1.232012098e-06
1.274572847e-06
9.454539199e-07
9.952827792e-07
1.068067051e-06
1.160018398e-06
1.26564911e-06
1.377091529e-06
1.483622482e-06
1.571515804e-06
1.624415136e-06
1.213297245e-06
1.275235118e-06
1.365593486e-06
1.479560041e-06
1.610233881e-06
1.747821999e-06
1.879089909e-06
1.987204749e-06
2.05218815e-06
1.54454493e-06
1.620706544e-06
1.731663889e-06
1.871362105e-06
2.031210363e-06
2.199149993e-06
2.359033513e-06
2.490465796e-06
2.569347452e-06
1.949920047e-06
2.042537762e-06
2.177273464e-06
2.3465871e-06
2.539897465e-06
2.742520814e-06
2.934984472e-06
3.092875757e-06
3.187485373e-06
2.440721714e-06
2.552087108e-06
2.713849438e-06
2.916721231e-06
3.147813483e-06
3.389448643e-06
3.618419086e-06
3.805855454e-06
3.91797793e-06
3.028546492e-06
3.16094062e-06
3.352945869e-06
3.593251932e-06
3.866336471e-06
4.151161681e-06
4.420392025e-06
4.640295084e-06
4.771606354e-06
3.724956646e-06
3.880572387e-06
4.105893762e-06
4.387307252e-06
4.706334035e-06
5.038224806e-06
5.351154805e-06
5.606171126e-06
5.758173952e-06
4.54111038e-06
4.721971155e-06
4.983423711e-06
5.309275541e-06
5.677782244e-06
6.060160361e-06
6.419780734e-06
6.712176385e-06
6.886139969e-06
5.487373264e-06
5.695252955e-06
5.995281415e-06
6.368426397e-06
6.789394949e-06
7.225088483e-06
7.633817602e-06
7.965384104e-06
8.162291149e-06
6.572932572e-06
6.809281541e-06
7.149857863e-06
7.572554406e-06
8.048284575e-06
8.539407295e-06
8.998987535e-06
9.370964738e-06
9.591468984e-06
7.805436835e-06
8.071318524e-06
8.453855391e-06
8.927665954e-06
9.459673415e-06
1.000753053e-05
1.051895007e-05
1.093197012e-05
1.11763666e-05
9.190681408e-06
9.486723255e-06
9.912008479e-06
1.043772638e-05
1.102667083e-05
1.163169599e-05
1.219513992e-05
1.264919497e-05
1.291740427e-05
1.073235769e-05
1.105871898e-05
1.152687424e-05
1.210448047e-05
1.27501271e-05
1.341185331e-05
1.402668588e-05
1.452112031e-05
1.481268715e-05
1.243187903e-05
1.278823704e-05
1.329870258e-05
1.392735407e-05
1.462856944e-05
1.534563413e-05
1.601041169e-05
1.65439384e-05
1.685804388e-05
1.428829088e-05
1.467384548e-05
1.522539065e-05
1.590343938e-05
1.665822029e-05
1.742840279e-05
1.814091527e-05
1.871165362e-05
1.904713983e-05
1.629826725e-05
1.671176283e-05
1.73025206e-05
1.802756101e-05
1.883309332e-05
1.965338082e-05
2.041071801e-05
2.101625046e-05
2.137165534e-05
1.845618986e-05
1.88959525e-05
1.9523475e-05
2.02924157e-05
2.114515815e-05
2.201183538e-05
2.281047307e-05
2.344791637e-05
2.382151653e-05
2.0754302e-05
2.121828919e-05
2.187962005e-05
2.268877466e-05
2.35845622e-05
2.449331868e-05
2.532921935e-05
2.599530594e-05
2.638516489e-05
2.318292542e-05
2.366878491e-05
2.436054395e-05
2.520573555e-05
2.613989579e-05
2.708594457e-05
2.795466685e-05
2.864583213e-05
2.904985129e-05
2.573072606e-05
2.623586067e-05
2.695433595e-05
2.783100932e-05
2.8798486e-05
2.977668783e-05
3.067349941e-05
3.138597072e-05
3.180194097e-05
2.83850135e-05
2.890664836e-05
2.964789117e-05
3.055122744e-05
3.154670511e-05
3.255169234e-05
3.347168153e-05
3.420156502e-05
3.462721667e-05
3.113205885e-05
3.166730818e-05
3.242722674e-05
3.335225551e-05
3.437028043e-05
3.539657597e-05
3.63347576e-05
3.707812019e-05
3.751116965e-05
3.39574168e-05
3.450334765e-05
3.5277796e-05
3.621950099e-05
3.725459396e-05
3.829672132e-05
3.924813395e-05
4.000107774e-05
4.043926975e-05
3.684623925e-05
3.73999301e-05
3.818478942e-05
3.913820443e-05
4.018496258e-05
4.123754423e-05
4.219733616e-05
4.295606385e-05
4.33972082e-05
3.978357006e-05
4.034216281e-05
4.113341321e-05
4.20937063e-05
4.314689151e-05
4.420473361e-05
4.516823635e-05
4.592910657e-05
4.637110899e-05
4.275461285e-05
4.331535727e-05
4.410913882e-05
4.507168331e-05
4.612629622e-05
4.718445879e-05
4.814724731e-05
4.890681944e-05
4.934770643e-05
4.574496633e-05
4.630525645e-05
4.709791892e-05
4.805835073e-05
4.91096899e-05
5.016354228e-05
5.11214819e-05
5.187655073e-05
5.231448844e-05
4.874082363e-05
4.929822617e-05
5.008636745e-05
5.104062901e-05
5.208433558e-05
5.312959761e-05
5.407887832e-05
5.482649875e-05
5.525980628e-05
5.17291346e-05
5.228140964e-05
5.306190344e-05
5.400627479e-05
5.503836347e-05
5.607113337e-05
5.700829235e-05
5.774579515e-05
5.817295277e-05
5.469773129e-05
5.524284576e-05
5.601285938e-05
5.694397761e-05
5.796085529e-05
5.897762557e-05
5.989955918e-05
6.06245588e-05
6.104421164e-05
5.763541853e-05
5.817155337e-05
5.892855666e-05
5.984342491e-05
6.084189836e-05
6.18395612e-05
6.274352794e-05
6.345392337e-05
6.386488129e-05
6.053203232e-05
6.105758408e-05
6.179935076e-05
6.26953384e-05
6.367261266e-05
6.464845646e-05
6.553207218e-05
6.622604212e-05
6.662727633e-05
6.337846966e-05
6.389204742e-05
6.461665001e-05
6.549148543e-05
6.644515448e-05
6.739685316e-05
6.825808015e-05
6.893407348e-05
6.932471067e-05
6.616669333e-05
6.666711194e-05
6.737291162e-05
6.822466906e-05
6.915270051e-05
7.007829705e-05
7.09154282e-05
7.157215094e-05
7.195146539e-05
6.888971602e-05
6.937598633e-05
7.006161885e-05
7.088870076e-05
7.178941578e-05
7.268730154e-05
7.349894095e-05
7.413534057e-05
7.450274486e-05
7.154156734e-05
7.201288437e-05
7.267724299e-05
7.34783591e-05
7.435040918e-05
7.521930014e-05
7.600434121e-05
7.661958918e-05
7.697462394e-05
7.411724757e-05
7.457297718e-05
7.521519377e-05
7.598933798e-05
7.683167947e-05
7.767059061e-05
7.84281927e-05
7.902166592e-05
7.936398908e-05
7.661267161e-05
7.705233631e-05
7.767176123e-05
7.841818732e-05
7.923005485e-05
8.003827355e-05
8.07678378e-05
8.13390997e-05
8.166847547e-05
7.902460598e-05
7.944787031e-05
8.004405189e-05
8.076224871e-05
8.154312826e-05
8.232018752e-05
8.302133274e-05
8.357011435e-05
8.388640233e-05
8.13506015e-05
8.175725751e-05
8.232992159e-05
8.301958852e-05
8.37691908e-05
8.45148429e-05
8.518738186e-05
8.571356335e-05
8.601670788e-05
8.358892406e-05
8.397887708e-05
8.452790702e-05
8.518893008e-05
8.590716477e-05
8.662135576e-05
8.726527242e-05
8.776886534e-05
8.805888537e-05
8.573848501e-05
8.611173998e-05
8.663715759e-05
8.726958659e-05
8.795653773e-05
8.863938326e-05
8.925481114e-05
8.973594169e-05
9.001292111e-05
8.779877284e-05
8.815542141e-05
8.865736889e-05
8.926139593e-05
8.99172988e-05
9.056906137e-05
9.115626328e-05
9.16151566e-05
9.18792353e-05
8.976978714e-05
9.010999564e-05
9.058871877e-05
9.11646582e-05
9.178987783e-05
9.241094573e-05
9.297029503e-05
9.34072607e-05
9.365862628e-05
9.165197579e-05
9.197597412e-05
9.243180675e-05
9.298007671e-05
9.357508811e-05
9.416595607e-05
9.469791947e-05
9.511333828e-05
9.535221846e-05
9.344617587e-05
9.375424731e-05
9.41875972e-05
9.470870283e-05
9.527407304e-05
9.58353246e-05
9.634044656e-05
9.673475837e-05
9.696141416e-05
9.51535587e-05
9.544603076e-05
9.585736677e-05
9.635188499e-05
9.688825677e-05
9.742054843e-05
9.789943705e-05
9.827313004e-05
9.84878495e-05
9.677557921e-05
9.705281535e-05
9.744265598e-05
9.791122186e-05
9.841929916e-05
9.892334613e-05
9.937666059e-05
9.973026151e-05
9.993335431e-05
9.831392974e-05
9.857632203e-05
9.894522516e-05
9.938851979e-05
9.98690548e-05
0.0001003456184
0.0001007740578
0.0001011081234
0.0001012999158
9.977049816e-05
0.0001000184608
0.0001003670146
0.0001007857544
0.0001012395362
0.0001016894127
0.0001020937061
0.0001024088155
0.0001025896463
0.0001011473302
0.0001013812938
0.000101710109
0.0001021050363
0.0001025328805
0.0001029568915
0.0001033377894
0.0001036345376
0.0001038047541
0.000102446596
0.0001026670025
0.0001029767052
0.00010334858
0.0001037513207
0.0001041503043
0.0001045085713
0.0001047875633
0.0001049475181
0.00010367056
0.0001038778586
0.0001041690846
0.0001045186776
0.0001048971592
0.000105271963
0.0001056083709
0.0001058702168
0.0001060202652
0.0001048215553
0.0001050161985
0.0001052895878
0.0001056176743
0.0001059727453
0.00010632422
0.0001066395428
0.0001068848535
0.0001070253508
0.0001059019604
0.0001060844011
0.0001063405937
0.0001066479484
0.0001069804558
0.0001073094499
0.0001076044584
0.0001078338421
0.0001079651417
0.0001069141792
0.0001070848678
0.0001073245001
0.0001076118926
0.0001079226775
0.0001082300326
0.0001085054912
0.0001087195502
0.0001088420019
0.0001078606241
0.0001080200065
0.0001082437079
0.0001085118993
0.0001088017927
0.0001090883399
0.0001093450029
0.0001095443312
0.0001096582796
0.0001087437013
0.0001088922167
0.0001091006074
0.0001093503471
0.0001096201669
0.0001098867238
0.0001101253324
0.0001103105135
0.0001104162972
0.0001095657983
0.0001097038779
0.0001098975667
0.0001101295898
0.000110380138
0.0001106275059
0.0001108487865
0.0001110203919
0.0001111183422
0.0001103292737
0.0001104573396
0.0001106369217
0.0001108519473
0.0001110840081
0.00011131297
0.0001115176321
0.0001116762197
0.0001117666599
0.0001110364485
0.0001111549124
0.0001113209686
0.0001115196977
0.0001117340355
0.0001119453546
0.0001121340895
0.0001122802027
0.0001123634475
0.0001116895988
0.0001117988611
0.0001119519565
0.0001121350713
0.0001123324295
0.000112526848
0.0001127003275
0.0001128344944
0.0001129108497
0.0001122909495
0.0001123913993
0.0001125320825
0.0001127002451
0.0001128813454
0.0001130595832
0.0001132184592
0.0001133411919
0.000113410954
0.0001128426699
0.0001129346842
0.0001130634869
0.0001132173389
0.0001133828804
0.000113545635
0.0001136905386
0.0001138023329
0.0001138657889
0.0001133468694
0.000113430813
0.00011354825
0.0001136884122
0.0001138390711
0.0001139870171
0.0001141185587
0.0001142198938
0.0001142773209
0.0001138055954
0.0001138818212
0.0001139883897
0.000114115462
0.0001142518916
0.0001143856804
0.0001145044493
0.0001145957878
0.0001146474537
0.0001142208312
0.00011428968
0.0001143858599
0.0001145004212
0.0001146232519
0.0001147435118
0.0001148500763
0.0001149318644
0.000114978027
0.0001145944953
0.0001146562953
0.0001147425495
0.0001148451579
0.0001149549972
0.0001150623339
0.0001151572415
0.0001152299088
0.0001152708165
0.0001149284404
0.000114983508
0.0001150602823
0.0001151514752
0.000115248908
0.0001153439044
0.0001154276822
0.0001154916421
0.0001155275339
0.0001152244539
0.0001152730935
0.0001153408169
0.0001154211113
0.0001155067003
0.0001155899171
0.0001156630719
0.000115718722
0.0001157498277
0.0001154842579
0.0001155267623
0.0001155858471
0.00011565574
0.0001157300262
0.0001158020023
0.000115865021
0.0001159127433
0.0001159392835
0.0001157095103
0.0001157461605
0.000115797003
0.000115856972
0.0001159204748
0.0001159817277
0.0001160350781
0.0001160752392
0.0001160974257
0.0001159018052
0.0001159328713
0.0001159758517
0.0001160263552
0.0001160795734
0.0001161306
0.0001161747307
0.0001162076824
0.0001162257186
0.0001160626748
0.0001160884158
0.0001161238991
0.0001161653768
0.0001162087889
0.0001162500655
0.0001162854072
0.000116311487
0.0001163255676
0.0001161935902
0.0001162142544
0.0001162425906
0.0001162754642
0.0001163095289
0.0001163415126
0.0001163684778
0.0001163880092
0.000116398321
0.0001162959631
0.0001163117887
0.0001163333131
0.0001163579868
0.000116383144
0.0001164062725
0.0001164252568
0.0001164385497
0.0001164452717
0.0001163711476
0.0001163823627
0.0001163973968
0.0001164142579
0.0001164309287
0.0001164456216
0.0001164570038
0.0001164643552
0.0001164676586
0.0001164204416
0.0001164272647
0.0001164361164
0.000116445536
0.0001164541239
0.0001164607829
0.0001164649259
0.0001164666199
0.000116466669
0.000116445089
0.0001164477294
0.0001164506934
0.0001164530266
0.000116453918
0.0001164529278
0.0001164501789
0.0001164464878
0.0001164434395
0.0001164462811
0.0001164449391
0.0001164422976
0.0001164378844
0.0001164314491
0.000116423178
0.0001164138697
0.000116405054
0.0001163990586
0.0001164251586
0.0001164200258
0.0001164120489
0.0001164012149
0.0001163878069
0.0001163726073
0.0001163570578
0.0001163433667
0.000116334568
0.0001163828134
0.0001163740734
0.0001163610196
0.0001163440761
0.0001163240342
0.0001163022433
0.000116280757
0.000116262429
0.0001162509647
0.0001163202905
0.0001163081189
0.0001162902355
0.0001162674805
0.0001162411287
0.0001162130692
0.0001161859376
0.0001161632008
0.0001161492024
0.0001162385899
0.0001162231546
0.0001162006782
0.0001161723969
0.0001161400453
0.0001161060258
0.0001160735274
0.0001160466002
0.0001160301936
0.0001161386681
0.0001161201298
0.0001160932868
0.0001160597518
0.0001160216971
0.0001159820129
0.0001159444144
0.0001159135055
0.0001158948111
0.0001160214401
0.0001159999525
0.0001159689594
0.0001159304317
0.0001158869577
0.0001158418914
0.0001157994477
0.0001157647568
0.0001157438899
0.0001158877811
0.0001158634913
0.0001158285553
0.0001157852845
0.0001157366626
0.0001156864844
0.0001156394396
0.0001156011578
0.0001155782285
0.0001157385282
0.0001157115768
0.0001156728962
0.0001156251211
0.0001155716111
0.0001155165796
0.0001154651672
0.0001154234773
0.0001153985909
0.000115574482
0.0001155450038
0.0001155027681
0.0001154507175
0.0001153925679
0.0001153329307
0.0001152773739
0.000115232451
0.0001152057085
0.0001153964088
0.0001153645326
0.0001153189235
0.0001152628159
0.0001152002648
0.0001151362587
0.0001150767716
0.000115028783
0.000115000281
0.0001152050416
0.0001151708908
0.000115122082
0.0001150621271
0.0001149954024
0.0001149272543
0.0001148640418
0.0001148131481
0.000114782979
0.0001150010823
0.0001149647751
0.0001149129334
0.0001148493318
0.0001147786518
0.0001147065794
0.0001146398377
0.0001145861927
0.0001145544454
0.0001147852036
0.0001147468534
0.0001146921383
0.0001146250826
0.0001145506569
0.0001144748687
0.0001144047865
0.0001143485378
0.0001143152973
0.0001145580504
0.0001145177659
0.0001144603309
0.000114390006
0.0001143120358
0.0001142327322
0.0001141594905
0.0001141007802
0.0001140661285
0.0001143202424
0.0001142781282
0.0001142181207
0.0001141447043
0.0001140633832
0.0001139807574
0.0001139045306
0.0001138434953
0.0001138075113
0.0001140723759
0.0001140285329
0.0001139660949
0.0001138897585
0.0001138052733
0.0001137195113
0.000113640468
0.0001135772399
0.0001135399999
0.0001138150267
0.0001137695521
0.000113704821
0.0001136257305
0.0001135382619
0.0001134495443
0.0001133678477
0.0001133025551
0.0001132641332
0.0001135487525
0.0001135017409
0.00011343485
0.0001133531665
0.0001132628902
0.0001131713925
0.0001130872018
0.0001130199697
0.0001129804384
0.0001132740966
0.0001132256401
0.0001131567197
0.0001130726004
0.0001129796884
0.0001128855826
0.0001127990539
0.0001127300053
0.0001126894357
0.0001129915916
0.0001129417807
0.0001128709586
0.0001127845586
0.0001126891802
0.0001125926363
0.0001125039239
0.0001124331806
0.0001123916435
0.0001127017641
0.0001126506884
0.0001125780915
0.0001124895645
0.0001123918885
0.0001122930757
0.0001122023341
0.0001121300181
0.0001120875844
0.0001124051397
0.0001123528891
0.0001122786446
0.0001121881451
0.0001120883413
0.0001119874305
0.0001118948159
0.0001118210509
0.0001117777929
0.0001121022497
0.0001120489151
0.0001119731521
0.0001118808374
0.0001117790788
0.000111676245
0.0001115819175
0.0001115068311
0.0001114628231
0.0001117936379
0.0001117393127
0.0001116621643
0.0001115681966
0.0001114646625
0.0001113600872
0.0001112642138
0.0001111879389
0.000111143259
0.0001114798688
0.0001114246508
0.0001113462559
0.0001112508053
0.0001111456841
0.0001110395585
0.0001109423156
0.0001108649934
0.0001108197246
0.0001111615373
0.0001111055297
0.0001110260359
0.0001109292832
0.0001108227757
0.0001107153046
0.0001106168817
0.000110538664
0.0001104928956
0.0001108392781
0.000110782592
0.000110702158
0.0001106042983
0.0001104966216
0.000110388027
0.0001102886299
0.0001102096822
0.0001101635117
0.0001105137771
0.0001104565333
0.0001103753319
0.0001102765779
0.0001101679696
0.0001100584947
0.0001099583495
0.0001098788539
0.0001098323889
0.0001101857823
0.0001101281133
0.0001100463344
0.0001099469205
0.0001098376425
0.0001097275562
0.0001096269133
0.0001095470714
0.0001095004311
0.0001098561144
0.0001097981666
0.0001097160205
0.0001096162062
0.0001095065492
0.0001093961501
0.0001092952875
0.0001092153238
0.0001091686408
0.0001095256768
0.0001094676129
0.000109385333
0.0001092854067
0.0001091756939
0.000109065314
0.0001089645414
0.0001088847054
0.0001088381269
0.0001091954646
0.0001091374651
0.0001090553108
0.0001089555931
0.0001088461833
0.0001087361915
0.0001086358523
0.0001085564206
0.0001085101099
0.0001088665706
0.0001088088357
0.0001087270942
0.0001086279398
0.0001085192303
0.000108410034
0.0001083105071
0.0001082317847
0.0001081859213
0.0001085401896
0.0001084829396
0.000108401927
0.000108303726
0.0001081961525
0.0001080881983
0.0001079898986
0.0001079122183
0.0001078669978
0.0001082176166
0.0001081610922
0.0001080811532
0.00010798433
0.000107878366
0.000107772138
0.0001076755136
0.0001075992344
0.000107554867
0.0001079002407
0.0001078447015
0.0001077662074
0.0001076712183
0.0001075673714
0.0001074633867
0.0001073689151
0.0001072944179
0.0001072511262
0.0001075895324
0.0001075352542
0.0001074585988
0.0001073659264
0.0001072647315
0.0001071635333
0.0001070717137
0.0001069993954
0.0001069574104
0.0001072870226
0.0001072342935
0.0001071598869
0.0001070700319
0.0001069720417