/*--------------------------------*- C++ -*----------------------------------*\
| =========                 |                                                 |
| \\      /  F ield         | OpenFOAM: The Open Source CFD Toolbox           |
|  \\    /   O peration     | Version:  2212                                  |
|   \\  /    A nd           | Website:  www.openfoam.com                      |
|    \\/     M anipulation  |                                                 |
\*---------------------------------------------------------------------------*/
FoamFile
{
    version     2.0;
    format      ascii;
    arch        "LSB;label=32;scalar=64";
    class       volScalarField;
    location    "20.00000000";
    object      C4H612_0;
}
// * * * * * * * * * * * * * * * * * * * * * * * * * * * * * * * * * * * * * //

dimensions      [0 0 0 0 0 0 0];

internalField   nonuniform List<scalar> 
3000
(
2.280802755e-23
2.562187799e-23
2.986796452e-23
3.552626332e-23
4.253927447e-23
5.071657159e-23
5.956552121e-23
6.80091524e-23
7.397991392e-23
8.56313866e-23
9.658377757e-23
1.131037959e-22
1.351671385e-22
1.627519791e-22
1.957054417e-22
2.334555231e-22
2.740964997e-22
3.100978368e-22
1.918095022e-22
2.18040634e-22
2.579839855e-22
3.122181394e-22
3.817185573e-22
4.674935655e-22
5.692056577e-22
6.811443189e-22
7.768145184e-22
3.653474494e-22
4.196616821e-22
5.035810012e-22
6.199451362e-22
7.728768615e-22
9.662623761e-22
1.199046615e-21
1.452594167e-21
1.657244622e-21
6.487643436e-22
7.543589613e-22
9.200785225e-22
1.154341459e-21
1.468166716e-21
1.870350571e-21
2.354174982e-21
2.867979526e-21
3.262397483e-21
1.11560679e-21
1.313797646e-21
1.62929722e-21
2.082241526e-21
2.696793625e-21
3.488418433e-21
4.433474101e-21
5.412782218e-21
6.137309569e-21
1.893926856e-21
2.257995105e-21
2.844311444e-21
3.695561087e-21
4.859152069e-21
6.358222739e-21
8.13077633e-21
9.931742634e-21
1.123126693e-20
3.205229956e-21
3.864134737e-21
4.934720956e-21
6.501109086e-21
8.650683003e-21
1.141441226e-20
1.465365529e-20
1.78969243e-20
2.019814506e-20
5.43334334e-21
6.613269776e-21
8.542827183e-21
1.138031567e-20
1.528119443e-20
2.028300393e-20
2.61032166e-20
3.187005167e-20
3.591667087e-20
9.242920507e-21
1.133924648e-20
1.478313227e-20
1.986391506e-20
2.685313254e-20
3.579143334e-20
4.613462649e-20
5.63078116e-20
6.339331689e-20
1.578565859e-20
1.948820556e-20
2.559019311e-20
3.461076664e-20
4.702009537e-20
6.285448192e-20
8.110208073e-20
9.895772497e-20
1.113315656e-19
2.705759397e-20
3.356809479e-20
4.432129517e-20
6.02378728e-20
8.21292301e-20
1.100125908e-19
1.420483001e-19
1.732830711e-19
1.948539323e-19
4.6519387e-20
5.792943611e-20
7.680354678e-20
1.047624121e-19
1.432051333e-19
1.921013698e-19
2.481547288e-19
3.026683988e-19
3.402274516e-19
8.017269118e-20
1.001203586e-19
1.331515977e-19
1.821057729e-19
2.493955213e-19
3.348880191e-19
4.327321419e-19
5.277188128e-19
5.93065334e-19
1.384285567e-19
1.732394574e-19
2.309251014e-19
3.164453928e-19
4.3396396e-19
5.831426797e-19
7.536583482e-19
9.189837216e-19
1.032637107e-18
2.393502435e-19
3.000201028e-19
4.006122037e-19
5.497809199e-19
7.547339437e-19
1.014763466e-18
1.311735968e-18
1.599394704e-18
1.79705011e-18
4.142805141e-19
5.199169273e-19
6.951402318e-19
9.550488425e-19
1.312178961e-18
1.765247298e-18
2.282596804e-18
2.78343255e-18
3.126785015e-18
7.176077841e-19
9.013982135e-19
1.206346564e-18
1.658733389e-18
2.280277463e-18
3.068516527e-18
3.968066638e-18
4.83827776e-18
5.434650502e-18
1.243729837e-18
1.563315692e-18
2.093680131e-18
2.880514077e-18
3.961425548e-18
5.331806519e-18
6.895022659e-18
8.406596868e-18
9.44224138e-18
2.156509305e-18
2.712004926e-18
3.633991905e-18
5.001867741e-18
6.880790216e-18
9.262343798e-18
1.197817529e-17
1.460342478e-17
1.640157906e-17
3.740416037e-18
4.705698063e-18
6.307966626e-18
8.685133316e-18
1.195010875e-17
1.608770319e-17
2.08048414e-17
2.53633703e-17
2.848507049e-17
6.489316656e-18
8.166352669e-18
1.095017552e-17
1.508021631e-17
2.075208121e-17
2.793846627e-17
3.612941736e-17
4.404289417e-17
4.946093342e-17
1.126060071e-17
1.417377095e-17
1.900952405e-17
2.618329255e-17
3.603371405e-17
4.851166577e-17
6.273001832e-17
7.64627842e-17
8.586262045e-17
1.95426015e-17
2.460237988e-17
3.300100852e-17
4.545878357e-17
6.256139083e-17
8.422010098e-17
1.088916745e-16
1.32712492e-16
1.490123357e-16
3.39184484e-17
4.270537299e-17
5.728912936e-17
7.891746826e-17
1.086018965e-16
1.461809932e-16
1.889698439e-16
2.302651962e-16
2.585110377e-16
5.886994646e-17
7.412693192e-17
9.944494e-17
1.369828238e-16
1.884838735e-16
2.536514377e-16
3.278133141e-16
3.993458639e-16
4.482478713e-16
1.02169025e-16
1.286538565e-16
1.725931561e-16
2.377163211e-16
3.270194985e-16
4.399505349e-16
5.68376075e-16
6.921545744e-16
7.767131574e-16
1.772827892e-16
2.232421914e-16
2.994649637e-16
4.123804395e-16
5.67119047e-16
7.626382762e-16
9.84772972e-16
1.19865432e-15
1.344625969e-15
3.07522257e-16
3.87235503e-16
5.193789069e-16
7.150069791e-16
9.828624198e-16
1.320947462e-15
1.704579376e-15
2.073469028e-15
2.324911901e-15
5.331815151e-16
6.71337818e-16
9.002292036e-16
1.238797753e-15
1.701849019e-15
2.285500524e-15
2.946722915e-15
3.581447351e-15
4.013372091e-15
9.237859551e-16
1.162991708e-15
1.558996374e-15
2.144116473e-15
2.943225394e-15
3.948687116e-15
5.085466753e-15
6.17431539e-15
6.913701728e-15
1.599030984e-15
2.012629257e-15
2.696680696e-15
3.706018288e-15
5.082008561e-15
6.809500142e-15
8.757651875e-15
1.061859363e-14
1.187893762e-14
2.76442846e-15
3.478274587e-15
4.657484269e-15
6.394463793e-15
8.757137687e-15
1.171529323e-14
1.504090907e-14
1.820709702e-14
2.03445265e-14
4.771702803e-15
6.000919941e-15
8.028456909e-15
1.100874263e-14
1.505153944e-14
2.009655416e-14
2.574694175e-14
3.110502858e-14
3.470826461e-14
8.220571402e-15
1.033113158e-14
1.380609872e-14
1.890094602e-14
2.578951096e-14
3.435187647e-14
4.389901691e-14
5.290993841e-14
5.894250587e-14
1.412924242e-14
1.774025793e-14
2.367273443e-14
3.234417859e-14
4.402298324e-14
5.847237537e-14
7.450037575e-14
8.954681552e-14
9.956858733e-14
2.421814962e-14
3.037013544e-14
4.0451048e-14
5.513336021e-14
7.481808101e-14
9.904272301e-14
1.257557272e-13
1.506809956e-13
1.671882697e-13
4.137875249e-14
5.180739567e-14
6.884467552e-14
9.355531246e-14
1.265129096e-13
1.668264816e-13
2.109885974e-13
2.519201576e-13
2.788601909e-13
7.044211234e-14
8.801836848e-14
1.166329265e-13
1.579378909e-13
2.127050356e-13
2.792456544e-13
3.516130157e-13
4.182030752e-13
4.617419582e-13
1.194284412e-13
1.488568198e-13
1.965780497e-13
2.650956716e-13
3.553541523e-13
4.642109016e-13
5.816824934e-13
6.889516719e-13
7.586059024e-13
2.015605062e-13
2.50471673e-13
3.294372522e-13
4.421465362e-13
5.895676763e-13
7.659669589e-13
9.547714256e-13
1.12581471e-12
1.236099996e-12
3.384770664e-13
4.191126398e-13
5.486672464e-13
7.323992312e-13
9.70896191e-13
1.253911418e-12
1.554270262e-12
1.8241845e-12
1.996994616e-12
5.65310185e-13
6.970820318e-13
9.076915878e-13
1.204333828e-12
1.586331748e-12
2.035757441e-12
2.508632622e-12
2.930161665e-12
3.198171625e-12
9.386233397e-13
1.15194321e-12
1.49100485e-12
1.965152452e-12
2.570716571e-12
3.276988314e-12
4.013750528e-12
4.66533135e-12
5.076830865e-12
1.54868759e-12
1.890613901e-12
2.430959687e-12
3.181018248e-12
4.130990031e-12
5.229357524e-12
6.365522425e-12
7.362671363e-12
7.988387424e-12
2.538256782e-12
3.080705128e-12
3.932887196e-12
5.10699718e-12
6.581706604e-12
8.27230918e-12
1.000691216e-11
1.15182392e-11
1.246091534e-11
4.130965543e-12
4.982494271e-12
6.312325536e-12
8.130967066e-12
1.039665459e-11
1.29727485e-11
1.559550406e-11
1.786511753e-11
1.927290158e-11
6.673818763e-12
7.996354031e-12
1.004969698e-11
1.28374942e-11
1.628334115e-11
2.017074116e-11
2.40999134e-11
2.747862087e-11
2.956370026e-11
1.070011105e-11
1.27324505e-11
1.586994575e-11
2.010008219e-11
2.528978334e-11
3.110168198e-11
3.693665016e-11
4.192523461e-11
4.498967919e-11
1.702170989e-11
2.011228757e-11
2.485766071e-11
3.121352317e-11
3.895673112e-11
4.75695427e-11
5.616347372e-11
6.347251878e-11
6.794398442e-11
2.686323901e-11
3.151551331e-11
3.86223829e-11
4.808267575e-11
5.95335102e-11
7.219136661e-11
8.475132512e-11
9.538363984e-11
1.018646318e-10
4.205570891e-11
4.899075791e-11
5.953462296e-11
7.349039385e-11
9.028265043e-11
1.087407619e-10
1.269651979e-10
1.423290909e-10
1.516648139e-10
6.531410633e-11
7.55567669e-11
9.106070677e-11
1.114747488e-10
1.35906892e-10
1.626283254e-10
1.88895892e-10
2.109608676e-10
2.243322026e-10
1.006260966e-10
1.156218212e-10
1.382294507e-10
1.678575004e-10
2.03148077e-10
2.415739668e-10
2.792017129e-10
3.107107838e-10
3.29761091e-10
1.538072835e-10
1.755831268e-10
2.082948882e-10
2.509856811e-10
3.016202552e-10
3.565375079e-10
4.101331245e-10
4.54892878e-10
4.819016601e-10
2.332801756e-10
2.646638839e-10
3.116587705e-10
3.727630852e-10
4.449669063e-10
5.230090554e-10
5.989505209e-10
6.622262306e-10
7.003456431e-10
3.511635486e-10
3.960816423e-10
4.631548862e-10
5.500818398e-10
6.524624865e-10
7.627904816e-10
8.698779244e-10
9.589305801e-10
1.01250695e-09
5.247902009e-10
5.886729112e-10
6.838303767e-10
8.068026059e-10
9.51222077e-10
1.106447859e-09
1.256787738e-09
1.381602459e-09
1.456612539e-09
7.788136291e-10
8.691440177e-10
1.003407969e-09
1.176484933e-09
1.379240878e-09
1.59667794e-09
1.80688014e-09
1.981152618e-09
2.085794586e-09
1.148121517e-09
1.275178751e-09
1.463678094e-09
1.706140019e-09
1.989562593e-09
2.292916162e-09
2.585712052e-09
2.828182382e-09
2.973675612e-09
1.681850469e-09
1.859713859e-09
2.123156296e-09
2.46137212e-09
2.855978675e-09
3.27762623e-09
3.68405224e-09
4.020305334e-09
4.221970156e-09
2.448897432e-09
2.696799816e-09
3.063455615e-09
3.533399465e-09
4.080796978e-09
4.664860105e-09
5.227198807e-09
5.692089069e-09
5.970800846e-09
3.545456264e-09
3.889604626e-09
4.397974833e-09
5.048610203e-09
5.805397756e-09
6.611871102e-09
7.387602737e-09
8.028510874e-09
8.412653075e-09
5.105283417e-09
5.581303378e-09
6.283701612e-09
7.181522691e-09
8.224525502e-09
9.334811068e-09
1.040190734e-08
1.128310208e-08
1.181118151e-08
7.313624471e-09
7.969834231e-09
8.937181656e-09
1.017228886e-08
1.160555539e-08
1.312985615e-08
1.459384864e-08
1.580230779e-08
1.652644344e-08
1.042601566e-08
1.132779473e-08
1.265601476e-08
1.435021157e-08
1.631433192e-08
1.840149133e-08
2.04048713e-08
2.205801692e-08
2.304857256e-08
1.479351182e-08
1.602910392e-08
1.784761154e-08
2.016514627e-08
2.284960478e-08
2.570013834e-08
2.843479341e-08
3.069071495e-08
3.2042415e-08
2.089628688e-08
2.258446555e-08
2.506737514e-08
2.82291111e-08
3.188856531e-08
3.577181422e-08
3.949537715e-08
4.256625022e-08
4.440619413e-08
2.93879865e-08
3.168811115e-08
3.506892861e-08
3.937090083e-08
4.434647297e-08
4.962300616e-08
5.468016828e-08
5.884971333e-08
6.134777943e-08
4.115363189e-08
4.427872108e-08
4.886942661e-08
5.470691359e-08
6.145376597e-08
6.860433795e-08
7.545433788e-08
8.110027812e-08
8.448246667e-08
5.738418991e-08
6.161771941e-08
6.783325832e-08
7.573162529e-08
8.485422021e-08
9.45167076e-08
1.037682916e-07
1.113908187e-07
1.159560989e-07
7.967099745e-08
8.538815913e-08
9.377738838e-08
1.044309775e-07
1.167274175e-07
1.297431185e-07
1.421981987e-07
1.524553663e-07
1.585965197e-07
1.101228479e-07
1.178169304e-07
1.291009408e-07
1.434210926e-07
1.599376761e-07
1.774080358e-07
1.941149175e-07
2.07865551e-07
2.160942813e-07
1.515074494e-07
1.618217496e-07
1.769400899e-07
1.961128391e-07
2.182092879e-07
2.415633311e-07
2.638795741e-07
2.822335748e-07
2.932097028e-07
2.07416847e-07
2.211820061e-07
2.413465458e-07
2.668994796e-07
2.963240064e-07
3.273953219e-07
3.57058854e-07
3.814335329e-07
3.959973257e-07
2.824530066e-07
3.007288e-07
3.274836627e-07
3.613597098e-07
4.003310326e-07
4.414408859e-07
4.806457513e-07
5.12824941e-07
5.320304699e-07
3.824249741e-07
4.065443254e-07
4.418284388e-07
4.864619117e-07
5.377524322e-07
5.917924702e-07
6.43262573e-07
6.854527341e-07
7.105983873e-07
5.145430405e-07
5.461544156e-07
5.92360849e-07
6.507480262e-07
7.177588818e-07
7.882632015e-07
8.55313996e-07
9.101891027e-07
9.42843064e-07
6.875887538e-07
7.286913183e-07
7.887150125e-07
8.644683703e-07
9.512835177e-07
1.042476211e-06
1.129050691e-06
1.199776441e-06
1.241783544e-06
9.120334924e-07
9.649978396e-07
1.042261169e-06
1.139633869e-06
1.251037944e-06
1.367840084e-06
1.47850696e-06
1.56872593e-06
1.622196818e-06
1.200074046e-06
1.267640412e-06
1.366085036e-06
1.489951057e-06
1.63139598e-06
1.779380293e-06
1.919272759e-06
2.033049575e-06
2.100322503e-06
1.56555285e-06
1.650798733e-06
1.774834077e-06
1.930616864e-06
2.108124133e-06
2.293394711e-06
2.468091829e-06
2.609807814e-06
2.693384081e-06
2.023735271e-06
2.13001191e-06
2.284411063e-06
2.477938729e-06
2.697929269e-06
2.926937929e-06
3.142280883e-06
3.316481249e-06
3.418932038e-06
2.590929772e-06
2.721750004e-06
2.911490772e-06
3.148795467e-06
3.417852101e-06
3.697144625e-06
3.958995391e-06
4.170190051e-06
4.294038207e-06
3.283932301e-06
3.442833052e-06
3.672892527e-06
3.959949063e-06
4.284520073e-06
4.620427688e-06
4.934377518e-06
5.186806305e-06
5.334389642e-06
4.119341226e-06
4.309713241e-06
4.584822919e-06
4.927246961e-06
5.313305782e-06
5.711594765e-06
6.082641118e-06
6.380018818e-06
6.553344411e-06
5.112761681e-06
5.337662423e-06
5.662040233e-06
6.064757692e-06
6.517437477e-06
6.982942125e-06
7.415157616e-06
7.76041819e-06
7.961019064e-06
6.277949135e-06
6.53990616e-06
6.916978626e-06
7.383891078e-06
7.907122924e-06
8.443390574e-06
8.939610518e-06
9.334671517e-06
9.563477705e-06
7.625933344e-06
7.926754761e-06
8.358893226e-06
8.892566496e-06
9.48875093e-06
1.009772858e-05
1.065928351e-05
1.110485082e-05
1.136208591e-05
9.164188896e-06
9.504796827e-06
9.993089929e-06
1.059449233e-05
1.126423217e-05
1.194602166e-05
1.257253803e-05
1.306796789e-05
1.335308008e-05
1.089591709e-05
1.127621867e-05
1.182030097e-05
1.248861413e-05
1.323053213e-05
1.398323543e-05
1.467252175e-05
1.521575206e-05
1.552738562e-05
1.281949867e-05
1.323830617e-05
1.383625827e-05
1.456877744e-05
1.537943498e-05
1.619910303e-05
1.694713157e-05
1.753468831e-05
1.787069794e-05
1.492816506e-05
1.538317255e-05
1.603150198e-05
1.682363509e-05
1.76975593e-05
1.857824926e-05
1.937923479e-05
2.000631301e-05
2.036381976e-05
1.720991924e-05
1.769773825e-05
1.839144336e-05
1.923680944e-05
2.016662707e-05
2.110056354e-05
2.194713279e-05
2.260774562e-05
2.298322985e-05
1.964771696e-05
2.016396878e-05
2.089668102e-05
2.178730064e-05
2.276396839e-05
2.374179583e-05
2.462523461e-05
2.531241865e-05
2.570184285e-05
2.221989877e-05
2.275935632e-05
2.352355014e-05
2.445011343e-05
2.54632272e-05
2.647433486e-05
2.738489416e-05
2.809095608e-05
2.848990862e-05
2.490084375e-05
2.545761263e-05
2.624486749e-05
2.719706011e-05
2.823522088e-05
2.926811685e-05
3.01953566e-05
3.091214398e-05
3.1315994e-05
2.766180055e-05
2.82295263e-05
2.903082244e-05
2.999768693e-05
3.104889836e-05
3.209160783e-05
3.302475582e-05
3.374393488e-05
3.414798859e-05
3.047184047e-05
3.104392829e-05
3.18499568e-05
3.282026599e-05
3.387233865e-05
3.491280203e-05
3.584110662e-05
3.655443084e-05
3.695408058e-05
3.329887235e-05
3.386870584e-05
3.467017431e-05
3.563279488e-05
3.667373411e-05
3.770018295e-05
3.861324093e-05
3.931279684e-05
3.970365545e-05
3.61106596e-05
3.667180638e-05
3.745972366e-05
3.840395074e-05
3.942230863e-05
4.04236015e-05
4.13116461e-05
4.199006566e-05
4.236808078e-05
3.887578477e-05
3.94221791e-05
4.018810595e-05
4.110395405e-05
4.208913065e-05
4.305503566e-05
4.390917424e-05
4.455980679e-05
4.492135147e-05
4.156451618e-05
4.209061152e-05
4.282686771e-05
4.370530749e-05
4.464779171e-05
4.556920743e-05
4.638160299e-05
4.699864287e-05
4.734058108e-05
4.41495423e-05
4.465042937e-05
4.535025181e-05
4.618338743e-05
4.707493274e-05
4.794404443e-05
4.870803898e-05
4.928660862e-05
4.960633563e-05
4.660655197e-05
4.70780408e-05
4.773569103e-05
4.851687681e-05
4.935061179e-05
5.016098377e-05
5.087116557e-05
5.140735599e-05
5.170281526e-05
4.89146505e-05
4.935331717e-05
4.996413978e-05
5.068803884e-05
5.145851612e-05
5.220512491e-05
5.28573444e-05
5.334821738e-05
5.361789663e-05
5.105661259e-05
5.145981341e-05
5.202024948e-05
5.26828398e-05
5.338603012e-05
5.406524536e-05
5.465658647e-05
5.510014403e-05
5.534305364e-05
5.301898193e-05
5.338483918e-05
5.38924008e-05
5.449093623e-05
5.512417588e-05
5.573369782e-05
5.626241281e-05
5.665754026e-05
5.687317782e-05
5.479203443e-05
5.511939849e-05
5.557261135e-05
5.610554612e-05
5.666744738e-05
5.720621024e-05
5.767162648e-05
5.80180157e-05
5.820632031e-05
5.636962598e-05
5.665801931e-05
5.705634085e-05
5.752322665e-05
5.801356079e-05
5.848161163e-05
5.888401873e-05
5.918207793e-05
5.934337783e-05
5.774894862e-05
5.79984968e-05
5.834221728e-05
5.874358149e-05
5.916314361e-05
5.956150545e-05
5.990203047e-05
6.015278637e-05
6.028774297e-05
5.893021893e-05
5.914157367e-05
5.943170694e-05
5.976892008e-05
6.011938411e-05
6.044991143e-05
6.073038895e-05
6.093538619e-05
6.104493739e-05
5.991632157e-05
6.009058012e-05
6.032875015e-05
6.06038894e-05
6.088766051e-05
6.11528937e-05
6.137573646e-05
6.15369386e-05
6.16222434e-05
6.07124289e-05
6.085105347e-05
6.103938151e-05
6.12550961e-05
6.147516625e-05
6.167819052e-05
6.184626515e-05
6.196596035e-05
6.202834661e-05
6.132561442e-05
6.143035454e-05
6.157135091e-05
6.173073376e-05
6.189054505e-05
6.20348579e-05
6.215136911e-05
6.22320829e-05
6.227299934e-05
6.176447479e-05
6.183729475e-05
6.193375823e-05
6.204022721e-05
6.214354611e-05
6.223293623e-05
6.230132167e-05
6.234573833e-05
6.236671162e-05
6.203877173e-05
6.208178475e-05
6.213671137e-05
6.21939022e-05
6.224470686e-05
6.228314626e-05
6.230698351e-05
6.231787701e-05
6.232047428e-05
6.215910213e-05
6.217451192e-05
6.219101449e-05
6.220268666e-05
6.220506831e-05
6.219661851e-05
6.217954472e-05
6.215971942e-05
6.214551636e-05
6.213660162e-05
6.21266519e-05
6.210789064e-05
6.20778466e-05
6.203592545e-05
6.198465789e-05
6.193030207e-05
6.188254306e-05
6.185309742e-05
6.198268454e-05
6.194961653e-05
6.189874072e-05
6.18307583e-05
6.174861345e-05
6.165854369e-05
6.157047101e-05
6.149750376e-05
6.145433388e-05
6.170882135e-05
6.16548387e-05
6.157493897e-05
6.147271627e-05
6.135432901e-05
6.122936377e-05
6.111103128e-05
6.101548963e-05
6.096005776e-05
6.132635248e-05
6.125359342e-05
6.114766378e-05
6.101477566e-05
6.086398499e-05
6.0707881e-05
6.056260342e-05
6.044700531e-05
6.038070504e-05
6.084633713e-05
6.075685295e-05
6.062776169e-05
6.046762666e-05
6.028809569e-05
6.010442903e-05
5.993535368e-05
5.980208357e-05
5.97262309e-05
6.027943395e-05
6.017517318e-05
6.002564164e-05
5.984149788e-05
5.963668994e-05
5.942883445e-05
5.923892398e-05
5.909022106e-05
5.900604868e-05
5.963581074e-05
5.951860823e-05
5.93511963e-05
5.914608558e-05
5.891924842e-05
5.869036203e-05
5.84823838e-05
5.832033511e-05
5.822898922e-05
5.892507949e-05
5.879664969e-05
5.861374702e-05
5.839050528e-05
5.814466231e-05
5.789767973e-05
5.767420075e-05
5.750073835e-05
5.740327767e-05
5.815625341e-05
5.801818711e-05
5.782200911e-05
5.758326247e-05
5.732120959e-05
5.705884049e-05
5.682222679e-05
5.663912817e-05
5.653652467e-05
5.733772252e-05
5.719148636e-05
5.698407399e-05
5.67322393e-05
5.645654632e-05
5.618127762e-05
5.593369731e-05
5.574258838e-05
5.563572939e-05
5.647724455e-05
5.632418284e-05
5.610740549e-05
5.584469426e-05
5.55577099e-05
5.52718115e-05
5.501524046e-05
5.48176005e-05
5.470729177e-05
5.558194836e-05
5.542328657e-05
5.519884722e-05
5.49272723e-05
5.46311319e-05
5.433666481e-05
5.407289454e-05
5.387006262e-05
5.375703217e-05
5.46583471e-05
5.449519663e-05
5.42646388e-05
5.398602296e-05
5.368265817e-05
5.338148452e-05
5.311213135e-05
5.290531374e-05
5.279021621e-05
5.371235896e-05
5.354572288e-05
5.331043875e-05
5.302642468e-05
5.271757451e-05
5.241136868e-05
5.213788403e-05
5.192816223e-05
5.181158351e-05
5.274933347e-05
5.258011277e-05
5.234135212e-05
5.205341328e-05
5.174063601e-05
5.143089659e-05
5.115457771e-05
5.09429169e-05
5.082537892e-05
5.177408165e-05
5.160308192e-05
5.136196152e-05
5.107141347e-05
5.075609896e-05
5.044416099e-05
5.0166162e-05
4.995341953e-05
4.983538509e-05
5.079090868e-05
5.061884688e-05
5.037636005e-05
5.008437196e-05
4.976775415e-05
4.945480144e-05
4.917614429e-05
4.896307815e-05
4.884495568e-05
4.980364793e-05
4.96311592e-05
4.938818533e-05
4.909579138e-05
4.877896056e-05
4.846603778e-05
4.818762305e-05
4.797490013e-05
4.785704829e-05
4.881569547e-05
4.864333973e-05
4.84006536e-05
4.810876411e-05
4.779267893e-05
4.748070341e-05
4.720332067e-05
4.699152468e-05
4.687425678e-05
4.783004423e-05
4.765831264e-05
4.741659339e-05
4.712600554e-05
4.681150448e-05
4.650127745e-05
4.622561525e-05
4.601525426e-05
4.589884248e-05
4.684931741e-05
4.667863852e-05
4.643847823e-05
4.614988632e-05
4.583769866e-05
4.552991589e-05
4.52565711e-05
4.504808472e-05
4.493276402e-05
4.587580059e-05
4.570654611e-05
4.546845795e-05
4.518246299e-05
4.487321915e-05
4.456848104e-05
4.429796773e-05
4.409173373e-05
4.397770554e-05
4.49114725e-05
4.474396277e-05
4.450838854e-05
4.42255073e-05
4.391974841e-05
4.361856938e-05
4.335132702e-05
4.314766758e-05
4.303510324e-05
4.395803405e-05
4.379254308e-05
4.35598603e-05
4.328053369e-05
4.297872061e-05
4.268153775e-05
4.241793879e-05
4.221712622e-05
4.210617009e-05
4.301693577e-05
4.285369591e-05
4.262422429e-05
4.234882509e-05
4.205134655e-05
4.175852761e-05
4.149888452e-05
4.13011465e-05
4.119191885e-05
4.20894034e-05
4.192860953e-05
4.17026169e-05
4.143145674e-05
4.113863694e-05
4.085048764e-05
4.059505925e-05
4.040058366e-05
4.02931833e-05
4.11764622e-05
4.101827534e-05
4.07959828e-05
4.052931848e-05
4.024142381e-05
3.995819447e-05
3.970719179e-05
3.951613104e-05
3.941063773e-05
4.027896003e-05
4.012350998e-05
3.99050962e-05
3.964313518e-05
3.936038026e-05
3.908227173e-05
3.883586317e-05
3.864833818e-05
3.854481475e-05
3.939758965e-05
3.924497582e-05
3.903058033e-05
3.877348536e-05
3.849603838e-05
3.822320734e-05
3.798152344e-05
3.779762714e-05
3.769612142e-05
3.853290396e-05
3.838319764e-05
3.817292411e-05
3.79208176e-05
3.764880522e-05
3.738136906e-05
3.714450673e-05
3.696430733e-05
3.686485392e-05
3.768532147e-05
3.753857571e-05
3.733249598e-05
3.708546469e-05
3.681897689e-05
3.655701836e-05
3.632504488e-05
3.614858877e-05
3.605121065e-05
3.685513773e-05
3.671139291e-05
3.650955457e-05
3.626765568e-05
3.600675097e-05
3.57503227e-05
3.552327954e-05
3.535059411e-05
3.525530407e-05
3.604254302e-05
3.590182579e-05
3.570426163e-05
3.546752805e-05
3.521223826e-05
3.496136697e-05
3.473927321e-05
3.457036932e-05
3.447717135e-05
3.524764332e-05
3.510996968e-05
3.491669529e-05
3.468513939e-05
3.443547352e-05
3.419016373e-05
3.397301923e-05
3.380789355e-05
3.371678405e-05
3.447046963e-05
3.433584447e-05
3.414686422e-05
3.392047835e-05
3.36764255e-05
3.34366627e-05
3.32244509e-05
3.306308794e-05
3.297405681e-05
3.371098712e-05
3.357940413e-05
3.339470566e-05
3.317347114e-05
3.293500519e-05
3.270075923e-05
3.249344973e-05
3.233582371e-05
3.224885535e-05
3.296910588e-05
3.284055019e-05
3.266011094e-05
3.244399458e-05
3.221107532e-05
3.198230246e-05
3.177985306e-05
3.162592944e-05
3.154100357e-05
3.224468897e-05
3.211913804e-05
3.194292454e-05
3.173188279e-05
3.150445789e-05
3.128110258e-05
3.108346092e-05
3.093319768e-05
3.085029003e-05
3.153755949e-05
3.141498439e-05
3.124295468e-05
3.103693513e-05
3.081494055e-05
3.059693684e-05
3.040404183e-05
3.025739061e-05
3.017647357e-05
3.084750623e-05
3.072787205e-05
3.055997555e-05
3.035891461e-05
3.014227992e-05
2.992955424e-05
2.974133783e-05
2.959824508e-05
2.951928829e-05
3.017428954e-05
3.005755671e-05
2.98937368e-05
2.969756509e-05
2.948621034e-05
2.927868146e-05
2.909506947e-05
2.895547724e-05
2.887844803e-05
2.951764585e-05
2.940377079e-05
2.924396539e-05
2.905260706e-05
2.884644583e-05
2.864402648e-05
2.846493968e-05
2.83287864e-05
2.825365024e-05
2.887729152e-05
2.876622704e-05
2.861036898e-05
2.8423742e-05
2.822268353e-05
2.802528195e-05
2.785063721e-05
2.771785849e-05
2.764457935e-05
2.825292669e-05
2.814462262e-05
2.799264056e-05
2.781065763e-05
2.761460786e-05
2.742212873e-05
2.725183983e-05
2.712236906e-05
2.70509098e-05
2.764423882e-05
2.753864281e-05
2.739046272e-05
2.721303468e-05
2.702189447e-05
2.683423905e-05
2.666821725e-05
2.65419861e-05
2.647230869e-05
2.705090553e-05
2.694796341e-05
2.680350875e-05
2.663054309e-05
2.644421131e-05
2.626127866e-05
2.609943339e-05
2.597637226e-05
2.590843809e-05
2.647259711e-05
2.637225336e-05
2.623144575e-05
2.606284783e-05
2.588122154e-05
2.570290907e-05
2.554514848e-05
2.542518695e-05
2.535895697e-05
2.590897887e-05
2.581117698e-05
2.567393672e-05
2.550961049e-05
2.533258538e-05
2.515878943e-05
2.500502087e-05
2.488808802e-05
2.482352299e-05
2.535971295e-05
2.526439579e-05
2.513064236e-05
2.497049088e-05
2.479796185e-05
2.462857813e-05
2.447870857e-05
2.436473328e-05
2.430179394e-05
2.482446007e-05
2.473157015e-05
2.460122261e-05
2.44451485e-05
2.427701009e-05
2.411193415e-05
2.396587054e-05
2.385478181e-05
2.379342896e-05
2.430288093e-05
2.421236068e-05
2.408533799e-05
2.393324384e-05
2.376939066e-05
2.360851826e-05
2.346616788e-05
2.335789502e-05
2.329808969e-05
2.379463745e-05
2.370642942e-05
2.358265075e-05
2.343443948e-05
2.327476655e-05
2.311799402e-05
2.297926475e-05
2.28737376e-05
2.281544118e-05
2.329939388e-05
2.321344092e-05
2.309282591e-05
2.294840106e-05
2.279280417e-05
2.264002867e-05
2.250482924e-05
2.240197838e-05
2.234515266e-05
2.281681768e-05
2.273306313e-05
2.261553213e-05
2.247479812e-05
2.232317406e-05
2.217429387e-05
2.204253408e-05
2.194229094e-05
2.188689823e-05
2.234658039e-05
2.226496819e-05
2.215044244e-05
2.20133048e-05
2.186555162e-05
2.172046635e-05
2.159205725e-05
2.149435427e-05
2.144035745e-05
2.188835826e-05
2.18088331e-05
2.16972349e-05
2.156360046e-05
2.141961768e-05
2.127822845e-05
2.11530825e-05
2.105785322e-05
2.100521581e-05
2.144183289e-05
2.13643403e-05
2.125559314e-05
2.112537022e-05
2.098505899e-05
2.084726859e-05
2.072529977e-05
2.063247895e-05
2.058116511e-05
2.100669172e-05
2.093117815e-05
2.082520686e-05
2.06983054e-05
2.056156863e-05
2.042728166e-05
2.03084056e-05
2.021792923e-05
2.016790386e-05
2.058262848e-05
2.05090414e-05
2.040577223e-05
2.028210387e-05
2.014884638e-05
2.001796933e-05
1.990210335e-05
1.981390876e-05
1.976513746e-05
2.016934357e-05
2.009763151e-05
1.999699221e-05
1.987647043e-05
1.974659901e-05
1.961904035e-05
1.950610355e-05
1.942012938e-05
1.937257848e-05
1.976654438e-05
1.969665699e-05
1.959857689e-05
1.948111707e-05
1.935454057e-05
1.923021077e-05
1.912012403e-05
1.903631026e-05
1.898994678e-05
1.937394561e-05
1.93058337e-05
1.921024375e-05
1.909576321e-05
1.897239255e-05
1.885120415e-05
1.87438901e-05
1.866217801e-05
1.861696968e-05
1.899126952e-05
1.892488507e-05
1.88317179e-05
1.872013594e-05
1.859988417e-05
1.848175173e-05
1.837713475e-05
1.829746688e-05
1.825338201e-05
1.861824617e-05
1.855354239e-05
1.846273231e-05
1.835397023e-05
1.82367525e-05
1.812159259e-05
1.801959875e-05
1.794191879e-05
1.789892628e-05
1.825461369e-05
1.819154502e-05
1.810302806e-05
1.799700922e-05
1.788274276e-05
1.777047388e-05
1.767103086e-05
1.759528359e-05
1.755335279e-05
1.79001185e-05
1.783864064e-05
1.775235465e-05
1.764900464e-05
1.753760851e-05
1.742815105e-05
1.733118803e-05
1.725731918e-05
1.721641984e-05
1.755451554e-05
1.749458544e-05
1.741046988e-05
1.730971601e-05
1.720111175e-05
1.709438805e-05
1.699983568e-05
1.69277919e-05
1.688789406e-05
1.721756866e-05
1.715914453e-05
1.707714063e-05
1.697891214e-05
1.687302351e-05
1.676895783e-05
1.667674819e-05
1.660647694e-05
1.65675509e-05
1.688905095e-05
1.683209243e-05
1.675214335e-05
1.665637187e-05
1.655312455e-05
1.645164292e-05
1.636170946e-05
1.6293159e-05
1.625517532e-05
1.656874515e-05
1.651321338e-05
1.643526451e-05
1.634188437e-05
1.624120579e-05
1.614223604e-05
1.605451368e-05
1.598763317e-05
1.59505627e-05
1.625644397e-05
1.620230164e-05
1.612630039e-05
1.603524818e-05
1.593706852e-05
1.584054077e-05
1.57549662e-05
1.568970598e-05
1.56535201e-05
1.595195078e-05
1.589916227e-05
1.582505838e-05
1.573627327e-05
1.564052566e-05
1.554637266e-05
1.54628848e-05
1.539919684e-05
1.536386778e-05
1.565508066e-05
1.560361229e-05
1.553135832e-05
1.5444783e-05
1.535140327e-05
1.52595607e-05
1.517810124e-05
1.511593976e-05
1.508144111e-05
1.536566151e-05
1.531548184e-05
1.524503348e-05
1.51606134e-05
1.506954118e-05
1.497994857e-05
1.490046289e-05
1.48397853e-05
1.480609271e-05
1.508353592e-05
1.503461598e-05
1.496593231e-05
1.488361609e-05
1.479479503e-05
1.470739644e-05
1.462983467e-05
1.457060275e-05
1.453769486e-05
1.480856321e-05
1.476087678e-05
1.469392043e-05
1.461365958e-05
1.452703777e-05
1.444178282e-05
1.436610114e-05
1.430828244e-05
1.4276142e-05
1.454062205e-05
1.449414586e-05
1.442888006e-05
1.435062978e-05
1.426616084e-05
1.418300611e-05
1.410916852e-05
1.405273816e-05
1.402135336e-05
1.427961195e-05
1.42343215e-05
1.417070996e-05
1.409443057e-05
1.401207534e-05
1.393098632e-05
1.385896673e-05
1.380390946e-05
1.377327549e-05
1.402544256e-05
1.398131288e-05
1.391932502e-05
1.384498444e-05
1.376471338e-05
1.36856669e-05
1.36154516e-05
1.356176416e-05
1.353188487e-05
1.377803234e-05
1.37350448e-05
1.367465819e-05
1.360223444e-05
1.352403011e-05
1.344701698e-05
1.337860734e-05
1.332630092e-05
1.329719051e-05
1.35373184e-05
1.349546149e-05
1.343666343e-05
1.336614676e-05
1.329000641e-05
1.321503417e-05
1.314844939e-05
1.309755204e-05
1.306923672e-05
1.330326026e-05
1.326253026e-05
1.320531919e-05
1.313671409e-05
1.306265205e-05
1.298974769e-05
1.292502755e-05
1.287558652e-05
1.284810592e-05
1.307584307e-05
1.303624495e-05
1.298063202e-05
1.29139594e-05
1.284200973e-05
1.277122243e-05
1.27084298e-05
1.266051357e-05
1.26339219e-05
1.285508141e-05
1.281662995e-05
1.276264088e-05
1.269794047e-05
1.262815969e-05
1.255956359e-05
1.249878685e-05
1.245248676e-05
1.242685349e-05
1.264102393e-05
1.260374522e-05
1.255142239e-05
1.248875543e-05
1.242122544e-05
1.235492242e-05
1.229627759e-05
1.225170903e-05
1.222711905e-05
1.24337592e-05
1.239769236e-05
1.234709732e-05
1.228654951e-05