/*--------------------------------*- C++ -*----------------------------------*\
| =========                 |                                                 |
| \\      /  F ield         | OpenFOAM: The Open Source CFD Toolbox           |
|  \\    /   O peration     | Version:  2212                                  |
|   \\  /    A nd           | Website:  www.openfoam.com                      |
|    \\/     M anipulation  |                                                 |
\*---------------------------------------------------------------------------*/
FoamFile
{
    version     2.0;
    format      ascii;
    arch        "LSB;label=32;scalar=64";
    class       volScalarField;
    location    "20.00000000";
    object      C4H6_0;
}
// * * * * * * * * * * * * * * * * * * * * * * * * * * * * * * * * * * * * * //

dimensions      [0 0 0 0 0 0 0];

internalField   nonuniform List<scalar> 
3000
(
3.173468192e-24
3.564982323e-24
4.155775232e-24
4.943060842e-24
5.918838716e-24
7.056613269e-24
8.287840355e-24
9.462672162e-24
1.029343329e-23
1.191459815e-23
1.343849431e-23
1.573706023e-23
1.880691442e-23
2.264502002e-23
2.723010613e-23
3.248258527e-23
3.813729841e-23
4.314646038e-23
2.668803169e-23
3.033778467e-23
3.589543152e-23
4.344147521e-23
5.311163975e-23
6.504622188e-23
7.919826158e-23
9.477320794e-23
1.080845895e-22
5.083379248e-23
5.839097827e-23
7.006736322e-23
8.625806228e-23
1.07536711e-22
1.344440283e-22
1.668332141e-22
2.021113708e-22
2.305860721e-22
9.026791516e-23
1.049601629e-22
1.280180887e-22
1.606130184e-22
2.042781085e-22
2.602372575e-22
3.275557294e-22
3.99045584e-22
4.539242006e-22
1.552235448e-22
1.827994694e-22
2.266975217e-22
2.897193909e-22
3.752270828e-22
4.853723588e-22
6.16865734e-22
7.531249349e-22
8.539343907e-22
2.635176203e-22
3.141734328e-22
3.957524519e-22
5.141938231e-22
6.760938169e-22
8.84671863e-22
1.131301841e-21
1.381885114e-21
1.562698632e-21
4.459700151e-22
5.376488627e-22
6.866083388e-22
9.045528178e-22
1.203640738e-21
1.588181149e-21
2.038883709e-21
2.490146436e-21
2.810334231e-21
7.559857749e-22
9.201586562e-22
1.188633867e-21
1.583437006e-21
2.126198389e-21
2.822141331e-21
3.631955441e-21
4.434342685e-21
4.997382128e-21
1.286043612e-21
1.577722704e-21
2.056898888e-21
2.763830026e-21
3.736297387e-21
4.97995675e-21
6.419090338e-21
7.8345693e-21
8.820433951e-21
2.196388619e-21
2.711554453e-21
3.560574201e-21
4.815680825e-21
6.54229283e-21
8.745461287e-21
1.128439979e-20
1.376880241e-20
1.54904766e-20
3.764745742e-21
4.670605283e-21
6.166786504e-21
8.381390848e-21
1.142731538e-20
1.530695655e-20
1.976434806e-20
2.41102984e-20
2.711162954e-20
6.472625093e-21
8.060199045e-21
1.068630923e-20
1.457645594e-20
1.992530758e-20
2.672864252e-20
3.452780662e-20
4.21127411e-20
4.733864038e-20
1.115508603e-20
1.393056894e-20
1.852647664e-20
2.533787311e-20
3.470044821e-20
4.659572102e-20
6.020957686e-20
7.342585207e-20
8.25180492e-20
1.926070349e-20
2.410423012e-20
3.21305076e-20
4.402964789e-20
6.038097063e-20
8.113743043e-20
1.048626767e-19
1.278657555e-19
1.43679281e-19
3.330276731e-20
4.174426328e-20
5.574046855e-20
7.649553705e-20
1.050123344e-19
1.411923793e-19
1.825126104e-19
2.225369446e-19
2.500383561e-19
5.764225359e-20
7.234031574e-20
9.672057382e-20
1.328837942e-19
1.825742414e-19
2.456133597e-19
3.175964413e-19
3.872818245e-19
4.35055282e-19
9.984666947e-20
1.254189422e-19
1.678489122e-19
2.307932089e-19
3.172737441e-19
4.269479226e-19
5.521097195e-19
6.731893417e-19
7.561675876e-19
1.730503541e-19
2.175169602e-19
2.91310923e-19
4.00789596e-19
5.511856924e-19
7.418580593e-19
9.593611671e-19
1.169678908e-18
1.313776641e-18
3.00052862e-19
3.773435323e-19
5.056271571e-19
6.959509626e-19
9.573808868e-19
1.288746008e-18
1.66662196e-18
2.031894495e-18
2.282086476e-18
5.204348206e-19
6.547424408e-19
8.776792323e-19
1.208433968e-18
1.66271683e-18
2.238414344e-18
2.894748546e-18
3.529014131e-18
3.963361931e-18
9.029119517e-19
1.136251753e-18
1.523587902e-18
2.098234415e-18
2.887407588e-18
3.887308395e-18
5.02698273e-18
6.128049787e-18
6.881906112e-18
1.56677991e-18
1.972113224e-18
2.64495129e-18
3.643096653e-18
5.013666743e-18
6.749826706e-18
8.728142939e-18
1.063889551e-17
1.194677197e-17
2.719122737e-18
3.423131283e-18
4.591701503e-18
6.325054121e-18
8.704680415e-18
1.171823475e-17
1.515099352e-17
1.846537961e-17
2.073331083e-17
4.719352453e-18
5.941949481e-18
7.971107353e-18
1.098043588e-17
1.511067433e-17
2.033936287e-17
2.629292731e-17
3.203868906e-17
3.596876511e-17
8.191059429e-18
1.03138892e-17
1.383659173e-17
1.905954598e-17
2.622531027e-17
3.529260903e-17
4.561136036e-17
5.556427188e-17
6.236841005e-17
1.421561606e-17
1.790066832e-17
2.401430417e-17
3.30754253e-17
4.550091028e-17
6.121393345e-17
7.908283426e-17
9.630515411e-17
1.080704847e-16
2.466681137e-17
3.106152069e-17
4.166702141e-17
5.737787951e-17
7.890793362e-17
1.061121308e-16
1.370195565e-16
1.667786261e-16
1.870888613e-16
4.278809885e-17
5.387925785e-17
7.22654556e-17
9.948479696e-17
1.367537257e-16
1.837942759e-16
2.371721368e-16
2.884987856e-16
3.234840989e-16
7.418592591e-17
9.34087477e-17
1.252562872e-16
1.723641118e-16
2.367922397e-16
3.1800047e-16
4.10001775e-16
4.983162019e-16
5.584134403e-16
1.285339316e-16
1.618165937e-16
2.169159773e-16
2.98328545e-16
4.095151361e-16
5.494132881e-16
7.075827806e-16
8.590832392e-16
9.619601363e-16
2.224863216e-16
2.800336481e-16
3.752113462e-16
5.156487798e-16
7.071016139e-16
9.474617133e-16
1.218524073e-15
1.477452191e-15
1.652814207e-15
3.846376492e-16
4.83960927e-16
6.480340604e-16
8.897142955e-16
1.21845253e-15
1.630045019e-15
2.092765279e-15
2.533303025e-15
2.830701152e-15
6.63926223e-16
8.349573047e-16
1.117065185e-15
1.531736828e-15
2.09424437e-15
2.796198724e-15
3.582383582e-15
4.327898231e-15
4.82924607e-15
1.14379565e-15
1.437455232e-15
1.920955967e-15
2.629843939e-15
3.588306588e-15
4.779658863e-15
6.108030968e-15
7.361794524e-15
8.201155208e-15
1.965917594e-15
2.468347858e-15
3.293782067e-15
4.500311355e-15
6.125279424e-15
8.135742099e-15
1.036584952e-14
1.245938434e-14
1.385379581e-14
3.369670131e-15
4.225646477e-15
5.628286693e-15
7.671157462e-15
1.041005446e-14
1.378062801e-14
1.749742785e-14
2.096548533e-14
2.326227808e-14
5.757365738e-15
7.208388578e-15
9.578925362e-15
1.30171194e-14
1.760278083e-14
2.321193954e-14
2.935657782e-14
3.505172238e-14
3.880011075e-14
9.801189551e-15
1.224671855e-14
1.622809724e-14
2.197519657e-14
2.959539979e-14
3.88537434e-14
4.892280972e-14
5.818803261e-14
6.424595571e-14
1.661705921e-14
2.071167148e-14
2.735151861e-14
3.688493896e-14
4.944334406e-14
6.458947962e-14
8.093426948e-14
9.585951384e-14
1.055510808e-13
2.804476592e-14
3.485017876e-14
4.583730943e-14
6.15194798e-14
8.203139715e-14
1.065752831e-13
1.328452054e-13
1.566438689e-13
1.719887711e-13
4.709508509e-14
5.831457565e-14
7.634057442e-14
1.019047191e-13
1.35088768e-13
1.744670132e-13
2.162584216e-13
2.538138228e-13
2.778583249e-13
7.865622121e-14
9.69907223e-14
1.262945645e-13
1.675688464e-13
2.207193735e-13
2.832516909e-13
3.490467369e-13
4.076975745e-13
4.449880292e-13
1.305982939e-13
1.602792425e-13
2.074556832e-13
2.734277569e-13
3.57684911e-13
4.55954369e-13
5.58466238e-13
6.491261231e-13
7.063814953e-13
2.154814006e-13
2.630564201e-13
3.382391864e-13
4.426010452e-13
5.747785218e-13
7.276035715e-13
8.856877334e-13
1.024429468e-12
1.111490629e-12
3.531679119e-13
4.286432055e-13
5.472143285e-13
7.10577998e-13
9.157666483e-13
1.150994419e-12
1.392344432e-12
1.60262824e-12
1.733790825e-12
5.747735909e-13
6.932537551e-13
8.782841459e-13
1.131326878e-12
1.446571035e-12
1.805004866e-12
2.169931333e-12
2.485722244e-12
2.681599429e-12
9.28579205e-13
1.112594297e-12
1.398292786e-12
1.786182248e-12
2.265632079e-12
2.806519395e-12
3.353219243e-12
3.823328379e-12
4.113443769e-12
1.488784344e-12
1.771560056e-12
2.208105367e-12
2.796679436e-12
3.51876662e-12
4.327426366e-12
5.139296713e-12
5.833402602e-12
6.259785888e-12
2.368345996e-12
2.79836227e-12
3.45862404e-12
4.342967501e-12
5.420345573e-12
6.618720754e-12
7.814470139e-12
8.831442339e-12
9.453596659e-12
3.737645216e-12
4.384950748e-12
5.373784123e-12
6.690070225e-12
8.283319849e-12
1.004451576e-11
1.179209216e-11
1.327145853e-11
1.417321419e-11
5.851421286e-12
6.816340972e-12
8.28338275e-12
1.022515246e-11
1.256159026e-11
1.512981753e-11
1.766553455e-11
1.98032397e-11
2.110219313e-11
9.087379931e-12
1.051249471e-11
1.266964484e-11
1.550997511e-11
1.89093808e-11
2.26273219e-11
2.628212009e-11
2.935218085e-11
3.121262685e-11
1.400024665e-11
1.608663855e-11
1.923210251e-11
2.335435284e-11
2.826446964e-11
3.361083624e-11
3.884617001e-11
4.323018695e-11
4.588074487e-11
2.139896877e-11
2.442858548e-11
2.897969493e-11
3.491917686e-11
4.196388151e-11
4.960445439e-11
5.706117365e-11
6.328857357e-11
6.704627473e-11
3.245500595e-11
3.682106617e-11
4.33589154e-11
5.185961652e-11
6.190442108e-11
7.276139633e-11
8.332607922e-11
9.212867881e-11
9.743157912e-11
4.885377692e-11
5.510208789e-11
6.443216142e-11
7.652372568e-11
9.076457803e-11
1.061104429e-10
1.21005024e-10
1.333906026e-10
1.408416712e-10
7.300571196e-11
8.189070293e-11
9.512503867e-11
1.122269792e-10
1.32310307e-10
1.53894522e-10
1.74797028e-10
1.921483329e-10
2.025745573e-10
1.083392655e-10
1.208998039e-10
1.395680633e-10
1.636304624e-10
1.918150185e-10
2.220346466e-10
2.512419366e-10
2.754506406e-10
2.899834566e-10
1.597060311e-10
1.773676932e-10
2.035668356e-10
2.372597394e-10
2.766343681e-10
3.187640263e-10
3.594121436e-10
3.930613509e-10
4.132466669e-10
2.339379393e-10
2.586504553e-10
2.952457872e-10
3.422136893e-10
3.969906152e-10
4.554936916e-10
5.118576074e-10
5.584703807e-10
5.86418006e-10
3.406088247e-10
3.750304059e-10
4.259256001e-10
4.911303582e-10
5.670423898e-10
6.479942175e-10
7.258951539e-10
7.902709534e-10
8.288563925e-10
4.930700883e-10
5.408156725e-10
6.113177372e-10
7.015040649e-10
8.063449672e-10
9.180072536e-10
1.025363242e-09
1.114031803e-09
1.167168612e-09
7.098600703e-10
7.758387936e-10
8.731550147e-10
9.974838447e-10
1.141840726e-09
1.29543673e-09
1.443004533e-09
1.564838027e-09
1.637845617e-09
1.016631263e-09
1.10750583e-09
1.241418155e-09
1.412322363e-09
1.610561813e-09
1.821319544e-09
2.023694335e-09
2.190733356e-09
2.29083382e-09
1.44878251e-09
1.573588416e-09
1.757360246e-09
1.99169378e-09
2.263286986e-09
2.551843181e-09
2.828805937e-09
3.057374114e-09
3.194363383e-09
2.055025475e-09
2.226000291e-09
2.477591624e-09
2.798171512e-09
3.169475189e-09
3.563764988e-09
3.942098189e-09
4.254305908e-09
4.441460296e-09
2.902186349e-09
3.135879918e-09
3.479575851e-09
3.917251243e-09
4.423900309e-09
4.961698699e-09
5.477631071e-09
5.903402813e-09
6.158702914e-09
4.081645209e-09
4.400405072e-09
4.868996416e-09
5.46542147e-09
6.155538164e-09
6.887872234e-09
7.590365358e-09
8.17016907e-09
8.517949922e-09
5.717934633e-09
6.151889344e-09
6.78958518e-09
7.600924703e-09
8.539410924e-09
9.535128928e-09
1.049028387e-08
1.127879582e-08
1.175196601e-08
7.980159993e-09
8.569856441e-09
9.43615859e-09
1.053802043e-08
1.181227565e-08
1.316413982e-08
1.446108056e-08
1.553208507e-08
1.617509777e-08
1.109706591e-08
1.189695771e-08
1.307178692e-08
1.456575073e-08
1.62932451e-08
1.812600781e-08
1.988468733e-08
2.133758478e-08
2.221038863e-08
1.537675628e-08
1.645978535e-08
1.805021444e-08
2.007240836e-08
2.241063412e-08
2.48916542e-08
2.7273121e-08
2.924149239e-08
3.042473468e-08
2.12322628e-08
2.269582146e-08
2.484483535e-08
2.757709156e-08
3.07365028e-08
3.408954664e-08
3.730928863e-08
3.997202692e-08
4.157381767e-08
2.921432473e-08
3.11879234e-08
3.408567774e-08
3.77698573e-08
4.203046921e-08
4.655339553e-08
5.089842083e-08
5.449396679e-08
5.665852423e-08
4.005285142e-08
4.270783476e-08
4.660590476e-08
5.156199742e-08
5.729431865e-08
6.3381332e-08
6.923161597e-08
7.407579816e-08
7.699426851e-08
5.470853014e-08
5.827016458e-08
6.349923751e-08
7.014777746e-08
7.783865332e-08
8.600768357e-08
9.386246298e-08
1.003702984e-07
1.04293939e-07
7.443583972e-08
7.919801653e-08
8.618935286e-08
9.507850699e-08
1.053622078e-07
1.162876812e-07
1.267967638e-07
1.355082842e-07
1.407640258e-07
1.00858248e-07
1.07200885e-07
1.16511621e-07
1.283489603e-07
1.420434159e-07
1.565941849e-07
1.705939194e-07
1.822036619e-07
1.892118085e-07
1.360555219e-07
1.444644838e-07
1.568064473e-07
1.724948773e-07
1.906423013e-07
2.099237532e-07
2.284765873e-07
2.438657489e-07
2.53159112e-07
1.826618011e-07
1.937507881e-07
2.100219382e-07
2.30698523e-07
2.546088055e-07
2.800072667e-07
3.044428894e-07
3.247121752e-07
3.369550632e-07
2.439713696e-07
2.585047394e-07
2.798216463e-07
3.068972095e-07
3.381915057e-07
3.714180151e-07
4.033729155e-07
4.298731986e-07
4.458794368e-07
3.240469566e-07
3.429619385e-07
3.70691031e-07
4.05887553e-07
4.465383544e-07
4.896675289e-07
5.311187646e-07
5.654772022e-07
5.862246268e-07
4.278231908e-07
4.522495243e-07
4.880339653e-07
5.334157173e-07
5.857785449e-07
6.412776692e-07
6.945673699e-07
7.387044485e-07
7.653437258e-07
5.611956702e-07
5.92470015e-07
6.382485626e-07
6.962419278e-07
7.630739532e-07
8.338181185e-07
9.016629504e-07
9.577967677e-07
9.916522674e-07
7.3108365e-07
7.707556798e-07
8.287693418e-07
9.02168206e-07
9.866292808e-07
1.075896524e-06
1.161377819e-06
1.232012111e-06
1.274572858e-06
9.454539239e-07
9.952827854e-07
1.068067059e-06
1.160018405e-06
1.265649119e-06
1.377091541e-06
1.483622498e-06
1.571515821e-06
1.624415149e-06
1.21329725e-06
1.275235126e-06
1.365593495e-06
1.479560051e-06
1.610233893e-06
1.747822014e-06
1.879089928e-06
1.987204769e-06
2.052188167e-06
1.544544937e-06
1.620706554e-06
1.7316639e-06
1.871362117e-06
2.031210377e-06
2.199150011e-06
2.359033536e-06
2.490465821e-06
2.569347472e-06
1.949920054e-06
2.042537774e-06
2.177273477e-06
2.346587115e-06
2.539897481e-06
2.742520836e-06
2.934984499e-06
3.092875786e-06
3.187485397e-06
2.440721723e-06
2.552087122e-06
2.713849454e-06
2.916721247e-06
3.147813503e-06
3.389448669e-06
3.618419118e-06
3.805855489e-06
3.917977958e-06
3.028546502e-06
3.160940637e-06
3.352945888e-06
3.593251952e-06
3.866336494e-06
4.15116171e-06
4.420392064e-06
4.640295124e-06
4.771606387e-06
3.724956657e-06
3.880572406e-06
4.105893784e-06
4.387307275e-06
4.706334062e-06
5.03822484e-06
5.351154849e-06
5.606171173e-06
5.75817399e-06
4.541110394e-06
4.721971177e-06
4.983423735e-06
5.309275568e-06
5.677782275e-06
6.060160401e-06
6.419780784e-06
6.712176438e-06
6.886140013e-06
5.487373279e-06
5.69525298e-06
5.995281443e-06
6.368426428e-06
6.789394984e-06
7.225088528e-06
7.633817659e-06
7.965384164e-06
8.162291198e-06
6.57293259e-06
6.809281569e-06
7.149857895e-06
7.57255444e-06
8.048284614e-06
8.539407345e-06
8.998987599e-06
9.370964806e-06
9.591469039e-06
7.805436855e-06
8.071318556e-06
8.453855427e-06
8.927665992e-06
9.459673459e-06
1.000753059e-05
1.051895014e-05
1.09319702e-05
1.117636666e-05
9.19068143e-06
9.486723291e-06
9.912008519e-06
1.043772642e-05
1.102667088e-05
1.163169605e-05
1.219514e-05
1.264919505e-05
1.291740434e-05
1.073235772e-05
1.105871902e-05
1.152687428e-05
1.210448051e-05
1.275012715e-05
1.341185337e-05
1.402668597e-05
1.45211204e-05
1.481268722e-05
1.243187905e-05
1.278823708e-05
1.329870263e-05
1.392735412e-05
1.462856949e-05
1.534563421e-05
1.601041179e-05
1.654393849e-05
1.685804396e-05
1.428829091e-05
1.467384553e-05
1.522539071e-05
1.590343943e-05
1.665822036e-05
1.742840287e-05
1.814091537e-05
1.871165372e-05
1.904713991e-05
1.629826728e-05
1.671176288e-05
1.730252066e-05
1.802756107e-05
1.883309339e-05
1.965338091e-05
2.041071812e-05
2.101625058e-05
2.137165543e-05
1.845618989e-05
1.889595256e-05
1.952347506e-05
2.029241576e-05
2.114515822e-05
2.201183547e-05
2.281047319e-05
2.344791649e-05
2.382151663e-05
2.075430203e-05
2.121828924e-05
2.187962012e-05
2.268877473e-05
2.358456228e-05
2.449331877e-05
2.532921947e-05
2.599530606e-05
2.638516498e-05
2.318292546e-05
2.366878498e-05
2.436054402e-05
2.520573562e-05
2.613989587e-05
2.708594467e-05
2.795466697e-05
2.864583226e-05
2.90498514e-05
2.57307261e-05
2.623586073e-05
2.695433602e-05
2.78310094e-05
2.879848608e-05
2.977668792e-05
3.067349954e-05
3.138597085e-05
3.180194107e-05
2.838501354e-05
2.890664842e-05
2.964789124e-05
3.055122751e-05
3.154670519e-05
3.255169244e-05
3.347168166e-05
3.420156516e-05
3.462721677e-05
3.113205889e-05
3.166730824e-05
3.242722682e-05
3.335225559e-05
3.437028051e-05
3.539657607e-05
3.633475773e-05
3.707812032e-05
3.751116976e-05
3.395741684e-05
3.450334772e-05
3.527779608e-05
3.621950106e-05
3.725459405e-05
3.829672143e-05
3.924813408e-05
4.000107788e-05
4.043926986e-05
3.684623929e-05
3.739993017e-05
3.818478949e-05
3.913820451e-05
4.018496267e-05
4.123754434e-05
4.219733629e-05
4.295606399e-05
4.339720831e-05
3.97835701e-05
4.034216288e-05
4.113341328e-05
4.209370638e-05
4.31468916e-05
4.420473372e-05
4.516823649e-05
4.592910671e-05
4.63711091e-05
4.275461289e-05
4.331535733e-05
4.41091389e-05
4.507168339e-05
4.612629631e-05
4.71844589e-05
4.814724744e-05
4.890681958e-05
4.934770655e-05
4.574496637e-05
4.630525652e-05
4.7097919e-05
4.80583508e-05
4.910968999e-05
5.016354239e-05
5.112148204e-05
5.187655087e-05
5.231448855e-05
4.874082367e-05
4.929822624e-05
5.008636753e-05
5.104062909e-05
5.208433567e-05
5.312959772e-05
5.407887846e-05
5.482649889e-05
5.525980639e-05
5.172913465e-05
5.228140971e-05
5.306190351e-05
5.400627487e-05
5.503836355e-05
5.607113348e-05
5.700829248e-05
5.774579529e-05
5.817295288e-05
5.469773134e-05
5.524284583e-05
5.601285946e-05
5.694397769e-05
5.796085538e-05
5.897762568e-05
5.989955932e-05
6.062455894e-05
6.104421175e-05
5.763541857e-05
5.817155344e-05
5.892855674e-05
5.984342499e-05
6.084189845e-05
6.183956131e-05
6.274352807e-05
6.345392351e-05
6.38648814e-05
6.053203237e-05
6.105758415e-05
6.179935084e-05
6.269533848e-05
6.367261275e-05
6.464845656e-05
6.553207231e-05
6.622604226e-05
6.662727644e-05
6.33784697e-05
6.389204749e-05
6.461665009e-05
6.549148551e-05
6.644515457e-05
6.739685326e-05
6.825808028e-05
6.893407362e-05
6.932471078e-05
6.616669337e-05
6.666711201e-05
6.73729117e-05
6.822466914e-05
6.915270059e-05
7.007829715e-05
7.091542833e-05
7.157215108e-05
7.19514655e-05
6.888971607e-05
6.93759864e-05
7.006161892e-05
7.088870084e-05
7.178941586e-05
7.268730164e-05
7.349894107e-05
7.41353407e-05
7.450274496e-05
7.154156738e-05
7.201288443e-05
7.267724306e-05
7.347835917e-05
7.435040926e-05
7.521930023e-05
7.600434133e-05
7.66195893e-05
7.697462404e-05
7.411724761e-05
7.457297725e-05
7.521519384e-05
7.598933806e-05
7.683167955e-05
7.767059071e-05
7.842819282e-05
7.902166604e-05
7.936398917e-05
7.661267165e-05
7.705233637e-05
7.76717613e-05
7.841818739e-05
7.923005492e-05
8.003827364e-05
8.076783791e-05
8.133909982e-05
8.166847556e-05
7.902460601e-05
7.944787036e-05
8.004405196e-05
8.076224878e-05
8.154312833e-05
8.232018761e-05
8.302133285e-05
8.357011446e-05
8.388640241e-05
8.135060153e-05
8.175725757e-05
8.232992165e-05
8.301958858e-05
8.376919087e-05
8.451484298e-05
8.518738196e-05
8.571356345e-05
8.601670797e-05
8.358892409e-05
8.397887713e-05
8.452790708e-05
8.518893014e-05
8.590716484e-05
8.662135584e-05
8.726527252e-05
8.776886545e-05
8.805888546e-05
8.573848504e-05
8.611174003e-05
8.663715765e-05
8.726958665e-05
8.79565378e-05
8.863938333e-05
8.925481123e-05
8.973594179e-05
9.001292119e-05
8.779877287e-05
8.815542146e-05
8.865736895e-05
8.926139599e-05
8.991729886e-05
9.056906144e-05
9.115626337e-05
9.161515669e-05
9.187923537e-05
8.976978716e-05
9.010999569e-05
9.058871883e-05
9.116465825e-05
9.178987788e-05
9.24109458e-05
9.297029511e-05
9.340726079e-05
9.365862635e-05
9.165197582e-05
9.197597416e-05
9.24318068e-05
9.298007676e-05
9.357508817e-05
9.416595614e-05
9.469791956e-05
9.511333836e-05
9.535221852e-05
9.34461759e-05
9.375424736e-05
9.418759725e-05
9.470870288e-05
9.527407309e-05
9.583532467e-05
9.634044664e-05
9.673475845e-05
9.696141422e-05
9.515355873e-05
9.54460308e-05
9.585736682e-05
9.635188504e-05
9.688825682e-05
9.742054849e-05
9.789943713e-05
9.827313011e-05
9.848784956e-05
9.677557924e-05
9.705281539e-05
9.744265602e-05
9.79112219e-05
9.841929921e-05
9.892334619e-05
9.937666066e-05
9.973026158e-05
9.993335436e-05
9.831392976e-05
9.857632207e-05
9.89452252e-05
9.938851983e-05
9.986905484e-05
0.0001003456185
0.0001007740578
0.0001011081234
0.0001012999159
9.977049818e-05
0.0001000184608
0.0001003670147
0.0001007857545
0.0001012395362
0.0001016894127
0.0001020937061
0.0001024088156
0.0001025896464
0.0001011473302
0.0001013812938
0.000101710109
0.0001021050363
0.0001025328806
0.0001029568915
0.0001033377895
0.0001036345377
0.0001038047542
0.000102446596
0.0001026670025
0.0001029767053
0.0001033485801
0.0001037513208
0.0001041503043
0.0001045085713
0.0001047875633
0.0001049475182
0.00010367056
0.0001038778586
0.0001041690846
0.0001045186776
0.0001048971592
0.000105271963
0.0001056083709
0.0001058702169
0.0001060202653
0.0001048215553
0.0001050161986
0.0001052895878
0.0001056176744
0.0001059727453
0.00010632422
0.0001066395428
0.0001068848536
0.0001070253508
0.0001059019604
0.0001060844011
0.0001063405937
0.0001066479484
0.0001069804558
0.0001073094499
0.0001076044585
0.0001078338422
0.0001079651418
0.0001069141792
0.0001070848679
0.0001073245001
0.0001076118926
0.0001079226775
0.0001082300326
0.0001085054913
0.0001087195503
0.0001088420019
0.0001078606241
0.0001080200065
0.0001082437079
0.0001085118993
0.0001088017927
0.00010908834
0.0001093450029
0.0001095443312
0.0001096582797
0.0001087437013
0.0001088922167
0.0001091006074
0.0001093503471
0.0001096201669
0.0001098867238
0.0001101253324
0.0001103105136
0.0001104162973
0.0001095657983
0.000109703878
0.0001098975667
0.0001101295898
0.0001103801381
0.0001106275059
0.0001108487866
0.000111020392
0.0001111183422
0.0001103292737
0.0001104573397
0.0001106369217
0.0001108519473
0.0001110840081
0.00011131297
0.0001115176321
0.0001116762197
0.0001117666599
0.0001110364486
0.0001111549124
0.0001113209686
0.0001115196977
0.0001117340355
0.0001119453547
0.0001121340895
0.0001122802028
0.0001123634476
0.0001116895988
0.0001117988611
0.0001119519565
0.0001121350713
0.0001123324295
0.000112526848
0.0001127003275
0.0001128344944
0.0001129108497
0.0001122909495
0.0001123913993
0.0001125320825
0.0001127002451
0.0001128813454
0.0001130595832
0.0001132184592
0.0001133411919
0.000113410954
0.0001128426699
0.0001129346842
0.0001130634869
0.0001132173389
0.0001133828804
0.000113545635
0.0001136905386
0.0001138023329
0.0001138657889
0.0001133468694
0.000113430813
0.00011354825
0.0001136884122
0.0001138390711
0.0001139870171
0.0001141185587
0.0001142198938
0.0001142773209
0.0001138055954
0.0001138818213
0.0001139883897
0.000114115462
0.0001142518917
0.0001143856804
0.0001145044493
0.0001145957878
0.0001146474537
0.0001142208312
0.00011428968
0.0001143858599
0.0001145004212
0.0001146232519
0.0001147435118
0.0001148500763
0.0001149318644
0.000114978027
0.0001145944953
0.0001146562953
0.0001147425495
0.0001148451579
0.0001149549972
0.0001150623339
0.0001151572415
0.0001152299088
0.0001152708165
0.0001149284404
0.000114983508
0.0001150602823
0.0001151514752
0.000115248908
0.0001153439044
0.0001154276822
0.0001154916421
0.0001155275339
0.0001152244539
0.0001152730935
0.0001153408169
0.0001154211113
0.0001155067003
0.0001155899171
0.0001156630719
0.000115718722
0.0001157498277
0.0001154842579
0.0001155267623
0.0001155858471
0.0001156557401
0.0001157300262
0.0001158020023
0.0001158650211
0.0001159127433
0.0001159392835
0.0001157095103
0.0001157461605
0.000115797003
0.000115856972
0.0001159204748
0.0001159817278
0.0001160350781
0.0001160752392
0.0001160974257
0.0001159018052
0.0001159328713
0.0001159758517
0.0001160263552
0.0001160795734
0.0001161306
0.0001161747308
0.0001162076825
0.0001162257186
0.0001160626748
0.0001160884158
0.0001161238991
0.0001161653768
0.0001162087889
0.0001162500655
0.0001162854072
0.000116311487
0.0001163255676
0.0001161935902
0.0001162142544
0.0001162425906
0.0001162754642
0.0001163095289
0.0001163415126
0.0001163684778
0.0001163880092
0.000116398321
0.0001162959631
0.0001163117887
0.0001163333131
0.0001163579868
0.000116383144
0.0001164062725
0.0001164252568
0.0001164385497
0.0001164452717
0.0001163711476
0.0001163823627
0.0001163973968
0.0001164142579
0.0001164309287
0.0001164456216
0.0001164570038
0.0001164643552
0.0001164676586
0.0001164204416
0.0001164272647
0.0001164361164
0.000116445536
0.0001164541239
0.0001164607829
0.0001164649259
0.0001164666199
0.000116466669
0.000116445089
0.0001164477294
0.0001164506934
0.0001164530266
0.000116453918
0.0001164529278
0.0001164501789
0.0001164464878
0.0001164434395
0.0001164462811
0.0001164449391
0.0001164422976
0.0001164378844
0.0001164314491
0.000116423178
0.0001164138697
0.000116405054
0.0001163990586
0.0001164251586
0.0001164200258
0.0001164120489
0.0001164012149
0.0001163878069
0.0001163726073
0.0001163570578
0.0001163433667
0.000116334568
0.0001163828134
0.0001163740734
0.0001163610196
0.0001163440761
0.0001163240342
0.0001163022433
0.000116280757
0.000116262429
0.0001162509647
0.0001163202905
0.0001163081189
0.0001162902355
0.0001162674805
0.0001162411287
0.0001162130692
0.0001161859376
0.0001161632008
0.0001161492024
0.0001162385899
0.0001162231546
0.0001162006782
0.0001161723969
0.0001161400453
0.0001161060258
0.0001160735274
0.0001160466002
0.0001160301936
0.0001161386681
0.0001161201298
0.0001160932868
0.0001160597518
0.0001160216971
0.0001159820129
0.0001159444144
0.0001159135055
0.0001158948111
0.0001160214401
0.0001159999525
0.0001159689594
0.0001159304317
0.0001158869577
0.0001158418914
0.0001157994477
0.0001157647568
0.0001157438899
0.0001158877811
0.0001158634913
0.0001158285553
0.0001157852845
0.0001157366626
0.0001156864844
0.0001156394396
0.0001156011578
0.0001155782285
0.0001157385282
0.0001157115768
0.0001156728961
0.0001156251211
0.0001155716111
0.0001155165796
0.0001154651672
0.0001154234773
0.0001153985909
0.000115574482
0.0001155450038
0.0001155027681
0.0001154507175
0.0001153925679
0.0001153329307
0.0001152773739
0.000115232451
0.0001152057085
0.0001153964088
0.0001153645326
0.0001153189235
0.0001152628159
0.0001152002648
0.0001151362587
0.0001150767716
0.000115028783
0.000115000281
0.0001152050416
0.0001151708908
0.000115122082
0.0001150621271
0.0001149954024
0.0001149272543
0.0001148640418
0.0001148131481
0.000114782979
0.0001150010823
0.0001149647751
0.0001149129334
0.0001148493318
0.0001147786518
0.0001147065793
0.0001146398377
0.0001145861927
0.0001145544454
0.0001147852036
0.0001147468533
0.0001146921383
0.0001146250826
0.0001145506569
0.0001144748687
0.0001144047864
0.0001143485378
0.0001143152973
0.0001145580504
0.0001145177659
0.0001144603309
0.0001143900059
0.0001143120358
0.0001142327322
0.0001141594905
0.0001141007802
0.0001140661285
0.0001143202424
0.0001142781282
0.0001142181207
0.0001141447043
0.0001140633832
0.0001139807573
0.0001139045306
0.0001138434953
0.0001138075113
0.0001140723759
0.0001140285329
0.0001139660949
0.0001138897585
0.0001138052733
0.0001137195113
0.000113640468
0.0001135772399
0.0001135399999
0.0001138150267
0.0001137695521
0.000113704821
0.0001136257305
0.0001135382619
0.0001134495443
0.0001133678477
0.000113302555
0.0001132641332
0.0001135487525
0.0001135017409
0.00011343485
0.0001133531665
0.0001132628902
0.0001131713925
0.0001130872018
0.0001130199697
0.0001129804383
0.0001132740966
0.0001132256401
0.0001131567196
0.0001130726004
0.0001129796884
0.0001128855826
0.0001127990538
0.0001127300052
0.0001126894357
0.0001129915916
0.0001129417807
0.0001128709586
0.0001127845586
0.0001126891802
0.0001125926363
0.0001125039239
0.0001124331806
0.0001123916434
0.0001127017641
0.0001126506884
0.0001125780915
0.0001124895645
0.0001123918885
0.0001122930757
0.0001122023341
0.0001121300181
0.0001120875844
0.0001124051397
0.0001123528891
0.0001122786446
0.0001121881451
0.0001120883412
0.0001119874305
0.0001118948158
0.0001118210509
0.0001117777929
0.0001121022497
0.000112048915
0.0001119731521
0.0001118808374
0.0001117790788
0.000111676245
0.0001115819175
0.0001115068311
0.0001114628231
0.0001117936379
0.0001117393127
0.0001116621643
0.0001115681966
0.0001114646625
0.0001113600871
0.0001112642137
0.0001111879389
0.000111143259
0.0001114798688
0.0001114246507
0.0001113462559
0.0001112508053
0.000111145684
0.0001110395584
0.0001109423156
0.0001108649934
0.0001108197246
0.0001111615373
0.0001111055297
0.0001110260359
0.0001109292832
0.0001108227757
0.0001107153046
0.0001106168817
0.000110538664
0.0001104928956
0.0001108392781
0.000110782592
0.000110702158
0.0001106042983
0.0001104966216
0.000110388027
0.0001102886298
0.0001102096822
0.0001101635117
0.0001105137771
0.0001104565333
0.0001103753319
0.0001102765779
0.0001101679696
0.0001100584947
0.0001099583495
0.0001098788539
0.0001098323889
0.0001101857823
0.0001101281133
0.0001100463344
0.0001099469205
0.0001098376425
0.0001097275562
0.0001096269132
0.0001095470714
0.0001095004311
0.0001098561144
0.0001097981666
0.0001097160205
0.0001096162062
0.0001095065492
0.0001093961501
0.0001092952875
0.0001092153238
0.0001091686408
0.0001095256768
0.0001094676129
0.000109385333
0.0001092854067
0.0001091756939
0.000109065314
0.0001089645414
0.0001088847053
0.0001088381269
0.0001091954645
0.0001091374651
0.0001090553108
0.0001089555931
0.0001088461833
0.0001087361915
0.0001086358523
0.0001085564206
0.0001085101099
0.0001088665706
0.0001088088357
0.0001087270942
0.0001086279398
0.0001085192303
0.000108410034
0.0001083105071
0.0001082317847
0.0001081859213
0.0001085401896
0.0001084829396
0.000108401927
0.000108303726
0.0001081961525
0.0001080881983
0.0001079898986
0.0001079122183
0.0001078669977
0.0001082176166
0.0001081610922
0.0001080811532
0.00010798433
0.000107878366
0.000107772138
0.0001076755136
0.0001075992344
0.000107554867
0.0001079002407
0.0001078447015
0.0001077662074
0.0001076712183
0.0001075673713
0.0001074633867
0.0001073689151
0.0001072944179
0.0001072511262
0.0001075895323
0.0001075352542
0.0001074585988
0.0001073659264
0.0001072647315
0.0001071635333
0.0001070717137
0.0001069993954
0.0001069574104
0.0001072870226
0.0001072342935
0.0001071598869
0.0001070700318