/*--------------------------------*- C++ -*----------------------------------*\
| =========                 |                                                 |
| \\      /  F ield         | OpenFOAM: The Open Source CFD Toolbox           |
|  \\    /   O peration     | Version:  2212                                  |
|   \\  /    A nd           | Website:  www.openfoam.com                      |
|    \\/     M anipulation  |                                                 |
\*---------------------------------------------------------------------------*/
FoamFile
{
    version     2.0;
    format      ascii;
    arch        "LSB;label=32;scalar=64";
    class       volScalarField;
    location    "20.00000000";
    object      C5H5;
}
// * * * * * * * * * * * * * * * * * * * * * * * * * * * * * * * * * * * * * //

dimensions      [0 0 0 0 0 0 0];

internalField   nonuniform List<scalar> 
3000
(
8.74414408e-23
9.822918672e-23
1.145078426e-22
1.362006417e-22
1.630871405e-22
1.944372823e-22
2.283624075e-22
2.607336225e-22
2.836243439e-22
3.282937154e-22
3.702830183e-22
4.336175055e-22
5.182040051e-22
6.239588401e-22
7.502959148e-22
8.950222816e-22
1.050831771e-21
1.188853797e-21
7.353595587e-22
8.359245461e-22
9.890594821e-22
1.196982544e-21
1.463433461e-21
1.79227796e-21
2.182222107e-21
2.611372914e-21
2.978153643e-21
1.400669746e-21
1.608899833e-21
1.930630006e-21
2.376747238e-21
2.963057446e-21
3.70445956e-21
4.596908671e-21
5.568960277e-21
6.353550009e-21
2.487234293e-21
2.892063352e-21
3.527399671e-21
4.425517884e-21
5.628662497e-21
7.170556717e-21
9.025444918e-21
1.099527113e-20
1.250739254e-20
4.277016626e-21
5.036841616e-21
6.246405327e-21
7.982905315e-21
1.03389781e-20
1.337391314e-20
1.699707226e-20
2.075154866e-20
2.352924531e-20
7.2609435e-21
8.656710127e-21
1.090453261e-20
1.416805775e-20
1.862903875e-20
2.437618354e-20
3.11718086e-20
3.807636249e-20
4.305848539e-20
1.228822355e-20
1.4814336e-20
1.891875481e-20
2.492398145e-20
3.316502858e-20
4.376062733e-20
5.617925288e-20
6.861331287e-20
7.743574349e-20
2.083037531e-20
2.535398289e-20
3.275152903e-20
4.362990518e-20
5.8585111e-20
7.776106881e-20
1.000746227e-19
1.221835359e-19
1.37697478e-19
3.543554904e-20
4.3472452e-20
5.667563432e-20
7.6154357e-20
1.029496405e-19
1.372173218e-19
1.768710787e-19
2.158730546e-19
2.430374748e-19
6.05191223e-20
7.471395735e-20
9.810777198e-20
1.326908635e-19
1.802657622e-19
2.409716392e-19
3.109292791e-19
3.793842356e-19
4.268230479e-19
1.037334987e-19
1.286934653e-19
1.699190919e-19
2.309400605e-19
3.148671066e-19
4.217662483e-19
5.445846336e-19
6.643323723e-19
7.470306011e-19
1.783461554e-19
2.220899977e-19
2.944495333e-19
4.016381288e-19
5.490196025e-19
7.364776527e-19
9.513747301e-19
1.160368967e-18
1.30436224e-18
3.073662296e-19
3.838415566e-19
5.104765848e-19
6.981567521e-19
9.561316106e-19
1.283892485e-18
1.659008388e-18
2.023169735e-18
2.273692704e-18
5.307076138e-19
6.641655406e-19
8.853204579e-19
1.213187568e-18
1.663730165e-18
2.235655381e-18
2.889391425e-18
3.52323245e-18
3.958945417e-18
9.176212873e-19
1.150217271e-18
1.535866969e-18
2.107749831e-18
2.893501342e-18
3.890417142e-18
5.028993622e-18
6.131883493e-18
6.889609697e-18
1.588269233e-18
1.993258109e-18
2.665029092e-18
3.661466068e-18
5.030628676e-18
6.767591252e-18
8.750973056e-18
1.067102107e-17
1.198739925e-17
2.751165782e-18
3.455781753e-18
4.624893195e-18
6.359254394e-18
8.742129381e-18
1.176407353e-17
1.521274981e-17
1.854894492e-17
2.083533891e-17
4.768213169e-18
5.993441835e-18
8.026753892e-18
1.104331946e-17
1.518731991e-17
2.04410872e-17
2.643414264e-17
3.222921429e-17
3.619967564e-17
8.267628056e-18
1.039728778e-17
1.393200261e-17
1.917616693e-17
2.637958278e-17
3.550998612e-17
4.592194343e-17
5.598662714e-17
6.288039372e-17
1.434001112e-17
1.804071028e-17
2.41834891e-17
3.329707322e-17
4.581433948e-17
6.167705323e-17
7.976162203e-17
9.723811386e-17
1.092060906e-16
2.487874858e-17
3.130817075e-17
4.198079327e-17
5.781454733e-17
7.955934798e-17
1.071105172e-16
1.385129924e-16
1.688516861e-16
1.896233692e-16
4.317090119e-17
5.433941575e-17
7.287873004e-17
1.003815298e-16
1.381460839e-16
1.859840656e-16
2.404943973e-16
2.931430863e-16
3.29180186e-16
7.492244234e-17
9.432062501e-17
1.265192944e-16
1.742799227e-16
2.398479127e-16
3.228830936e-16
4.174689926e-16
5.087932622e-16
5.712836164e-16
1.300365757e-16
1.637238945e-16
2.196351117e-16
3.025538553e-16
4.163580413e-16
5.604288133e-16
7.24472745e-16
8.827909013e-16
9.910798317e-16
2.256956489e-16
2.841878923e-16
3.812520927e-16
5.25164863e-16
7.226096309e-16
9.724490934e-16
1.256770958e-15
1.531012508e-15
1.718493064e-15
3.916956904e-16
4.932332591e-16
6.616877827e-16
9.113570277e-16
1.253727625e-15
1.686682728e-15
2.179040674e-15
2.65358279e-15
2.977763556e-15
6.796668977e-16
8.558660916e-16
1.14808902e-15
1.580984467e-15
2.174221472e-15
2.923803261e-15
3.77542345e-15
4.595401944e-15
5.155028176e-15
1.178979065e-15
1.484583774e-15
1.991195265e-15
2.741194334e-15
3.768098752e-15
5.064249477e-15
6.535017846e-15
7.949267311e-15
8.913249213e-15
2.044111683e-15
2.57377543e-15
3.451299412e-15
4.749303798e-15
6.524550139e-15
8.762153787e-15
1.129714877e-14
1.373055586e-14
1.538646929e-14
3.541611217e-15
4.45867842e-15
5.976881426e-15
8.220115342e-15
1.12837398e-14
1.513847982e-14
1.949666658e-14
2.367109542e-14
2.650575539e-14
6.13036592e-15
7.716019279e-15
1.033853621e-14
1.420813547e-14
1.94834081e-14
2.610626677e-14
3.357509255e-14
4.070957262e-14
4.554148044e-14
1.059826705e-14
1.333501079e-14
1.785586568e-14
2.451509905e-14
3.357312002e-14
4.491409909e-14
5.76638478e-14
6.980238169e-14
7.799686047e-14
1.829375527e-14
2.300632856e-14
3.077950092e-14
4.220532215e-14
5.770459923e-14
7.704618018e-14
9.870864023e-14
1.192504773e-13
1.33064566e-13
3.151602578e-14
3.960749203e-14
5.292982226e-14
7.246244992e-14
9.887183351e-14
1.316982349e-13
1.683000672e-13
2.028461427e-13
2.259738026e-13
5.416868126e-14
6.801259231e-14
9.075652074e-14
1.240011041e-13
1.687753074e-13
2.241713902e-13
2.856195418e-13
3.433045853e-13
3.817260549e-13
9.284751047e-14
1.164329898e-13
1.550811869e-13
2.113702289e-13
2.868375047e-13
3.7970993e-13
4.821222371e-13
5.776807206e-13
6.409662984e-13
1.586377643e-13
1.986190808e-13
2.639365802e-13
3.586721881e-13
4.850249846e-13
6.395791093e-13
8.088877735e-13
9.658111297e-13
1.069093782e-12
2.700606991e-13
3.374444996e-13
4.471469132e-13
6.05501777e-13
8.154679149e-13
1.070571165e-12
1.34801295e-12
1.603305708e-12
1.770224917e-12
4.578640397e-13
5.706864131e-13
7.536398345e-13
1.016322369e-12
1.362354901e-12
1.779689365e-12
2.230051321e-12
2.641299248e-12
2.90833916e-12
7.727408327e-13
9.60256073e-13
1.262993683e-12
1.695097635e-12
2.26027959e-12
2.936557623e-12
3.660394393e-12
4.316138318e-12
4.738948728e-12
1.297648802e-12
1.606788449e-12
2.103473258e-12
2.807862558e-12
3.722208969e-12
4.807228628e-12
5.958739558e-12
6.99353194e-12
7.65604791e-12
2.167275006e-12
2.672459363e-12
3.479890119e-12
4.617151062e-12
6.081646391e-12
7.804644023e-12
9.617540572e-12
1.123358634e-11
1.226107425e-11
3.59846726e-12
4.416286723e-12
5.716170989e-12
7.533943015e-12
9.855534125e-12
1.256321242e-11
1.538778092e-11
1.788578134e-11
1.946336707e-11
5.937294574e-12
7.248156649e-12
9.319709661e-12
1.219524787e-11
1.583719992e-11
2.004805779e-11
2.440381363e-11
2.822661149e-11
3.062543194e-11
9.731018547e-12
1.181062169e-11
1.507765922e-11
1.957887655e-11
2.523250039e-11
3.171378371e-11
3.83637339e-11
4.41576934e-11
4.777161082e-11
1.583694505e-11
1.910145425e-11
2.419962725e-11
3.117173797e-11
3.98576615e-11
4.973354974e-11
5.978828172e-11
6.848915067e-11
7.388605682e-11
2.558527337e-11
3.065542345e-11
3.852722547e-11
4.921463685e-11
6.242471912e-11
7.732747162e-11
9.239026959e-11
1.053427306e-10
1.133359461e-10
4.102020959e-11
4.881137623e-11
6.083922628e-11
7.7055734e-11
9.695067434e-11
1.192306637e-10
1.415988897e-10
1.607223375e-10
1.724695984e-10
6.525351793e-11
7.710125116e-11
9.52925653e-11
1.196575067e-10
1.493405209e-10
1.823567346e-10
2.153001512e-10
2.433177837e-10
2.604579435e-10
1.029784048e-10
1.208122622e-10
1.480553089e-10
1.843194999e-10
2.28213514e-10
2.767336236e-10
3.248776201e-10
3.656319155e-10
3.904734719e-10
1.612106474e-10
1.877937901e-10
2.282097611e-10
2.817033478e-10
3.460683691e-10
4.168172173e-10
4.866687499e-10
5.45554727e-10
5.813352923e-10
2.503502003e-10
2.896088021e-10
3.49032436e-10
4.272742755e-10
5.209144793e-10
6.233260813e-10
7.239951589e-10
8.085551998e-10
8.597966332e-10
3.856659456e-10
4.431354076e-10
5.297752865e-10
6.433171953e-10
7.78555448e-10
9.25803669e-10
1.069987859e-09
1.190721028e-09
1.26371264e-09
5.894134653e-10
6.728518342e-10
7.981903717e-10
9.617593789e-10
1.15575715e-09
1.36615358e-09
1.571476036e-09
1.742938959e-09
1.846396062e-09
8.938001808e-10
1.014020406e-09
1.194035205e-09
1.428084889e-09
1.704632528e-09
2.003520415e-09
2.294339965e-09
2.536634468e-09
2.682586896e-09
1.345122161e-09
1.517119881e-09
1.773937743e-09
2.106746855e-09
2.498682273e-09
2.920990775e-09
3.330838019e-09
3.67160908e-09
3.876592405e-09
2.009510378e-09
2.253987471e-09
2.618116764e-09
3.08861781e-09
3.641080744e-09
4.234754632e-09
4.809596637e-09
5.28670675e-09
5.57335734e-09
2.980872659e-09
3.326287567e-09
3.839618895e-09
4.50119412e-09
5.27598569e-09
6.106573674e-09
6.909181981e-09
7.574298191e-09
7.97350093e-09
4.391804712e-09
4.877117852e-09
5.596936826e-09
6.522487354e-09
7.603886766e-09
8.760668288e-09
9.876470511e-09
1.079989205e-08
1.135368091e-08
6.428465712e-09
7.106793949e-09
8.111118788e-09
9.39980656e-09
1.09023187e-08
1.25064932e-08
1.405142546e-08
1.532857062e-08
1.609401995e-08
9.350673457e-09
1.029413274e-08
1.168879375e-08
1.347500425e-08
1.555369707e-08
1.77693451e-08
1.990036071e-08
2.166042197e-08
2.271482492e-08
1.351882021e-08
1.482494392e-08
1.675299035e-08
1.921827868e-08
2.208258537e-08
2.513128004e-08
2.806030504e-08
3.047771211e-08
3.192543264e-08
1.942975369e-08
2.123002667e-08
2.388424856e-08
2.727323293e-08
3.120525725e-08
3.538536142e-08
3.939767689e-08
4.27071811e-08
4.468866425e-08
2.776447308e-08
3.023563685e-08
3.38751125e-08
3.85163956e-08
4.389491471e-08
4.960682915e-08
5.508509921e-08
5.960147104e-08
6.230499214e-08
3.945096984e-08
4.282978894e-08
4.780143771e-08
5.413478805e-08
6.146639445e-08
6.924528504e-08
7.670066408e-08
8.284414549e-08
8.652095246e-08
5.574564534e-08
6.034789736e-08
6.711417112e-08
7.572541946e-08
8.568445821e-08
9.624216506e-08
1.063540392e-07
1.146827564e-07
1.196662781e-07
7.83367678e-08
8.458131761e-08
9.375527457e-08
1.05420451e-07
1.188994444e-07
1.33177242e-07
1.468430717e-07
1.580934992e-07
1.648231919e-07
1.094730975e-07
1.179118469e-07
1.303007211e-07
1.460407557e-07
1.642126667e-07
1.834461222e-07
2.018423827e-07
2.169784924e-07
2.260285744e-07
1.521194354e-07
1.634736407e-07
1.801315142e-07
2.012780791e-07
2.256708584e-07
2.514669752e-07
2.76121064e-07
2.963917635e-07
3.085044086e-07
2.101380228e-07
2.253407419e-07
2.476298272e-07
2.759014572e-07
3.084835211e-07
3.429083021e-07
3.75779167e-07
4.02781764e-07
4.189031337e-07
2.884898265e-07
3.087330551e-07
3.3839126e-07
3.759764211e-07
4.192487029e-07
4.649199069e-07
5.08481756e-07
5.442262575e-07
5.65541921e-07
3.934427143e-07
4.20225932e-07
4.59435601e-07
5.090757351e-07
5.661615895e-07
6.263366626e-07
6.83655387e-07
7.306204469e-07
7.585843181e-07
5.327643784e-07
5.679387837e-07
6.193878878e-07
6.844487887e-07
7.591675616e-07
8.378108895e-07
9.125972338e-07
9.737640055e-07
1.010112254e-06
7.158676117e-07
7.616675651e-07
8.28590597e-07
9.131054644e-07
1.010009922e-06
1.111817847e-06
1.20843624e-06
1.28728251e-06
1.334021825e-06
9.538662365e-07
1.01291697e-06
1.099099399e-06
1.207762982e-06
1.33211684e-06
1.462475485e-06
1.58588506e-06
1.686320907e-06
1.745680348e-06
1.25949479e-06
1.334784246e-06
1.444513081e-06
1.58260546e-06
1.740277429e-06
1.905130029e-06
2.060737559e-06
2.18696773e-06
2.261306398e-06
1.646847703e-06
1.741651561e-06
1.879597007e-06
2.052819849e-06
2.250077258e-06
2.455686878e-06
2.649102429e-06
2.805411964e-06
2.897083292e-06
2.130907424e-06
2.248660809e-06
2.419681279e-06
2.633899937e-06
2.877098944e-06
3.129709347e-06
3.366414118e-06
3.556892749e-06
3.66808375e-06
2.726856964e-06
2.870974112e-06
3.079848835e-06
3.340749685e-06
3.635938262e-06
3.941356385e-06
4.226312516e-06
4.454553495e-06
4.587127388e-06
3.449208612e-06
3.622861951e-06
3.873970291e-06
4.186661304e-06
4.539131732e-06
4.902274344e-06
5.239518775e-06
5.508292215e-06
5.663496425e-06
4.310820963e-06
4.51670134e-06
4.813682384e-06
5.182281963e-06
5.596130361e-06
6.020600597e-06
6.412853183e-06
6.723687211e-06
6.902036977e-06
5.321911446e-06
5.561998253e-06
5.907435939e-06
6.334710645e-06
6.812467102e-06
7.300160709e-06
7.748376023e-06
8.101413986e-06
8.302598167e-06
6.489194145e-06
6.764572341e-06
7.15974764e-06
7.646846268e-06
8.189108469e-06
8.739831549e-06
9.243113207e-06
9.637034973e-06
9.85990004e-06
7.815276134e-06
8.126026454e-06
8.570741647e-06
9.116837834e-06
9.72204416e-06
1.03335291e-05
1.088913091e-05
1.132120572e-05
1.156381779e-05
9.298231617e-06
9.643222448e-06
1.013557779e-05
1.073792767e-05
1.140248656e-05
1.207049895e-05
1.267397889e-05
1.314023429e-05
1.340000566e-05
1.09311601e-05
1.130816991e-05
1.184476586e-05
1.249885703e-05
1.321733731e-05
1.393592206e-05
1.458141442e-05
1.507688835e-05
1.535074587e-05
1.270270968e-05
1.310854454e-05
1.368465883e-05
1.438446315e-05
1.514990353e-05
1.591173135e-05
1.659229284e-05
1.711132909e-05
1.739589909e-05
1.459766442e-05
1.502833063e-05
1.563817352e-05
1.637647636e-05
1.718076517e-05
1.797753013e-05
1.868551283e-05
1.922206198e-05
1.951384902e-05
1.659772651e-05
1.704863711e-05
1.768564804e-05
1.845441372e-05
1.928869196e-05
2.011151394e-05
2.08389251e-05
2.138682069e-05
2.168236378e-05
1.868239647e-05
1.914858818e-05
1.98057406e-05
2.059647612e-05
2.145152472e-05
2.229132103e-05
2.303014125e-05
2.358333257e-05
2.387932956e-05
2.082986023e-05
2.130620121e-05
2.197628895e-05
2.27803772e-05
2.364696105e-05
2.449476508e-05
2.523720966e-05
2.578994302e-05
2.608334078e-05
2.301781155e-05
2.349918608e-05
2.417507386e-05
2.498405861e-05
2.585321261e-05
2.670042959e-05
2.74391491e-05
2.79860983e-05
2.827415111e-05
2.522416413e-05
2.570562667e-05
2.638045589e-05
2.718627101e-05
2.80495239e-05
2.888812388e-05
2.961634771e-05
3.015269945e-05
3.043300073e-05
2.742763254e-05
2.790452878e-05
2.857187694e-05
2.936702019e-05
3.021655927e-05
3.103921307e-05
3.17508438e-05
3.227234644e-05
3.254283979e-05
2.960818089e-05
3.007623719e-05
3.073023365e-05
3.150788987e-05
3.233667347e-05
3.313684042e-05
3.382650824e-05
3.432949216e-05
3.458846753e-05
3.174735035e-05
3.220273489e-05
3.283813838e-05
3.359225899e-05
3.439408529e-05
3.516606154e-05
3.582914745e-05
3.631052446e-05
3.65566041e-05
3.382848264e-05
3.426784237e-05
3.488008609e-05
3.560543256e-05
3.637497262e-05
3.711390831e-05
3.774654347e-05
3.82037911e-05
3.843590907e-05
3.583685749e-05
3.625733516e-05
3.684254537e-05
3.753470319e-05
3.826750561e-05
3.896939757e-05
3.956844449e-05
3.999957961e-05
4.021695738e-05
3.775976064e-05
3.815899553e-05
3.871398873e-05
3.936935793e-05
4.006183092e-05
4.072349649e-05
4.128651668e-05
4.169006164e-05
4.189218157e-05
3.958649583e-05
3.996261164e-05
4.048487476e-05
4.110064197e-05
4.175001792e-05
4.236905413e-05
4.289426564e-05
4.326920931e-05
4.345578726e-05
4.130835214e-05
4.165993477e-05
4.214759215e-05
4.272168834e-05
4.332597493e-05
4.390070678e-05
4.43869344e-05
4.473268991e-05
4.490364782e-05
4.291853521e-05
4.324460289e-05
4.369637339e-05
4.422742099e-05
4.47853424e-05
4.531476322e-05
4.57613836e-05
4.607774419e-05
4.623318314e-05
4.441206993e-05
4.471203788e-05
4.512718487e-05
4.561443729e-05
4.612536856e-05
4.660907515e-05
4.701595888e-05
4.730305295e-05
4.744322718e-05
4.578568075e-05
4.605932216e-05
4.643759883e-05
4.688087529e-05
4.734477253e-05
4.778289723e-05
4.815034951e-05
4.840859604e-05
4.853388822e-05
4.703765522e-05
4.728506025e-05
4.762665246e-05
4.802627031e-05
4.844359899e-05
4.88367409e-05
4.916544235e-05
4.939550727e-05
4.95064053e-05
4.816769586e-05
4.838922993e-05
4.869469843e-05
4.905140515e-05
4.942306857e-05
4.977222544e-05
5.006317423e-05
5.026592873e-05
5.036300416e-05
4.917676498e-05
4.937302755e-05
4.964325101e-05
4.995815753e-05
5.028542706e-05
5.059192941e-05
5.084638583e-05
5.102286698e-05
5.110675538e-05
5.006692657e-05
5.023871137e-05
5.047483158e-05
5.074934829e-05
5.103379677e-05
5.129924533e-05
5.151867965e-05
5.167005389e-05
5.174143703e-05
5.084118901e-05
5.098944641e-05
5.119281655e-05
5.142859313e-05
5.167203245e-05
5.189823988e-05
5.208428408e-05
5.221181384e-05
5.227140391e-05
5.150335177e-05
5.162915391e-05
5.18012906e-05
5.200016043e-05
5.220458409e-05
5.239352152e-05
5.254792537e-05
5.265293908e-05
5.270146486e-05
5.205785884e-05
5.216236775e-05
5.230490749e-05
5.246883715e-05
5.263636822e-05
5.279011712e-05
5.291470884e-05
5.299857444e-05
5.303676938e-05
5.25096609e-05
5.25941e-05
5.270876011e-05
5.283980432e-05
5.297264919e-05
5.309335869e-05
5.319001037e-05
5.325411221e-05
5.328270439e-05
5.286408799e-05
5.292971695e-05
5.301826125e-05
5.311852333e-05
5.321893118e-05
5.330878093e-05
5.337937858e-05
5.342509775e-05
5.344480154e-05
5.312673372e-05
5.31748267e-05
5.323903588e-05
5.331063364e-05
5.338086168e-05
5.344203002e-05
5.348844817e-05
5.351714604e-05
5.352865541e-05
5.330335173e-05
5.333517894e-05
5.337682536e-05
5.342186227e-05
5.346414639e-05
5.349878375e-05
5.352286432e-05
5.353586906e-05
5.353985238e-05
5.339976466e-05
5.341657693e-05
5.343740378e-05
5.345794509e-05
5.347447568e-05
5.348468271e-05
5.348821787e-05
5.348681378e-05
5.348390984e-05
5.342178546e-05
5.34248018e-05
5.342650612e-05
5.342455955e-05
5.341746205e-05
5.340527217e-05
5.338999084e-05
5.33754101e-05
5.33662254e-05
5.337515078e-05
5.336554844e-05
5.334976781e-05
5.33272684e-05
5.329858814e-05
5.326595409e-05
5.323351167e-05
5.320692835e-05
5.319203534e-05
5.326546566e-05
5.324437266e-05
5.321267501e-05
5.317147372e-05
5.312316455e-05
5.307194845e-05
5.302391944e-05
5.298644543e-05
5.296638154e-05
5.309815886e-05
5.306664848e-05
5.302052485e-05
5.296238035e-05
5.289629666e-05
5.282826311e-05
5.276613618e-05
5.271881872e-05
5.269408622e-05
5.287844783e-05
5.283753498e-05
5.277839459e-05
5.270496789e-05
5.262285945e-05
5.253967136e-05
5.246484658e-05
5.240866722e-05
5.23797335e-05
5.261131236e-05
5.256195141e-05
5.249111887e-05
5.24039704e-05
5.230747967e-05
5.221069617e-05
5.212448401e-05
5.206035866e-05
5.202765709e-05
5.230147594e-05
5.224455983e-05
5.216327413e-05
5.206386268e-05
5.195452414e-05
5.184560046e-05
5.174922217e-05
5.167800212e-05
5.164193319e-05
5.195339372e-05
5.188975416e-05
5.1799169e-05
5.16888524e-05
5.156809351e-05
5.144838226e-05
5.134297151e-05
5.126544515e-05
5.122637784e-05
5.157124626e-05
5.150165474e-05
5.140284e-05
5.128287706e-05
5.115202053e-05
5.102277422e-05
5.09093796e-05
5.082627466e-05
5.078454808e-05
5.115893801e-05
5.108410743e-05
5.097805162e-05
5.084960506e-05
5.070987219e-05
5.057224659e-05
5.045183481e-05
5.036382104e-05
5.031974608e-05
5.072009975e-05
5.064068661e-05
5.052829991e-05
5.039244008e-05
5.024495477e-05
5.010001301e-05
4.99734726e-05
4.988116471e-05
4.983502581e-05
5.025809423e-05
5.017470117e-05
5.005681896e-05
4.991452809e-05
4.976032148e-05
4.960903858e-05
4.947718391e-05
4.938114469e-05
4.933320161e-05
4.977602431e-05
4.968920286e-05
4.956658962e-05
4.941876648e-05
4.925878189e-05
4.910204955e-05
4.896562511e-05
4.88663686e-05
4.881685817e-05
4.927674299e-05
4.91869965e-05
4.906034989e-05
4.890781461e-05
4.874291272e-05
4.858154439e-05
4.844122908e-05
4.83392238e-05
4.82883616e-05
4.876286484e-05
4.867065149e-05
4.854060654e-05
4.838410554e-05
4.821506964e-05
4.804980551e-05
4.790621703e-05
4.780188914e-05
4.774987116e-05
4.823677842e-05
4.81425142e-05
4.800964745e-05
4.784985845e-05
4.767739963e-05
4.750891169e-05
4.73626108e-05
4.725634719e-05
4.720335139e-05
4.770065915e-05
4.760472086e-05
4.746955455e-05
4.730709135e-05
4.713185371e-05
4.696075063e-05
4.681224531e-05
4.670439659e-05
4.665058437e-05
4.715648263e-05
4.705921077e-05
4.692221679e-05
4.675763406e-05
4.658019966e-05
4.640703154e-05
4.625678102e-05
4.614766435e-05
4.609318193e-05
4.660603784e-05
4.650773938e-05
4.636934316e-05
4.620314101e-05
4.602403463e-05
4.584929757e-05
4.569771618e-05
4.558761796e-05
4.55325977e-05
4.605094023e-05
4.595189128e-05
4.581247552e-05
4.564510377e-05
4.546479756e-05
4.528893796e-05
4.513639874e-05
4.502557716e-05
4.497013874e-05
4.549264449e-05
4.539309283e-05
4.525300095e-05
4.508486331e-05
4.490378103e-05
4.472719971e-05
4.457403785e-05
4.446272527e-05
4.440697678e-05
4.493245681e-05
4.48326243e-05
4.469216376e-05
4.45236217e-05
4.434214282e-05
4.416519886e-05
4.401171488e-05
4.390012004e-05
4.384415904e-05
4.437154664e-05
4.42716314e-05
4.413107682e-05
4.396245318e-05
4.378091674e-05
4.360393106e-05
4.345039385e-05
4.333870392e-05
4.328261838e-05
4.381095786e-05
4.37111364e-05
4.35707324e-05
4.340231483e-05
4.322102291e-05
4.304428166e-05
4.289093127e-05
4.27793138e-05
4.272318291e-05
4.325161921e-05
4.315204838e-05
4.301201237e-05
4.284405646e-05
4.266327757e-05
4.248703523e-05
4.23340854e-05
4.222269005e-05
4.216658508e-05
4.269435394e-05
4.259517286e-05
4.245569755e-05
4.228842985e-05
4.210840202e-05
4.193288429e-05
4.178052493e-05
4.16694851e-05
4.161347008e-05
4.213988772e-05
4.204122001e-05
4.190247623e-05
4.173609725e-05
4.155703099e-05
4.138243757e-05
4.123083695e-05
4.112027132e-05
4.106440373e-05
4.158885284e-05
4.149081064e-05
4.135295111e-05
4.118763876e-05
4.100972022e-05
4.083622752e-05
4.068553444e-05
4.057554836e-05
4.051987975e-05
4.104177982e-05
4.094447687e-05
4.080764404e-05
4.064355861e-05
4.046695318e-05
4.02947171e-05
4.014506302e-05
4.003574994e-05
3.998032651e-05
4.049904485e-05
4.04026531e-05
4.026699792e-05
4.010429031e-05
3.992914718e-05
3.975830617e-05
3.96098073e-05
3.950125002e-05
3.94461132e-05
3.996090439e-05
3.986568099e-05
3.973138194e-05
3.957020267e-05
3.939665958e-05
3.922733754e-05
3.908009679e-05
3.897236873e-05
3.891755565e-05
3.942774685e-05
3.933378949e-05
3.920109968e-05
3.904160835e-05
3.886979477e-05
3.870210308e-05
3.855621158e-05
3.844937769e-05
3.839492166e-05
3.890007027e-05
3.880736681e-05
3.867645088e-05
3.851878265e-05
3.834881312e-05
3.818284996e-05
3.803838768e-05
3.793250516e-05
3.787843593e-05
3.837820797e-05
3.828673988e-05
3.815766522e-05
3.800195463e-05
3.78339332e-05
3.766978497e-05
3.752682161e-05
3.742194046e-05
3.736828451e-05
3.786244208e-05
3.777221739e-05
3.764495904e-05
3.74913213e-05
3.732533817e-05
3.716307924e-05
3.702167467e-05
3.691783819e-05
3.686461891e-05
3.735298282e-05
3.7263992e-05
3.713850356e-05
3.698704761e-05
3.682317978e-05
3.666287238e-05
3.652307686e-05
3.642032191e-05
3.636755978e-05
3.685000506e-05
3.676224744e-05
3.663852141e-05
3.648928933e-05
3.632758594e-05
3.616927673e-05
3.603113038e-05
3.592948751e-05
3.587720017e-05
3.635364784e-05
3.626713113e-05
3.614518406e-05
3.599816883e-05
3.583865571e-05
3.568237774e-05
3.554591168e-05
3.544540577e-05
3.539360832e-05
3.58640091e-05
3.577873529e-05
3.565856563e-05
3.551375267e-05
3.535645283e-05
3.520223364e-05
3.506747318e-05
3.496812478e-05
3.491683022e-05
3.538115483e-05
3.529711763e-05
3.517870252e-05
3.503601896e-05
3.488100601e-05
3.472887892e-05
3.459584648e-05
3.449767273e-05
3.444689224e-05
3.490513206e-05
3.482232918e-05
3.47056676e-05
3.456513194e-05
3.441237224e-05
3.426234126e-05
3.413104828e-05
3.403406114e-05
3.398380379e-05
3.44359642e-05
3.435438938e-05
3.423946788e-05
3.410104914e-05
3.395055146e-05
3.380262304e-05
3.367307742e-05
3.357728562e-05
3.35275588e-05
3.397365641e-05
3.389330036e-05
3.378010034e-05
3.364376186e-05
3.349553426e-05
3.33497123e-05
3.32219185e-05
3.312732799e-05
3.307813769e-05
3.351820003e-05
3.34390533e-05
3.332755935e-05
3.319328052e-05
3.304730768e-05
3.290358711e-05
3.277754468e-05
3.268415837e-05
3.263550917e-05
3.30695735e-05
3.299162598e-05
3.288182118e-05
3.274957391e-05
3.260584237e-05
3.246421389e-05
3.233991842e-05
3.224773656e-05
3.219963169e-05
3.262774442e-05
3.255098686e-05
3.244285877e-05
3.231263239e-05
3.217110508e-05
3.203155062e-05
3.190899315e-05
3.181801331e-05
3.177045476e-05
3.219266906e-05
3.211709108e-05
3.201062443e-05
3.188239843e-05
3.174304439e-05
3.16055443e-05
3.148471339e-05
3.139493119e-05
3.134791995e-05
3.176429406e-05
3.16898839e-05
3.158506114e-05
3.145881195e-05
3.13216005e-05
3.11861338e-05
3.10670162e-05
3.097842578e-05
3.093196202e-05
3.134255814e-05
3.12693029e-05
3.116610489e-05
3.104180739e-05
3.09067072e-05
3.077325157e-05
3.065583254e-05
3.056842677e-05
3.052250994e-05
3.092739349e-05
3.085527937e-05
3.07536858e-05
3.063131375e-05
3.049829288e-05
3.036682477e-05
3.025108823e-05
3.01648589e-05
3.011948783e-05
3.051872687e-05
3.044773933e-05
3.034772901e-05
3.022725533e-05
3.009628134e-05
2.996677618e-05
2.985270491e-05
2.976764285e-05
2.972281582e-05
3.011648049e-05
3.004660445e-05
2.994815548e-05
2.982955242e-05
2.970059255e-05
2.95730249e-05
2.946060072e-05
2.937669595e-05
2.933241076e-05
2.972057288e-05
2.96517928e-05
2.955488274e-05
2.943812209e-05
2.931114338e-05
2.918548712e-05
2.907469105e-05
2.899193288e-05
2.894818689e-05
2.933091953e-05
2.926321955e-05
2.916782554e-05
2.905287876e-05
2.89278482e-05
2.88040767e-05
2.869488911e-05
2.861326628e-05
2.857005648e-05
2.894743361e-05
2.888079759e-05
2.878689653e-05
2.867373489e-05
2.855061952e-05
2.842870579e-05
2.832110654e-05
2.824060731e-05
2.819793035e-05
2.857002651e-05
2.850443818e-05
2.841200676e-05
2.830060147e-05
2.817936853e-05
2.805928535e-05
2.795325393e-05
2.787386617e-05
2.783171845e-05
2.819860842e-05
2.813405142e-05
2.804306632e-05
2.793338862e-05
2.781400564e-05
2.769572568e-05
2.759124134e-05
2.751295264e-05
2.747133034e-05
2.783308889e-05
2.776954686e-05
2.767998477e-05
2.75720061e-05
2.745444095e-05
2.733793696e-05
2.723497882e-05
2.715777658e-05
2.711667568e-05
2.747337732e-05
2.741083398e-05
2.732267177e-05
2.721636382e-05
2.710058487e-05
2.698582972e-05
2.688437689e-05
2.680824841e-05
2.676766478e-05
2.711938355e-05
2.705782275e-05
2.697103752e-05
2.686637236e-05
2.675234852e-05
2.663931539e-05
2.653934712e-05
2.646427968e-05
2.642420909e-05
2.67710184e-05
2.671042422e-05
2.662499341e-05
2.652194358e-05
2.640964443e-05
2.629830688e-05
2.619980263e-05
2.61257836e-05
2.608622177e-05
2.642819428e-05
2.636855111e-05
2.628445261e-05
2.618299125e-05
2.607238703e-05
2.596271917e-05
2.586565875e-05
2.579267564e-05
2.575361829e-05
2.609082597e-05
2.603211855e-05
2.594933082e-05
2.584943173e-05
2.574049346e-05
2.563247e-05
2.553683369e-05
2.546487427e-05
2.542631713e-05
2.575883134e-05
2.570104494e-05
2.561954708e-05
2.552118484e-05
2.54138843e-05
2.53074807e-05
2.521324935e-05
2.514230169e-05
2.510424053e-05
2.543213244e-05
2.537525292e-05
2.529502489e-05
2.519817498e-05
2.509248461e-05
2.498767706e-05
2.489483218e-05
2.482488474e-05
2.478731541e-05
2.511065655e-05
2.505467062e-05
2.497569362e-05
2.488033293e-05
2.477622521e-05
2.467299049e-05
2.458151426e-05
2.451255594e-05
2.447547435e-05
2.479433739e-05
2.473923288e-05
2.466149029e-05
2.45676008e-05
2.446504424e-05
2.436335907e-05
2.427323439e-05
2.420525464e-05
2.416865685e-05
2.448311595e-05
2.442888096e-05
2.43523554e-05
2.425991433e-05
2.415888381e-05
2.405872763e-05
2.396993906e-05
2.390292827e-05
2.386681061e-05
2.417694251e-05
2.412356535e-05
2.404823913e-05
2.395722193e-05
2.385769533e-05
2.375905013e-05
2.367158421e-05
2.360553402e-05
2.356989323e-05
2.387577882e-05
2.382324807e-05
2.374910363e-05
2.365948712e-05
2.356144135e-05
2.346429145e-05
2.337813704e-05
2.331304066e-05
2.327787411e-05
2.357960017e-05
2.352790349e-05
2.34549186e-05
2.336666191e-05
2.327009206e-05
2.317442822e-05
2.308957776e-05
2.302543058e-05
2.299073663e-05
2.32883995e-05
2.323752583e-05
2.316568182e-05
2.307875775e-05
2.298364224e-05
2.288945435e-05
2.280590257e-05
2.27427023e-05
2.270848052e-05
2.300218778e-05
2.295212541e-05
2.288140061e-05
2.279577265e-05
2.270209581e-05
2.260937867e-05
2.252712466e-05
2.246487239e-05
2.243112431e-05
2.27209949e-05
2.267172885e-05
2.260209085e-05
2.251768752e-05
2.242546593e-05
2.233422647e-05
2.225327633e-05
2.219197798e-05
2.215870789e-05
2.244487034e-05
2.239638451e-05
2.232780538e-05
2.22445719e-05
2.215380132e-05
2.206404755e-05
2.198441267e-05
2.192407952e-05
2.18912953e-05
2.217386954e-05
2.212613109e-05
2.205854039e-05
2.197647137e-05
2.188716245e-05
2.179891199e-05
2.172061217e-05
2.166126264e-05
2.1628977e-05
2.190804189e-05
2.186099595e-05
2.17942811e-05
2.171343455e-05
2.162562542e-05
2.153891161e-05
2.146197826e-05
2.140364018e-05
2.137187213e-05
2.164738492e-05
2.16009444e-05
2.153505925e-05
2.145553773e-05
2.136929132e-05
2.128416411e-05
2.120864187e-05
2.115135417e-05
2.112013053e-05
2.139171241e-05
2.13457951e-05
2.128097555e-05
2.120289834e-05
2.111829311e-05
2.103481667e-05
2.096076365e-05
2.090457766e-05
2.087393441e-05
2.114092324e-05
2.10957971e-05
2.103220446e-05
2.095567836e-05
2.087279805e-05
2.079104759e-05
2.071853515e-05
2.066351571e-05
2.06334993e-05
2.089542276e-05
2.085121387e-05
2.078895597e-05
2.071407383e-05
2.063300483e-05
2.055306569e-05
2.048217888e-05
2.042840561e-05
2.03990744e-05
2.065551685e-05
2.061229923e-05
2.055145847e-05
2.047830679e-05
2.039914029e-05
2.032110892e-05
2.025194776e-05
2.019951674e-05
2.017094246e-05
2.042147556e-05
2.037930584e-05
2.031995622e-05
2.024862225e-05
2.017145725e-05
2.009544328e-05
2.002812473e-05
1.997715047e-05
1.994941984e-05
2.019356396e-05
2.015249491e-05
2.009471086e-05
2.002528769e-05
1.995023418e-05
1.987636281e-05
1.98110231e-05
1.976164087e-05
1.973485732e-05
1.997205641e-05
1.993214263e-05
1.987600378e-05
1.980859396e-05
1.973577602e-05
1.966419099e-05
1.960098863e-05
1.955335726e-05
1.952764277e-05
1.975724339e-05
1.971854426e-05
1.96641387e-05
1.959885758e-05
1.952841683e-05
1.945928432e-05
1.939840411e-05
1.935270949e-05
1.932820676e-05
1.954943591e-05
1.951201795e-05
1.945944533e-05
1.939642495e-05