/*--------------------------------*- C++ -*----------------------------------*\
| =========                 |                                                 |
| \\      /  F ield         | OpenFOAM: The Open Source CFD Toolbox           |
|  \\    /   O peration     | Version:  2212                                  |
|   \\  /    A nd           | Website:  www.openfoam.com                      |
|    \\/     M anipulation  |                                                 |
\*---------------------------------------------------------------------------*/
FoamFile
{
    version     2.0;
    format      ascii;
    arch        "LSB;label=32;scalar=64";
    class       volScalarField;
    location    "20.00000000";
    object      C5H6_0;
}
// * * * * * * * * * * * * * * * * * * * * * * * * * * * * * * * * * * * * * //

dimensions      [0 0 0 0 0 0 0];

internalField   nonuniform List<scalar> 
3000
(
4.449202727e-21
4.998105557e-21
5.826397239e-21
6.930171689e-21
8.298212293e-21
9.893372237e-21
1.161955263e-20
1.326666683e-20
1.443139393e-20
1.67042677e-20
1.884077016e-20
2.206335962e-20
2.636729524e-20
3.174831931e-20
3.817661003e-20
4.554058575e-20
5.346849354e-20
6.049133858e-20
3.741662242e-20
4.253357607e-20
5.032539689e-20
6.090494999e-20
7.44625204e-20
9.119480412e-20
1.110359632e-19
1.328720373e-19
1.515345935e-19
7.126897948e-20
8.186415361e-20
9.823444468e-20
1.209338037e-19
1.507664677e-19
1.884905242e-19
2.339001598e-19
2.833601321e-19
3.232816602e-19
1.265556181e-19
1.471541481e-19
1.794813577e-19
2.251794453e-19
2.863978961e-19
3.648526154e-19
4.59233103e-19
5.594618679e-19
6.364016791e-19
2.176234049e-19
2.562848472e-19
3.178299096e-19
4.061865597e-19
5.260683284e-19
6.804919844e-19
8.648456699e-19
1.055881041e-18
1.197215876e-18
3.694516826e-19
4.40471122e-19
5.548448902e-19
7.208996675e-19
9.478834228e-19
1.240309795e-18
1.586084964e-18
1.93740265e-18
2.190903157e-18
6.252499045e-19
7.537836277e-19
9.626247781e-19
1.268182885e-18
1.687504075e-18
2.226629634e-18
2.858514506e-18
3.491184731e-18
3.940087937e-18
1.05989193e-18
1.290062269e-18
1.666464449e-18
2.219978351e-18
2.980929675e-18
3.956641506e-18
5.09200069e-18
6.216947414e-18
7.006328581e-18
1.803032894e-18
2.211966912e-18
2.883771809e-18
3.874889102e-18
5.238288128e-18
6.981898289e-18
8.999563289e-18
1.098406452e-17
1.236624659e-17
3.079336397e-18
3.80159879e-18
4.991924307e-18
6.75158356e-18
9.172293299e-18
1.226113514e-17
1.582072658e-17
1.930385876e-17
2.171764579e-17
5.278172795e-18
6.548187725e-18
8.645833579e-18
1.175070859e-17
1.602109448e-17
2.146035112e-17
2.770961379e-17
3.380263601e-17
3.801050222e-17
9.074619248e-18
1.130039776e-17
1.4982204e-17
2.043618947e-17
2.793527937e-17
3.747355508e-17
4.840798345e-17
5.904206193e-17
6.636877318e-17
1.563942896e-17
1.953065583e-17
2.597411828e-17
3.552369619e-17
4.865002704e-17
6.532720063e-17
8.44138275e-17
1.029430461e-16
1.156903086e-16
2.700350394e-17
3.379412814e-17
4.504696917e-17
6.17295644e-17
8.465412025e-17
1.137546779e-16
1.470174707e-16
1.79267783e-16
2.014383526e-16
4.669047639e-17
5.852545353e-17
7.814813325e-17
1.072467396e-16
1.472272897e-16
1.979517085e-16
2.558826557e-16
3.11996748e-16
3.505537443e-16
8.081443451e-17
1.01421117e-16
1.35602238e-16
1.863030719e-16
2.559690782e-16
3.443499241e-16
4.452702146e-16
5.429691385e-16
6.099475087e-16
1.39985023e-16
1.758373481e-16
2.353241637e-16
3.235720639e-16
4.448177686e-16
5.985809614e-16
7.740577991e-16
9.438114283e-16
1.060146913e-15
2.426165849e-16
3.049587644e-16
4.084178962e-16
5.619069893e-16
7.727623066e-16
1.040084952e-15
1.345024297e-15
1.639889759e-15
1.841914769e-15
4.206740948e-16
5.290356106e-16
7.088892458e-16
9.757232109e-16
1.34224795e-15
1.806821831e-15
2.336603896e-15
2.848715971e-15
3.199485115e-15
7.296495902e-16
9.17948867e-16
1.230506237e-15
1.69422436e-15
2.331128909e-15
3.138256793e-15
4.058437311e-15
4.947677629e-15
5.556633223e-15
1.26588251e-15
1.593024899e-15
2.136070161e-15
2.941724543e-15
4.048145291e-15
5.450006172e-15
7.047829532e-15
8.59152549e-15
9.64843202e-15
2.196625355e-15
2.76490264e-15
3.708221575e-15
5.107621324e-15
7.029160521e-15
9.463256703e-15
1.223685596e-14
1.491573097e-14
1.674937371e-14
3.81220994e-15
4.799229887e-15
6.437565278e-15
8.867725563e-15
1.220396151e-14
1.642896454e-14
2.124169218e-14
2.588846133e-14
2.906810079e-14
6.616531903e-15
8.330612878e-15
1.117549212e-14
1.539457058e-14
2.11851647e-14
2.85157858e-14
3.686268289e-14
4.491824061e-14
5.042820707e-14
1.148386491e-14
1.446007215e-14
1.939890095e-14
2.672148259e-14
3.676788384e-14
4.948023634e-14
6.394712531e-14
7.790110689e-14
8.744050838e-14
1.993029302e-14
2.509673614e-14
3.366805337e-14
4.637174486e-14
6.379227438e-14
8.582193234e-14
1.108741307e-13
1.350198227e-13
1.515148158e-13
3.458286835e-14
4.35482506e-14
5.841716227e-14
8.044378485e-14
1.106289201e-13
1.487692039e-13
1.921014141e-13
2.338236291e-13
2.622985784e-13
5.998891248e-14
7.55387171e-14
1.013161659e-13
1.394776819e-13
1.917287192e-13
2.5767957e-13
3.325153303e-13
4.044752914e-13
4.535247003e-13
1.040086642e-13
1.3095906e-13
1.756093098e-13
2.416544793e-13
3.319827142e-13
4.458366528e-13
5.748224823e-13
6.986393088e-13
7.828956373e-13
1.802045641e-13
2.26866856e-13
3.041161913e-13
4.182566112e-13
5.741402123e-13
7.702774226e-13
9.920310531e-13
1.204434698e-12
1.34866811e-12
3.119258042e-13
3.926071558e-13
5.260462888e-13
7.229395722e-13
9.91356449e-13
1.328341314e-12
1.70837075e-12
2.071387981e-12
2.317245533e-12
5.392619362e-13
6.785131721e-13
9.085437073e-13
1.247379403e-12
1.708270419e-12
2.285323108e-12
2.934056937e-12
3.551690882e-12
3.968643073e-12
9.308244323e-13
1.17061001e-12
1.566125265e-12
2.147494926e-12
2.936130535e-12
3.920270592e-12
5.022501829e-12
6.067713436e-12
6.770603152e-12
1.603601121e-12
2.015311858e-12
2.693179907e-12
3.687040892e-12
5.030805618e-12
6.70108165e-12
8.563459523e-12
1.032123621e-11
1.149802001e-11
2.756215359e-12
3.460622593e-12
4.617881399e-12
6.309435587e-12
8.587641067e-12
1.140631012e-11
1.453292121e-11
1.746805753e-11
1.942302274e-11
4.724274277e-12
5.924353113e-12
7.890854803e-12
1.075495995e-11
1.459489421e-11
1.932043939e-11
2.453139412e-11
2.939361205e-11
3.261371635e-11
8.071817277e-12
1.010615126e-11
1.342964409e-11
1.824999303e-11
2.46790922e-11
3.254313565e-11
4.115792226e-11
4.914251863e-11
5.439776154e-11
1.374124017e-11
1.716987164e-11
2.275176521e-11
3.080920091e-11
4.1492731e-11
5.447293701e-11
6.858977848e-11
8.15796313e-11
9.007284614e-11
2.329703733e-11
2.903768309e-11
3.834675043e-11
5.171261256e-11
6.931951111e-11
9.05544165e-11
1.134698415e-10
1.34395063e-10
1.479826585e-10
3.931853329e-11
4.885972002e-11
6.426368168e-11
8.62501037e-11
1.150078532e-10
1.494184473e-10
1.862489619e-10
2.196147693e-10
2.411283739e-10
6.602665906e-11
8.175637854e-11
1.070288412e-10
1.428698263e-10
1.893939802e-10
2.446024667e-10
3.031942559e-10
3.558471553e-10
3.895576913e-10
1.102741884e-10
1.359791406e-10
1.77063162e-10
2.349298587e-10
3.09447229e-10
3.971180634e-10
4.893633746e-10
5.715924811e-10
6.238740975e-10
1.830936879e-10
2.247063254e-10
2.908477923e-10
3.833410707e-10
5.014705283e-10
6.392457754e-10
7.829692418e-10
9.100761519e-10
9.903492845e-10
3.020907851e-10
3.687908142e-10
4.741973195e-10
6.205138395e-10
8.058292309e-10
1.020094006e-09
1.24173304e-09
1.436253774e-09
1.558316545e-09
4.951028587e-10
6.009187968e-10
7.671562207e-10
9.961953316e-10
1.28387683e-09
1.613677246e-09
1.952063742e-09
2.246894835e-09
2.430793062e-09
8.057289167e-10
9.718368741e-10
1.231251265e-09
1.586025781e-09
2.02801687e-09
2.530570957e-09
3.042235165e-09
3.485009918e-09
3.759652369e-09
1.30159371e-09
1.559579192e-09
1.960132587e-09
2.503975691e-09
3.176213538e-09
3.934616656e-09
4.701189682e-09
5.360379775e-09
5.767183443e-09
2.08656225e-09
2.483002612e-09
3.095047309e-09
3.920282467e-09
4.932773952e-09
6.066720294e-09
7.205226145e-09
8.178623492e-09
8.776582352e-09
3.318601642e-09
3.921450135e-09
4.847148648e-09
6.087124654e-09
7.597916835e-09
9.278558892e-09
1.095568377e-08
1.238217367e-08
1.32548986e-08
5.235636557e-09
6.143054325e-09
7.529396086e-09
9.375102568e-09
1.160956432e-08
1.408003678e-08
1.65318742e-08
1.860776979e-08
1.987329831e-08
8.192616189e-09
9.545121768e-09
1.160181099e-08
1.432470185e-08
1.760200477e-08
2.120566369e-08
2.476499991e-08
2.77667313e-08
2.959125891e-08
1.271417205e-08
1.471128454e-08
1.77350871e-08
2.171808077e-08
2.648739538e-08
3.170665343e-08
3.684067534e-08
4.115636503e-08
4.377345717e-08
1.956741911e-08
2.249006131e-08
2.689806784e-08
3.267830268e-08
3.95685406e-08
4.707807422e-08
5.443999409e-08
6.061277336e-08
6.434989002e-08
2.986441752e-08
3.410542751e-08
4.047997626e-08
4.880614653e-08
5.869276249e-08
6.943105575e-08
7.992954816e-08
8.871556793e-08
9.402931576e-08
4.520330094e-08
5.130828285e-08
6.045709836e-08
7.236619689e-08
8.646025984e-08
1.01724315e-07
1.166140681e-07
1.290560924e-07
1.365749637e-07
6.786159056e-08
7.658331766e-08
8.961944055e-08
1.065383318e-07
1.265034636e-07
1.480711806e-07
1.690665445e-07
1.865820498e-07
1.971542808e-07
1.010593016e-07
1.134295384e-07
1.318764254e-07
1.557543883e-07
1.838572953e-07
2.141415924e-07
2.435557645e-07
2.680429767e-07
2.827955461e-07
1.493139095e-07
1.667368854e-07
1.926642067e-07
2.261421142e-07
2.654414436e-07
3.076805555e-07
3.485988295e-07
3.825779151e-07
4.030055146e-07
2.189122158e-07
2.432832931e-07
2.79477501e-07
3.260973452e-07
3.806752361e-07
4.391692377e-07
4.956771067e-07
5.424899536e-07
5.705832796e-07
3.185218903e-07
3.523731119e-07
4.025449539e-07
4.670042907e-07
5.422533034e-07
6.226723673e-07
7.001658345e-07
7.642413689e-07
8.026455022e-07
4.599572993e-07
5.066320035e-07
5.756679924e-07
6.641373234e-07
7.671351517e-07
8.769328916e-07
9.825212885e-07
1.069699783e-06
1.121901919e-06
6.591166999e-07
7.229857168e-07
8.17268831e-07
9.378098861e-07
1.077816481e-06
1.226757568e-06
1.369753554e-06
1.487677091e-06
1.558236329e-06
9.371487052e-07
1.023894664e-06
1.151728889e-06
1.31483932e-06
1.50391714e-06
1.704711328e-06
1.89721869e-06
2.055807872e-06
2.15063892e-06
1.321944043e-06
1.438927738e-06
1.611070227e-06
1.830341944e-06
2.084088758e-06
2.35314382e-06
2.610766605e-06
2.822799423e-06
2.949516684e-06
1.849984707e-06
2.006679298e-06
2.236960876e-06
2.52984407e-06
2.868252278e-06
3.226568625e-06
3.569256426e-06
3.851056484e-06
4.019382501e-06
2.568498205e-06
2.776983071e-06
3.083018269e-06
3.471704763e-06
3.920163906e-06
4.394377482e-06
4.847407106e-06
5.219640758e-06
5.441877916e-06
3.537877577e-06
3.813396797e-06
4.217391197e-06
4.72982139e-06
5.320254489e-06
5.943813525e-06
6.538892083e-06
7.027460198e-06
7.319016263e-06
4.83433021e-06
5.195911528e-06
5.725552166e-06
6.396516999e-06
7.168618261e-06
7.983056464e-06
8.759506472e-06
9.39649599e-06
9.776441158e-06
6.552657455e-06
7.023763729e-06
7.713151662e-06
8.585439678e-06
9.587950162e-06
1.064418509e-05
1.165013944e-05
1.247477176e-05
1.296638754e-05
8.808982948e-06
9.41815588e-06
1.030871901e-05
1.143422438e-05
1.272614498e-05
1.408569009e-05
1.537918502e-05
1.643866486e-05
1.706992495e-05
1.174319238e-05
1.252462699e-05
1.366592141e-05
1.510659414e-05
1.675819458e-05
1.849413045e-05
2.014394359e-05
2.149407872e-05
2.229798254e-05
1.552078498e-05
1.651475528e-05
1.796503735e-05
1.979352407e-05
2.188697032e-05
2.408448383e-05
2.617053192e-05
2.787596953e-05
2.889063588e-05
2.033380176e-05
2.158684417e-05
2.341327632e-05
2.571307837e-05
2.834247934e-05
3.109876217e-05
3.371186117e-05
3.584578124e-05
3.711420877e-05
2.640049447e-05
2.79652507e-05
3.02435999e-05
3.310857465e-05
3.637925517e-05
3.980256643e-05
4.304337763e-05
4.568650719e-05
4.725592572e-05
3.396344325e-05
3.589807457e-05
3.871178054e-05
4.224484113e-05
4.627168956e-05
5.047944155e-05
5.445648842e-05
5.769535844e-05
5.961613361e-05
4.328592601e-05
4.565303774e-05
4.909157145e-05
5.340250151e-05
5.830732022e-05
6.342313981e-05
6.824987904e-05
7.217433267e-05
7.449843623e-05
5.464648078e-05
5.751153925e-05
6.166803874e-05
6.687042755e-05
7.277832204e-05
7.892816031e-05
8.471921109e-05
8.941927603e-05
9.219843861e-05
6.83317679e-05
7.176104604e-05
7.672929593e-05
8.293669986e-05
8.99716573e-05
9.727913842e-05
0.0001041458797
0.0001097082395
0.0001129918604
8.462800756e-05
8.868615077e-05
9.455704958e-05
0.0001018785775
0.0001101584775
0.0001187397487
0.000126785581
0.0001332897671
0.0001371227736
0.0001038114138
0.0001085587653
0.0001154164879
0.0001239520664
0.0001335834298
0.000143541854
0.0001528572238
0.0001603715996
0.0001647917576
0.0001261381466
0.0001316279947
0.000139546109
0.0001493818081
0.0001604546239
0.0001718755134
0.0001825330912
0.0001911107837
0.000196146795
0.000151834339
0.0001581103314
0.0001671481021
0.0001783516372
0.0001909345463
0.0002038803246
0.0002159305181
0.0002256066115
0.0002312765214
0.0001810867408
0.0001881804431
0.0001983795062
0.0002109963512
0.0002251322947
0.0002396383746
0.0002531064925
0.0002638959213
0.0002702060203
0.0002140341305
0.0002219630608
0.0002333446034
0.0002473944568
0.0002630975377
0.0002791700673
0.0002940544849
0.0003059508416
0.0003128951005
0.0002507595141
0.0002595253112
0.0002720878995
0.0002875630799
0.0003048172677
0.0003224320527
0.000338703567
0.0003516788451
0.0003592388858
0.0002912834836
0.0003008715213
0.0003145907315
0.000331455733
0.0003502146718
0.0003693173557
0.000386919687
0.0004009249164
0.000409070484
0.0003355616822
0.0003459411949
0.0003607699339
0.0003789620708
0.0003991501037
0.0004196575468
0.0004385089026
0.0004534755889
0.0004621654698
0.0003834841396
0.0003946089596
0.0004104786532
0.0004299097421
0.0004514240487
0.0004732267781
0.0004932223393
0.0005090645871
0.000518247897
0.0004348768238
0.0004466866885
0.0004635092598
0.0004840682193
0.0005067819076
0.0005297474596
0.0005507626109
0.0005673797816
0.0005769975371
0.0004895053606
0.0005019277062
0.0005195982142
0.0005411544149
0.0005649203637
0.0005888973006
0.0006107914024
0.000628071143
0.000638058022
0.0005470807444
0.0005600328762
0.0005784326511
0.0006008398083
0.0006254950304
0.0006503173971
0.0006729378815
0.000690759357
0.0007010455535
0.0006072667451
0.0006206582559
0.0006396583497
0.0006627587392
0.0006881290234
0.000713621005
0.0007368075853
0.0007550447543
0.0007655578386
0.000669688619
0.0006834239255
0.0007028886939
0.000726517473
0.0007524220725
0.0007784026278
0.0008019914289
0.0008205162168
0.0008311829212
0.0007339426764
0.0007479235474
0.0007677141907
0.0007917036222
0.0008179597806
0.0008442470573
0.0008680744986
0.0008867597492
0.0008975076152
0.0007996062354
0.0008137342026
0.0008337121152
0.0008578955234
0.0008843226643
0.0009107380336
0.0009346443358
0.0009533664463
0.0009641252842
0.0008662475143
0.0008804260742
0.0009004558828
0.0009246712066
0.0009510946523
0.0009774662471
0.001001298468
0.001019939646
0.001030642773
0.0009334350611
0.0009475716025
0.0009675238045
0.0009916166517
0.001017870783
0.001044036462
0.001067651007
0.001086101111
0.001096686356
0.001000746393
0.001014753806
0.001034506954
0.001058333103
0.00108426391
0.001110073615
0.001133338196
0.001151496154
0.001161906615
0.001067775598
0.001081573544
0.001101015957
0.001124443284
0.001149910295
0.001175227796
0.001198022853
0.001215797667
0.001225982241
0.001134139743
0.001147655588
0.001166686581
0.001189596425
0.001214474038
0.001239178096
0.001261397707
0.001278709063
0.001288622766
0.001199483998
0.001212653422
0.001231184096
0.001253472091
0.001277650347
0.001301635338
0.001323187664
0.001339966207
0.001349570286
0.001263485486
0.001276252788
0.001294206404
0.001315782846
0.001339167695
0.001362343768
0.001383151088
0.001399338383
0.001408600283
0.001325855876
0.001338174032
0.001355486031
0.001376275812
0.001398788965
0.001421081786
0.001441080196
0.001456628449
0.001465521621
0.001386342847
0.001398173332
0.001414791056
0.001434733268
0.001456311681
0.001477661855
0.001496800688
0.001511672249
0.00152017587
0.001444730519
0.001456042961
0.001471925119
0.001490972375
0.00151156746
0.001531929693
0.001550170722
0.001564337452
0.001572436046
0.001500839003
0.001511610688
0.001526726656
0.001544844199
0.001564420822
0.001583762895
0.001601079388
0.001614521906
0.001622204912
0.001554523224
0.001564738508
0.001579067476
0.001596232148
0.001614767486
0.001633069099
0.001649444769
0.001662151632
0.001669412942
0.001605671159
0.001615320813
0.001628850856
0.001645049969
0.001662532277
0.001679783825
0.00169521173
0.00170717858
0.001714016051
0.001654201639
0.001663282155
0.001676009265
0.001691239427
0.001707666773
0.001723868091
0.001738349515
0.001749578219
0.001755993192
0.001700061848
0.001708574737
0.001720501833
0.001734767777
0.001750146776
0.001765305901
0.001778849255
0.001789347061
0.001795343884
0.001743224624
0.00175117573
0.001762311696
0.001775625131
0.001789969716
0.001804101686
0.00181672145
0.001826500181
0.001832085756
0.001783685688
0.001791084518
0.001801443283
0.001813821796
0.001827152049
0.001840277771
0.001851993495
0.001861068788
0.001866252147
0.001821460853
0.001828319959
0.001837919623
0.001849385657
0.001861726725
0.001873871915
0.001884707296
0.001893097899
0.00189788981
0.00185658331
0.001862917711
0.00187177975
0.001882359658
0.001893740748
0.001904934969
0.001914917006
0.001922644142
0.001927056749
0.00188910103
0.001894927683
0.00190307622
0.001912799415
0.001923252893
0.001933528683
0.001942686918
0.001949773705
0.001953820215
0.001919074313
0.001924411647
0.001931872807
0.001940770992
0.00195033158
0.001959723681
0.001968089526
0.001974560474
0.001978254862
0.00194657353
0.001951441033
0.001958242364
0.001966348867
0.001975052935
0.001983597613
0.00199120376
0.001997084321
0.002000441092
0.001971677061
0.001976094913
0.001982264893
0.001989614084
0.001997499038
0.002005233494
0.002012113406
0.002017429593
0.00202046356
0.001994469432
0.001998458201
0.002004025811
0.002010652596
0.002017756357
0.00202471823
0.002030905706
0.002035683763
0.002038409865
0.002015039668
0.002018620045
0.002023614403
0.002029553812
0.002035914368
0.002042141311
0.002047670122
0.00205193625
0.002054369401
0.00203347984
0.002036672418
0.002041122486
0.002046409315
0.00205206436
0.002057593691
0.002062497275
0.002066277402
0.002068432362
0.002049883803
0.002052708904
0.002056643233
0.002061311762
0.002066298396
0.002071166812
0.002075478028
0.002078797627
0.002080688895
0.002064346124
0.002066823646
0.002070270187
0.002074353948
0.002078708436
0.002082951784
0.002086702717
0.002089586653
0.002091228388
0.002076961159
0.002079110471
0.002082096413
0.00208562801
0.002089385595
0.002093038698
0.002096260504
0.002098732921
0.002100138876
0.002087822299
0.002089662149
0.002092213805
0.002095224779
0.002098419539
0.002101516059
0.00210423885
0.002106323084
0.002107506554
0.00209702134
0.002098569792
0.002100712511
0.002103233237
0.002105897987
0.002108470328
0.002110723089
0.002112441605
0.002113415395
0.002104647978
0.002105922372
0.002107680477
0.002109740101
0.002111906317
0.002113985558
0.00211579609
0.002117170439
0.002117946838
0.002110789412
0.002111806332
0.002113203089
0.002114829479
0.002116527259
0.00211814312
0.002119538006
0.002120588801
0.002121179569
0.002115530042
0.002116305303
0.002117362895
0.002118582628
0.002119840671
0.002121021489
0.002122026083
0.002122772987
0.002123189347
0.002118951236
0.002119499884
0.002120239414
0.002121077768
0.002121923373
0.002122696107
0.002123334532
0.002123796261
0.0021240489
0.002121131184
0.002121467497
0.002121908995
0.002122389965
0.002122849047
0.002123239289
0.002123534453
0.002123728784
0.002123827859
0.002122144793
0.0021222823
0.00212244474
0.002122591059
0.002122688172
0.002122720178
0.002122693794
0.002122637585
0.002122592731
0.002122063644
0.002122015138
0.002121916468
0.002121749639
0.002121508013
0.002121204734
0.002120877353
0.002120586566
0.002120406912
0.002120955978
0.002120733542
0.002120390714
0.00211993105
0.002119372632
0.002118755756
0.002118146806
0.002117636534
0.002117330717
0.002118886723
0.002118501755
0.002117930762
0.002117197429
0.002116342931
0.002115432931
0.002114560755
0.002113845254
0.002113421434
0.002115917548
0.00211538079
0.002114596703
0.002113607768
0.002112476716
0.002111292896
0.002110174796
0.002109267521
0.002108733404
0.002112106931
0.002111428496
0.002110445508
0.002109217985
0.002107828773
0.002106389323
0.002105041608
0.002103955244
0.002103318097
0.00210751025
0.002106699654
0.002105531121
0.002104081022
0.002102450964
0.002100773012
0.002099211042
0.002097957541
0.002097224216
0.002102179883
0.002101246075
0.002099904556
0.002098246943
0.002096392329
0.002094491992
0.002092730226
0.002091320842
0.002090497794
0.002096165321
0.002095116709
0.002093614011
0.002091763044
0.002089699191
0.002087591629
0.002085643671
0.002084088998
0.002083182305
0.002089513279
0.002088357765
0.00208670498
0.002084673966
0.002082415274
0.002080114739
0.002077993385
0.002076303388
0.002075318772
0.002082267818
0.002081012823
0.002079220372
0.002077021814
0.002074581812
0.002072101703
0.002069818981
0.002068003036
0.002066945879
0.002074470467
0.00207312296
0.00207120063
0.002068846272
0.002066237671
0.002063590577
0.002061157796
0.002059224718
0.002058100082
0.002066160342
0.002064726867
0.002062683848
0.002060184719
0.002057419461
0.002054617212
0.002052045
0.002050003073
0.002048815722
0.002057374263
0.002055860966
0.002053705889
0.002051072349
0.00204816165
0.00204521536
0.002042513703
0.002040370718
0.002039125129
0.002048146869
0.002046559527
0.002044300502
0.002041542281
0.002038496677
0.002035416786
0.002032595069
0.002030358348
0.002029058732
0.002038510736
0.002036854784
0.002034499429
0.002031625668
0.002028455057
0.002025251375
0.002022318417
0.002019994842
0.002018645157
0.002028496514
0.002026777048
0.002024332526
0.002021351813
0.002018065493
0.002014747237
0.002011711326
0.002009307365
0.002007911333
0.002018133038
0.002016354835
0.002013827868
0.002010748269
0.002007354975
0.002003930804
0.002000799727
0.00199832146
0.001996882581
0.002007447424
0.002005614964
0.002003011854
0.001999840943
0.00199634888
0.00199282693
0.001989608004
0.001987061147
0.001985582711
0.001996465157
0.001994582641
0.001991909303
0.001988654189
0.001985071064
0.001981458977
0.001978159081
0.001975549004
0.001974034105
0.001985210181
0.001983281556
0.001980543533
0.001977210898
0.001973543949
0.001969848908
0.001966474503
0.001963806258
0.001962257804
0.001973705001
0.001971733972
0.001968936478
0.001965532588
0.001961788612
0.001958017363
0.001954574524
0.001951852856
0.001950273584
0.001961970758
0.001959960805
0.001957108734
0.001953639476
0.001949824859
0.001945983742
0.001942478178
0.00193970755
0.001938100031
0.001950027313
0.001947981707
0.001945079657
0.001941550558
0.001937671301
0.001933766274
0.001930203351
0.00192738796
0.001925754614
0.001937893321
0.001935815135
0.001932867426
0.00192928368
0.001925345425
0.001921382089
0.001917766854
0.001914910646
0.001913253749
0.001925586311
0.001923478433
0.001920489128
0.001916855619
0.001912863664
0.001908847285
0.001905184481
0.001902291169
0.001900612861
0.001913122746
0.001910987891
0.001907960807
0.001904282126
0.001900241457
0.001896176987
0.001892471077
0.001889544151
0.001887846448
0.001900518093
0.001898358815
0.001895297543
0.001891578005
0.001887493311
0.001883385408
0.00187964059
0.001876683335
0.001874968132
0.001887786885
0.001885605585
0.001882513502
0.001878757169
0.001874632857
0.001870485902
0.001866706126
0.001863721634
0.001861990715
0.001874942773
0.001872741711
0.001869621995
0.00186583269
0.001861672907
0.001857491021
0.001853680003
0.001850671183
0.001848926228
0.001861998586
0.001859779887
0.001856635528
0.001852816846
0.001848625496
0.001844412559
0.001840573796
0.001837543386
0.001835785976
0.001848966377
0.001846732041
0.001843565853
0.001839721177
0.001835501934
0.001831261597
0.001827398382
0.001824348961
0.001822580584
0.001835857471
0.001833609382
0.001830424014
0.001826556531
0.001822312852
0.001818048552
0.001814163985
0.00181109798
0.001809320039
0.001822682513
0.001820422444
0.00181722039
0.001813333098
0.00180906824
0.001804783214
0.001800880214
0.001797799911
0.001796013728
0.001809451504
0.001807181125
0.001803964734
0.001800060459
0.001795777488
0.001791474784
0.0017875561
0.001784463654
0.001782670472
0.001796173848
0.001793894732
0.001790666216
0.001786747619
0.001782449423
0.001778131913
0.001774200138
0.001771097577
0.00176929857
0.001782858385
0.001780572013
0.001777333456
0.001773403044
0.001769092347
0.001764762737
0.001760820311
0.001757709549
0.001755905822
0.001769513424
0.001767221193
0.001763974561
0.001760034697
0.001755714064
0.001751374907
0.001747424131
0.001744306973
0.001742499568
0.001756146785
0.001753850012
0.001750597157
0.00174665007
0.00174232192
0.001737975622
0.001734018669
0.001730896815
0.001729086717
0.001742765823
0.00174046575
0.00173720842
0.001733256213
0.001728922831
0.001724571662
0.001720610581
0.001717485639
0.001715673777
0.001729377465
0.001727075264
0.001723815109
0.001719859768
0.001715523309
0.001711169415
0.001707206144
0.001704079631
0.001702266883
0.001715988236
0.001713685017
0.001710423597
0.001706466997
0.001702129502
0.001697774911
0.00169381128
0.001690684634
0.001688871831
0.001702604296
0.001700301106
0.001697039897
0.001693083816
0.001688747215
0.001684393849
0.001680431594
0.001677306176
0.001675494107
0.001689231465
0.001686929298
0.001683669699
0.001679715822
0.001675381947
0.001671031631
0.001667072401
0.001663949505
0.001662138919
0.001675875257
0.001673575059
0.0016703184
0.001666368331
0.001662038925
0.001657693396
0.001653738763
0.001650619623
0.001648811235
0.001662540917
0.001660243589
0.001656991141
0.00165304641
0.00164872314
0.00164438406
0.001640435527
0.001637321328
0.001635515824
0.001649233459
0.001646939864
0.001643692845
0.001639754922
0.00163543939
0.001631108358
0.001627167376
0.001624059256
0.0016222573
0.001635957705
0.001633668679
0.001630428264
0.00162649857
0.001622192327
0.001617870895
0.00161393887
0.001610837941
0.001609040177
0.001622718342
0.001620434695
0.001617202032
0.001613281955
0.001608986518
0.001604676204
0.001600754521
0.001597661875
0.001595868938
0.001609519975
0.001607242507
0.001604018727
0.001600109637
0.001595826509
0.001591528824
0.001587618858
0.001584535585
0.001582748113
0.0015963672
0.001594096709
0.001590882946
0.00158698622
0.001582716912
0.00157843338
0.001574536526
0.001571463733
0.001569682372
0.001583264688
0.001581001988
0.001577799395
0.001573916438
0.001569662502
0.001565394691
0.00156151239
0.001558451225
0.001556676648
0.001570217286
0.001567963221
0.001564772999
0.00156090528
0.001556668341
0.001552417901
0.001548551673
0.001545503352
0.001543736273
0.001557230141
0.001554985606
0.001551809033
0.00154795812
0.001543739918
0.001539508626
0.001535660114
0.001532625955
0.001530867152
0.001544308838
0.001542074806
0.001538913274
0.001535080878
0.001530883323
0.001526673132
0.001522844155
0.001519825621
0.001518075958
0.001531459575
0.001529237124
0.00152609218
0.00152228021
0.001518105443
0.001513918553
0.00151011116
0.001507109909
0.001505370365
0.001518689353
0.001516479705
0.001513353104
0.001509563733
0.001505414193
0.00150125312
0.001497469666
0.001494487604
0.001492759312
0.001506006204
0.001503810762
0.001500704524
0.001496940259
0.00149281877
0.001488686434
0.001484929658
0.001481969008
0.001480253291
0.001493419431
0.001491239827
0.001488156304
0.001484420068
0.001480329931
0.001476229753
0.00147250287
0.001469566246
0.00146786466
0.001480939877
0.001478778022
0.001475719973
0.001472015198
0.001467960294
0.001463896298
0.001460203096
0.001457293585
0.001455607969
0.001468580204
0.001466438343
0.00146340901
0.001459739738
0.001455724634
0.001451701563
0.001448046507
0.001445167749
0.001443500277
0.001456355175
0.001454235944
0.001451239135
0.001447610115
0.00144364018
0.001439663606
0.001436051947
0.001433208222
0.00143156145
0.001444281923
0.001442188405
0.001439228579
0.001435645367
0.001431726877
0.001427803311
0.001424241182
0.00142143749
0.001419814405
0.001432380188
0.001430315977
0.001427398325
0.001423867369
0.0014200076
0.001416144589
0.001412639089
0.001409881217
0.001408285277
0.00142067254
0.00141864178
0.00141577227
0.00141230098
0.001408508286
0.001404714477
0.001401273738
0.001398568308
0.001397003467
0.001409184489
0.001407191893
0.001404377308
0.001400974096
0.001397257945
0.001393543128
0.001390176336
0.001387530822
0.001386001543
0.001397944475
0.001395995332
0.001393243277
0.001389917561
0.001386288535
0.001382663626
0.001379381007
0.001376803711
0.001375314948
0.001386983736
0.001385083893
0.001382402762
0.001379164919
0.00137563465
0.001372111618
0.001368924357
0.001366424341
0.001364981489
0.001376336006
0.001374491817
0.001371890721
0.00136875198
0.001365333017
0.001361924736
0.001358844823
0.001356431776
0.001355040594
0.00136603703
0.001364255272
0.001361743896
0.001358716165
0.001355421765
0.00135214178
0.001349181782
0.001346865822
0.001345532306
0.001356123882
0.001354411615
0.001352000032
0.001349095641
0.001345939474
0.001342801681
0.001339974425
0.001337765831
0.001336496051
0.001346634068
0.001344998468
0.001342696874
0.00133992825
0.001336924014
0.001333942253
0.00133126043
0.001329169308
0.001327969199
0.001337604447
0.001336052584
0.001333870982
0.001331250248
0.001328411209
0.001325598774
0.00132307447
0.001321110361
0.001319985484
0.001329069984
0.001327608571
0.001325556407
0.001323094919
0.001320433387
0.001317802477
0.001315446648
0.001313618098
0.001312573378
0.001321062395
0.00131969751
0.001317783269
0.001315491119
0.001313017888
0.001310579026
0.001308400955
0.001306715065
0.00130575452
0.001313608754
0.001312345548
0.001310576343
0.001308461855
0.001306185633
0.001303947093
0.001301953853
0.001300415851
0.001299542335
0.00130673014
0.00130557256
0.001303953734
0.001302022978
0.00129994987
0.001297917146
0.001296113125
0.001294725989
0.001293940972
0.001300440434
0.001299390973
0.001297925749
0.001296182129
0.001294315188
0.001292490571
0.001290877095
0.001289641267
0.001288944674
0.00129474536
0.001293804856
0.001292494066
0.00129093801