/*--------------------------------*- C++ -*----------------------------------*\
| =========                 |                                                 |
| \\      /  F ield         | OpenFOAM: The Open Source CFD Toolbox           |
|  \\    /   O peration     | Version:  2212                                  |
|   \\  /    A nd           | Website:  www.openfoam.com                      |
|    \\/     M anipulation  |                                                 |
\*---------------------------------------------------------------------------*/
FoamFile
{
    version     2.0;
    format      ascii;
    arch        "LSB;label=32;scalar=64";
    class       volScalarField;
    location    "20.00000000";
    object      C6H6_0;
}
// * * * * * * * * * * * * * * * * * * * * * * * * * * * * * * * * * * * * * //

dimensions      [0 0 0 0 0 0 0];

internalField   nonuniform List<scalar> 
3000
(
3.854459009e-23
4.329987698e-23
5.047558163e-23
6.003786467e-23
7.188955369e-23
8.570883626e-23
1.006631829e-22
1.149325587e-22
1.250228905e-22
1.447133779e-22
1.632224504e-22
1.911405752e-22
2.284266811e-22
2.750438829e-22
3.307338265e-22
3.945298512e-22
4.632113652e-22
5.240520868e-22
3.241498511e-22
3.684793429e-22
4.359819005e-22
5.27635304e-22
6.45088042e-22
7.900441432e-22
9.619332362e-22
1.151104794e-21
1.312783348e-21
6.174215639e-22
7.092102981e-22
8.510303651e-22
1.047680787e-21
1.306128877e-21
1.632942146e-21
2.026337579e-21
2.45482213e-21
2.80067267e-21
1.096384012e-21
1.274834412e-21
1.554893403e-21
1.950787777e-21
2.481139084e-21
3.160812657e-21
3.978455297e-21
4.846763085e-21
5.513312632e-21
1.885327833e-21
2.220261934e-21
2.753442773e-21
3.518899356e-21
4.557466231e-21
5.895278451e-21
7.492382299e-21
9.147371335e-21
1.037179173e-20
3.200655578e-21
3.815915419e-21
4.806765072e-21
6.245340738e-21
8.211759981e-21
1.074512563e-20
1.374066579e-20
1.678422224e-20
1.898036304e-20
5.416701985e-21
6.530223028e-21
8.339468188e-21
1.098659749e-20
1.461928597e-20
1.928987085e-20
2.47640538e-20
3.024504047e-20
3.413400567e-20
9.182118776e-21
1.117614425e-20
1.443701418e-20
1.9232249e-20
2.582456813e-20
3.427741336e-20
4.411332507e-20
5.38590309e-20
6.069764507e-20
1.562014204e-20
1.916284371e-20
2.498286411e-20
3.356917073e-20
4.538065064e-20
6.048599828e-20
7.796555401e-20
9.515780328e-20
1.071320051e-19
2.667709077e-20
3.293423743e-20
4.32463364e-20
5.849072117e-20
7.946195757e-20
1.062213953e-19
1.370590585e-19
1.672343349e-19
1.881455971e-19
4.572618108e-20
5.672864979e-20
7.490109962e-20
1.017994363e-19
1.38794895e-19
1.859165827e-19
2.400555613e-19
2.928409879e-19
3.292948201e-19
7.861578084e-20
9.789827649e-20
1.29794717e-19
1.770440037e-19
2.420105572e-19
3.24643102e-19
4.193708766e-19
5.114966419e-19
5.749698291e-19
1.354884274e-19
1.691991323e-19
2.250205129e-19
3.077509719e-19
4.21467761e-19
5.659464141e-19
7.312987865e-19
8.918221886e-19
1.002254995e-18
2.339383499e-19
2.927672822e-19
3.902535497e-19
5.347791753e-19
7.333805122e-19
9.854861573e-19
1.273650362e-18
1.553043198e-18
1.745112503e-18
4.044916847e-19
5.070211494e-19
6.770174912e-19
9.291062293e-19
1.275468062e-18
1.714906856e-18
2.216777795e-18
2.702908907e-18
3.036937964e-18
7.001163589e-19
8.786373753e-19
1.174757258e-18
1.613991681e-18
2.21752628e-18
2.983192334e-18
3.857490749e-18
4.703881577e-18
5.284132628e-18
1.212726466e-18
1.523324425e-18
2.038674086e-18
2.80318846e-18
3.853571344e-18
5.185661609e-18
6.705862737e-18
8.176482236e-18
9.184326719e-18
2.101850215e-18
2.64193663e-18
3.538229831e-18
4.867945523e-18
6.694639651e-18
9.01052484e-18
1.16522932e-17
1.42067889e-17
1.595698381e-17
3.64440844e-18
4.583172258e-18
6.141290784e-18
8.45294239e-18
1.162824094e-17
1.565296455e-17
2.02426035e-17
2.467916275e-17
2.771796651e-17
6.321143003e-18
7.952428302e-18
1.066019358e-17
1.467750351e-17
2.019517222e-17
2.718752968e-17
3.515929131e-17
4.286300999e-17
4.813854967e-17
1.096666736e-17
1.380078642e-17
1.850532786e-17
2.548491998e-17
3.507012885e-17
4.721481195e-17
6.105716865e-17
7.443060567e-17
8.358686007e-17
1.902993315e-17
2.395306613e-17
3.212528185e-17
4.424864352e-17
6.089543417e-17
8.198263844e-17
1.060110456e-16
1.292188321e-16
1.45104153e-16
3.302615993e-17
4.157696881e-17
5.577029169e-17
7.682339827e-17
1.057260725e-16
1.423283656e-16
1.840222688e-16
2.242784308e-16
2.518244691e-16
5.732072584e-17
7.217025229e-17
9.681617634e-17
1.333671434e-16
1.835325566e-16
2.470396216e-16
3.19350948e-16
3.891383262e-16
4.368725895e-16
9.948768964e-17
1.252713421e-16
1.680576922e-16
2.314951092e-16
3.185296793e-16
4.28660074e-16
5.539904713e-16
6.748774194e-16
7.575197194e-16
1.726612793e-16
2.174195111e-16
2.916750471e-16
4.017304091e-16
5.526489576e-16
7.434975766e-16
9.605312441e-16
1.169711612e-15
1.312611999e-15
2.996003266e-16
3.772697496e-16
5.060829733e-16
6.969052958e-16
9.584069215e-16
1.288826053e-15
1.664224185e-15
2.025674512e-15
2.272360354e-15
5.196994544e-16
6.544114294e-16
8.777281281e-16
1.2083312e-15
1.660995435e-15
2.232344691e-15
2.880666215e-15
3.504073945e-15
3.929001644e-15
9.010539455e-16
1.134532187e-15
1.521348836e-15
2.093515199e-15
2.876052029e-15
3.862398106e-15
4.97983566e-15
6.052492805e-15
6.782427139e-15
1.561158737e-15
1.965406226e-15
2.634637172e-15
3.623465109e-15
4.973925002e-15
6.673112303e-15
8.594221264e-15
1.043432889e-14
1.168386017e-14
2.702293946e-15
3.401257335e-15
4.557275007e-15
6.263012365e-15
8.588377072e-15
1.150776395e-14
1.480005706e-14
1.794496903e-14
2.007489647e-14
4.671765814e-15
5.878135237e-15
7.870949164e-15
1.080637027e-14
1.47991881e-14
1.979834446e-14
2.541849301e-14
3.076921523e-14
3.438137963e-14
8.063973547e-15
1.014129794e-14
1.356774871e-14
1.860430412e-14
2.543645785e-14
3.396231699e-14
4.351123041e-14
5.256616803e-14
5.865548286e-14
1.389241381e-14
1.745917026e-14
2.333171614e-14
3.194179023e-14
4.358317047e-14
5.80532021e-14
7.418746131e-14
8.941553342e-14
9.961031453e-14
2.387781461e-14
2.998027643e-14
4.000590811e-14
5.466027806e-14
7.439695875e-14
9.881581392e-14
1.259024496e-13
1.513302899e-13
1.68266656e-13
4.092763474e-14
5.13242278e-14
6.83605392e-14
9.317301949e-14
1.264393567e-13
1.67377967e-13
2.125218033e-13
2.546444426e-13
2.825410311e-13
6.992831495e-14
8.755227628e-14
1.163445515e-13
1.581044728e-13
2.138014053e-13
2.819296219e-13
3.565617139e-13
4.257343053e-13
4.712618128e-13
1.190441359e-13
1.48747258e-13
1.971046397e-13
2.669082679e-13
3.594624084e-13
4.719132206e-13
5.94210981e-13
7.067453485e-13
7.803242089e-13
2.018288942e-13
2.51561598e-13
3.322084421e-13
4.480003065e-13
6.005333024e-13
7.844965877e-13
9.830185965e-13
1.164298963e-12
1.282011662e-12
3.406284465e-13
4.232862328e-13
5.567347023e-13
7.472086097e-13
9.963440978e-13
1.294451439e-12
1.613523032e-12
1.902578987e-12
2.088956482e-12
5.720112143e-13
7.082819e-13
9.272236913e-13
1.237722991e-12
1.640772836e-12
2.119056735e-12
2.626650666e-12
3.08279451e-12
3.374836429e-12
9.553484393e-13
1.178037262e-12
1.533958527e-12
2.035271506e-12
2.680832151e-12
3.440343086e-12
4.239482816e-12
4.951849745e-12
5.404775688e-12
1.586228745e-12
1.946730291e-12
2.519730281e-12
3.321020194e-12
4.344398996e-12
5.537970012e-12
6.783069054e-12
7.884215101e-12
8.57963319e-12
2.617202963e-12
3.195044013e-12
4.108206106e-12
5.375774959e-12
6.981190202e-12
8.837389542e-12
1.075746601e-11
1.244261119e-11
1.350004851e-11
4.289509799e-12
5.206224789e-12
6.646378141e-12
8.630578922e-12
1.112278412e-11
1.397984395e-11
1.691126548e-11
1.946535952e-11
2.105845209e-11
6.981057775e-12
8.420106021e-12
1.06674693e-11
1.374090891e-11
1.756984812e-11
2.192337239e-11
2.635576035e-11
3.019135134e-11
3.257047256e-11
1.127820653e-11
1.35132371e-11
1.698331215e-11
2.169460376e-11
2.751799954e-11
3.408763081e-11
4.072787471e-11
4.643785186e-11
4.996161473e-11
1.808203788e-11
2.151661025e-11
2.681887566e-11
3.396770923e-11
4.273823779e-11
5.256032906e-11
6.242145676e-11
7.085222115e-11
7.603117531e-11
2.876416352e-11
3.398711962e-11
4.200667586e-11
5.274801759e-11
6.583409287e-11
8.038995139e-11
9.491403089e-11
1.072666857e-10
1.148237139e-10
4.539313882e-11
5.325530728e-11
6.526579748e-11
8.125378303e-11
1.006061388e-10
1.219987835e-10
1.432263142e-10
1.611961717e-10
1.721498929e-10
7.106087355e-11
8.278085084e-11
1.005999513e-10
1.241857689e-10
1.525661892e-10
1.837629953e-10
2.145657402e-10
2.405342641e-10
2.563140619e-10
1.10349888e-10
1.276595941e-10
1.538615035e-10
1.883630086e-10
2.296574512e-10
2.748235071e-10
3.192246843e-10
3.565237789e-10
3.791277796e-10
1.699860771e-10
1.953281735e-10
2.335359843e-10
2.8361195e-10
3.432631854e-10
4.082196586e-10
4.718326283e-10
5.251060033e-10
5.573172641e-10
2.597681395e-10
2.965678722e-10
3.518529421e-10
4.240108995e-10
5.096067636e-10
6.024557351e-10
6.930841019e-10
7.687828202e-10
8.144668255e-10
3.938651318e-10
4.468999432e-10
5.263254242e-10
6.296140937e-10
7.516897193e-10
8.836670499e-10
1.012124564e-09
1.119185295e-09
1.183697657e-09
5.926187864e-10
6.685203919e-10
7.818798228e-10
9.288304629e-10
1.101959786e-09
1.288596778e-09
1.469825714e-09
1.620597614e-09
1.711342295e-09
8.850313583e-10
9.929657649e-10
1.153783776e-09
1.361686295e-09
1.605963002e-09
1.868664438e-09
2.123257203e-09
2.334765246e-09
2.461956958e-09
1.312176006e-09
1.464761171e-09
1.691644319e-09
1.984270792e-09
2.327310117e-09
2.695489694e-09
3.05175083e-09
3.347410641e-09
3.525111411e-09
1.931837222e-09
2.146375574e-09
2.464827042e-09
2.874747916e-09
3.354378392e-09
3.868332493e-09
4.365056476e-09
4.77698728e-09
5.024506873e-09
2.824774012e-09
3.124897787e-09
3.569739847e-09
4.141416e-09
4.809273357e-09
5.524019021e-09
6.214201641e-09
6.786318392e-09
7.130088024e-09
4.10309747e-09
4.520947905e-09
5.139529224e-09
5.933403944e-09
6.859684909e-09
7.850034086e-09
8.805777354e-09
9.597876213e-09
1.007392408e-08
5.921363433e-09
6.50044845e-09
7.356846533e-09
8.454701301e-09
9.734377655e-09
1.110156096e-08
1.242046685e-08
1.351354409e-08
1.417071542e-08
8.491091904e-09
9.289987872e-09
1.047044538e-08
1.198231546e-08
1.374314026e-08
1.562332029e-08
1.743668802e-08
1.893974352e-08
1.984381178e-08
1.209952474e-08
1.319660162e-08
1.481645193e-08
1.688941307e-08
1.930206069e-08
2.187707645e-08
2.43602107e-08
2.641877446e-08
2.765757949e-08
1.713350203e-08
1.863285164e-08
2.084518524e-08
2.367431062e-08
2.696496848e-08
3.047561622e-08
3.386050882e-08
3.666708422e-08
3.835680211e-08
2.410934992e-08
2.614807806e-08
2.915436833e-08
3.299610462e-08
3.746176599e-08
4.222383783e-08
4.681439454e-08
5.062092952e-08
5.291352609e-08
3.370960078e-08
3.646659943e-08
4.052943625e-08
4.571755136e-08
5.174413766e-08
5.816730166e-08
6.43571455e-08
6.948952159e-08
7.258136571e-08
4.682718316e-08
5.053342576e-08
5.599139455e-08
6.295550333e-08
7.103877018e-08
7.964818578e-08
8.794088319e-08
9.481525754e-08
9.895677704e-08
6.461740606e-08
6.956770719e-08
7.685230088e-08
8.613878416e-08
9.690774544e-08
1.083680776e-07
1.193994161e-07
1.285400759e-07
1.340462352e-07
8.855761602e-08
9.512367181e-08
1.047779432e-07
1.17072853e-07
1.313152096e-07
1.464564547e-07
1.610181732e-07
1.730763838e-07
1.803376604e-07
1.205138443e-07
1.291582332e-07
1.418567021e-07
1.580100147e-07
1.766988263e-07
1.965431212e-07
2.156072849e-07
2.313804565e-07
2.408739078e-07
1.628131277e-07
1.741038181e-07
1.906729651e-07
2.117233312e-07
2.360439533e-07
2.618323415e-07
2.865753909e-07
3.070257762e-07
3.193257301e-07
2.183195438e-07
2.329443422e-07
2.543828733e-07
2.815818548e-07
3.129580104e-07
3.46176015e-07
3.780014342e-07
4.04273524e-07
4.200614108e-07
2.905114238e-07
3.092917276e-07
3.367897042e-07
3.716244029e-07
4.117421985e-07
4.541430229e-07
4.947015781e-07
5.281373872e-07
5.482102574e-07
3.835567759e-07
4.074599697e-07
4.424158866e-07
4.866288752e-07
5.374576089e-07
5.910818624e-07
6.422884629e-07
6.844400082e-07
7.09717358e-07
5.023837193e-07
5.325335896e-07
5.76568541e-07
6.321741053e-07
6.959828446e-07
7.631738459e-07
8.272202431e-07
8.798586634e-07
9.113872809e-07
6.527427345e-07
6.904273599e-07
7.45395562e-07
8.146914229e-07
8.940605202e-07
9.774744202e-07
1.056837114e-06
1.121957889e-06
1.160914267e-06
8.412577658e-07
8.87934457e-07
9.559295633e-07
1.041503462e-06
1.139330407e-06
1.241940627e-06
1.33938356e-06
1.419207654e-06
1.46689856e-06
1.075463626e-06
1.132760623e-06
1.216117452e-06
1.320848193e-06
1.440347393e-06
1.565442948e-06
1.684014682e-06
1.780985891e-06
1.838846147e-06
1.363827685e-06
1.433542451e-06
1.534833894e-06
1.661886566e-06
1.806582775e-06
1.957760303e-06
2.100786154e-06
2.217563548e-06
2.287151138e-06
1.715754378e-06
1.799848366e-06
1.921877277e-06
2.074692344e-06
2.248408058e-06
2.42955833e-06
2.600626274e-06
2.740072347e-06
2.823061526e-06
2.141571467e-06
2.242161136e-06
2.387947773e-06
2.570225406e-06
2.77706191e-06
2.992349285e-06
3.19529053e-06
3.360455717e-06
3.45862773e-06
2.652497813e-06
2.771843422e-06
2.944608013e-06
3.160285842e-06
3.404598121e-06
3.658434481e-06
3.897299437e-06
4.091402574e-06
4.206634157e-06
3.260593878e-06
3.401083942e-06
3.604224807e-06
3.857450507e-06
4.143816654e-06
4.440830342e-06
4.719859532e-06
4.94626448e-06
5.080514163e-06
3.978692821e-06
4.142825842e-06
4.379893217e-06
4.674992853e-06
5.008178685e-06
5.353178044e-06
5.676768262e-06
5.938956826e-06
6.094249127e-06
4.820314721e-06
5.010678795e-06
5.285345601e-06
5.626787313e-06
6.011705803e-06
6.40963772e-06
6.782303699e-06
7.083845042e-06
7.262252651e-06
5.799566496e-06
6.018816223e-06
6.334845015e-06
6.727198406e-06
7.16886449e-06
7.624768358e-06
8.051100325e-06
8.395617191e-06
8.599241341e-06
6.931026441e-06
7.181857544e-06
7.543064263e-06
7.990955961e-06
8.494437254e-06
9.013394922e-06
9.498012604e-06
9.889144816e-06
1.012009411e-05
8.229615083e-06
8.514737056e-06
8.924952062e-06
9.433018081e-06
1.000338221e-05
1.059046471e-05
1.113796854e-05
1.157933441e-05
1.183970248e-05
9.710454005e-06
1.003256122e-05
1.049558823e-05
1.106842393e-05
1.171068346e-05
1.237089547e-05
1.2985816e-05
1.348097239e-05
1.377281486e-05
1.138871481e-05
1.175045663e-05
1.227003033e-05
1.291213898e-05
1.3631195e-05
1.436941839e-05
1.505616494e-05
1.560856707e-05
1.593387837e-05
1.327946088e-05
1.36834114e-05
1.426315472e-05
1.497889585e-05
1.577948168e-05
1.660041934e-05
1.736322944e-05
1.797619127e-05
1.833688191e-05
1.539748523e-05
1.584611337e-05
1.648949543e-05
1.728303429e-05
1.816966074e-05
1.907778235e-05
1.99206731e-05
2.059732961e-05
2.09952046e-05
1.775714792e-05
1.825278879e-05
1.896308473e-05
1.983834424e-05
2.081524792e-05
2.181473924e-05
2.274146214e-05
2.348473445e-05
2.392147345e-05
2.037221733e-05
2.09170455e-05
2.169729929e-05
2.265791596e-05
2.372901219e-05
2.48237292e-05
2.583772977e-05
2.665029423e-05
2.712743403e-05
2.325571909e-05
2.385172475e-05
2.470471609e-05
2.575400107e-05
2.692284284e-05
2.811627219e-05
2.922065551e-05
3.010491751e-05
3.062383724e-05
2.641979689e-05
2.706876545e-05
2.799698181e-05
2.913788834e-05
3.04076323e-05
3.170285915e-05
3.290036216e-05
3.385843544e-05
3.442034505e-05
2.987558881e-05
3.057908462e-05
3.158469911e-05
3.281979708e-05
3.419317766e-05
3.559286155e-05
3.688583287e-05
3.791952472e-05
3.852545679e-05
3.36331224e-05
3.439247691e-05
3.547733247e-05
3.680879089e-05
3.828810283e-05
3.979446222e-05
4.118484972e-05
4.229565222e-05
4.294645727e-05
3.770123079e-05
3.851753547e-05
3.968313574e-05
4.111271307e-05
4.269980277e-05
4.431460816e-05
4.580395429e-05
4.699304161e-05
4.768938691e-05
4.20874917e-05
4.296159562e-05
4.420910245e-05
4.573814495e-05
4.743441026e-05
4.915898574e-05
5.074843029e-05
5.201666174e-05
5.275903327e-05
4.679818993e-05
4.773070191e-05
4.906093916e-05
5.069038671e-05
5.249678483e-05
5.43320174e-05
5.602230717e-05
5.737023547e-05
5.815894294e-05
5.183830319e-05
5.282959817e-05
5.424306136e-05
5.597346019e-05
5.789052277e-05
5.983687867e-05
6.162838322e-05
6.305626743e-05
6.389145186e-05
5.721151038e-05
5.826173945e-05
5.97586106e-05
6.159013197e-05
6.361798651e-05
6.567553354e-05
6.756826612e-05
6.907608842e-05
6.995773195e-05
6.292022047e-05
6.40293242e-05
6.560949087e-05
6.75419548e-05
6.968035122e-05
7.18487859e-05
7.384242852e-05
7.542991415e-05
7.635785148e-05
6.896561995e-05
7.01333441e-05
7.179642195e-05
7.38293248e-05
7.607766594e-05
7.835634442e-05
8.045027601e-05
8.21169154e-05
8.309084659e-05
7.53477359e-05
7.657364904e-05
7.831900684e-05
8.045155172e-05
8.280892671e-05
8.519689811e-05
8.739022476e-05
8.913529721e-05
9.015480122e-05
8.206551194e-05
8.334902429e-05
8.517581051e-05
8.740693939e-05
8.987215861e-05
9.236819984e-05
9.465978615e-05
9.648238425e-05
9.754693291e-05
8.911689392e-05
9.045727682e-05
9.236444697e-05
9.469287353e-05
9.726450421e-05
9.98671552e-05
0.0001022556559
0.00010415471
0.000105263682
9.649892252e-05
9.789532787e-05
9.988167182e-05
0.0001023059142
0.0001049823157
0.0001076899142
0.000110173805
0.0001121481074
0.0001133008022
0.0001042078298
0.0001056593091
0.0001077234778
0.0001102418904
0.0001130212485
0.0001158319636
0.0001184095714
0.0001204577993
0.0001216534499
0.0001122391371
0.0001137446599
0.0001158851908
0.0001184959946
0.0001213763538
0.000124288218
0.000126957749
0.0001290784864
0.0001303162724
0.0001205877525
0.0001221462233
0.0001243615643
0.0001270628754
0.0001300421696
0.0001330531082
0.0001358126742
0.0001380044323
0.0001392834909
0.0001292480653
0.0001308583395
0.0001331468711
0.0001359367265
0.0001390128065
0.000142120665
0.0001449683077
0.0001472295434
0.0001485489804
0.0001382140362
0.0001398749345
0.0001422349895
0.0001451113712
0.0001482820303
0.0001514845988
0.0001544183113
0.0001567474438
0.000158106343
0.0001474792826
0.000149189604
0.0001516194855
0.0001545803412
0.0001578433371
0.0001611383723
0.0001641561184
0.0001665515444
0.0001679489762
0.0001570371575
0.00015879569
0.0001612936871
0.0001643369489
0.0001676900238
0.0001710752678
0.0001741749991
0.0001766351056
0.0001780701346
0.000166880821
0.0001686863521
0.0001712507532
0.0001743743533
0.0001778152508
0.000181288448
0.0001844681183
0.000186991294
0.0001884629852
0.0001770033061
0.0001788546304
0.0001814837349
0.0001846856194
0.0001882120986
0.0001917710096
0.0001950285875
0.0001976132326
0.0001991206572
0.0001873975757
0.0001892935025
0.0001919856304
0.0001952637705
0.0001988736184
0.0002025160316
0.0002058495109
0.0002084940448
0.0002100362847
0.0001980565746
0.0001999959329
0.0002027494325
0.0002061018341
0.0002097928753
0.0002135166165
0.0002169240247
0.000219626893
0.000221203045
0.0002089732728
0.0002109549165
0.0002137681709
0.0002171928813
0.0002209629861
0.0002247659265
0.0002282453318
0.0002310050115
0.0002326141902
0.0002201407041
0.000222163515
0.0002250349468
0.0002285300615
0.0002323771516
0.0002362572139
0.0002398067304
0.0002426217344
0.0002442630746
0.0002315519974
0.0002336148883
0.0002365429635
0.0002401066297
0.0002440286836
0.0002479838461
0.0002516016382
0.0002544705181
0.000256143177
0.000243200404
0.0002453023203
0.0002482855507
0.0002519159709
0.0002559110267
0.000259939327
0.0002636236121
0.0002665449613
0.0002682481197
0.0002550793184
0.0002572192394
0.0002602561847
0.0002639516186
0.0002680177763
0.0002721173135
0.0002758663643
0.0002788388188
0.0002805716822
0.0002671822961
0.0002693592358
0.0002724485042
0.0002762072699
0.0002803426929
0.0002845116286
0.0002883237741
0.000291346014
0.0002931078134
0.0002795030666
0.0002817160737
0.0002848563225
0.0002886767969
0.0002928797121
0.0002971162712
0.0003009898974
0.0003040606474
0.0003058506392
0.0002920355431
0.0002942837013
0.0002974736363
0.000301354255
0.000305622953
0.0003099254234
0.0003138589729
0.0003169770021
0.0003187944685
0.0003047738295
0.0003070562565
0.0003102946321
0.0003142338885
0.0003185667226
0.0003229334547
0.0003269254265
0.000330089548
0.0003319337968
0.0003177122243
0.0003200280718
0.0003233136895
0.0003273101339
0.0003317055191
0.0003361349246
0.0003401838731
0.0003433929437
0.0003452633077
0.0003308452231
0.0003331936755
0.000336525383
0.0003405776211
0.0003450340328
0.0003495245832
0.0003536291171
0.000356882036
0.0003587778729
0.0003441675185
0.0003465477919
0.0003499244816
0.0003540311732
0.0003585471452
0.0003630973706
0.000367256151
0.0003705518591
0.0003724725507
0.0003576739985
0.0003600853399
0.0003635059475
0.0003676658044
0.0003722399274
0.0003768484141
0.0003810601538
0.0003843976321
0.0003863425836
0.0003713597442
0.0003738014302
0.0003772649333
0.0003814767174
0.0003861076366
0.0003907730259
0.0003950364867
0.0003984147555
0.0004003833949
0.0003852200257
0.0003876913613
0.0003911967775
0.0003954592995
0.0004001457129
0.0004048666983
0.0004091806901
0.0004125988072
0.0004145905844
0.0003992502975
0.0004017506153
0.0004052970008
0.0004096091175
0.0004143497738
0.0004191250997
0.0004234884781
0.0004269455375
0.0004289599236
0.0004134461937
0.000415974852
0.0004195612997
0.0004239219126
0.0004287156089
0.0004335440681
0.000437955733
0.0004414508638
0.0004434873504
0.0004278035235
0.0004303599057
0.0004339855435
0.000438393596
0.0004432391755
0.0004481196071
0.0004525785005
0.0004561108651
0.0004581689631
0.0004423182645
0.0004449017776
0.0004485657669
0.0004530202431
0.0004579165932
0.0004628478802
0.0004673529841
0.0004709217766
0.0004730010157
0.0004569865564
0.0004595966298
0.0004632981637
0.0004677980861
0.0004727441361
0.000477725204
0.0004822755389
0.000485879984
0.0004879799117
0.0004718046938
0.0004744407787
0.0004781790807
0.0004827235083
0.000487718228
0.0004927480423
0.0004973426656
0.0005009820171
0.000503102198
0.0004867691209
0.0004894306887
0.0004932050112
0.0004977930384
0.0005028354355
0.0005079130004
0.0005125510046
0.0005162245442
0.0005183645593
0.0005018764256
0.0005045629669
0.0005083725898
0.0005130033438
0.0005180924626
0.0005232168189
0.0005278973296
0.0005316043656
0.0005337638112
0.0005171233328
0.0005198343567
0.0005236785855
0.0005283512251
0.0005334861445
0.0005386563675
0.0005433785424
0.0005471184081
0.0005492968955
0.0005325066998
0.0005352417319
0.0005391198963
0.00054383361
0.0005490134414
0.0005542286396
0.0005589916663
0.0005627637191
0.0005649608737
0.0005480235091
0.0005507820905
0.0005546935432
0.0005594475475
0.0005646714333
0.0005699307461
0.0005747338409
0.000578537461
0.0005807529213
0.0005636708603
0.0005664525484
0.0005703966635
0.0005751902013
0.0005804573133
0.00058575991
0.0005906023164
0.0005944369054
0.0005966703229
0.0005794459638
0.0005822503319
0.0005862265049
0.0005910588448
0.0005963683829
0.0006017134607
0.0006065944476
0.0006104594278
0.0006127104661
0.0005953461354
0.0005981727716
0.0006021804195
0.0006070508547
0.0006124020448
0.000617788828
0.0006227076894
0.000626602503
0.0006288708372
0.0006113687924
0.000614217299
0.000618255858
0.0006231637051
0.0006285557995
0.0006339835383
0.0006389395918
0.0006428636995
0.0006451490155
0.0006275114479
0.0006303814403
0.0006344503663
0.0006393949642
0.0006448272398
0.0006502952089
0.0006552877946
0.0006592406748
0.000661542669
0.0006437717064
0.0006466628122
0.0006507615781
0.0006557422884
0.0006612140457
0.0006667215436
0.0006717500228
0.0006757311709
0.0006780495497
0.0006601472597
0.0006630591183
0.0006671872143
0.0006722034185
0.0006777139804
0.0006832603279
0.0006883240822
0.0006923330099
0.000694667489
0.0006766358825
0.0006795681446
0.0006837250765
0.0006887761758
0.0006943248863
0.0006999094253
0.000705007856
0.00070904409
0.000711394394
0.000693235428
0.0006961877549
0.0007003730438
0.000705458458
0.000711044681
0.0007166667735
0.0007217992997
0.0007258623816
0.0007282282439
0.0007099438239
0.000712915887
0.0007171290681
0.0007222482337
0.0007278713526
0.00073353038
0.0007386964387
0.0007427859236
0.0007451670855
0.000726759069
0.0007297505491
0.000733991171
0.0007391435416
0.0007448029575
0.000750498319
0.0007556973637
0.0007598128201
0.0007622090305
0.0007436792286
0.0007466898158
0.0007509574402
0.0007561424848
0.0007618376157
0.000767568728
0.0007728002277
0.0007769412365
0.0007793522518
0.000760702432
0.0007637318248
0.0007680260253
0.0007732432274
0.0007789735081
0.0007847398041
0.0007900032429
0.0007941693968
0.0007965949803
0.0007778268682
0.0007808747732
0.000785195135
0.0007904439919
0.0007962088728
0.0008020098011
0.0008073046773
0.0008114955803
0.0008139355018
0.0007950507832
0.0007981169149
0.0008024630341
0.0008077430571
0.0008135420026
0.0008193770264
0.0008247028518
0.0008289181184
0.0008313721541
0.0008123724771
0.0008154565572
0.0008198280405
0.0008251387531
0.0008309712418
0.0008368398381
0.0008421961372
0.0008464353923
0.000848903324
0.0008297903009
0.0008328920581
0.0008372885219
0.0008426294595
0.000848494983
0.0008543966423
0.0008597829515
0.0008640458292
0.0008665274446
0.0008473026533
0.000850421823
0.0008548428929
0.0008602136024
0.0008661116647
0.0008720458897
0.0008774617566
0.0008817479003
0.000884242992
0.0008649079787
0.0008680443022
0.0008724896128
0.0008778896512
0.0008838197679
0.000889786073
0.0008952310561
0.0008995401171
0.0009020484828
0.0008826047632
0.0008857579878
0.0008902271816
0.0008956561163
0.0009016178138
0.000907615724
0.0009130893914
0.0009174210291
0.0009199424709
0.0009003915326
0.000903561411
0.0009080541381
0.0009135115454
0.0009195043599
0.0009255334104
0.0009310353391
0.0009353892199
0.0009379235441
0.0009182668487
0.0009214531383
0.0009259690558
0.0009314545203
0.0009374779971
0.0009435377319
0.0009490675073
0.0009534433039
0.0009559903204
0.0009362293061
0.0009394317688
0.00094397054
0.0009494836536
0.0009555373461
0.0009616273172
0.0009671845316
0.0009715819222
0.0009741414442
0.0009542775285
0.0009574959301
0.0009620572235
0.0009675975846
0.0009736810529
0.0009798008188
0.0009853850704
0.000989803738
0.0009923755811
0.0009724101644
0.0009756442738
0.0009802277623
0.0009857949742
0.0009919077837
0.0009980569083
0.0010036678
0.001008107431
0.001010691413
0.0009906258822
0.0009938754704
0.0009984808299
0.0010040745
0.00101021622
0.00101639427
0.001022031407
0.001026491689
0.001029087629
0.001008923364
0.001012188203
0.001016815111
0.001022434848
0.001028605048
0.001034811593
0.001040474581
0.001044955203
0.001047562919
0.001027301297
0.00103058116
0.001035229294
0.001040874705
0.001047072956
0.001053307561
0.001058996005
0.001063496653
0.001066115962
0.001045758366
0.001049053023
0.001053722058
0.001059392748
0.001065618614
0.001071880841
0.001077594339
0.001082114695
0.001084745411
0.00106429324
0.001067602459
0.001072292064
0.00107798763
0.001084240667
0.001090530066
0.001096268207
0.001100807943
0.001103449876
0.001082904558
0.001086228099
0.001090937934
0.001096657959
0.001102937708
0.001109253815
0.001115016172
0.001119574948
0.001122227898
0.001101590908
0.001104928521
0.00110965823
0.001115402282
0.001121708262
0.001128050589
0.001133836711
0.001138414167
0.001141077924
0.0011203508
0.001123702223
0.001128451431
0.001134219048
0.001140550747
0.001146918772
0.001152728177
0.001157323927
0.001159998262
0.001139182638
0.001142547588
0.001147315889
0.001153106574
0.001159463438
0.001165856593
0.001171688755
0.001176302376
0.001178987039
0.001158084678
0.001161462843
0.001166249793
0.001172062997
0.001178444413
0.00118486207
0.001190716403
0.001195347421
0.001198042134
0.00117705497
0.001180446005
0.001185251107
0.001191086215
0.001197491492
0.001203932941
0.00120980878
0.001214456659
0.001217161102
0.001196091302
0.001199494812
0.001204317499
0.001210173808
0.001216602156
0.001223066579
0.001228963158
0.001233627275
0.001236341078
0.001215191113
0.001218606643
0.001223446257
0.00122932295
0.001235773447
0.001242259888
0.00124817631
0.001252855934
0.001255578661
0.001234351399
0.001237778413
0.001242634179
0.001248530293
0.00125500185
0.001261509179
0.001267444377
0.001272138638
0.001274869769
0.00125356859
0.00125700645
0.00126187745
0.001267791836
0.001274283151
0.001280810015
0.00128676271
0.001291470565
0.001294209476
0.001272838413
0.001276286355
0.001281171481
0.00128710276
0.001293612268
0.001300157034
0.001306125685
0.001310845872
0.001313591809
0.001292155723
0.001295612826
0.001300510743
0.001306457245
0.001312983053
0.001319543747
0.001325526487
0.001330257478
0.001333009526
0.001311514314
0.001314979461
0.001319888554
0.001325848259
0.001332388072
0.001338962303
0.001344956868
0.001349696811
0.00135245386
0.001330906703
0.001334378543
0.001339296854
0.001345267318
0.00135181836
0.001358403231
0.001364406881
0.001369153534
0.001371914242
0.001350323888
0.001353800788
0.001358725954
0.001364704222
0.00137126314
0.001377855157
0.001383864589
0.001388615249
0.001391377999
0.00136975509
0.001373235085
0.001378164262
0.00138414678
0.001390709545
0.001397304512
0.001403315761
0.001408067188
0.001410830042
0.001389187476
0.001392668213
0.001397597995
0.001403580516
0.001410142315
0.001416735224
0.001422743564
0.0014274919
0.001430252551
0.001408605872
0.001412084551
0.001417010891
0.001422988371
0.001429543497
0.001436128418
0.001442128259
0.001446868945
0.001449624672
0.001427992475
0.001431465791
0.001436383918
0.001442350419
0.001448892162
0.001455462133
0.001461446922
0.001466174621
0.00146892224
0.001447326584
0.001450790674
0.001455695015
0.001461643607
0.001468164149
0.001474711073
0.0014806732
0.001485381723
0.001488117549
0.001466584355
0.001470034748
0.001474918858
0.001480841535
0.001487331856
0.001493846406
0.001499777126
0.001504459375
0.001507179187
0.0014857386
0.001489170172
0.001494026672
0.001499914288
0.001506364098
0.001512835654
0.001518725024
0.001523372945
0.001526071959
0.001504758649
0.001508165593
0.001512986133
0.001518828348
0.001525226043
0.00153164265
0.001537479502
0.001542084062
0.001544756926
0.0015236103
0.001526986109
0.001531761346
0.001537546614
0.001543879258
0.001550227622
0.001555999564
0.001560550763
0.00156319156
0.001542255855
0.001545593329
0.001550312937
0.001556028521
0.001562281877
0.001568547403
0.001574240863
0.001578727775
0.001581330053
0.001560654279
0.001563945552
0.001568598268
0.001574230303
0.00158038891
0.001586555787
0.001592156105
0.001596566956
0.001599123777
0.001578761487
0.001581998081
0.001586571787
0.001592105388
0.001598152692
0.00160420404
0.001609695606
0.001614017896
0.001616521911
0.001596530768
0.001599703679
0.001604185525
0.001609604946