/*--------------------------------*- C++ -*----------------------------------*\
| =========                 |                                                 |
| \\      /  F ield         | OpenFOAM: The Open Source CFD Toolbox           |
|  \\    /   O peration     | Version:  2212                                  |
|   \\  /    A nd           | Website:  www.openfoam.com                      |
|    \\/     M anipulation  |                                                 |
\*---------------------------------------------------------------------------*/
FoamFile
{
    version     2.0;
    format      ascii;
    arch        "LSB;label=32;scalar=64";
    class       volScalarField;
    location    "20.00000000";
    object      C9H7_0;
}
// * * * * * * * * * * * * * * * * * * * * * * * * * * * * * * * * * * * * * //

dimensions      [0 0 0 0 0 0 0];

internalField   nonuniform List<scalar> 
3000
(
7.514738633e-28
8.442074219e-28
9.841430818e-28
1.170621925e-27
1.401749662e-27
1.671250634e-27
1.962888749e-27
2.241169417e-27
2.437951188e-27
2.821439629e-27
3.182400342e-27
3.726860054e-27
4.454022307e-27
5.363170828e-27
6.449267148e-27
7.693454867e-27
9.032915557e-27
1.021944668e-26
6.3201692e-27
7.184723219e-27
8.501234425e-27
1.02887861e-26
1.257954032e-26
1.540673676e-26
1.875924762e-26
2.244883658e-26
2.560219267e-26
1.203909992e-26
1.382938041e-26
1.659552903e-26
2.043118712e-26
2.54722899e-26
3.184696976e-26
3.952046536e-26
4.78784744e-26
5.462466366e-26
2.138023449e-26
2.486111723e-26
3.032408969e-26
3.80467679e-26
4.839251349e-26
6.165141938e-26
7.760209465e-26
9.454142484e-26
1.075449335e-25
3.676900581e-26
4.330299759e-26
5.370466505e-26
6.863811422e-26
8.890028174e-26
1.15001351e-25
1.461620522e-25
1.784528578e-25
2.02343195e-25
6.242897249e-26
7.443312184e-26
9.376576764e-26
1.218349162e-25
1.602044572e-25
2.096380619e-25
2.680918555e-25
3.274842307e-25
3.703409731e-25
1.056672599e-25
1.273957742e-25
1.627011664e-25
2.143586656e-25
2.852514609e-25
3.764023576e-25
4.83239902e-25
5.902135201e-25
6.661171998e-25
1.791478423e-25
2.180635781e-25
2.817051822e-25
3.75296043e-25
5.039665267e-25
6.689577321e-25
8.609522203e-25
1.051192265e-24
1.184688313e-24
3.048039758e-25
3.739544729e-25
4.875599313e-25
6.551692079e-25
8.857452814e-25
1.180634515e-24
1.521887018e-24
1.857542296e-24
2.091328888e-24
5.206476331e-25
6.42801078e-25
8.44123015e-25
1.141749589e-24
1.551203435e-24
2.073692243e-24
2.675834988e-24
3.265065408e-24
3.673409976e-24
8.925697072e-25
1.107397292e-24
1.462233997e-24
1.987475299e-24
2.709915005e-24
3.630139336e-24
4.687447137e-24
5.718359436e-24
6.430332842e-24
1.534829351e-24
1.911390086e-24
2.534306174e-24
3.457093063e-24
4.725960319e-24
6.339938265e-24
8.190240424e-24
9.989786658e-24
1.122968277e-23
2.645614938e-24
3.304049321e-24
4.394387087e-24
6.0104009e-24
8.231790565e-24
1.105422737e-23
1.42845808e-23
1.742071562e-23
1.957829995e-23
4.568782874e-24
5.718018858e-24
7.622504492e-24
1.044607406e-23
1.432629574e-23
1.92521038e-23
2.48826965e-23
3.034211272e-23
3.409531967e-23
7.901030547e-24
9.90430757e-24
1.322591295e-23
1.815176573e-23
2.492005462e-23
3.350757756e-23
4.331558521e-23
5.281636026e-23
5.934471553e-23
1.367790731e-23
1.716654669e-23
2.295350719e-23
3.153768967e-23
4.33334447e-23
5.82986887e-23
7.538796157e-23
9.193239434e-23
1.032749255e-22
2.369669284e-23
2.97674097e-23
3.984042844e-23
5.478429477e-23
7.53169918e-23
1.013577059e-22
1.310770887e-22
1.598282976e-22
1.795326747e-22
4.107733247e-23
5.163527942e-23
6.915723653e-23
9.515350432e-23
1.30867555e-22
1.761480539e-22
2.278025876e-22
2.777526475e-22
3.119766493e-22
7.123660901e-23
8.959132048e-23
1.200567984e-22
1.652579585e-22
2.273495563e-22
3.060550843e-22
3.958118618e-22
4.825783848e-22
5.420106457e-22
1.235798656e-22
1.554802775e-22
2.084336516e-22
2.870001905e-22
3.949144761e-22
5.316772239e-22
6.876030465e-22
8.38291982e-22
9.414877089e-22
2.144385981e-22
2.69870502e-22
3.618890124e-22
4.984125498e-22
6.859120145e-22
9.23489592e-22
1.194289675e-21
1.455926565e-21
1.635064546e-21
3.72170691e-22
4.684779184e-22
6.28350224e-22
8.655290721e-22
1.191218948e-21
1.603803965e-21
2.073956563e-21
2.52807038e-21
2.838913221e-21
6.460115379e-22
8.133133098e-22
1.091024508e-21
1.502974799e-21
2.068546058e-21
2.784818349e-21
3.600764878e-21
4.388605878e-21
4.92771817e-21
1.121430063e-21
1.412021371e-21
1.894336512e-21
2.609662076e-21
3.591477179e-21
4.834467325e-21
6.249840898e-21
7.615865736e-21
8.550250613e-21
1.946747979e-21
2.451400103e-21
3.288868467e-21
4.530599162e-21
6.234301851e-21
8.390204888e-21
1.084376835e-20
1.321043499e-20
1.482841781e-20
3.379228316e-21
4.255421176e-21
5.709107608e-21
7.863731091e-21
1.081849237e-20
1.455519332e-20
1.880476242e-20
2.290071817e-20
2.569893598e-20
5.864763317e-21
7.385514485e-21
9.907735122e-21
1.36442731e-20
1.876502209e-20
2.523560093e-20
3.258730374e-20
3.966611972e-20
4.449748518e-20
1.017539171e-20
1.281353726e-20
1.718702052e-20
2.366187103e-20
3.252764887e-20
4.371842359e-20
5.641731885e-20
6.862865669e-20
7.695241688e-20
1.76460583e-20
2.221934102e-20
2.979637611e-20
4.10044649e-20
5.633404388e-20
7.565688722e-20
9.754864552e-20
1.185638159e-19
1.328648962e-19
3.058107658e-20
3.850106861e-20
5.161292299e-20
7.098703e-20
9.7447432e-20
1.307417326e-19
1.683855984e-19
2.044433384e-19
2.289291654e-19
5.294960442e-20
6.664697756e-20
8.93015201e-20
1.227296799e-19
1.683020354e-19
2.255173484e-19
2.900425547e-19
3.516807555e-19
3.934269953e-19
9.157108017e-20
1.15218437e-19
1.542820935e-19
2.118235577e-19
2.900933938e-19
3.880911582e-19
4.982634312e-19
6.031556737e-19
6.73967749e-19
1.581271603e-19
1.9886015e-19
2.660469751e-19
3.648044062e-19
4.987688425e-19
6.659416611e-19
8.531728703e-19
1.030718298e-18
1.15011638e-18
2.725605296e-19
3.42526125e-19
4.57719049e-19
6.266039948e-19
8.549381363e-19
1.138741537e-18
1.455173788e-18
1.753825784e-18
1.953764283e-18
4.687883497e-19
5.885528573e-19
7.853002875e-19
1.072862053e-18
1.460119602e-18
1.939203097e-18
2.470581252e-18
2.969384278e-18
3.301604519e-18
8.042583111e-19
1.008426773e-18
1.342950169e-18
1.830097875e-18
2.48311706e-18
3.286607593e-18
4.172489812e-18
4.998975521e-18
5.546290362e-18
1.375852655e-18
1.722244018e-18
2.288042607e-18
3.10847845e-18
4.202433209e-18
5.540169673e-18
7.00520383e-18
8.362743756e-18
9.256102175e-18
2.34623576e-18
2.930709183e-18
3.881976439e-18
5.254617783e-18
7.073846415e-18
9.283131593e-18
1.168476821e-17
1.389378155e-17
1.533770983e-17
3.987333725e-18
4.967494944e-18
6.556241766e-18
8.836046253e-18
1.183722138e-17
1.545415314e-17
1.935444976e-17
2.291365303e-17
2.522368949e-17
6.751886619e-18
8.384607152e-18
1.101888156e-17
1.477561465e-17
1.968432098e-17
2.555130917e-17
3.182368753e-17
3.750005798e-17
4.115720437e-17
1.139105611e-17
1.409130979e-17
1.842563256e-17
2.45647379e-17
3.25216499e-17
4.194786655e-17
5.193429908e-17
6.089397478e-17
6.662318205e-17
1.914788834e-17
2.358034793e-17
3.065516322e-17
4.060189559e-17
5.338247958e-17
6.838172715e-17
8.412276254e-17
9.812042643e-17
1.070031163e-16
3.20765685e-17
3.929758862e-17
5.075343883e-17
6.673240756e-17
8.707624794e-17
1.107189704e-16
1.352900432e-16
1.569428708e-16
1.705783086e-16
5.357224953e-17
6.524989163e-17
8.36565304e-17
1.091168012e-16
1.412227737e-16
1.781594028e-16
2.161655854e-16
2.493525378e-16
2.700912993e-16
8.925734919e-17
1.080139486e-16
1.373791328e-16
1.776457835e-16
2.279241397e-16
2.851729988e-16
3.434879434e-16
3.939421326e-16
4.252306455e-16
1.484784392e-16
1.784294176e-16
2.249950171e-16
2.882824965e-16
3.665176142e-16
4.546766752e-16
5.435743862e-16
6.197877092e-16
6.666934144e-16
2.468606354e-16
2.944752182e-16
3.679853507e-16
4.670071516e-16
5.882008245e-16
7.233673696e-16
8.583165083e-16
9.729764767e-16
1.043023671e-15
4.107106693e-16
4.862144315e-16
6.019815938e-16
7.565751111e-16
9.439598624e-16
1.150882472e-15
1.35551032e-15
1.527889385e-15
1.632457039e-15
6.846752012e-16
8.043879046e-16
9.867458426e-16
1.228279097e-15
1.518412388e-15
1.835869445e-15
2.147074993e-15
2.407197963e-15
2.563978016e-15
1.145162512e-15
1.335487595e-15
1.623713339e-15
2.002702625e-15
2.454368559e-15
2.944694212e-15
3.421840809e-15
3.818086039e-15
4.05561768e-15
1.924015979e-15
2.228403784e-15
2.687124592e-15
3.286759615e-15
3.996987909e-15
4.763500221e-15
5.505546264e-15
6.119058132e-15
6.485454304e-15
3.250518104e-15
3.741867901e-15
4.479712723e-15
5.440367996e-15
6.573953819e-15
7.793685659e-15
8.971999543e-15
9.944876237e-15
1.052519261e-14
5.526067214e-15
6.329115466e-15
7.532792999e-15
9.097427852e-15
1.094233931e-14
1.292845425e-14
1.485058015e-14
1.644178629e-14
1.73932096e-14
9.458795023e-15
1.079122273e-14
1.278844479e-14
1.538714765e-14
1.845897181e-14
2.178008387e-14
2.501346676e-14
2.770896606e-14
2.933121936e-14
1.630806093e-14
1.855659653e-14
2.193320345e-14
2.634166305e-14
3.158075692e-14
3.728740745e-14
4.289476634e-14
4.761648022e-14
5.048455996e-14
2.833381732e-14
3.219629094e-14
3.801562902e-14
4.565280817e-14
5.479473685e-14
6.484264721e-14
7.481508446e-14
8.329423422e-14
8.848606384e-14
4.963236149e-14
5.638445962e-14
6.659961483e-14
8.00863035e-14
9.63523432e-14
1.14378718e-13
1.324063759e-13
1.478183158e-13
1.57282191e-13
8.770516152e-14
9.970169979e-14
1.179284405e-13
1.421282059e-13
1.714958434e-13
2.042171182e-13
2.370390604e-13
2.650938634e-13
2.822829096e-13
1.564122609e-13
1.780219606e-13
2.10971902e-13
2.549011895e-13
3.083999778e-13
3.680996193e-13
4.279063049e-13
4.788501593e-13
5.099446219e-13
2.814923727e-13
3.208105785e-13
3.808964676e-13
4.611613214e-13
5.589734988e-13
6.679777127e-13
7.768638924e-13
8.693222163e-13
9.256135507e-13
5.106896834e-13
5.826099186e-13
6.925984981e-13
8.395336607e-13
1.018410151e-12
1.217399187e-12
1.415837865e-12
1.58416833e-12
1.686599602e-12
9.319012223e-13
1.063579128e-12
1.264924012e-12
1.533757287e-12
1.860804285e-12
2.224519328e-12
2.587409641e-12
2.895593039e-12
3.083360557e-12
1.705314568e-12
1.946048506e-12
2.314152504e-12
2.805751493e-12
3.404270963e-12
4.070955483e-12
4.737693746e-12
5.305497673e-12
5.65239213e-12
3.120736404e-12
3.560145692e-12
4.232586303e-12
5.131903136e-12
6.22923448e-12
7.455220146e-12
8.685792289e-12
9.738018221e-12
1.038349811e-11
5.700452647e-12
6.501674665e-12
7.729721476e-12
9.375960054e-12
1.139105943e-11
1.365130187e-11
1.593047135e-11
1.788927967e-11
1.909724209e-11
1.038180941e-11
1.184109706e-11
1.408235409e-11
1.709562774e-11
2.079799514e-11
2.496988225e-11
2.919919129e-11
3.285557164e-11
3.512435219e-11
1.883612995e-11
2.148851701e-11
2.55716458e-11
3.10791277e-11
3.787435714e-11
4.557000438e-11
5.341711719e-11
6.024493623e-11
6.451001805e-11
3.401775057e-11
3.882198884e-11
4.623595763e-11
5.627071311e-11
6.870618905e-11
8.286382765e-11
9.738749606e-11
1.101081532e-10
1.181082857e-10
6.109506866e-11
6.975279671e-11
8.314702975e-11
1.013393698e-10
1.239837819e-10
1.499000195e-10
1.766449442e-10
2.002199791e-10
2.151426845e-10
1.090040089e-10
1.245003227e-10
1.48532873e-10
1.812847828e-10
2.222251103e-10
2.69315583e-10
3.181837111e-10
3.615145427e-10
3.891032484e-10
1.929912733e-10
2.2049105e-10
2.632354057e-10
3.216693097e-10
3.949960417e-10
4.797198819e-10
5.68080205e-10
6.468341427e-10
6.972297855e-10
3.386928124e-10
3.869914516e-10
4.622119037e-10
5.65319723e-10
6.951386335e-10
8.457141971e-10
1.003412186e-09
1.144570979e-09
1.235274868e-09
5.885280931e-10
6.723373854e-10
8.030677941e-10
9.826524882e-10
1.209363622e-09
1.473129569e-09
1.750287319e-09
1.999215622e-09
2.159688543e-09
1.011483232e-09
1.15492876e-09
1.378932208e-09
1.687118496e-09
2.076920066e-09
2.531430109e-09
3.010157436e-09
3.441183171e-09
3.719717935e-09
1.717692714e-09
1.959497759e-09
2.337326512e-09
2.857592319e-09
3.516360545e-09
4.285494303e-09
5.096807229e-09
5.828446489e-09
6.302037145e-09
2.879578462e-09
3.280491887e-09
3.90697768e-09
4.769779604e-09
5.862589423e-09
7.139051724e-09
8.486354278e-09
9.702349803e-09
1.049030959e-08
4.761612626e-09
5.414678126e-09
6.434721096e-09
7.838801151e-09
9.616322285e-09
1.169182228e-08
1.388219534e-08
1.585943759e-08
1.714140686e-08
7.760962097e-09
8.805193184e-09
1.043463914e-08
1.267495065e-08
1.55077187e-08
1.881182127e-08
2.229608419e-08
2.544033326e-08
2.747993683e-08
1.246126294e-08
1.409915582e-08
1.66513202e-08
2.015415785e-08
2.457523101e-08
2.972329005e-08
3.514513785e-08
4.003570202e-08
4.321111116e-08
1.970148618e-08
2.222056378e-08
2.61385709e-08
3.150396186e-08
3.825974349e-08
4.610928582e-08
5.436318343e-08
6.180317547e-08
6.662941345e-08
3.066126252e-08
3.445953087e-08
4.03540896e-08
4.840458738e-08
5.851305495e-08
7.022838788e-08
8.25217145e-08
9.357758585e-08
1.007419817e-07
4.696318217e-08
5.257769269e-08
6.126959497e-08
7.310525027e-08
8.792056555e-08
1.050358961e-07
1.229343064e-07
1.389915226e-07
1.493847586e-07
7.079180052e-08
7.893061142e-08
9.149665483e-08
1.085540524e-07
1.298190568e-07
1.542822574e-07
1.79772632e-07
2.025801443e-07
2.173233174e-07
1.05031388e-07
1.166079916e-07
1.344248338e-07
1.585050652e-07
1.883920544e-07
2.226248612e-07
2.581593681e-07
2.898632157e-07
3.103274336e-07
1.533997045e-07
1.695406184e-07
1.942978894e-07
2.276155621e-07
2.687769638e-07
3.157102352e-07
3.642330824e-07
4.073937198e-07
4.352088039e-07
2.205214184e-07
2.425965243e-07
2.763379984e-07
3.215486512e-07
3.771375467e-07
4.40224095e-07
5.051749475e-07
5.627635046e-07
5.998128643e-07
3.120593882e-07
3.416921532e-07
3.868252274e-07
4.470314996e-07
5.206986065e-07
6.038989223e-07
6.891885955e-07
7.645586886e-07
8.12958375e-07
4.347839478e-07
4.738494849e-07
5.331373156e-07
6.118713017e-07
7.07733996e-07
8.154714548e-07
9.254274056e-07
1.022260973e-06
1.084322172e-06
5.965982056e-07
6.472073098e-07
7.23740518e-07
8.249199899e-07
9.475013249e-07
1.084585784e-06
1.223867329e-06
1.346095126e-06
1.424270757e-06
8.065095093e-07
8.709776564e-07
9.681244528e-07
1.095982446e-06
1.250120564e-06
1.421641878e-06
1.595127636e-06
1.746827202e-06
1.843644695e-06
1.074540989e-06
1.15534248e-06
1.276677921e-06
1.435667369e-06
1.6263982e-06
1.837593749e-06
2.050246162e-06
2.235522018e-06
2.35350551e-06
1.411581844e-06
1.511290536e-06
1.660507419e-06
1.855184642e-06
2.087603047e-06
2.343705544e-06
2.600419265e-06
2.823271531e-06
2.96485761e-06
1.829180112e-06
1.950399338e-06
2.131204815e-06
2.36609744e-06
2.645203724e-06
2.951277146e-06
3.256719266e-06
3.520907755e-06
3.688359309e-06
2.339286416e-06
2.484571583e-06
2.70057472e-06
2.980040852e-06
3.310580684e-06
3.671352993e-06
4.029803603e-06
4.338714613e-06
4.534037404e-06
2.953961027e-06
3.12573894e-06
3.380335155e-06
3.708421202e-06
4.094727336e-06
4.514428717e-06
4.929630052e-06
5.286152712e-06
5.51101895e-06
3.68505916e-06
3.885548333e-06
4.181806737e-06
4.562111265e-06
5.007955154e-06
5.490169882e-06
5.965191456e-06
6.371609582e-06
6.627292165e-06
4.543910628e-06
4.775046662e-06
5.115606021e-06
5.551156393e-06
6.059616878e-06
6.607155746e-06
7.144281571e-06
7.60218578e-06
7.889506023e-06
5.54100979e-06
5.804379441e-06
6.191357712e-06
6.68450521e-06
7.257860094e-06
7.872658792e-06
8.473301179e-06
8.983524557e-06
9.302815318e-06
6.685730384e-06
6.982517259e-06
7.417438598e-06
7.969776358e-06
8.609421069e-06
9.292468118e-06
9.957110807e-06
1.051968996e-05
1.087077509e-05
7.986077562e-06
8.31702155e-06
8.800763479e-06
9.413070022e-06
1.011946581e-05
1.087076184e-05
1.159893346e-05
1.22130953e-05
1.259528548e-05
9.448486556e-06
9.81385818e-06
1.034662034e-05
1.101882992e-05
1.179148233e-05
1.26100307e-05
1.340030802e-05
1.406448136e-05
1.447658548e-05
1.107767417e-05
1.147726421e-05
1.205855883e-05
1.278975839e-05
1.362722506e-05
1.451105246e-05
1.536109133e-05
1.607294126e-05
1.651329194e-05
1.287654605e-05
1.330966996e-05
1.393833317e-05
1.472678429e-05
1.562671003e-05
1.657291404e-05
1.747950509e-05
1.823598723e-05
1.870247858e-05
1.484615963e-05
1.531167552e-05
1.598589763e-05
1.682908098e-05
1.778825671e-05
1.879307678e-05
1.975222195e-05
2.05496531e-05
2.103978832e-05
1.698573994e-05
1.748207857e-05
1.819945068e-05
1.909412957e-05
2.010857122e-05
2.11674786e-05
2.217448401e-05
2.300862549e-05
2.351957201e-05
1.929274329e-05
1.981794791e-05
2.057552201e-05
2.151782116e-05
2.258286407e-05
2.369066598e-05
2.47402468e-05
2.560639649e-05
2.613504599e-05
2.176296237e-05
2.231473615e-05
2.310909531e-05
2.409459092e-05
2.520499513e-05
2.63559485e-05
2.744234113e-05
2.833543052e-05
2.887846168e-05
2.439066503e-05
2.496642389e-05
2.579375928e-05
2.681757627e-05
2.796763837e-05
2.915556846e-05
3.027264591e-05
3.118733867e-05
3.174128023e-05
2.716875889e-05
2.776568736e-05
2.862187898e-05
2.967879163e-05
3.086245889e-05
3.208087885e-05
3.322226546e-05
3.415305439e-05
3.471434683e-05
3.008897367e-05
3.070408173e-05
3.158477997e-05
3.266931254e-05
3.388029576e-05
3.512252339e-05
3.62817056e-05
3.722300537e-05
3.778805949e-05
3.31420536e-05
3.37722328e-05
3.467293824e-05
3.577946263e-05
3.70113445e-05
3.827061315e-05
3.944104374e-05
4.038727734e-05
4.095252841e-05
3.631795322e-05
3.69600304e-05
3.787616984e-05
3.899899778e-05
4.024533428e-05
4.151489562e-05
4.269008915e-05
4.363576643e-05
4.419772309e-05
3.960603042e-05
4.025681782e-05
4.118381483e-05
4.231728279e-05
4.357169566e-05
4.484491242e-05
4.601853067e-05
4.695831776e-05
4.7513605e-05
4.29952318e-05
4.365157273e-05
4.458491142e-05
4.572345688e-05
4.697971588e-05
4.825014345e-05
4.941606961e-05
5.034484879e-05
5.089024455e-05
4.647426652e-05
4.713307582e-05
4.806835716e-05
4.920658521e-05
5.045867932e-05
5.172013562e-05
5.287253706e-05
5.378545663e-05
5.431792203e-05
5.003176556e-05
5.06900646e-05
5.162305473e-05
5.275579481e-05
5.399799204e-05
5.524461534e-05
5.637799475e-05
5.727050907e-05
5.778721236e-05
5.365642465e-05
5.431137065e-05
5.523804105e-05
5.636039358e-05
5.758728952e-05
5.881358453e-05
5.992281985e-05
6.079071993e-05
6.128905436e-05
5.733712959e-05
5.798603936e-05
5.890259904e-05
6.000997225e-05
6.121652768e-05
6.241740042e-05
6.349777416e-05
6.433720928e-05
6.481480539e-05
6.106306358e-05
6.170343186e-05
6.260635197e-05
6.36944895e-05
6.487605767e-05
6.604683984e-05
6.70940585e-05
6.790154977e-05
6.835628244e-05
6.48237968e-05
6.545330959e-05
6.633934086e-05
6.740434065e-05
6.855668524e-05
6.969314899e-05
7.070335363e-05
7.147580011e-05
7.190579115e-05
6.860935894e-05
6.922590215e-05
7.009208585e-05
7.113041129e-05
7.22497157e-05
7.334807995e-05
7.431784889e-05
7.50525273e-05
7.545614388e-05
7.241029553e-05
7.301195954e-05
7.385563261e-05
7.486411673e-05
7.594698601e-05
7.700391519e-05
7.793025983e-05
7.862481875e-05
7.900066856e-05
7.621770956e-05
7.680279009e-05
7.762158519e-05
7.859742882e-05
7.964088508e-05
8.065348157e-05
8.153383652e-05
8.218628593e-05
8.253320935e-05
8.002328968e-05
8.059028548e-05
8.138212675e-05
8.232289155e-05
8.33243639e-05
8.429015521e-05
8.512236358e-05
8.573106058e-05
8.604812065e-05
8.381932644e-05
8.436693445e-05
8.513002957e-05
8.603362682e-05
8.699093696e-05
8.790785848e-05
8.869015344e-05
8.925378509e-05
8.954025566e-05
8.759871832e-05
8.812582656e-05
8.885865595e-05
8.972333195e-05
9.063467609e-05
9.15010506e-05
9.2232034e-05
9.274959783e-05
9.300495039e-05
9.135496877e-05
9.186064765e-05
9.256195123e-05
9.338627007e-05
9.425019826e-05
9.50647129e-05
9.574333179e-05
9.621411477e-05
9.643800438e-05
9.508217595e-05
9.556566816e-05
9.623443054e-05
9.70172549e-05
9.783264838e-05
9.859432988e-05
9.921985162e-05
9.964340815e-05
9.983565883e-05
9.877501636e-05
9.923572593e-05
9.987116025e-05
0.0001006116309
0.0001013776782
0.000102085867
0.0001026578536
0.000103033983
0.000103194573
0.0001024287236
0.0001028662043
0.0001034677354
0.0001041652498
0.0001048814222
0.0001055357463
0.0001060540285
0.0001063827526
0.0001065117993
0.0001060390634
0.0001064530069
0.000107020254
0.0001076744449
0.0001083404715
0.0001089408201
0.0001094054716
0.0001096870122
0.0001097847581
0.0001096023061
0.00010999253
0.0001105252896
0.0001111360033
0.0001117518467
0.0001122983441
0.0001127096565
0.0001129444139
0.0001130112123
0.000113115197
0.0001134816327
0.0001139798614
0.0001145471366
0.000115112969
0.0001156059497
0.0001159644081
0.0001161529404
0.0001161892419
0.0001165749256
0.0001169176072
0.0001173814051
0.0001179054525
0.0001184216322
0.0001188616168
0.0001191678766
0.0001193108797
0.0001193172194
0.0001199790945
0.0001202981475
0.0001207277423
0.0001212089249
0.0001216759746
0.0001220636465
0.0001223185114
0.0001224168003
0.000122393786
0.0001233256884
0.0001236213188
0.0001240170506
0.000124455865
0.0001248744508
0.000125210635
0.0001254150362
0.0001254695277
0.0001254178284
0.0001266130432
0.0001268855277
0.0001272478347
0.0001276448936
0.0001280158054
0.000128301448
0.0001284564252
0.0001284681215
0.0001283884572
0.0001298398163
0.0001300894926
0.0001304188977
0.0001307749135
0.0001310990468
0.0001313351963
0.0001314418799
0.0001314118537
0.000131304986
0.0001330049578
0.0001332322161
0.0001335293144
0.0001338450838
0.0001341234229
0.000134311213
0.0001343708076
0.0001343001885
0.0001341669117
0.0001361076832
0.0001363129579
0.0001365784049
0.0001368547953
0.0001370883978
0.0001372290315
0.0001372428012
0.0001371327632
0.0001369738964
0.0001391474467
0.000139331209
0.0001395657106
0.000139803647
0.0001399936296
0.0001400883651
0.0001400576199
0.0001399093703
0.0001397257507
0.0001421239167
0.0001422866679
0.0001424909707
0.0001426914243
0.0001428389504
0.0001428890879
0.0001428151717
0.0001426299411
0.0001424224172
0.0001450369531
0.0001451792183
0.0001453541007
0.0001455180785
0.0001456243465
0.0001456312169
0.000145515497
0.0001452945301
0.0001450639566
0.0001478865847
0.0001480089076
0.0001481551725
0.0001482837081
0.0001483499415
0.0001483148959
0.000148158753
0.0001479033012
0.0001476505334
0.0001506729901
0.0001507759281
0.000150894396
0.0001509885411
0.0001510159794
0.0001509403802
0.0001507452002
0.0001504565143
0.0001501824045
0.0001533964785
0.0001534805987
0.0001535721016
0.0001536329192
0.00015362281
0.0001535080227
0.0001532751894
0.0001529545138
0.0001526599072
0.0001560574739
0.0001561233489
0.0001561887254
0.0001562172831
0.0001561708749
0.0001560182618
0.0001557491504
0.0001553977176
0.0001550834492
0.0001586565006
0.0001587047052
0.000158744795
0.0001587421594
0.0001586606961
0.0001584716093
0.000158167581
0.0001577866078
0.0001574534994
0.00016119417
0.0001612252779
0.0001612409178
0.0001612081495
0.0001610928643
0.0001608686412
0.0001605310383
0.0001601217213
0.0001597705798
0.0001636711701
0.0001636857507
0.00016367777
0.0001636159182
0.0001634680293
0.0001632099876
0.0001628401298
0.0001624036426
0.0001620352573
0.0001660882512
0.0001660868666
0.0001660560848
0.0001659661845
0.000165786891
0.0001654963251
0.0001650955054
0.0001646329958
0.0001642481375
0.0001684462163
0.0001684294206
0.0001683766435
0.0001682597123
0.0001680501909
0.0001677283684
0.0001672978512
0.0001668104391
0.0001664098585
0.0001707459115
0.0001707142491
0.0001706402683
0.0001704973028
0.0001702587048
0.0001699068643
0.0001694478824
0.0001689366581
0.0001685210848
0.0001729882175
0.0001729422219
0.0001728478113
0.0001726797866
0.0001724132362
0.000172032585
0.0001715463383
0.0001710123611
0.0001705825031
0.0001751740421
0.0001751142347
0.0001750001506
0.0001748080176
0.00017451461
0.0001741063228
0.0001735939769
0.0001730382744
0.0001725948173
0.0001773043134
0.000177231203
0.0001770981825
0.000176882867
0.0001765636675
0.000176128885
0.0001755915704
0.0001750151377
0.0001745587447
0.0001793799747
0.0001792940566
0.0001791428171
0.0001789052191
0.0001785612617
0.00017810109
0.0001775399013
0.0001769437008
0.0001764750125
0.0001814019788
0.0001813037347
0.0001811349728
0.0001808759657
0.0001805082531
0.0001800237634
0.0001794397592
0.0001788247203
0.0001783443545
0.0001833712839
0.0001832611812
0.0001830755729
0.0001827960031
0.000182405506
0.0001818977343
0.0001812919373
0.0001806589567
0.0001801675088
0.00018528885
0.0001851673419
0.000184965542
0.0001846662289
0.0001842538861
0.000183723833
0.0001830972297
0.0001824471716
0.0001819452146
0.0001871556355
0.0001870231607
0.0001868058029
0.0001864875392
0.0001860542571
0.0001855028881
0.0001848564294
0.0001841901258
0.000183678211
0.0001889725938
0.0001888295767
0.0001885972735
0.0001882608243
0.0001878074782
0.0001872357242
0.0001865703261
0.0001858885774
0.0001853672344
0.0001907406716
0.0001905875222
0.0001903408651
0.0001899869688
0.0001895144026
0.0001889231605
0.0001882397043
0.0001875432798
0.0001870130171
0.0001924608061
0.0001922979201
0.00019203748
0.0001916668488
0.0001911758755
0.0001905660084
0.0001898653417
0.0001891549804
0.0001886162862
0.0001941339235
0.0001939616828
0.0001936880098
0.00019330133
0.0001927927323
0.0001921650707
0.000191448008
0.0001907244196
0.0001901777618
0.0001957609373
0.0001955797099
0.0001952933343
0.0001948912667
0.0001943657979
0.0001937211402
0.0001929884639
0.000192252329
0.0001916981562
0.000197342747
0.0001971528874
0.00019685432
0.0001964375006
0.000195895885
0.0001952349984
0.0001944874595
0.0001937394312
0.000193178173
0.000198880237
0.0001986820866
0.0001983718186
0.0001979408593
0.0001973837934
0.0001967074147
0.0001959457339
0.000195186438
0.0001946185062
0.0002003742751
0.0002001681624
0.0001998466668
0.0001994021557
0.0001988303085
0.0001981391454
0.0001973640141
0.0001965940505
0.0001960198389
0.0002018257118
0.0002016119529
0.0002012796842
0.0002008221868
0.0002002362011
0.0001995309324
0.0001987430137
0.0001979629571
0.0001973828429
0.0002032353785
0.0002030142772
0.0002026716725
0.000202201732
0.0002016022249
0.0002008835025
0.000200083432
0.0001992938329
0.0001987081769
0.0002046040861
0.0002043759345
0.0002040234136
0.0002035415518
0.0002029291158
0.0002021975648
0.0002013859521
0.0002005873378
0.0001999964854
0.0002059326221
0.0002056977008
0.0002053356671
0.000204842385
0.0002042175888
0.0002034738091
0.0002026512386
0.0002018441145
0.0002012483964
0.0002072217476
0.0002069803259
0.0002066091667
0.0002061049452
0.0002054683346
0.0002047129016
0.0002038799338
0.0002030647844
0.0002024645178
0.0002084721912
0.0002082245277
0.0002078446143
0.0002073299149
0.0002066820134
0.0002059154793
0.0002050726524
0.000204249943
0.0002036454321
0.0002096846416
0.0002094309838
0.0002090426722
0.0002085179369
0.0002078592468
0.0002070821417
0.0002062299724
0.0002054001505
0.0002047916885
0.000210859735
0.0002106003195
0.0002102039499
0.0002096696019
0.0002090006041
0.0002082134366
0.0002073524221
0.000206515919
0.0002059037892
0.0002119980375
0.0002117330892
0.0002113289853
0.0002107854279
0.0002101065822
0.0002093098397
0.0002084404585
0.0002075976915
0.0002069821694
0.0002131000189
0.0002128297496
0.0002124182173
0.0002118658322
0.0002111775754
0.0002103717239
0.0002094944363
0.00020864581
0.0002080271651
0.0002141660148
0.0002138906213
0.0002134719449
0.000212911089
0.0002122138319
0.0002113993132
0.0002105145604
0.0002096604679
0.0002090389655
0.0002151961739
0.0002149158337
0.0002144902708
0.0002139212694
0.0002132153901
0.0002123926164
0.0002115008174
0.000210641639
0.0002100175415
0.0002161903843
0.0002159052487
0.0002154730209
0.0002148961567
0.0002141819897
0.0002133513333
0.0002124528765
0.0002115889757
0.0002109625419
0.0002171481725
0.0002168583572
0.0002164196355
0.0002158351316
0.0002151129482
0.0002142747234
0.0002133699518
0.0002125016657
0.0002118731472
0.0002180685704
0.0002177741397
0.000217329023
0.0002167370158
0.0002160069952
0.0002151614288
0.0002142506143
0.0002133782349
0.0002127478673
0.0002189499388
0.000218650884
0.0002181993675
0.0002175998676
0.0002168620527
0.0002160092389
0.000215092541
0.0002142162835
0.0002135842693
0.0002197897435
0.0002194859519
0.0002190278821
0.0002184207185
0.000217674952
0.0002168147863
0.0002158921901
0.0002150121428
0.0002143786226
0.0002205842727
0.0002202754861
0.0002198104999
0.0002191952421
0.0002184410784
0.000217573164
0.0002166443899
0.0002157604398
0.0002151254477
0.0002213282923
0.0002210140512
0.0002205414946
0.0002199173503
0.0002191539356
0.0002182774554
0.0002173418349
0.0002164535625
0.0002158169599
0.0002220146323
0.0002216942045
0.0002212130282
0.0002205787095
0.0002198046262
0.0002189181749
0.0002179744847
0.0002170810203
0.0002164424054
0.0002226337045
0.0002223059966
0.0002218146244
0.0002211681802
0.0002203812506
0.0002194826212
0.0002185288698
0.0002176287078
0.0002169872942
0.0002231729571
0.0002228364056
0.0002223325759
0.0002216711881
0.0002208682344
0.0002199541558
0.0002189873203
0.0002180780856
0.0002174325487
0.0002236162742
0.0002232687196
0.000222749298
0.0002220690419
0.0002212456036
0.0002203114301
0.0002193271412
0.000218405309
0.0002177535987
0.0002239433434
0.000223581886
0.000223042654
0.0002223382265
0.0002214882389
0.0002205275966
0.0002195197795
0.0002185803518
0.0002179194744
0.0002241290183
0.0002237498619
0.0002231852875
0.0002224497109
0.0002215651558
0.0002205695574
0.0002195300382
0.000218566188
0.0002178919637
0.0002241427178
0.0002237410092
0.000223144009
0.0002223683251
0.0002214388698
0.0002203973162
0.0002193154154
0.0002183181169
0.0002176249256
0.000223947921
0.0002235175918
0.0002228792967
0.0002220522709
0.0002210649207
0.00021996352
0.0002188256618
0.0002177833333
0.0002170638663
0.0002235018103
0.0002230354338
0.0002223449853
0.0002214528482
0.0002203916467
0.0002192132863
0.0002180026639
0.0002169008606
0.0002161459046
0.0002227551392
0.0002222438257
0.0002214882254
0.000220514488
0.0002193603066
0.0002180844276
0.0002167807746
0.0002156019766
0.0002148002604
0.0002216524157
0.0002210857643
0.0002202498099
0.0002191751907
0.0002179056555
0.0002165081842
0.0002150877114
0.0002138112625
0.0002129494058
0.0002201324854
0.0002194986152
0.0002185649562
0.0002173674691
0.0002159570821
0.0002144105805
0.0002128461387
0.0002114483949
0.0002105109997
0.0002181296005
0.0002174152862
0.0002163646361
0.0002150198825
0.0002134403928
0.0002117144915
0.00020997603
0.0002084307766
0.0002074007049
0.0002155750487
0.0002147659837
0.0002135775233
0.0002120592349
0.0002102803108
0.000208342482
0.000206397861
0.0002046770561
0.0002035359301
0.0002123993948
0.0002114806015
0.0002101326023
0.0002084134707