/*--------------------------------*- C++ -*----------------------------------*\
| =========                 |                                                 |
| \\      /  F ield         | OpenFOAM: The Open Source CFD Toolbox           |
|  \\    /   O peration     | Version:  2212                                  |
|   \\  /    A nd           | Website:  www.openfoam.com                      |
|    \\/     M anipulation  |                                                 |
\*---------------------------------------------------------------------------*/
FoamFile
{
    version     2.0;
    format      ascii;
    arch        "LSB;label=32;scalar=64";
    class       volScalarField;
    location    "20.00000000";
    object      C9H8_0;
}
// * * * * * * * * * * * * * * * * * * * * * * * * * * * * * * * * * * * * * //

dimensions      [0 0 0 0 0 0 0];

internalField   nonuniform List<scalar> 
3000
(
1.310805427e-22
1.472520881e-22
1.716548709e-22
2.04173812e-22
2.444784521e-22
2.914743874e-22
3.423303926e-22
3.90856983e-22
4.251716863e-22
4.921341249e-22
5.550788668e-22
6.500214502e-22
7.768222023e-22
9.353556853e-22
1.124743302e-21
1.34169768e-21
1.575266389e-21
1.782170517e-21
1.102352842e-21
1.253106394e-21
1.482665766e-21
1.794356145e-21
2.19378363e-21
2.686743198e-21
3.271295157e-21
3.914620473e-21
4.464448931e-21
2.099696834e-21
2.411847439e-21
2.894142136e-21
3.562901203e-21
4.441818735e-21
5.553229202e-21
6.891069011e-21
8.348238162e-21
9.524389643e-21
3.728528732e-21
4.33539406e-21
5.287804881e-21
6.634142966e-21
8.437735564e-21
1.074913597e-20
1.352973478e-20
1.648263313e-20
1.8749402e-20
6.411530012e-21
7.550557402e-21
9.363772535e-21
1.196689958e-20
1.549880665e-20
2.004837254e-20
2.547972464e-20
3.110792983e-20
3.527187839e-20
1.088463181e-20
1.297697717e-20
1.634660987e-20
2.123884713e-20
2.792614883e-20
3.654149395e-20
4.672857939e-20
5.707895624e-20
6.454748369e-20
1.842085328e-20
2.220766079e-20
2.836045261e-20
3.736267955e-20
4.97165476e-20
6.560004261e-20
8.421637436e-20
1.028558439e-19
1.160812452e-19
3.122609723e-20
3.800728086e-20
4.909668669e-20
6.540408509e-20
8.782291928e-20
1.16568939e-19
1.500184231e-19
1.831611394e-19
2.064175616e-19
5.312020965e-20
6.5168055e-20
8.49604937e-20
1.141603823e-19
1.543282814e-19
2.056978037e-19
2.651414159e-19
3.236079704e-19
3.643292463e-19
9.07221363e-20
1.120011325e-19
1.470700107e-19
1.989123636e-19
2.702303114e-19
3.612324893e-19
4.661036954e-19
5.68722289e-19
6.398362793e-19
1.555033444e-19
1.929199981e-19
2.547199704e-19
3.46194509e-19
4.720068427e-19
6.322559571e-19
8.163691288e-19
9.958792074e-19
1.119849604e-18
2.673526755e-19
3.329276369e-19
4.413994807e-19
6.020825277e-19
8.230175827e-19
1.10403027e-18
1.426175819e-18
1.739472583e-18
1.955329072e-18
4.607623712e-19
5.754040759e-19
7.652386777e-19
1.046584348e-18
1.433306802e-18
1.924642684e-18
2.486964877e-18
3.032864946e-18
3.408419397e-18
7.955660194e-19
9.95628555e-19
1.327155052e-18
1.818650681e-18
2.494044319e-18
3.351392755e-18
4.33136734e-18
5.281512699e-18
5.934692531e-18
1.375575402e-18
1.724252557e-18
2.302367744e-18
3.159658707e-18
4.337548954e-18
5.831970714e-18
7.538708608e-18
9.191919317e-18
1.032786886e-17
2.380921239e-18
2.988026721e-18
3.995056639e-18
5.488783438e-18
7.541254197e-18
1.014509364e-17
1.311836469e-17
1.599672898e-17
1.797001824e-17
4.124180451e-18
5.180446698e-18
6.933022453e-18
9.532945297e-18
1.310503571e-17
1.763514274e-17
2.280496796e-17
2.780617839e-17
3.123360628e-17
7.147868723e-18
8.984568011e-18
1.20326378e-17
1.655466946e-17
2.276680092e-17
3.064254927e-17
3.962654505e-17
4.831374827e-17
5.426572495e-17
1.239372479e-17
1.558622656e-17
2.088499933e-17
2.87463503e-17
3.954474927e-17
5.323183116e-17
6.884004934e-17
8.39276816e-17
9.426189577e-17
2.149663189e-17
2.704422662e-17
3.625266145e-17
4.991453127e-17
6.867874734e-17
9.245801228e-17
1.195679867e-16
1.457664139e-16
1.637072094e-16
3.729490237e-17
4.693303494e-17
6.293200782e-17
8.666786101e-17
1.192647673e-16
1.605658076e-16
2.076402125e-16
2.531199386e-16
2.842580776e-16
6.47160596e-17
8.145840782e-17
1.092500766e-16
1.504786079e-16
2.070901938e-16
2.788025195e-16
3.605171432e-16
4.394410405e-16
4.934630574e-16
1.123137384e-16
1.413929081e-16
1.896608615e-16
2.612572294e-16
3.595480202e-16
4.840232957e-16
6.258138681e-16
7.627150408e-16
8.563922509e-16
1.949335015e-16
2.454330396e-16
3.292476841e-16
4.535484122e-16
6.241484784e-16
8.401201763e-16
1.086032973e-15
1.32336245e-15
1.485694781e-15
3.383328347e-16
4.260166097e-16
5.715223212e-16
7.872571636e-16
1.083240041e-15
1.457766061e-15
1.8839835e-15
2.295089877e-15
2.576135738e-15
5.871779733e-16
7.393895626e-16
9.919141305e-16
1.366184982e-15
1.879421345e-15
2.528449923e-15
3.266527322e-15
3.977897607e-15
4.4638662e-15
1.01886603e-15
1.283000376e-15
1.721062039e-15
2.370001188e-15
3.259303027e-15
4.382976123e-15
5.659611584e-15
6.888814038e-15
7.727731087e-15
1.767368297e-15
2.225490141e-15
2.984934562e-15
4.109233191e-15
5.648631404e-15
7.591647786e-15
9.796427655e-15
1.191648192e-14
1.336155509e-14
3.064259853e-15
3.858261145e-15
5.173728133e-15
7.11952329e-15
9.780735954e-15
1.313505305e-14
1.693517957e-14
2.058301909e-14
2.306534377e-14
5.309111692e-15
6.683856617e-15
8.959744214e-15
1.23225015e-14
1.691507889e-14
2.269359126e-14
2.922680384e-14
3.548455107e-14
3.973389542e-14
9.189828067e-15
1.156682829e-14
1.549815616e-14
2.129894363e-14
2.920692921e-14
3.913503609e-14
5.033130404e-14
6.10263655e-14
6.826971762e-14
1.588751095e-14
1.999007257e-14
2.676713586e-14
3.674977113e-14
5.0328349e-14
6.732923324e-14
8.644195706e-14
1.046384291e-13
1.169224995e-13
2.742356396e-14
3.448802627e-14
4.614053096e-14
6.326860008e-14
8.650305129e-14
1.154973722e-13
1.479708456e-13
1.787644304e-13
1.994726717e-13
4.724463691e-14
5.937428626e-14
7.934535049e-14
1.086260655e-13
1.482154966e-13
1.974244657e-13
2.522930577e-13
3.040799333e-13
3.387498414e-13
8.120249784e-14
1.019554489e-13
1.360501223e-13
1.858859801e-13
2.53005509e-13
3.360479453e-13
4.281628377e-13
5.146365803e-13
5.722329373e-13
1.391846924e-13
1.745409131e-13
2.324771599e-13
3.168582173e-13
4.29988733e-13
5.692107351e-13
7.227336612e-13
8.659822495e-13
9.608515879e-13
2.378087967e-13
2.977434949e-13
3.956588426e-13
5.376739192e-13
7.270852924e-13
9.587723592e-13
1.212577482e-12
1.447816204e-12
1.602643897e-12
4.04839521e-13
5.058524337e-13
6.703038286e-13
9.076885547e-13
1.22244209e-12
1.604859234e-12
2.020763386e-12
2.403464674e-12
2.653688008e-12
6.863700264e-13
8.554985538e-13
1.129758356e-12
1.523537591e-12
2.042264226e-12
2.667877408e-12
3.343001156e-12
3.95949038e-12
4.359801854e-12
1.158393222e-12
1.43949175e-12
1.893316705e-12
2.541070904e-12
3.388318436e-12
4.402106941e-12
5.487189585e-12
6.470196529e-12
7.104019739e-12
1.945269815e-12
2.408692461e-12
3.153258858e-12
4.209189369e-12
5.579860989e-12
7.206384629e-12
8.932584215e-12
1.048381491e-11
1.147697616e-11
3.248908332e-12
4.00621755e-12
5.216616902e-12
6.921456811e-12
9.11684646e-12
1.169975197e-11
1.441742468e-11
1.684000482e-11
1.838029165e-11
5.394386619e-12
6.62036264e-12
8.568992365e-12
1.129397805e-11
1.477423099e-11
1.88332634e-11
2.306752856e-11
2.681224576e-11
2.917718555e-11
8.900504988e-12
1.086559869e-11
1.397103419e-11
1.828171555e-11
2.374132362e-11
3.005378093e-11
3.65834652e-11
4.231420754e-11
4.591027804e-11
1.458769086e-11
1.770521083e-11
2.26028101e-11
2.935057038e-11
3.782591448e-11
4.754202493e-11
5.751101241e-11
6.619680544e-11
7.161448856e-11
2.374120855e-11
2.863505477e-11
3.62777678e-11
4.672973717e-11
5.975093881e-11
7.455608804e-11
8.962941026e-11
1.026731809e-10
1.107639049e-10
3.835535903e-11
4.595614495e-11
5.775697956e-11
7.377882068e-11
9.358256243e-11
1.159239717e-10
1.385054565e-10
1.579233514e-10
1.699065922e-10
6.149510394e-11
7.317523752e-11
9.120685205e-11
1.155180246e-10
1.453439482e-10
1.787457312e-10
2.122801072e-10
2.409502086e-10
2.585620134e-10
9.782647241e-11
1.155884657e-10
1.428608019e-10
1.793888455e-10
2.238901586e-10
2.733892117e-10
3.22779768e-10
3.647859173e-10
3.904840955e-10
1.543878342e-10
1.81125167e-10
2.219694211e-10
2.763391357e-10
3.421487717e-10
4.148953316e-10
4.87079262e-10
5.481847552e-10
5.854320024e-10
2.417029615e-10
2.815598562e-10
3.421571847e-10
4.22363236e-10
5.188709509e-10
6.24952524e-10
7.296910819e-10
8.179896821e-10
8.716435305e-10
3.753769147e-10
4.34243467e-10
5.233475027e-10
6.406706355e-10
7.810862798e-10
9.346586131e-10
1.085622341e-09
1.212433121e-09
1.289280319e-09
5.783311408e-10
6.645150943e-10
7.944461919e-10
9.647247647e-10
1.16754646e-09
1.388386796e-09
1.604639649e-09
1.785727397e-09
1.895212804e-09
8.839970517e-10
1.009149438e-09
1.197153275e-09
1.442508494e-09
1.733517469e-09
2.049138773e-09
2.357163503e-09
2.614406632e-09
2.769631868e-09
1.340797657e-09
1.521172922e-09
1.791271076e-09
2.14245994e-09
2.557439539e-09
3.005971881e-09
3.442429732e-09
3.806093982e-09
4.025178727e-09
2.018417891e-09
2.276589474e-09
2.662098556e-09
3.161715963e-09
3.750151403e-09
4.384262255e-09
4.999747918e-09
5.511581142e-09
5.819516805e-09
3.016546228e-09
3.383739043e-09
3.93069504e-09
4.637525501e-09
5.467631044e-09
6.359851818e-09
7.223995956e-09
7.941434656e-09
8.372605289e-09
4.477018129e-09
4.996275861e-09
5.76808314e-09
6.763007546e-09
7.928549104e-09
9.178503898e-09
1.038689888e-08
1.138877972e-08
1.199038583e-08
6.600630103e-09
7.331111246e-09
8.414847184e-09
9.808851653e-09
1.143839636e-08
1.318260221e-08
1.486619305e-08
1.626049965e-08
1.709720547e-08
9.670349972e-09
1.0693149e-08
1.220810554e-08
1.415313037e-08
1.642257542e-08
1.884771771e-08
2.118552534e-08
2.311988761e-08
2.428012262e-08
1.408326367e-08
1.550929175e-08
1.76185377e-08
2.032216199e-08
2.347169296e-08
2.683259606e-08
3.006894469e-08
3.274486021e-08
3.434935823e-08
2.039442217e-08
2.237506737e-08
2.530108817e-08
2.904639253e-08
3.340342322e-08
3.804736436e-08
4.251519704e-08
4.620728683e-08
4.842065413e-08
2.937684728e-08
3.211838374e-08
3.616422144e-08
4.133663854e-08
4.73468268e-08
5.374641986e-08
5.989884615e-08
6.498092297e-08
6.802730778e-08
4.210339946e-08
4.588644806e-08
5.146425583e-08
5.858784557e-08
6.68570098e-08
7.565466735e-08
8.410764374e-08
9.108800276e-08
9.527232209e-08
6.005809476e-08
6.526388225e-08
7.293346235e-08
8.271988672e-08
9.40706252e-08
1.06138655e-07
1.177287176e-07
1.272979122e-07
1.330346094e-07
8.528688462e-08
9.243263329e-08
1.029533916e-07
1.163679714e-07
1.319160801e-07
1.484378633e-07
1.643001879e-07
1.773956902e-07
1.852476889e-07
1.206009785e-07
1.30387518e-07
1.447883894e-07
1.631390632e-07
1.843965307e-07
2.069760411e-07
2.286498719e-07
2.46543501e-07
2.57274922e-07
1.698495727e-07
1.832252276e-07
2.028985476e-07
2.279553737e-07
2.569688599e-07
2.877780717e-07
3.173487903e-07
3.41764658e-07
3.564120021e-07
2.38283367e-07
2.565293517e-07
2.83356383e-07
3.175114415e-07
3.570477261e-07
3.990242159e-07
4.393139909e-07
4.725869419e-07
4.925547809e-07
3.330354113e-07
3.578793308e-07
3.943971574e-07
4.408772451e-07
4.946700527e-07
5.517801896e-07
6.066021006e-07
6.518890443e-07
6.790777133e-07
4.637513269e-07
4.975168439e-07
5.471384558e-07
6.102855976e-07
6.833611687e-07
7.609473334e-07
8.354406843e-07
8.969994722e-07
9.339735569e-07
6.434061815e-07
6.892082526e-07
7.565095343e-07
8.421465876e-07
9.41247764e-07
1.046480332e-06
1.147546819e-06
1.231098713e-06
1.281305857e-06
8.893491835e-07
9.513451218e-07
1.042433543e-06
1.158333264e-06
1.292462706e-06
1.434917938e-06
1.571778213e-06
1.684969493e-06
1.753018541e-06
1.22461824e-06
1.308324667e-06
1.431303903e-06
1.587778617e-06
1.768879662e-06
1.961261577e-06
2.146148004e-06
2.299122497e-06
2.391127388e-06
1.679561993e-06
1.792245759e-06
1.95778712e-06
2.168411169e-06
2.412198082e-06
2.671214043e-06
2.920206247e-06
3.12629211e-06
3.250282491e-06
2.293794377e-06
2.444940904e-06
2.666965147e-06
2.949432045e-06
3.276368329e-06
3.623752764e-06
3.9577465e-06
4.234246199e-06
4.400636243e-06
3.118483084e-06
3.320337664e-06
3.616798486e-06
3.9938982e-06
4.430301268e-06
4.893958917e-06
5.339735409e-06
5.708787254e-06
5.930882116e-06
4.218936365e-06
4.487102343e-06
4.880845449e-06
5.381524392e-06
5.960747698e-06
6.575958203e-06
7.167291666e-06
7.65674786e-06
7.951252055e-06
5.67740186e-06
6.031464952e-06
6.551114944e-06
7.211553837e-06
7.975166005e-06
8.785758178e-06
9.564469777e-06
1.020871011e-05
1.059618504e-05
7.595929405e-06
8.06006113e-06
8.740865024e-06
9.605480734e-06
1.060433023e-05
1.166370649e-05
1.268054698e-05
1.352113225e-05
1.40263671e-05
1.009908361e-05
1.070256087e-05
1.158709603e-05
1.270935115e-05
1.400438305e-05
1.537625134e-05
1.669148018e-05
1.777755995e-05
1.842975791e-05
1.333623169e-05
1.411380065e-05
1.52524443e-05
1.669533565e-05
1.835801257e-05
2.011668778e-05
2.180024578e-05
2.318857256e-05
2.402131577e-05
1.748309578e-05
1.847510632e-05
1.992615775e-05
2.176225335e-05
2.387447242e-05
2.610464259e-05
2.823574894e-05
2.999025183e-05
3.104119926e-05
2.274224957e-05
2.399448699e-05
2.582386076e-05
2.813483429e-05
3.078822811e-05
3.358403133e-05
3.625018176e-05
3.844105186e-05
3.97513524e-05
2.934231019e-05
3.090552353e-05
3.318598664e-05
3.606149776e-05
3.935602359e-05
4.28194542e-05
4.611480038e-05
4.881709425e-05
5.043052568e-05
3.753570253e-05
3.946472372e-05
4.227456147e-05
4.581052799e-05
4.985240998e-05
5.409107841e-05
5.811424036e-05
6.140605621e-05
6.336792785e-05
4.75947008e-05
4.99472321e-05
5.336845888e-05
5.766477107e-05
6.256385806e-05
6.768820243e-05
7.253962104e-05
7.649994354e-05
7.885582303e-05
5.980597403e-05
6.264108049e-05
6.675725111e-05
7.191503592e-05
7.778171118e-05
8.390181208e-05
8.96807915e-05
9.438713071e-05
9.718147022e-05
7.446379967e-05
7.784018602e-05
8.273392696e-05
8.885251469e-05
9.579433483e-05
0.0001030165195
0.0001098181342
0.0001153440985
0.0001186188419
9.186227037e-05
9.583644224e-05
0.0001015868473
0.0001087606192
0.0001168788806
0.0001253023162
0.0001332143631
0.0001396273064
0.000143420556
0.0001122869064
0.0001169113248
0.000123591369
0.0001319066707
0.0001412931018
0.0001510065711
0.0001601067358
0.0001674656047
0.0001718104183
0.0001360061303
0.0001413274666
0.0001490015857
0.0001585338786
0.0001692676392
0.0001803466691
0.0001907000493
0.0001990535362
0.0002039769092
0.0001632630601
0.000169320645
0.0001780426105
0.0001888540088
0.0002009991434
0.0002135036206
0.0002251607175
0.0002345457955
0.0002400678691
0.0001942680379
0.0002010925814
0.000210903769
0.0002230410735
0.0002366445286
0.0002506168973
0.000263612146
0.0002740530326
0.0002801865509
0.0002291922394
0.0002368048737
0.0002477329956
0.000261226295
0.0002763165646
0.0002917806564
0.0003061315298
0.0003176390992
0.0003243891211
0.0002681626254
0.0002765742987
0.0002886326324
0.0003034945044
0.0003200809252
0.0003370414319
0.0003527481182
0.0003653197531
0.0003726836126
0.0003112583953
0.0003204696226
0.0003336567376
0.0003498820438
0.0003679547268
0.0003863972913
0.0004034429121
0.0004170627673
0.0004250302639
0.0003585090094
0.0003685099644
0.0003828099238
0.0004003761621
0.0004199065109
0.0004397983816
0.0004581496998
0.0004727893307
0.000481343121
0.0004098937601
0.0004206646775
0.0004360476647
0.0004549158181
0.000475857565
0.0004971487398
0.0005167572831
0.0005323765828
0.0005414927408
0.0004653427944
0.0004768546393
0.0004932779491
0.0005133937533
0.0005356844247
0.0005583091938
0.0005791127143
0.0005956610948
0.0006053098046
0.000524739436
0.0005369547887
0.0005543641097
0.0005756596512
0.0005992223666
0.0006231011607
0.0006450253441
0.0006624430955
0.0006725894378
0.0005879236093
0.0006007977121
0.0006191286246
0.000641524178
0.0006662696847
0.0006913111303
0.0007142714706
0.0007324912336
0.0007430960312
0.0006546961462
0.0006681780581
0.0006873576709
0.0007107636864
0.0007365925343
0.0007626956266
0.0007865993854
0.0008055476773
0.0008165683653
0.0007248237451
0.0007388575514
0.0007588062085
0.0007831253665
0.0008099301364
0.0008369864446
0.0008617346243
0.0008813333648
0.0008927248566
0.0007980443551
0.0008125703884
0.0008332033794
0.0008583326383
0.000886000147
0.0009138959811
0.0009393852495
0.00095955324
0.0009712687634
0.0008740727732
0.0008890288031
0.0009102580265
0.0009360906006
0.0009645040183
0.0009931224964
0.001019247012
0.001039901333
0.001051893218
0.0009526062623
0.0009679286234
0.0009896641554
0.001016091374
0.001045132203
0.001074355172
0.001101008274
0.001122065569
0.001134285967
0.001033330026
0.001048954658
0.001071106195
0.001098019204
0.00112756908
0.001157278858
0.001184354583
0.001205732215
0.001218133751
0.001115922402
0.001131785785
0.001154263937
0.001181555214
0.001211497507
0.001241578417
0.001268972843
0.001290589903
0.001303126235
0.001200059678
0.00121609965
0.001238817065
0.001266381741
0.001296602936
0.001326942631
0.001354555014
0.001376333185
0.001388959487
0.001285420436
0.001301576888
0.00132444921
0.001352186179
0.001382577037
0.0014130676
0.001440801332
0.001462665598
0.001475338959
0.001371689396
0.001387904846
0.001410851498
0.001438664326
0.001469120825
0.001499659663
0.001527423027
0.001549302243
0.00156198198
0.001458560721
0.001474780767
0.001497725569
0.001525523204
0.001555947274
0.001586437799
0.001614144556
0.001635971881
0.001648619776
0.00154574078
0.001561914444
0.001584786077
0.001612483377
0.001642783433
0.001673135563
0.001700705367
0.001722418568
0.001734999043
0.001632950384
0.001649030349
0.001671762674
0.00169928077
0.001729372074
0.001759502555
0.001786861222
0.00180840287
0.001820883088
0.001719926523
0.001735869281
0.00175840153
0.001785668031
0.001815472895
0.00184530548
0.001872385124
0.001893702685
0.001906052604
0.001806423631
0.001822189548
0.001844466405
0.00187141548
0.001900863325
0.001930328814
0.00195706787
0.001978113718
0.001990306091
0.001892214427
0.001907767737
0.001929739326
0.001956311667
0.001985338976
0.002014375149
0.002040718297
0.002061449649
0.002073459988
0.001977090384
0.001992399128
0.00201402091
0.002040163611
0.002068713776
0.002097265232
0.002123163248
0.002143542037
0.002155348543
0.002060861857
0.002075897772
0.002097130389
0.002122796741
0.002150819837
0.00217883776
0.002204247296
0.002224240004
0.002235823468
0.002143357937
0.002158096307
0.002178905372
0.002204054603
0.002231507099
0.002258948965
0.002283832286
0.002303409736
0.002314753422
0.002224426067
0.002238845548
0.00225920139
0.002283798363
0.002310642788
0.002337472032
0.002361796715
0.002380933835
0.00239202335
0.002303931464
0.00231801389
0.002337891278
0.002361906154
0.00238811073
0.002414296385
0.002438034989
0.002456710564
0.002467533711
0.002381756394
0.002395486561
0.002414864412
0.002438272294
0.002463810554
0.002489326866
0.002512456595
0.002530653
0.002541199633
0.002457799325
0.002471164782
0.002490025852
0.002512806421
0.002537656812
0.002562482852
0.002584985206
0.002602688139
0.002612950008
0.002531974009
0.002544964833
0.002563295412
0.002585432557
0.002609578045
0.002633697318
0.002655557747
0.00267275596
0.002682726562
0.002604208497
0.002616817078
0.002634606686
0.002656088144
0.002679515821
0.002702915883
0.00272412344
0.002740808479
0.002750482908
0.002674444134
0.002686664964
0.002703906053
0.002724723053
0.002747423756
0.002770095839
0.002790642856
0.0028068088
0.002816183602
0.002742634542
0.002754464009
0.002771151678
0.0027912986
0.002813266547
0.002835205201
0.002855086962
0.002870730183
0.002879803219
0.002808744608
0.002820180802
0.002836312526
0.002855786575
0.002877019017
0.002898221767
0.00291743621
0.002932555136
0.002941325446
0.002872749499
0.002883792026
0.002899367398
0.002918168299
0.00293866519
0.002959132217
0.002977679645
0.002992274541
0.003000742221
0.002934633702
0.002945283514
0.002960304001
0.002978433716
0.002998197404
0.003017931239
0.003035814056
0.003049886818
0.003058052902
0.00299439011
0.003004649344
0.003019118066
0.00303658052
0.003055615465
0.003074620714
0.003091843171
0.003105397133
0.003113263484
0.003052019151
0.003061890977
0.003075812501
0.003092613341
0.003110925848
0.003129208928
0.003145776898
0.003158816653
0.003166385863
0.003107527967
0.003117016457
0.003130396602
0.003146542968
0.003164140946
0.00318170985
0.003197630613
0.003210161852
0.003217437145
0.003160929641
0.003170039642
0.003182885312
0.003198385631
0.003215278368
0.003232142448
0.003247424498
0.003259453861
0.003266439011
0.003212242491
0.003220979511
0.003233298531
0.00324816233
0.003264360295
0.003280530062
0.003295182932
0.003306717868
0.003313417118
0.003261489399
0.003269859506
0.003281660482
0.003295898215
0.003311412874
0.00332689982
0.003340933921
0.003351982566
0.003358400562
0.003308697212
0.00331670694
0.003327999127
0.003341622023
0.003356465673
0.003371282109
0.003384708584
0.00339527965
0.003401421372
0.003353896176
0.003361552443
0.003372345634
0.003385365559
0.003399551179
0.003413710086
0.003426540683
0.003436643355
0.003442514059
0.003397119427
0.003404429462
0.003414733881
0.003427163213
0.003440704333
0.003454219236
0.003466466191
0.003476110036
0.003481715205
0.003438402525
0.003445373801
0.003455200012
0.003467051535
0.00347996212
0.003492846971
0.003504522901
0.003513717792
0.003519063085
0.003477783029
0.003484423207
0.003493782036
0.003505068843
0.003517363187
0.003529632264
0.00354075008
0.003549506118
0.003554597335
0.003515300116
0.003521616998
0.003530519462
0.003541254871
0.003552947509
0.003564615323
0.003575188147
0.003583515604
0.003588358643
0.003550994225
0.003556995716
0.003565452969
0.003575650454
0.003586756082
0.003597837301
0.003607878397
0.003615787655
0.003620388483
0.003584906743
0.003590600825
0.003598624112
0.003608297243
0.003618830654
0.003629340037
0.003638862747
0.003646364253
0.003650728878
0.003617079752
0.003622474458
0.003630075075
0.003639237468
0.00364921349
0.003659165827
0.003668183519
0.003675287742
0.003679422188
0.003647555874
0.003652659215
0.003659848462
0.003668513724
0.003677947171
0.003687357228
0.003695883249
0.003702600641
0.003706510924
0.003676378076
0.003681198009
0.00368798713
0.003696168803
0.003705074415
0.003713956886
0.003722004516
0.003728345481
0.003732037594
0.003703589528
0.003708133928
0.003714534026
0.003722245531
0.003730637927
0.003739007388
0.003746589804
0.003752564668
0.003756044559
0.003729233339
0.003733509957
0.003739532015
0.003746786619
0.003754680258
0.003762551128
0.00376968137
0.003775300354
0.003778573914
0.003753352441
0.003757368919
0.003763023735
0.003769834533
0.003777243681
0.003784630195
0.003791321134
0.003796594332
0.003799667382
0.003775989465
0.003779753336
0.003785051558
0.003791431403
0.003798370097
0.003805286267
0.003811550584
0.003816487941
0.003819366221
0.003797186615
0.003800705277
0.003805657344
0.003811618884
0.003818100919
0.003824560519
0.003830410682
0.003835021986
0.003837711145
0.003816985576
0.003820266288
0.003824882452
0.003830438084
0.003836476994
0.003842493547
0.003847941802
0.003852236662
0.003854742251
0.003835427434
0.00383847731
0.003842767616
0.003847929479
0.003853538539
0.003859125304
0.003864183656
0.003868171503
0.003870498971
0.003852552614
0.003855378624
0.003859352912
0.003864132904
0.003869325094
0.003874495048
0.003879175258
0.003882865329
0.003885020015
0.003868400824
0.003871009783
0.003874677675
0.003879087424
0.003883875453
0.003888641295
0.003892954869
0.003896356206
0.003898343338
0.003883011015
0.003885409583
0.003888780482
0.003892831351
0.00389722764
0.003901601784
0.003905559972
0.003908681415
0.003910506108
0.003896421349
0.003898616034
0.003901699126
0.00390540222
0.003909418891
0.003913413457
0.003917027245
0.003919877432
0.003921544682
0.003908669174
0.003910666327
0.003913470584
0.003916836751
0.003920485621
0.003924112432
0.003927392541
0.003929979903
0.00393149459
0.003919790999
0.003921596815
0.003924130978
0.003927170776
0.003930463391
0.003933733984
0.003936690874
0.003939023635
0.003940390521
0.003929822483
0.003931442998
0.00393371559
0.003936439316
0.003939386925
0.003942312543
0.003944956408
0.003947042588
0.003948266316
0.003938798424
0.00394023952
0.003942258844
0.003944676533
0.003947290088
0.003949881684
0.003952222457
0.003954069868
0.003955154964
0.003946752754
0.003948020157
0.003949794298
0.003951915721
0.003954205888
0.003956474127
0.003958521479
0.003960137733
0.003961088604
0.003953718539
0.003954817824
0.003956354651
0.003958189318
0.003960166477
0.003962121739
0.003963885086
0.00396527759
0.003966098529
0.003959727983
0.003960664573
0.003961971742
0.003963528905
0.003965203157
0.003966855541
0.003968344044
0.003969520008
0.003970215193
0.003964812432
0.003965591601
0.003966676559
0.003967965216
0.003969346384
0.003970705714
0.003971928285
0.003972894722
0.003973468219
0.003969002383
0.00396962926
0.003970499246
0.003971528148
0.003972625783
0.003973701612
0.003974666916
0.003975430648
0.003975886409
0.003972327498
0.003972807067
0.003973469119
0.00397424677
0.003975070159
0.003975871772
0.003976588233
0.003977155891
0.003977497762
0.00397481661
0.003975153715
0.003975614673
0.003976149339
0.003976707505
0.003977243927
0.003977719734
0.003978097763
0.003978329481
0.003976497743
0.003976697091
0.003976963598
0.003977263311
0.003977565023
0.003977845023
0.003978088131
0.003978282797
0.003978407993
0.003977398123
0.003977464286
0.003977542798
0.003977615359
0.003977669134
0.003977701231
0.00397771937
0.003977736757
0.003977758961
0.003977544195
0.003977481613
0.003977378399
0.003977231385
0.003977045496
0.003976837965
0.003976638642
0.003976484661
0.003976407302
0.003976961638
0.003976774622
0.003976495771
0.003976136541
0.003975719022
0.003975279896
0.003974870401
0.003974550794
0.0039743772
0.003975675383
0.003975368121
0.003974919543
0.00397435524
0.00397371389
0.00397305097
0.003972438381
0.00397195872
0.003971692124
0.003973709629
0.003973286185
0.003972673617
0.003971911176
0.003971053566
0.003970174423
0.003969365609
0.003968731302
0.003968374841
0.003971087863
0.00397055218
0.00396978119
0.00396882734
0.003967760816
0.003966672796
0.003965674423
0.003964890718
0.003964447435
0.003967832872
0.003967188776
0.003966264767
0.003965126036
0.003963857726
0.003962567955
0.003961386486
0.003960458471
0.003959931318
0.003963966766
0.003963217969
0.00396214618
0.003960828901
0.003959365715
0.003957881103
0.003956522805
0.003955455414
0.003954847249
0.003959510994
0.003958661096
0.003957446609
0.00395595692
0.003954305558
0.003952632802
0.003951103749
0.003949901759
0.003949215351
0.00395448637
0.00395353886
0.003952186598
0.00395053045
0.003948697406
0.003946842996
0.003945149069
0.003943817106
0.003943055135
0.00394891309
0.00394787135
0.003946386086
0.003944569239
0.00394256081
0.003940531032
0.003938677928
0.00393722047
0.003936385527
0.003942810768
0.003941678077
0.003940064438
0.003938092481
0.003935914762
0.003933715703
0.003931708935
0.003930130315
0.003929224906
0.003936198468
0.003934978005
0.00393324048
0.003931118835
0.003928777728
0.003926415288
0.0039242602
0.003922564611
0.003921591161
0.003929094747
0.003927789598
0.003925932541
0.003923666468
0.003921167707
0.003918647615
0.003916349391
0.003914540904
0.003913501762
0.003921517719
0.003920130885
0.003918158528
0.003915753137
0.003913102312
0.003910430148
0.00390799384
0.003906076417
0.003904973868
0.003913485135
0.003912019544
0.00390993602
0.003907396309
0.003904598882
0.003901780106
0.003899210661
0.003897188185
0.003896024468
0.003905014488
0.003903473012
0.003901282383
0.003898613267
0.003895674618
0.00389271462
0.003890016926
0.003887893237
0.003886670569
0.003896123137
0.003894508622
0.003892214911
0.003889421271
0.003886346765
0.003883250929
0.003880429882
0.003878208835
0.003876929447
0.003886828481
0.003885143778
0.003882751025
0.003879837791
0.003876632856
0.00387340665
0.003870467241
0.003868152781
0.003866818961
0.003877148172
0.003875396187
0.003872908533
0.003869880775
0.003866551015
0.00386320011
0.00386014754
0.003857743802
0.003856357962
0.003867100378
0.003865284143
0.003862705922
0.00385956899
0.00385612034
0.003852650766
0.003849490598
0.003847002029
0.003845566784
0.00385670413
0.00385482689
0.003852162803
0.003848922489
0.003845361389
0.003841779725
0.003838518065
0.003835949586
0.003834467851
0.003845979797
0.003844045182
0.003841300445
0.003837963161
0.003834296769
0.003830610367
0.003827254086
0.003824611276
0.003823086381
0.003834949822
0.003832961938
0.00383014242
0.0038267154
0.003822951834
0.003819169079
0.003815726069
0.003813015378
0.003811451206
0.003823639407
0.003821602916
0.00381871531
0.003815206849
0.003811355463
0.003807486078
0.003803965538
0.003801194537
0.00379959567
0.003812077181
0.003809997448
0.003807049488
0.003803469218
0.003799540929
0.003795596311
0.003792009075
0.003789186716
0.003787558602
0.003800295992
0.003798179259
0.003795179973
0.003791539175
0.00378754681
0.003783540393
0.003779899275
0.003777036175
0.003775385291
0.003788333769
0.003786187349
0.003783147331
0.003779459264
0.003775417928
0.003771365559
0.003767685689
0.003764794405
0.003763128416
0.003776234412
0.003774066878
0.003770998558
0.00376727879
0.003763206222
0.00375912651
0.003755425657
0.003752520919
0.003750848816
0.003764048635
0.003761870002
0.003758787893
0.003755054591
0.003750971474
0.003746886088
0.0037431849
0.003740283798
0.003738615981
0.003751834679
0.003749656544
0.003746577438
0.003742851587
0.003738781763
0.003734715614
0.003731037757
0.003728159801
0.0037265081
0.003739658771
0.0037374944
0.003734437468
0.003730742967
0.003726713498
0.003722694753
0.003719066865
0.003716233906
0.003714611497
0.003727595203
0.003725459519
0.003722446275
0.003718809851
0.00371485087
0.00371091073
0.00370736214
0.003704598079
0.003703019272
0.003715725872
0.003713635323
0.003710689403
0.003707140289
0.00370328457
0.00369945674
0.003696018895
0.003693349144
0.00369182902
0.003704139148
0.003702111417
0.003699258128
0.003695827446
0.003692109632
0.003688429447
0.003685134993
0.00368258566
0.003681139534
0.003692927942
0.003690981475
0.003688247081
0.0036849669
0.00368142237
0.003677925523
0.003674807042
0.003672403825
0.003671046556
0.003682186915
0.003680340257
0.003677750992
0.003674653051
0.003671316413
0.003668037334
0.003665125744
0.003662892592