/*--------------------------------*- C++ -*----------------------------------*\
| =========                 |                                                 |
| \\      /  F ield         | OpenFOAM: The Open Source CFD Toolbox           |
|  \\    /   O peration     | Version:  2212                                  |
|   \\  /    A nd           | Website:  www.openfoam.com                      |
|    \\/     M anipulation  |                                                 |
\*---------------------------------------------------------------------------*/
FoamFile
{
    version     2.0;
    format      ascii;
    arch        "LSB;label=32;scalar=64";
    class       volScalarField;
    location    "20.00000000";
    object      CH2CO_0;
}
// * * * * * * * * * * * * * * * * * * * * * * * * * * * * * * * * * * * * * //

dimensions      [0 0 0 0 0 0 0];

internalField   nonuniform List<scalar> 
3000
(
5.825285127e-21
6.543956703e-21
7.628428591e-21
9.073586609e-21
1.086474499e-20
1.295326786e-20
1.521333417e-20
1.736988011e-20
1.889484268e-20
2.187068749e-20
2.466798331e-20
2.888727922e-20
3.452236806e-20
4.156767531e-20
4.998415565e-20
5.962571662e-20
7.000562677e-20
7.920054963e-20
4.898911308e-20
5.568867626e-20
6.589040946e-20
7.974208558e-20
9.749284242e-20
1.194002116e-19
1.453779923e-19
1.739676903e-19
1.984023412e-19
9.331157898e-20
1.071837076e-19
1.286171245e-19
1.583371107e-19
1.973966438e-19
2.467882784e-19
3.062425456e-19
3.709998678e-19
4.232686248e-19
1.656976815e-19
1.926670788e-19
2.349926895e-19
2.948246236e-19
3.749771752e-19
4.776969576e-19
6.012681496e-19
7.324964182e-19
8.332327513e-19
2.84931594e-19
3.355505369e-19
4.161307175e-19
5.318149749e-19
6.887746765e-19
8.9095964e-19
1.132331618e-18
1.382451844e-18
1.567499778e-18
4.837184592e-19
5.767033239e-19
7.264514701e-19
9.438649164e-19
1.241051914e-18
1.623922113e-18
2.076641227e-18
2.536617091e-18
2.868522141e-18
8.186318753e-19
9.869194748e-19
1.260352587e-18
1.660416003e-18
2.209428006e-18
2.915298374e-18
3.742617355e-18
4.570964588e-18
5.158707955e-18
1.387703253e-18
1.689062406e-18
2.181881083e-18
2.906589928e-18
3.902894e-18
5.180381323e-18
6.666892931e-18
8.139771632e-18
9.173298537e-18
2.360688439e-18
2.896100643e-18
3.775686407e-18
5.073343902e-18
6.858425214e-18
9.14131221e-18
1.178301577e-17
1.438129842e-17
1.619097211e-17
4.031736669e-18
4.977385794e-18
6.535864113e-18
8.839763965e-18
1.200916893e-17
1.605335088e-17
2.071387936e-17
2.527430066e-17
2.843464175e-17
6.910645662e-18
8.573460313e-18
1.131988176e-17
1.53850557e-17
2.097621839e-17
2.809776883e-17
3.627984994e-17
4.425736736e-17
4.976667368e-17
1.188128546e-17
1.479546935e-17
1.961601207e-17
2.675684674e-17
3.657531085e-17
4.906365517e-17
6.337996448e-17
7.730302943e-17
8.689580005e-17
2.047650848e-17
2.557124296e-17
3.400758735e-17
4.651072951e-17
6.369686903e-17
8.553208194e-17
1.105219617e-16
1.34782034e-16
1.514718633e-16
3.535534922e-17
4.42462281e-17
5.897943124e-17
8.082174294e-17
1.108365746e-16
1.489375678e-16
1.924881245e-16
2.347130541e-16
2.637406984e-16
6.113125499e-17
7.662664171e-17
1.023183693e-16
1.404168082e-16
1.927628389e-16
2.591756834e-16
3.350239507e-16
4.084934364e-16
4.589756179e-16
1.058093246e-16
1.32789395e-16
1.775423067e-16
2.439242709e-16
3.351370962e-16
4.508530242e-16
5.829866853e-16
7.109026488e-16
7.985965939e-16
1.832806325e-16
2.302216309e-16
3.081069708e-16
4.236488373e-16
5.823943146e-16
7.837145296e-16
1.013464145e-15
1.235720435e-15
1.388037028e-15
3.176548461e-16
3.992786779e-16
5.347364183e-16
7.356977581e-16
1.011767974e-15
1.361770154e-15
1.761023404e-15
2.147087045e-15
2.411595852e-15
5.507833044e-16
6.926596743e-16
9.281397771e-16
1.277502132e-15
1.757388364e-15
2.365649103e-15
3.059286098e-15
3.729787997e-15
4.189045626e-15
9.553210341e-16
1.201858909e-15
1.611086343e-15
2.218226648e-15
3.052117763e-15
4.10888015e-15
5.313660928e-15
6.477932091e-15
7.27522999e-15
1.65740405e-15
2.085727466e-15
2.796729796e-15
3.851562945e-15
5.300185713e-15
7.135624531e-15
9.227634558e-15
1.124877626e-14
1.263257068e-14
2.876013948e-15
3.62005225e-15
4.855127866e-15
6.687344355e-15
9.203191456e-15
1.239012297e-14
1.602156159e-14
1.952897895e-14
2.192974432e-14
4.991278521e-15
6.283571323e-15
8.428623243e-15
1.161040154e-14
1.59784933e-14
2.151023662e-14
2.781148039e-14
3.389543679e-14
3.805849874e-14
8.662941987e-15
1.090716665e-14
1.463193125e-14
2.015591762e-14
2.773746966e-14
3.733535967e-14
4.826384704e-14
5.881088745e-14
6.602501723e-14
1.503567985e-14
1.893239056e-14
2.539873698e-14
3.498610102e-14
4.813972782e-14
6.478385107e-14
8.372516685e-14
1.019949394e-13
1.144847578e-13
2.609448188e-14
3.285884087e-14
4.408115871e-14
6.071394221e-14
8.352242241e-14
1.123655765e-13
1.451661048e-13
1.767797556e-13
1.983764427e-13
4.527891429e-14
5.701717651e-14
7.648485555e-14
1.053240355e-13
1.448450535e-13
1.947816474e-13
2.515159652e-13
3.061423367e-13
3.434242298e-13
7.854272784e-14
9.890189144e-14
1.326519809e-13
1.826163739e-13
2.510280001e-13
3.373766196e-13
4.353581398e-13
5.295744119e-13
5.937941864e-13
1.361772337e-13
1.714630479e-13
2.299230585e-13
3.163951683e-13
4.346607905e-13
5.837283209e-13
7.52607846e-13
9.147196605e-13
1.025035412e-12
2.359395628e-13
2.970339146e-13
3.981754978e-13
5.476181145e-13
7.517145538e-13
1.008514538e-12
1.29885378e-12
1.576951203e-12
1.765794197e-12
4.084005134e-13
5.14035592e-13
6.887457707e-13
9.465356715e-13
1.297970515e-12
1.739180566e-12
2.236748334e-12
2.712042235e-12
3.03394044e-12
7.060488156e-13
8.883687065e-13
1.189544793e-12
1.633178111e-12
2.23661693e-12
2.992144772e-12
3.841523834e-12
4.65018421e-12
5.196094483e-12
1.218716562e-12
1.5326648e-12
2.050507949e-12
2.811687945e-12
3.844238651e-12
5.132760892e-12
6.575898443e-12
7.944380909e-12
8.864665611e-12
2.099574314e-12
2.638621995e-12
3.526146106e-12
4.82739582e-12
6.586770143e-12
8.773641664e-12
1.121202975e-11
1.351346482e-11
1.505421316e-11
3.608676756e-12
4.53094826e-12
6.046132658e-12
8.260863355e-12
1.124368933e-11
1.493413763e-11
1.902777066e-11
2.287070819e-11
2.543031986e-11
6.185429009e-12
7.756677045e-12
1.033139296e-11
1.408133002e-11
1.910890821e-11
2.529600609e-11
3.211864492e-11
3.848468705e-11
4.270073001e-11
1.05683177e-11
1.323184531e-11
1.758325261e-11
2.389447541e-11
3.231201573e-11
4.26083118e-11
5.388754745e-11
6.4341683e-11
7.122230901e-11
1.799120117e-11
2.248026434e-11
2.978856709e-11
4.033806786e-11
5.432588408e-11
7.132071289e-11
8.980372712e-11
1.068111894e-10
1.179312562e-10
3.05024281e-11
3.801858057e-11
5.020682422e-11
6.770658354e-11
9.075908746e-11
1.185617059e-10
1.485646159e-10
1.759617781e-10
1.937518673e-10
5.147900901e-11
6.3971156e-11
8.413936502e-11
1.129259216e-10
1.505781179e-10
1.956315439e-10
2.43853366e-10
2.875388921e-10
3.157064455e-10
8.644717441e-11
1.07041871e-10
1.401307732e-10
1.87056951e-10
2.479705407e-10
3.202545084e-10
3.969682644e-10
4.659063133e-10
5.100432712e-10
1.443786891e-10
1.78033776e-10
2.318245144e-10
3.075887143e-10
4.051536385e-10
5.199404872e-10
6.407168541e-10
7.483791595e-10
8.168313339e-10
2.397170788e-10
2.94199727e-10
3.80797732e-10
5.018981421e-10
6.565642518e-10
8.369530828e-10
1.025130472e-09
1.19155214e-09
1.296654225e-09
3.955098999e-10
4.828386451e-10
6.208454347e-10
8.124159941e-10
1.055048833e-09
1.335586797e-09
1.625781644e-09
1.880471366e-09
2.040290926e-09
6.481961173e-10
7.867373449e-10
1.00438789e-09
1.304265878e-09
1.680927664e-09
2.112740871e-09
2.555801164e-09
2.941836993e-09
3.182625136e-09
1.054839605e-09
1.272316198e-09
1.611957835e-09
2.076457904e-09
2.655159751e-09
3.313170998e-09
3.983125604e-09
4.562891817e-09
4.9225136e-09
1.703934457e-09
2.041693565e-09
2.566113858e-09
3.27815145e-09
4.158319022e-09
5.151339951e-09
6.155100648e-09
7.018292481e-09
7.551015126e-09
2.731366323e-09
3.250372184e-09
4.0516591e-09
5.132092259e-09
6.457751778e-09
7.942522082e-09
9.433373515e-09
1.070813089e-08
1.149129123e-08
4.343737452e-09
5.132914414e-09
6.344767746e-09
7.968128908e-09
9.946174662e-09
1.214680302e-08
1.434308885e-08
1.621143556e-08
1.735469151e-08
6.852105309e-09
8.039869403e-09
9.854595955e-09
1.22707861e-08
1.519615662e-08
1.843091959e-08
2.164182047e-08
2.43609753e-08
2.601908784e-08
1.072031575e-08
1.249042134e-08
1.518226259e-08
1.874630701e-08
2.303648886e-08
2.775457682e-08
3.241551006e-08
3.634714705e-08
3.873751366e-08
1.663361893e-08
1.92468432e-08
2.320368535e-08
2.841607945e-08
3.465814159e-08
4.148994867e-08
4.82110568e-08
5.386141364e-08
5.728804171e-08
2.559345375e-08
2.941674642e-08
3.518337497e-08
4.274560754e-08
5.17606072e-08
6.158622564e-08
7.121820072e-08
7.929264087e-08
8.417914181e-08
3.905069195e-08
4.45967844e-08
5.293312674e-08
6.382182692e-08
7.675081007e-08
9.079154428e-08
1.045139459e-07
1.159907408e-07
1.229254015e-07
5.908867725e-08
6.706884528e-08
7.90274589e-08
9.459289817e-08
1.130107073e-07
1.329498877e-07
1.523875296e-07
1.686144127e-07
1.784081576e-07
8.867258789e-08
1.000662788e-07
1.170943257e-07
1.391895894e-07
1.65253617e-07
1.933937545e-07
2.207660106e-07
2.435805735e-07
2.573366927e-07
1.319858563e-07
1.481316375e-07
1.722038228e-07
2.033528095e-07
2.399955429e-07
2.794590407e-07
3.177659275e-07
3.496417425e-07
3.688388244e-07
1.948800373e-07
2.175935815e-07
2.513842599e-07
2.949980114e-07
3.461719452e-07
4.01151987e-07
4.544043454e-07
4.986335766e-07
5.252329149e-07
2.85471614e-07
3.171969474e-07
3.642992131e-07
4.249480689e-07
4.959299633e-07
5.720014154e-07
6.455115808e-07
7.064453395e-07
7.430385721e-07
4.149207533e-07
4.589188026e-07
5.241153292e-07
6.078631392e-07
7.056288181e-07
8.101388549e-07
9.10897733e-07
9.942639677e-07
1.04426661e-06
5.984174814e-07
6.589949389e-07
7.4858713e-07
8.634012245e-07
9.97095058e-07
1.13966498e-06
1.276830117e-06
1.390137391e-06
1.458028933e-06
8.563960626e-07
9.391835119e-07
1.061396739e-06
1.21766271e-06
1.399197555e-06
1.59236349e-06
1.777869557e-06
1.930902715e-06
2.022519561e-06
1.216018291e-06
1.328317641e-06
1.493813225e-06
1.7049889e-06
1.94980087e-06
2.20980298e-06
2.45910259e-06
2.664522608e-06
2.787413227e-06
1.713002047e-06
1.864224264e-06
2.086740085e-06
2.37016091e-06
2.698121253e-06
3.045846917e-06
3.378795089e-06
3.652856904e-06
3.816707638e-06
2.39385741e-06
2.596052202e-06
2.893167677e-06
3.270996399e-06
3.707480701e-06
4.169570455e-06
4.611463746e-06
4.974860291e-06
5.191995301e-06
3.318512937e-06
3.586979244e-06
3.980993429e-06
4.481308908e-06
5.058422732e-06
5.668539722e-06
6.251308196e-06
6.730136104e-06
7.016088012e-06
4.563260858e-06
4.917228701e-06
5.436140233e-06
6.094151226e-06
6.852097196e-06
7.652338514e-06
8.415865025e-06
9.042688978e-06
9.416825035e-06
6.223920222e-06
6.687285978e-06
7.365849e-06
8.225199381e-06
9.213737063e-06
1.025613046e-05
1.124963962e-05
1.206460449e-05
1.255077599e-05
8.419057567e-06
9.021141242e-06
9.901945516e-06
1.101603631e-05
1.229594583e-05
1.364393224e-05
1.492734829e-05
1.597925173e-05
1.660641208e-05
1.129303084e-05
1.206929584e-05
1.320378238e-05
1.463699647e-05
1.628140844e-05
1.801115867e-05
1.965628098e-05
2.100347726e-05
2.180618894e-05
1.501852842e-05
1.601118251e-05
1.746047315e-05
1.928914422e-05
2.138454828e-05
2.358590982e-05
2.567720566e-05
2.738817165e-05
2.840689932e-05
1.979821456e-05
2.105658837e-05
2.289197622e-05
2.520490588e-05
2.785160962e-05
3.062843946e-05
3.326321866e-05
3.541658778e-05
3.669766162e-05
2.58650621e-05
2.744564777e-05
2.974857743e-05
3.264688568e-05
3.595867911e-05
3.942830838e-05
4.271604191e-05
4.539991544e-05
4.699505443e-05
3.348097894e-05
3.544701278e-05
3.830838505e-05
4.190449263e-05
4.600729836e-05
5.029891101e-05
5.435950154e-05
5.766989288e-05
5.963520981e-05
4.293342993e-05
4.535392594e-05
4.887259997e-05
5.328819839e-05
5.83175646e-05
6.35693675e-05
6.853028343e-05
7.256864686e-05
7.496311974e-05
5.452992252e-05
5.747811068e-05
6.175855097e-05
6.712151843e-05
7.321894142e-05
7.957415331e-05
8.556649433e-05
9.043642837e-05
9.331990993e-05
6.859044882e-05
7.214164048e-05
7.729075925e-05
8.373111708e-05
9.103934428e-05
9.86412127e-05
0.0001057949591
0.0001115983329
0.0001150292506
8.543822594e-05
8.966720711e-05
9.579056705e-05
0.0001034357143
0.0001120933398
0.0001210795655
0.0001295184332
0.0001363513691
0.0001403846484
0.0001053893073
0.0001103674335
0.0001175650758
0.0001265346528
0.0001366704198
0.0001471674293
0.0001570037466
0.0001649529987
0.0001696383935
0.0001287418054
0.0001345340252
0.000142896252
0.0001532970445
0.0001650242946
0.0001771417372
0.0001884716605
0.0001976103957
0.0002029873155
0.0001557655356
0.000162427588
0.0001720310342
0.0001839522907
0.0001973640934
0.0002111902434
0.0002240889775
0.0002344704316
0.0002405675201
0.0001866928274
0.0001942687813
0.0002051731604
0.000218682943
0.0002338482654
0.0002494451649
0.0002639605659
0.0002756175567
0.0002824515319
0.0002217111405
0.0002302317014
0.0002424773444
0.000257619791
0.0002745785933
0.00029197681
0.0003081295703
0.0003210733816
0.0003286485208
0.0002609581209
0.0002704395198
0.0002840452247
0.0003008350657
0.0003195954481
0.0003387951897
0.0003565784322
0.0003707987451
0.0003791069666
0.0003045157191
0.0003149562733
0.000329915773
0.0003483398933
0.0003688800854
0.0003898517784
0.0004092318565
0.0004246975982
0.00043371905
0.0003524015085
0.000363783716
0.0003800687211
0.0004000873976
0.0004223569973
0.0004450429088
0.000465961169
0.0004826220881
0.0004923261329
0.0004045736134
0.0004168650566
0.0004344265022
0.0004559752824
0.000479897505
0.0005042142651
0.000526589562
0.000544378346
0.0005547248306
0.0004609327645
0.0004740874303
0.0004928574188
0.0005158496751
0.0005413243415
0.0005671661303
0.000590897875
0.0006097326326
0.0006206733426
0.0005213257424
0.0005352856951
0.0005551799325
0.000579509937
0.0006064169696
0.0006336591403
0.0006586306731
0.000678417624
0.0006898978352
0.0005855500314
0.0006002473318
0.000621167886
0.0006467142156
0.0006749174297
0.0007034203565
0.0007295024641
0.0007501386986
0.0007620987508
0.0006533594609
0.0006687182222
0.0006905564448
0.0007171855365
0.000746536537
0.0007761495086
0.0008032039296
0.0008245801273
0.0008369569622
0.000724470586
0.0007404090668
0.0007630485423
0.000790618241
0.0008209602627
0.0008515252699
0.0008794080659
0.0009014110828
0.0009141396975
0.0007985695494
0.0008150021993
0.0008383216065
0.0008666845753
0.000897856136
0.0009292114356
0.0009577761294
0.0009802913863
0.0009933061674
0.0008753191692
0.0008921585579
0.0009160343523
0.0009450412448
0.0009768795101
0.001008862876
0.001037963287
0.001060876911
0.001074112825
0.0009543660076
0.0009715245874
0.0009958334379
0.001025335757
0.001057679548
0.001090131149
0.001119623882
0.001142824567
0.00115621819
0.001035347204
0.00105273887
0.001077359804
0.001107212401
0.001139904799
0.001172669668
0.001202416227
0.001225796808
0.001239287193
0.001117896891
0.001135438319
0.001160254551
0.001190317739
0.001223208271
0.001256138354
0.001286006877
0.001309465607
0.00132299498
0.001201652047
0.001219263798
0.001244164236
0.001274305514
0.001307251912
0.001340207702
0.001370074329
0.001393515875
0.001407030179
0.00128625769
0.001303865094
0.00132874552
0.001358840918
0.001391710474
0.001424562245
0.001454312136
0.00147764831
0.0014910976
0.00137137135
0.001388905163
0.001413669118
0.00144360418
0.001476274724
0.001508903404
0.001538431439
0.001561581686
0.001574920386
0.001456666794
0.001474063659
0.001498623048
0.001528293492
0.001560654019
0.001592951728
0.001622162919
0.001645054595
0.001658241639
0.001541837011
0.001559039737
0.00158331518
0.001612627265
0.001644578262
0.001676448563
0.001705258215
0.001727826673
0.001740825545
0.001626596489
0.001643554166
0.001667475133
0.001696345769
0.001727799278
0.001759157174
0.001787490836
0.001809679359
0.001822458041
0.001710682815
0.0017273508
0.001750855559
0.001779212206
0.001810091659
0.001840863385
0.001868656623
0.001890416221
0.001902947078
0.001793857679
0.001810197462
0.001833232873
0.001861013256
0.001891253131
0.001921375777
0.001948573804
0.001969862913
0.001982122506
0.001875907329
0.001891886307
0.001914407487
0.001941559175
0.001971104511
0.002000525504
0.002027082698
0.002047866791
0.002059835663
0.001956642555
0.001972233736
0.001994203631
0.002020683503
0.002049489296
0.002078165792
0.002104045131
0.002124296273
0.002135958692
0.002035898268
0.002051079921
0.002072468806
0.002098242434
0.002126272961
0.002154171158
0.002179343599
0.002199039963
0.002210383642
0.00211353275
0.002128288017
0.002149072945
0.002174113929
0.002201342016
0.002228436424
0.002252880244
0.0022720056
0.002283021413
0.002189426634
0.002203743118
0.002223907339
0.002248196609
0.002274602873
0.002300875564
0.002324575688
0.00234311888
0.002353800567
0.002263481677
0.002277351023
0.002296883395
0.002320408497
0.002345980577
0.002371420427
0.002394367753
0.002412322184
0.002422666056
0.002335619381
0.002349036852
0.00236793125
0.002390685645
0.002415417445
0.002440019388
0.002462210126
0.002479573249
0.002489577905
0.002405779519
0.002418743587
0.002436998322
0.002458980694
0.002482871646
0.002506635953
0.002528070988
0.002544843818
0.002554509867
0.002473918599
0.002486430541
0.002504047811
0.00252526141
0.002548315765
0.002571247356
0.00259193164
0.002608118289
0.002617448089
0.002540008307
0.002552071834
0.002569057191
0.002589509207
0.002611735373
0.00263384317
0.002653785149
0.002669392389
0.002678389807
0.002604033972
0.002615654868
0.002632016729
0.002651717709
0.002673127626
0.002694423949
0.002713635037
0.002728671897
0.002737342074
0.002665993054
0.002677178851
0.002692928042
0.002711891351
0.002732499921
0.002752999933
0.00277149402
0.002785971417
0.002794320564
0.0027258937
0.002736653377
0.002751802715
0.002770044043
0.002789868608
0.002809589808
0.002827382822
0.002841313217
0.002849348423
0.002783753373
0.002794097084
0.002808660998
0.002826197914
0.002845257783
0.002864219551
0.002881329051
0.002894726152
0.002902455214
0.002839597559
0.002849536386
0.002863530579
0.002880382135
0.002898698162
0.002916921349
0.002933366173
0.002946244655
0.002953675924
0.002893458571
0.002903004309
0.002916445457
0.002932631829
0.002950226035
0.002967732604
0.002983532549
0.002995907819
0.003003050063
0.002945374448
0.002954539409
0.002967444896
0.002982987074
0.002999882322
0.003016695026
0.00303187057
0.003043758553
0.003050620836
0.002995387945
0.003004184796
0.00301657248
0.003031491997
0.0030477117
0.003063853808
0.003078425869
0.003089842822
0.003096434405
0.003043545628
0.003051987243
0.003063875258
0.003078193953
0.003093761831
0.003109256886
0.003123246613
0.003134208967
0.003140539213
0.003089897058
0.003097996393
0.003109402979
0.003123142797
0.003138082661
0.00315295428
0.003166382873
0.003176907097
0.003182985394
0.003134494061
0.003142264053
0.003153207406
0.003166390229
0.003180725805
0.003194997503
0.003207886064
0.003217988549
0.003223824246
0.003177390091
0.003184843565
0.003195341724
0.003207989228
0.003221744003
0.003235439051
0.003247808456
0.003257505418
0.003263107772
0.003218639666
0.003225789268
0.003235860007
0.003247993544
0.003261190648
0.003274331952
0.003286202747
0.00329551015
0.003300888276
0.003258297881
0.003265156014
0.003274816766
0.003286457269
0.003299119372
0.003311729378
0.003323121694
0.003332055183
0.00333721802
0.003296419985
0.003302998765
0.003312266553
0.003323434462
0.003335583693
0.00334768431
0.003358617799
0.003367192646
0.003372148926
0.003333061025
0.003339372242
0.003348263632
0.003358978833
0.003370636719
0.003382249259
0.003392743036
0.003400974104
0.003405732328
0.003368275541
0.003374330633
0.003382861693
0.003393143473
0.003404330891
0.003415476023
0.003425548631
0.003433450341
0.003438018763
0.003402117311
0.003407927343
0.003416113616
0.003425980632
0.003436717778
0.003447415497
0.003457084875
0.003464671185
0.003469057797
0.003434639144
0.003440214794
0.00344807128
0.003457541537
0.003467847901
0.003478117504
0.003487400972
0.003494685359
0.003498897883
0.003465892707
0.003471244259
0.003478785404
0.003487876241
0.003497770595
0.003507630672
0.003516544916
0.003523540371
0.003527586256
0.003495928393
0.003501065733
0.003508305424
0.003517033511
0.003526533903
0.00353600233
0.003544563401
0.003551282424
0.003555168838
0.003524795214
0.003529727829
0.003536679396
0.003545060735
0.003554184492
0.003563278433
0.003571501744
0.003577956345
0.00358169018
0.003552540721
0.003557277705
0.003563953923
0.003572003852
0.003580767586
0.003589503501
0.00359740384
0.003603605541
0.003607193413
0.003579210953
0.003583761012
0.003590174112
0.003597907317
0.003606326935
0.003614720589
0.003622312121
0.003628271968
0.00363172022
0.003604850398
0.003609221855
0.003615383534
0.003622814064
0.003630904785
0.003638971262
0.003646267545
0.003651996112
0.003655310822
0.00362950197
0.003633702779
0.003639624216
0.003646765494
0.003654541863
0.003662295586
0.003669309587
0.003674816991
0.003678003974
0.003653207006
0.003657244761
0.003662936627
0.003669801475
0.003677277386
0.003684732132
0.003691476243
0.003696772155
0.003699836973
0.003676005271
0.003679887217
0.003685359697
0.003691960349
0.003699149064
0.003706317989
0.003712804044
0.003717897702
0.003720845673
0.003697934972
0.003701668018
0.003706930824
0.003713278952
0.003720193123
0.003727088781
0.003733328077
0.003738228304
0.003741064504
0.003719032783
0.003722623516
0.003727685908
0.003733792639
0.003740444334
0.003747078698
0.003753082012
0.003757797228
0.003760526506
0.003739333877
0.003742788572
0.003747659374
0.003753535314
0.003759936034
0.003766320523
0.003772098134
0.003776636372
0.003779263356
0.003758871958
0.003762196593
0.003766884212
0.003772539466
0.003778700174
0.003784845671
0.00379040738
0.003794776301
0.003797305404
0.003777679302
0.00378087957
0.003785392012
0.003790836208
0.003796767348
0.003802684225
0.003808039375
0.003812246283
0.003814681717
0.003795786797
0.003798868121
0.003803213011
0.003808455317
0.00381416684
0.003819864979
0.003825022474
0.003829074333
0.003831420113
0.003813223994
0.003816191535
0.003820376134
0.003825425282
0.003830926663
0.003836415479
0.003841383803
0.003845287253
0.003847547206
0.003830019143
0.003832877816
0.003836909036
0.003841773341
0.003847073608
0.00385236207
0.003857149308
0.003860910674
0.003863088449
0.003846199247
0.00384895373
0.003852838155
0.003857525534
0.003862633282
0.003867729934
0.00387234379
0.0038759691
0.003878068178
0.003861790109
0.003864444855
0.003868188751
0.003872706745
0.003877630161
0.003882543142
0.003886990954
0.003890485956
0.003892509652
0.003876816374
0.003879375624
0.003882984957
0.003887340746
0.003892087629
0.003896824691
0.003901113453
0.00390448362
0.003906435095
0.003891301583
0.003893769373
0.003897249826
0.003901450246
0.003906028024
0.003910596553
0.003914732927
0.003917983478
0.003919865746
0.003905268211
0.003907648386
0.003911005368
0.003915056934
0.00391947268
0.003923879713
0.003927870048
0.003931005957
0.003932821889
0.003918737719
0.00392103394
0.003924272606
0.003928181519
0.003932441974
0.003936694215
0.003940544562
0.00394357057
0.003945322904
0.003931730597
0.00393394635
0.003937071607
0.003940843779
0.003944955364
0.003949059203
0.003952775328
0.003955695953
0.003957387301
0.003944266402
0.003946405009
0.003949421535
0.003953062595
0.003957031431
0.003960992956
0.003964580356
0.003967399907
0.003969032758
0.003956363806
0.003958428433
0.003961340684
0.003964855997
0.003968687917
0.003972512933
0.003975976849
0.003978699434
0.003980276163
0.003968040634
0.003970034297
0.003972846519
0.003976241202
0.003979941765
0.003983635805
0.003986981236
0.003989610773
0.003991133643
0.003979313904
0.003981239477
0.003983955719
0.003987234647
0.003990809154
0.003994377497
0.003997609207
0.004000149432
0.004001620605
0.003990199859
0.003992060084
0.003994684207
0.003997852029
0.004001305536
0.004004753214
0.00400787575
0.00401033023
0.004011751766
0.004000714014
0.004002511504
0.004005047188
0.004008108339
0.004011445669
0.004014777484
0.004017795184
0.00402016732
0.004021541187
0.004010871179
0.004012608428
0.004015059185
0.004018017895
0.004021243649
0.004024464183
0.004027381185
0.004029674224
0.0040310023
0.004020685501
0.004022364886
0.004024734067
0.004027594373
0.004030712941
0.004033826566
0.004036646823
0.004038863864
0.00404014794
0.004030170488
0.004031794281
0.004034085083
0.004036850837
0.00403986641
0.0040428773
0.004045604583
0.004047748587
0.004048990376
0.004039339048
0.004040909415
0.004043124889
0.004045799769
0.004048716349
0.00405162849
0.004054266401
0.004056340193
0.00405754133
0.004048203508
0.004049722518
0.004051865579
0.004054453098
0.004057274505
0.004060091703
0.004062643682
0.004064649962
0.004065812009
0.004056775651
0.004058245278
0.00406031871
0.004062822221
0.004065552104
0.004068277995
0.00407074733
0.004072688677
0.004073813125
0.004065066733
0.004066488865
0.004068495326
0.004070918033
0.00407355988
0.004076197937
0.004078587767
0.004080466646
0.004081554922
0.004073087514
0.004074463954
0.004076405983
0.004078750948
0.004081308089
0.004083861632
0.004086174958
0.004087993725
0.004089047192
0.004080848277
0.004082180747
0.004084060773
0.004086330921
0.004088806539
0.004091278741
0.004093518431
0.004095279336
0.004096299297
0.004088358853
0.004089649
0.00409146934
0.004093667467
0.004096064606
0.004098458499
0.004100627294
0.00410233249
0.004103320189
0.004095628638
0.004096878034
0.004098640906
0.004100769684
0.004103091252
0.004105409732
0.004107510254
0.004109161796
0.004110118424
0.004102666611
0.00410387676
0.004105584282
0.004107646265
0.00410989504
0.004112140878
0.004114175629
0.004115775484
0.004116702177
0.004109481353
0.004110653691
0.004112307889
0.004114305515
0.004116484154
0.004118659995
0.004120631367
0.004122181411
0.004123079257
0.00411608106
0.00411721696
0.004118819765
0.004120755366
0.004122866403
0.004124974774
0.004126885051
0.004128387077
0.004129257112
0.004122473555
0.004123574327
0.004125127585
0.004127003385
0.004129049239
0.00413109255
0.004132943911
0.004134399628
0.00413524284
0.004128666298
0.00412973319
0.004131238661
0.004133056779
0.004135039758
0.004137020306
0.004138814826
0.004140225862
0.004141043194
0.004134666389
0.004135700592
0.004137159951
0.004138922406
0.004140844705
0.004142764674
0.004144504328
0.004145872231
0.004146664576
0.004140480579
0.004141483223
0.004142898063
0.004144606772
0.004146470474
0.004148331939
0.004150018597
0.004151344833
0.00415211304
0.004146115262
0.004147087418
0.004148459247
0.004150116026
0.004151923102
0.004153728024
0.004155363454
0.004156649408
0.004157394277
0.004151576471
0.004152519152
0.004153849393
0.004155455953
0.004157208263
0.004158958485
0.004160544351
0.004161791324
0.004162513602
0.004156869875
0.004157784031
0.00415907402
0.004160631965
0.004162331247
0.004164028495
0.004165566348
0.004166775551
0.004167475939
0.004162000758
0.004162887273
0.004164138254
0.004165649078
0.004167296945
0.004168942819
0.004170434093
0.004171606645
0.004172285785
0.004166974001
0.004167833694
0.004169046812
0.004170511888
0.004172109824
0.004173705786
0.004175151793
0.004176288712
0.004176947189
0.00417179406
0.004172627676
0.004173803975
0.004175224547
0.004176773894
0.004178321263
0.004179723178
0.004180825374
0.004181463707
0.004176464936
0.004177273142
0.004178413552
0.00417979073
0.004181292672
0.00418279261
0.004184151463
0.004185219729
0.004185838369
0.004180990145
0.004181773521
0.004182878852
0.004184213592
0.004185669151
0.004187122647
0.004188439309
0.00418947431
0.004190073633
0.004185372678
0.004186131714
0.004187202643
0.004188495742
0.004189905754
0.004191313614
0.004192588783
0.004193591044
0.004194171342
0.004189614969
0.004190350056
0.004191387117
0.004192639193
0.004194004303
0.00419536713
0.004196601316
0.004197571213
0.00419813269
0.004193718861
0.00419443028
0.004195433853
0.004196645339
0.004197965976
0.004199284159
0.004200477675
0.004201415423
0.004201958188
0.004197685572
0.004198373491
0.004199343795
0.004200514919
0.004201791292
0.00420306499
0.004204217937
0.00420512358
0.004205647643
0.004201515677
0.004202180144
0.004203117223
0.004204248004
0.004205480088
0.004206709224
0.004207821481
0.00420869489
0.004209200158
0.004205209092
0.00420585003
0.004206753751
0.004207843993
0.004209031521
0.004210215775
0.004211287001
0.004212127868
0.004212614144
0.004208765078
0.004209382284
0.004210252338
0.004211301625
0.004212444094
0.004213582904
0.004214612538
0.004215420381
0.004215887366
0.004212182264
0.004212775412
0.004213611314
0.00421461902
0.004215715693
0.004216808267
0.004217795538
0.004218569713
0.004219017015
0.004215458689
0.004216027337
0.004216828438
0.004217793741
0.004218843671
0.004219889007
0.004220832955
0.00422157267
0.004221999812
0.004218591872
0.004219135475
0.004219900982
0.004220822886
0.004221824941
0.004222821858
0.004223721367
0.004224425712
0.004224832151
0.004221578914
0.00422209684
0.004222825843
0.004223703218
0.004224656124
0.004225603307
0.004226457148
0.00422712513
0.00422751028
0.004224416625
0.004224908183
0.00422559969
0.004226431314
0.00422733371
0.004228229768
0.004229036656
0.004229667246
0.004230030504
0.004227101686
0.004227566155
0.00422821914
0.004229003762
0.004229854264
0.004230697802
0.004231456462
0.004232048652
0.004232389434
0.004229630835
0.004230067504
0.004230680962
0.004231417366
0.004232214652
0.004233004353
0.004233713598
0.004234266466
0.004234584243
0.00423200108
0.00423240929
0.004232982301
0.004233669388
0.004234412281
0.004235146997
0.004235805819
0.004236318595
0.004236612939
0.004234209928
0.004234589123
0.004235120917
0.00423575779
0.004236445356
0.004237124207
0.004237731862
0.004238204008
0.00423847463
0.004236255623
0.004236605395
0.004237095428
0.004237681479
0.004238313123
0.004238935595
0.004239491696
0.004239922973
0.004240169768
0.004238137381
0.004238457523
0.004238905542
0.004239440537
0.004240016094
0.004240582131
0.004241086733
0.004241477265
0.00424170035
0.004239855599
0.00424014615
0.004240552262
0.004241036414
0.004241556236
0.004242066319
0.004242519986
0.004242870317
0.00424307006
0.004241412049
0.004241673329
0.004242038051
0.004242472087
0.004242937099
0.004243392308