/*--------------------------------*- C++ -*----------------------------------*\
| =========                 |                                                 |
| \\      /  F ield         | OpenFOAM: The Open Source CFD Toolbox           |
|  \\    /   O peration     | Version:  2212                                  |
|   \\  /    A nd           | Website:  www.openfoam.com                      |
|    \\/     M anipulation  |                                                 |
\*---------------------------------------------------------------------------*/
FoamFile
{
    version     2.0;
    format      ascii;
    arch        "LSB;label=32;scalar=64";
    class       volScalarField;
    location    "20.00000000";
    object      CH3CO_0;
}
// * * * * * * * * * * * * * * * * * * * * * * * * * * * * * * * * * * * * * //

dimensions      [0 0 0 0 0 0 0];

internalField   nonuniform List<scalar> 
3000
(
7.417479889e-45
9.440274799e-45
1.295867763e-44
1.85446261e-44
2.696501632e-44
3.907894545e-44
5.548739872e-44
7.552467221e-44
9.44729957e-44
7.698947546e-44
9.876737626e-44
1.369230598e-43
1.981911999e-43
2.922336063e-43
4.317725519e-43
6.311401636e-43
8.970546597e-43
1.181057559e-42
3.681839914e-43
4.804962013e-43
6.814583086e-43
1.014081034e-42
1.545082237e-42
2.369936675e-42
3.600962557e-42
5.281797989e-42
7.005250628e-42
1.325313681e-42
1.768690268e-42
2.584607167e-42
3.985745432e-42
6.31741419e-42
1.008362965e-41
1.585082269e-41
2.368209129e-41
3.125489178e-41
4.195026663e-42
5.743589395e-42
8.680357555e-42
1.390763763e-41
2.292179977e-41
3.788936056e-41
6.102212592e-41
9.177351587e-41
1.199834628e-40
1.250702246e-41
1.757921066e-41
2.747616299e-41
4.565317507e-41
7.788462635e-41
1.323449623e-40
2.165216803e-40
3.259423717e-40
4.222694324e-40
3.64033105e-41
5.246223044e-41
8.458102684e-41
1.450887003e-40
2.545799201e-40
4.414185813e-40
7.2898254e-40
1.095604498e-39
1.407916394e-39
1.053300808e-40
1.552227628e-40
2.570538876e-40
4.526871583e-40
8.117565907e-40
1.427682394e-39
2.370559362e-39
3.554500791e-39
4.539415694e-39
3.056498977e-40
4.590515255e-40
7.771565049e-40
1.397237862e-39
2.546312715e-39
4.522085279e-39
7.530941524e-39
1.126598962e-38
1.432054537e-38
8.925796172e-40
1.361401601e-39
2.345369376e-39
4.283678247e-39
7.898382231e-39
1.411888853e-38
2.35493973e-38
3.515615804e-38
4.452919963e-38
2.624891089e-39
4.052555936e-39
7.07575716e-39
1.307552491e-38
2.431009335e-38
4.364355056e-38
7.284501734e-38
1.085562467e-37
1.371223035e-37
7.76836439e-39
1.210589849e-38
2.135050215e-38
3.979201046e-38
7.441238135e-38
1.339649079e-37
2.236425842e-37
3.327834518e-37
4.194503876e-37
2.311057867e-38
3.626809841e-38
6.44402888e-38
1.208375899e-37
2.268755292e-37
4.091595196e-37
6.829770098e-37
1.014993511e-36
1.277148258e-36
6.903102094e-38
1.088972906e-37
1.945343987e-37
3.663743068e-37
6.897391878e-37
1.245187713e-36
2.077827873e-36
3.084545124e-36
3.87600948e-36
2.068145148e-37
3.275009803e-37
5.873376083e-37
1.109540879e-36
2.092610288e-36
3.779882093e-36
6.304722835e-36
9.350473847e-36
1.173781068e-35
6.209467291e-37
9.860451639e-37
1.773351954e-36
3.357319197e-36
6.339940251e-36
1.145604438e-35
1.910172587e-35
2.830754315e-35
3.550894873e-35
1.867123358e-36
2.97092178e-36
5.353821125e-36
1.01514968e-35
1.918763405e-35
3.468374092e-35
5.782611562e-35
8.563534173e-35
1.073687007e-34
5.619646301e-36
8.954538873e-36
1.615875881e-35
3.066800472e-35
5.798966385e-35
1.048091326e-34
1.746468654e-34
2.584407231e-34
3.239758499e-34
1.692359099e-35
2.699273249e-35
4.875199767e-35
9.257541445e-35
1.750624121e-34
3.162985008e-34
5.267545744e-34
7.792261174e-34
9.768069814e-34
5.09788071e-35
8.136058445e-35
1.470203907e-34
2.7923046e-34
5.279371679e-34
9.533864913e-34
1.586658773e-33
2.345952132e-33
2.943272235e-33
1.535605373e-34
2.451612832e-34
4.430926159e-34
8.414503115e-34
1.590200332e-33
2.869584179e-33
4.771407754e-33
7.04972175e-33
8.855972487e-33
4.624191188e-34
7.383230303e-34
1.334241177e-33
2.532641376e-33
4.782487117e-33
8.620872179e-33
1.431637885e-32
2.112609754e-32
2.65143641e-32
1.391583026e-33
2.221511293e-33
4.012701574e-33
7.610456115e-33
1.435337535e-32
2.583261713e-32
4.282316665e-32
6.308156335e-32
7.906286148e-32
4.183214518e-33
6.675072108e-33
1.204682087e-32
2.281728342e-32
4.295476039e-32
7.713374908e-32
1.275431061e-31
1.87409012e-31
2.344218695e-31
1.255433324e-32
2.001701972e-32
3.607685049e-32
6.819541321e-32
1.280434499e-31
2.291913982e-31
3.776209509e-31
5.528824155e-31
6.895783788e-31
3.758712061e-32
5.985797221e-32
1.076683537e-31
2.029455499e-31
3.796396113e-31
6.764992123e-31
1.109050318e-30
1.615599184e-30
2.006688407e-30
1.121573168e-31
1.783015241e-31
3.198180913e-31
6.004533097e-31
1.117519603e-30
1.979171515e-30
3.22242672e-30
4.661574439e-30
5.756343401e-30
3.331363109e-31
5.283207208e-31
9.440059664e-31
1.762881806e-30
3.258453392e-30
5.723415316e-30
9.233029321e-30
1.323121231e-29
1.620899188e-29
9.834353887e-31
1.554519163e-30
2.763335555e-30
5.123762777e-30
9.384948031e-30
1.630649277e-29
2.598856675e-29
3.678328762e-29
4.458843632e-29
2.879824216e-30
4.532384117e-30
8.002468618e-30
1.470116592e-29
2.661284285e-29
4.559877694e-29
7.155203763e-29
9.967553703e-29
1.191965705e-28
8.34599427e-30
1.306121209e-29
2.286100822e-29
4.15032646e-29
7.402145087e-29
1.246200067e-28
1.917830469e-28
2.619235648e-28
3.079630043e-28
2.387252567e-29
3.709136961e-29
6.421014727e-29
1.148570847e-28
2.011023343e-28
3.313333737e-28
4.979513062e-28
6.63935879e-28
7.648417076e-28
6.718361547e-29
1.034471605e-28
1.76654314e-28
3.103049442e-28
5.312747738e-28
8.529052014e-28
1.246179193e-27
1.615260333e-27
1.816795653e-27
1.853702942e-28
2.822790335e-28
4.74111434e-28
8.148220093e-28
1.358444315e-27
2.115508796e-27
2.991750524e-27
3.754455317e-27
4.110227104e-27
4.995159404e-28
7.505460211e-28
1.235916179e-27
2.070185122e-27
3.346400609e-27
5.033183115e-27
6.861091826e-27
8.306802067e-27
8.8289648e-27
1.309193001e-27
1.936217836e-27
3.115477791e-27
5.066199457e-27
7.907510036e-27
1.144084198e-26
1.498056149e-26
1.745039361e-26
1.797709649e-26
3.323252597e-27
4.825377652e-27
7.561414418e-27
1.189220904e-26
1.785567553e-26
2.476845155e-26
3.107206277e-26
3.476783322e-26
3.469603091e-26
8.13598904e-27
1.156908345e-26
1.759872413e-26
2.667905447e-26
3.841443521e-26
5.096653342e-26
6.117192673e-26
6.572707926e-26
6.357678494e-26
1.913556189e-26
2.658390431e-26
3.914449862e-26
5.704076107e-26
7.859096397e-26
9.961171744e-26
1.143812879e-25
1.181356566e-25
1.109589455e-25
4.309005196e-26
5.836332606e-26
8.299608986e-26
1.160269742e-25
1.528105458e-25
1.850534849e-25
2.03568225e-25
2.025777884e-25
1.852811524e-25
9.265876671e-26
1.221584897e-25
1.675018001e-25
2.244466278e-25
2.826205729e-25
3.274952555e-25
3.460575046e-25
3.329678405e-25
2.976382237e-25
1.899833644e-25
2.435371741e-25
3.217593054e-25
4.133434735e-25
4.9835346e-25
5.541042433e-25
5.645501198e-25
5.274879676e-25
4.62768764e-25
3.713744532e-25
4.627081381e-25
5.891822057e-25
7.266072623e-25
8.410067937e-25
9.006122674e-25
8.887483849e-25
8.102724611e-25
7.007246004e-25
6.931545157e-25
8.397032895e-25
1.031742965e-24
1.224397605e-24
1.36530028e-24
1.414359408e-24
1.358391275e-24
1.214257267e-24
1.039466833e-24
1.239340937e-24
1.461429169e-24
1.736418087e-24
1.989348998e-24
2.145931676e-24
2.160425186e-24
2.028765275e-24
1.785727981e-24
1.518604972e-24
2.133368867e-24
2.453436484e-24
2.827392402e-24
3.139469408e-24
3.290727386e-24
3.2338648e-24
2.980768366e-24
2.59161404e-24
2.194532442e-24
3.558304458e-24
4.001741548e-24
4.490200619e-24
4.854374244e-24
4.967353949e-24
4.784298282e-24
4.340714883e-24
3.732896345e-24
3.14838791e-24
5.792116474e-24
6.39230967e-24
7.016623792e-24
7.425023427e-24
7.455334962e-24
7.066140375e-24
6.323993096e-24
5.377696992e-24
4.5086993e-24
9.26521016e-24
1.007657357e-23
1.088060551e-23
1.134030331e-23
1.124153383e-23
1.053991354e-23
9.339416933e-24
7.869289674e-24
6.569437994e-24
1.46454752e-23
1.576941139e-23
1.685396744e-23
1.742359944e-23
1.71805575e-23
1.606473458e-23
1.424183581e-23
1.211319228e-23
1.049194411e-23
2.295161008e-23
2.458191881e-23
2.616764641e-23
2.703188883e-23
2.674953457e-23
2.526474079e-23
2.298558699e-23
2.078855263e-23
1.875846729e-23
3.569068045e-23
3.819111275e-23
4.073650597e-23
4.237617778e-23
4.257229158e-23
4.159565657e-23
4.051868637e-23
3.865611348e-23
3.616368752e-23
5.502484177e-23
5.908042683e-23
6.356678061e-23
6.732520774e-23
7.029369487e-23
7.359604593e-23
7.578688861e-23
7.5578095e-23
7.293121269e-23
8.410861684e-23
9.113478241e-23
1.000716147e-22
1.106923699e-22
1.23417477e-22
1.362459068e-22
1.466032137e-22
1.516407634e-22
1.502749175e-22
1.287580811e-22
1.42481803e-22
1.645052575e-22
1.925997507e-22
2.249593822e-22
2.582556131e-22
2.873824398e-22
3.058541823e-22
3.095130275e-22
2.074490878e-22
2.388947186e-22
2.861147811e-22
3.470602244e-22
4.182993661e-22
4.934569761e-22
5.618458194e-22
6.089523828e-22
6.240193616e-22
3.576796213e-22
4.204385527e-22
5.148786389e-22
6.383451826e-22
7.846125699e-22
9.405355725e-22
1.082942152e-21
1.181064412e-21
1.214505244e-21
6.442059709e-22
7.64744901e-22
9.474938003e-22
1.188235211e-21
1.474033941e-21
1.775734483e-21
2.043981614e-21
2.221593495e-21
2.281640625e-21
1.195864202e-21
1.423329989e-21
1.769062073e-21
2.223471685e-21
2.756105361e-21
3.303169341e-21
3.771580428e-21
4.076450687e-21
4.196013273e-21
2.264411558e-21
2.685890306e-21
3.322847956e-21
4.148528771e-21
5.093023947e-21
6.034472804e-21
6.832339745e-21
7.396258131e-21
7.7121189e-21
4.31977217e-21
5.078246668e-21
6.209319011e-21
7.645674014e-21
9.251879013e-21
1.084395818e-20
1.227110213e-20
1.34870067e-20
1.443543782e-20
8.175232215e-21
9.487635205e-21
1.141634806e-20
1.382947864e-20
1.652554411e-20
1.931019881e-20
2.212411705e-20
2.505499369e-20
2.782554355e-20
1.513945023e-20
1.733260829e-20
2.053659045e-20
2.456369789e-20
2.921253721e-20
3.442528504e-20
4.046399738e-20
4.774342081e-20
5.526986355e-20
2.728128284e-20
3.090236319e-20
3.62409809e-20
4.313674975e-20
5.157380866e-20
6.197753213e-20
7.546418975e-20
9.316779225e-20
1.121211111e-19
4.803344879e-20
5.410077195e-20
6.324230661e-20
7.554700819e-20
9.162628724e-20
1.131851016e-19
1.433310655e-19
1.845831897e-19
2.290596914e-19
8.337715463e-20
9.383570158e-20
1.10035197e-19
1.328331168e-19
1.644587025e-19
2.095686322e-19
2.75428023e-19
3.668437787e-19
4.646746485e-19
1.438891564e-19
1.62434179e-19
1.919813504e-19
2.352837557e-19
2.982201675e-19
3.915754444e-19
5.304933769e-19
7.228845209e-19
9.256563925e-19
2.482921177e-19
2.818915629e-19
3.367888536e-19
4.198810579e-19
5.445033439e-19
7.330956568e-19
1.014470575e-18
1.399461653e-18
1.797346171e-18
4.296722022e-19
4.912996776e-19
5.939982114e-19
7.529428152e-19
9.955157869e-19
1.364669705e-18
1.911007586e-18
2.645212457e-18
3.387488617e-18
7.461095496e-19
8.594057913e-19
1.050743944e-18
1.350636496e-18
1.811107935e-18
2.508733198e-18
3.526001289e-18
4.864124757e-18
6.185823673e-18
1.298142784e-18
1.504964586e-18
1.856776607e-18
2.410681188e-18
3.259222958e-18
4.530500676e-18
6.349508662e-18
8.687151018e-18
1.094160885e-17
2.256211842e-18
2.628211368e-18
3.262286077e-18
4.258931808e-18
5.77343802e-18
8.007851056e-18
1.113776366e-17
1.506387118e-17
1.876024893e-17
3.901725801e-18
4.557168217e-18
5.672243237e-18
7.414406755e-18
1.003074377e-17
1.38226429e-17
1.901676859e-17
2.53746819e-17
3.121882309e-17
6.685470318e-18
7.812358106e-18
9.720522772e-18
1.267544766e-17
1.70513617e-17
2.327409465e-17
3.160682986e-17
4.156181342e-17
5.049824635e-17
1.130645745e-17
1.319262289e-17
1.63657978e-17
2.122794412e-17
2.832013434e-17
3.821216109e-17
5.116443538e-17
6.6274463e-17
7.952692047e-17
1.881288309e-17
2.1883009e-17
2.70090528e-17
3.47739353e-17
4.592593891e-17
6.118539589e-17
8.073426259e-17
1.03019773e-16
1.221272916e-16
3.07245981e-17
3.558315869e-17
4.362968445e-17
5.567565497e-17
7.271202387e-17
9.559408785e-17
1.243005381e-16
1.563085517e-16
1.831560094e-16
4.917361383e-17
5.665158828e-17
6.893391154e-17
8.710669258e-17
1.124267228e-16
1.458360032e-16
1.869231552e-16
2.317787186e-16
2.686113289e-16
7.705604048e-17
8.825811038e-17
1.065061714e-16
1.33199152e-16
1.698617501e-16
2.174309517e-16
2.748454517e-16
3.362836996e-16
3.857217847e-16
1.181860309e-16
1.345340602e-16
1.609520009e-16
1.991741863e-16
2.509645384e-16
3.171103279e-16
3.955555883e-16
4.779446033e-16
5.429882426e-16
1.77440399e-16
2.007086125e-16
2.380203333e-16
2.914443237e-16
3.62912965e-16
4.528556526e-16
5.578026655e-16
6.661234185e-16
7.500707127e-16
2.608822565e-16
2.932202454e-16
3.446940133e-16
4.176712846e-16
5.141402675e-16
6.339003064e-16
7.715423384e-16
9.112574887e-16
1.017671233e-15
3.758532992e-16
4.197877869e-16
4.892376889e-16
5.867951823e-16
7.14334147e-16
8.706474767e-16
1.047718399e-15
1.224699968e-15
1.3573299e-15
5.310256808e-16
5.894573992e-16
6.812212103e-16
8.090222902e-16
9.743119001e-16
1.174417608e-15
1.398086629e-15
1.618470808e-15
1.781155174e-15
7.364432343e-16
8.126246508e-16
9.3149924e-16
1.09562545e-15
1.305754757e-15
1.557267005e-15
1.83494208e-15
2.104949769e-15
2.301498929e-15
1.003437675e-15
1.100814497e-15
1.251840607e-15
1.458688968e-15
1.721016684e-15
2.031699758e-15
2.370792693e-15
2.696522392e-15
2.930588624e-15
1.344230916e-15
1.466405142e-15
1.654805993e-15
1.910906416e-15
2.23282284e-15
2.610327685e-15
3.017989892e-15
3.40519163e-15
3.680130534e-15
1.771830561e-15
1.922447756e-15
2.153453965e-15
2.465247614e-15
2.853909625e-15
3.305486387e-15
3.788328378e-15
4.2421697e-15
4.560899726e-15
2.299696626e-15
2.482316796e-15
2.760974764e-15
3.134570925e-15
3.596620718e-15
4.128821783e-15
4.692630982e-15
5.217467166e-15
5.58233447e-15
2.941339722e-15
3.159298575e-15
3.490268968e-15
3.93119383e-15
4.472475868e-15
5.090865195e-15
5.740337361e-15
6.339498421e-15
6.752154386e-15
3.709866248e-15
3.966134122e-15
4.353490531e-15
4.866441548e-15
5.491733193e-15
6.200618004e-15
6.939117221e-15
7.614723604e-15
8.076021931e-15
4.61749293e-15
4.914539143e-15
5.361577925e-15
5.950197456e-15
6.662968339e-15
7.465168163e-15
8.29452879e-15
9.04734611e-15
9.557265342e-15
5.675057468e-15
6.014727732e-15
6.523799739e-15
7.190480675e-15
7.992694207e-15
8.889359984e-15
9.809741359e-15
1.063908205e-14
1.119667786e-14
6.89155372e-15
7.27496754e-15
7.847341123e-15
8.593075187e-15
9.48504289e-15
1.047553559e-14
1.148533682e-14
1.238901359e-14
1.299240328e-14
8.273718677e-15
8.701192322e-15
9.336954928e-15
1.016123152e-14
1.114152736e-14
1.222336166e-14
1.331919995e-14
1.429353267e-14
1.493991238e-14
9.82569467e-15
1.029669359e-14
1.09946967e-14
1.189545679e-14
1.296089482e-14
1.412974932e-14
1.530650158e-14
1.6346376e-14
1.703206921e-14
1.154878457e-14
1.206190719e-14
1.281975658e-14
1.379340277e-14
1.49390776e-14
1.61888692e-14
1.743977284e-14
1.853874705e-14
1.925928134e-14
1.344131101e-14
1.399430393e-14
1.480839444e-14
1.584985499e-14
1.706924107e-14
1.83922578e-14
1.970906418e-14
2.085951597e-14
2.160972375e-14
1.549858362e-14
1.608838644e-14
1.695397813e-14
1.805682004e-14
1.934192298e-14
2.07290069e-14
2.210217819e-14
2.329548556e-14
2.406962347e-14
1.771297184e-14
1.83357884e-14
1.924711894e-14
2.040370287e-14
2.174525377e-14
2.318602374e-14
2.460496309e-14
2.583170864e-14
2.66235901e-14
2.007407514e-14
2.072546683e-14
2.167589345e-14
2.287756192e-14
2.426524442e-14
2.574834757e-14
2.720165137e-14
2.845184144e-14
2.925497638e-14
2.25689782e-14
2.324397421e-14
2.422613785e-14
2.546342701e-14
2.688612617e-14
2.839950654e-14
2.9875228e-14
3.113851732e-14
3.194625375e-14
2.518257525e-14
2.587579439e-14
2.688179805e-14
2.814466357e-14
2.959072562e-14
3.112189887e-14
3.260781236e-14
3.387372604e-14
3.467938812e-14
2.789794626e-14
2.86037248e-14
2.962531851e-14
3.090336599e-14
3.236085873e-14
3.389718261e-14
3.538103971e-14
3.663918489e-14
3.743620329e-14
3.069676666e-14
3.140928715e-14
3.243805217e-14
3.372076351e-14
3.517772822e-14
3.670665989e-14
3.8176429e-14
3.941669025e-14
4.019872108e-14
3.355973308e-14
3.427314926e-14
3.530067523e-14
3.657762351e-14
3.802231042e-14
3.953164318e-14
4.097572648e-14
4.218843992e-14
4.29494695e-14
3.646698831e-14
3.717554242e-14
3.819359185e-14
3.945463846e-14
4.087571963e-14
4.235379337e-14
4.376121622e-14
4.493731919e-14
4.567175268e-14
3.939853127e-14
4.009666025e-14
4.109731628e-14
4.233278561e-14
4.37195405e-14
4.51554218e-14
4.651599165e-14
4.764714556e-14
4.834987853e-14
4.23345994e-14
4.301702781e-14
4.399282199e-14
4.519365039e-14
4.653612124e-14
4.791975068e-14
4.922418382e-14
5.030286958e-14
5.096934212e-14
4.525601406e-14
4.591783204e-14
4.686185033e-14
4.801970742e-14
4.930882277e-14
5.063112884e-14
5.187114479e-14
5.2890731e-14
5.351696474e-14
4.814448188e-14
4.878120741e-14
4.968717344e-14
5.079455521e-14
5.202222164e-14
5.327520143e-14
5.444358602e-14
5.53983711e-14
5.59809901e-14
5.09828476e-14
5.159047297e-14
5.245280873e-14
5.350310293e-14
5.4662266e-14
5.583903443e-14
5.692967344e-14
5.781490365e-14
5.835114045e-14
5.375529663e-14
5.433031957e-14
5.514418441e-14
5.613170962e-14
5.721638588e-14
5.831119593e-14
5.931908198e-14
6.013094782e-14
6.06186363e-14
5.644750719e-14
5.698694765e-14
5.774825718e-14
5.866827773e-14
5.967356068e-14
6.068179755e-14
6.160301345e-14
6.233862721e-14
6.277618419e-14
5.90467541e-14
5.954815806e-14
6.025358484e-14
6.110230425e-14
6.202434725e-14
6.294250013e-14
6.377418212e-14
6.443153968e-14
6.481793702e-14
6.154196746e-14
6.200339923e-14
6.265035775e-14
6.342489359e-14
6.426087334e-14
6.508648835e-14
6.582677285e-14
6.640470266e-14
6.673943198e-14
6.392375048e-14
6.434377534e-14
6.493039366e-14
6.562873709e-14
6.637680106e-14
6.710841912e-14
6.775637658e-14
6.82544789e-14
6.85375107e-14
6.618436165e-14
6.656202052e-14
6.708710113e-14
6.77080641e-14
6.836726559e-14
6.90043488e-14
6.955990797e-14
6.997848721e-14
7.021022609e-14
6.831766644e-14
6.865244434e-14
6.911541679e-14
6.965857001e-14
7.0228794e-14
7.077164405e-14
7.123550985e-14
7.157550242e-14
7.175674008e-14
7.031906424e-14
7.061085419e-14
7.101172168e-14
7.147732618e-14
7.19592092e-14
7.24088806e-14
7.278244845e-14
7.304534854e-14
7.317721586e-14
7.218539563e-14
7.243445957e-14
7.277374181e-14
7.316267654e-14
7.355752316e-14
7.391573432e-14
7.420100325e-14
7.438878849e-14
7.44727079e-14
7.391483539e-14
7.412176337e-14
7.440043746e-14
7.471412531e-14
7.502382371e-14
7.529286796e-14
7.549235475e-14
7.560741324e-14
7.564505245e-14
7.550677558e-14
7.56724445e-14
7.589188553e-14
7.613221952e-14
7.635915815e-14
7.654181673e-14
7.665847267e-14
7.670353294e-14
7.66967606e-14
7.696170307e-14
7.708723594e-14
7.724915861e-14
7.741842996e-14
7.756541682e-14
7.766487543e-14
7.770200702e-14
7.768007174e-14
7.763091585e-14
7.828107487e-14
7.836780136e-14
7.84742038e-14
7.857503304e-14
7.864521908e-14
7.866498904e-14
7.862618378e-14
7.854046805e-14
7.845107743e-14
7.946719457e-14
7.951661354e-14
7.956972408e-14
7.960499618e-14
7.960180351e-14
7.954564858e-14
7.943470636e-14
7.928858113e-14
7.91611902e-14
8.052309202e-14
8.053683642e-14
8.053906402e-14
8.05118683e-14
8.043892403e-14
8.03107933e-14
8.013166402e-14
7.992860482e-14
7.976550194e-14
8.145240841e-14
8.143221299e-14
8.138610169e-14
8.129967679e-14
8.116075294e-14
8.09647202e-14
8.072144766e-14
8.046498885e-14
8.026848816e-14
8.225928816e-14
8.220696006e-14
8.211514772e-14
8.197283203e-14
8.177179153e-14
8.151200123e-14
8.120867348e-14
8.090236795e-14
8.067478469e-14
8.29482785e-14
8.286567091e-14
8.273085234e-14
8.253603987e-14
8.227678886e-14
8.195740849e-14
8.159811438e-14
8.124549857e-14
8.098912781e-14
8.352423763e-14
8.341322646e-14
8.323812085e-14
8.299422251e-14
8.268066861e-14
8.23058475e-14
8.189463928e-14
8.14992032e-14
8.12163017e-14
8.399225148e-14
8.385471501e-14
8.364203769e-14
8.335244772e-14
8.298846418e-14
8.256229823e-14
8.210315983e-14
8.166832188e-14
8.136109299e-14
8.435755941e-14
8.419536079e-14
8.394779894e-14
8.361586632e-14
8.320526164e-14
8.273176368e-14
8.222858426e-14
8.175767044e-14
8.142825173e-14
8.462548854e-14
8.444046094e-14
8.416065313e-14
8.378965763e-14
8.333615028e-14
8.281922564e-14
8.227577802e-14
8.177200514e-14
8.142245852e-14
8.480139639e-14
8.459533066e-14
8.428584995e-14
8.387898238e-14
8.338618016e-14
8.282960698e-14
8.224953053e-14
8.171599306e-14
8.134829718e-14
8.489062158e-14
8.466525616e-14
8.43285963e-14
8.388894267e-14
8.336032637e-14
8.276774021e-14
8.215452759e-14
8.159418775e-14
8.121023237e-14
8.489844175e-14
8.465545471e-14
8.429401935e-14
8.38245485e-14
8.326345931e-14
8.263834147e-14
8.199532899e-14
8.14110097e-14
8.101259187e-14
8.48300385e-14
8.457104133e-14
8.418713576e-14
8.369069009e-14
8.310032035e-14
8.244598968e-14
8.177635067e-14
8.1170731e-14
8.075955268e-14
8.469046844e-14
8.441700158e-14
8.401282676e-14
8.349211569e-14
8.287550266e-14
8.21951102e-14
8.150185106e-14
8.087746378e-14
8.045513085e-14
8.448463985e-14
8.419816956e-14
8.377581813e-14
8.323341394e-14
8.259343604e-14
8.188996222e-14
8.117592078e-14
8.053515182e-14
8.010317416e-14
8.421729439e-14
8.391921091e-14
8.348066494e-14
8.29190006e-14
8.225837583e-14
8.153462978e-14
8.080247558e-14
8.0147565e-14
7.970735757e-14
8.389299322e-14
8.358460995e-14
8.313174016e-14
8.255310893e-14
8.187439521e-14
8.113301593e-14
8.03852521e-14
7.971829637e-14
7.927118094e-14
8.351610701e-14
8.319866066e-14
8.273322687e-14
8.213978339e-14
8.144538034e-14
8.068883931e-14
7.992780583e-14
7.925076104e-14
7.879796866e-14
8.309080909e-14
8.276546058e-14
8.228911326e-14
8.168287581e-14
8.097502793e-14
8.020563298e-14
7.943351093e-14
7.874819697e-14
7.829087086e-14
8.262107122e-14
8.228890739e-14
8.180319019e-14
8.118604406e-14
8.046684486e-14
7.968674503e-14
7.890556178e-14
7.821366713e-14
7.775286592e-14
8.211066108e-14
8.177269742e-14
8.127905068e-14
8.065275251e-14
7.992414959e-14
7.913534078e-14
7.834697581e-14
7.765006279e-14
7.718676413e-14
8.15631407e-14
8.122032589e-14
8.072009123e-14
8.008627411e-14
7.935007501e-14
7.855440624e-14
7.776059745e-14
7.706010783e-14
7.659521213e-14
8.098187058e-14
8.063509012e-14
8.01295152e-14
7.948969423e-14
7.874757254e-14
7.794675259e-14
7.714910291e-14
7.64463638e-14
7.59806981e-14
8.037002301e-14
8.002009547e-14
7.95103383e-14
7.886591588e-14
7.811941749e-14
7.731502164e-14
7.651500579e-14
7.581123554e-14
7.534555744e-14
7.973059097e-14
7.937826723e-14
7.886539671e-14
7.821766643e-14
7.746821524e-14
7.666169193e-14
7.586066316e-14
7.515697727e-14
7.469197877e-14
7.906638703e-14
7.87123574e-14
7.819735252e-14
7.75475037e-14
7.67964077e-14
7.598908516e-14
7.518828186e-14
7.448569882e-14
7.402201021e-14
7.838004437e-14
7.802494164e-14
7.750869973e-14
7.685782254e-14
7.610627978e-14
7.529937268e-14
7.449992503e-14
7.379937217e-14
7.33375658e-14
7.767402459e-14
7.731842823e-14
7.6801767e-14
7.615086067e-14
7.539996609e-14
7.459458233e-14
7.379751887e-14
7.309983797e-14
7.264043194e-14
7.695062625e-14
7.659506714e-14
7.607873631e-14
7.542870861e-14
7.467945869e-14
7.387660544e-14
7.308285934e-14
7.238881211e-14
7.19322738e-14
7.621199125e-14
7.585695379e-14
7.534163571e-14
7.469331306e-14
7.39466129e-14
7.314720333e-14
7.235761865e-14
7.166789209e-14
7.121464165e-14
7.54601124e-14
7.510603755e-14
7.459235293e-14
7.394648431e-14
7.320315397e-14
7.240801382e-14
7.162335173e-14
7.093856337e-14
7.048897704e-14
7.469684118e-14
7.434412911e-14
7.38326403e-14
7.318990231e-14
7.245068407e-14
7.166055805e-14
7.088150277e-14
7.020220562e-14
6.975661891e-14
7.392389612e-14
7.357290945e-14
7.306412591e-14
7.242513173e-14
7.169069154e-14
7.090624786e-14
7.013341174e-14
6.94600989e-14
6.901880956e-14
7.314286984e-14
7.279393582e-14
7.228831639e-14
7.165361608e-14
7.092455372e-14
7.014639095e-14
6.938032017e-14
6.871342935e-14
6.827670027e-14
7.235523675e-14
7.200864985e-14
7.150660679e-14
7.087669369e-14
7.015354582e-14
6.938219772e-14
6.86233772e-14
6.796329496e-14
6.753135685e-14
7.15623604e-14
7.121838492e-14
7.072028787e-14
7.009560371e-14
6.937884751e-14
6.861478744e-14
6.786364534e-14
6.721071101e-14
6.678376491e-14
7.076550022e-14
7.042437254e-14
6.993055163e-14
6.931149028e-14
6.860154806e-14
6.78451937e-14
6.710210583e-14
6.64566152e-14
6.603483487e-14
6.996581791e-14
6.962774843e-14
6.91384967e-14
6.852540586e-14
6.782265145e-14
6.70743696e-14
6.633966371e-14
6.57018726e-14
6.528540672e-14
6.916438369e-14
6.882955886e-14
6.834513546e-14
6.7738322e-14
6.704308273e-14
6.630319314e-14
6.557715277e-14
6.494728026e-14
6.453625459e-14
6.836218221e-14
6.803076636e-14
6.755139918e-14
6.69511319e-14
6.626369285e-14
6.553247205e-14
6.481534015e-14
6.419357172e-14
6.378809098e-14
6.75601182e-14
6.723225531e-14
6.675814339e-14
6.616465604e-14
6.548526352e-14
6.476294846e-14
6.405493087e-14
6.344142121e-14
6.304157093e-14
6.675902187e-14
6.643483716e-14
6.596615304e-14
6.537964717e-14
6.470851198e-14
6.399530335e-14
6.329657193e-14
6.269144762e-14
6.229729583e-14
6.595965393e-14
6.563925545e-14
6.517614735e-14
6.4596795e-14
6.393409541e-14
6.323016074e-14
6.25408563e-14
6.194421832e-14
6.155581711e-14
6.516271044e-14
6.484619044e-14
6.438878431e-14
6.381673052e-14
6.316261507e-14
6.246809163e-14
6.17883267e-14
6.120025268e-14
6.081763966e-14
6.436882725e-14
6.405626357e-14
6.360466497e-14
6.304003009e-14
6.239462019e-14
6.170961766e-14
6.103947904e-14
6.046002544e-14
6.008322512e-14
6.357858416e-14
6.327004145e-14
6.282433738e-14
6.226721926e-14
6.163061161e-14
6.095521459e-14
6.029476572e-14
5.972396985e-14
5.935299488e-14
6.27925088e-14
6.248803972e-14
6.204830022e-14
6.149877626e-14
6.087104513e-14
6.02053155e-14
5.955459872e-14
5.899248058e-14
5.862733297e-14
6.201108016e-14
6.171072643e-14
6.12770062e-14
6.073513525e-14
6.011633461e-14
5.946031375e-14
5.881935241e-14
5.826591651e-14
5.790658877e-14
6.123473172e-14
6.09385252e-14
6.051086501e-14
5.997668917e-14
5.936685473e-14
5.872056562e-14
5.80893661e-14
5.754460317e-14
5.719107935e-14
6.04638542e-14
6.017181781e-14
5.975024592e-14
5.922379225e-14
5.862294337e-14
5.79863926e-14
5.736494626e-14
5.682883488e-14
5.648109172e-14
5.969879768e-14
5.941094633e-14
5.899547978e-14
5.847676192e-14
5.788490345e-14
5.725808318e-14
5.664636824e-14
5.611887654e-14
5.577688448e-14
5.89398731e-14
5.865621453e-14
5.824686037e-14
5.773588008e-14
5.715300412e-14
5.653589396e-14
5.593387741e-14
5.541496471e-14
5.5078689e-14
5.818735275e-14
5.790788832e-14
5.750464474e-14
5.700139332e-14
5.642748091e-14
5.582004977e-14
5.522768925e-14
5.471730772e-14
5.438670963e-14
5.744146954e-14
5.71661949e-14
5.676905224e-14
5.627351185e-14
5.570853453e-14
5.511074239e-14
5.4527988e-14
5.402608445e-14
5.370112241e-14
5.670241455e-14
5.643132021e-14
5.604026181e-14
5.55524066e-14
5.499632776e-14
5.440812724e-14
5.383492335e-14
5.33414409e-14
5.302207183e-14
5.597033237e-14
5.570340407e-14
5.53184068e-14
5.483820365e-14
5.429097959e-14
5.371231732e-14
5.314860407e-14
5.26634838e-14
5.234966432e-14
5.524531346e-14
5.49825322e-14
5.460356664e-14
5.413097544e-14
5.359255585e-14
5.302337318e-14
5.246908763e-14
5.199226988e-14
5.16839575e-14
5.452738273e-14
5.426872441e-14
5.38957543e-14
5.343072745e-14
5.290105503e-14
5.2341288e-14
5.179636439e-14
5.132778951e-14
5.102494343e-14
5.381648345e-14
5.356191783e-14
5.319489859e-14
5.273737902e-14
5.221638808e-14
5.166596593e-14
5.113033475e-14
5.066994274e-14
5.037252409e-14
5.311245538e-14
5.286194418e-14
5.250082039e-14
5.205073894e-14
5.153835102e-14
5.099719258e-14
5.04707775e-14
5.001850602e-14
4.9726477e-14
5.241500604e-14
5.216849991e-14
5.181320077e-14
5.137047039e-14
5.086658834e-14
5.033459566e-14
4.981730776e-14
4.937308759e-14
4.90864091e-14
5.172367436e-14
5.148110815e-14
5.113154062e-14
5.069604752e-14
5.020054626e-14
4.967759464e-14
4.916932276e-14
4.873306992e-14
4.845169683e-14
5.103778577e-14
5.079907203e-14
5.045511118e-14
5.002670243e-14
4.953941536e-14
4.902533852e-14
4.852593468e-14
4.8097538e-14
4.782141145e-14
5.035639866e-14
5.012141908e-14
4.978289564e-14
4.936136373e-14
4.888206254e-14
4.837663147e-14
4.788589008e-14
4.74651932e-14
4.719422905e-14
4.967824177e-14
4.944683594e-14
4.911351976e-14
4.869858114e-14
4.82269509e-14
4.772984641e-14
4.724747656e-14
4.683425348e-14
4.656832632e-14
4.900164364e-14
4.877359502e-14
4.84451741e-14
4.803644196e-14
4.757205058e-14
4.708282892e-14
4.660841916e-14
4.620234262e-14
4.594126466e-14
4.832445601e-14
4.809947527e-14
4.777553123e-14
4.737248516e-14
4.691474476e-14
4.643279524e-14
4.596577036e-14
4.556637282e-14
4.530986762e-14
4.764397357e-14
4.742167931e-14
4.710165897e-14
4.670360868e-14
4.625173249e-14
4.577622892e-14
4.531579961e-14
4.492242737e-14
4.467009854e-14
4.695685446e-14
4.673675224e-14
4.64199369e-14
4.602598269e-14
4.557893719e-14
4.51087839e-14
4.465389072e-14
4.426565248e-14
4.401694827e-14
4.625904673e-14
4.604050688e-14
4.572598428e-14
4.53349745e-14
4.489142849e-14
4.442520334e-14
4.397445743e-14
4.359016966e-14
4.334434512e-14
4.5545729e-14
4.532797125e-14
4.501460431e-14
4.462509297e-14
4.418336707e-14
4.371926501e-14
4.327088958e-14
4.288902235e-14
4.264510151e-14
4.481129023e-14
4.459336367e-14
4.42797552e-14
4.388996246e-14
4.344798329e-14
4.298376582e-14
4.253554369e-14
4.215417207e-14
4.191091365e-14
4.404932767e-14
4.383008655e-14
4.351455466e-14
4.31223367e-14
4.2677602e-14
4.221055894e-14
4.175979315e-14
4.137656052e-14
4.113243179e-14
4.325267064e-14
4.303076567e-14
4.271133098e-14
4.231416448e-14
4.186372621e-14
4.139065767e-14
4.093415317e-14
4.054625404e-14
4.029941801e-14
4.241346514e-14
4.218734528e-14
4.186173376e-14
4.145672052e-14
4.099719176e-14
4.051441835e-14
4.004849421e-14
3.965268516e-14
3.940100715e-14
4.152331935e-14
4.12912464e-14
4.095691199e-14
4.054081025e-14
4.00684054e-14
3.957181529e-14
3.909235502e-14
3.868500227e-14
3.842608216e-14
4.057351789e-14
4.033359702e-14
3.998776855e-14
3.955705648e-14
3.906767058e-14
3.855281193e-14
3.805536235e-14
3.763253346e-14
3.736376904e-14
3.955530935e-14
3.930553849e-14
3.894529488e-14
3.849627139e-14
3.798560494e-14
3.744783004e-14
3.692775436e-14
3.648536108e-14
3.620404677e-14
3.846026825e-14
3.819860826e-14
3.782098491e-14
3.734991118e-14
3.681364409e-14