/*--------------------------------*- C++ -*----------------------------------*\
| =========                 |                                                 |
| \\      /  F ield         | OpenFOAM: The Open Source CFD Toolbox           |
|  \\    /   O peration     | Version:  2212                                  |
|   \\  /    A nd           | Website:  www.openfoam.com                      |
|    \\/     M anipulation  |                                                 |
\*---------------------------------------------------------------------------*/
FoamFile
{
    version     2.0;
    format      ascii;
    arch        "LSB;label=32;scalar=64";
    class       volScalarField;
    location    "20.00000000";
    object      CH3CO;
}
// * * * * * * * * * * * * * * * * * * * * * * * * * * * * * * * * * * * * * //

dimensions      [0 0 0 0 0 0 0];

internalField   nonuniform List<scalar> 
3000
(
7.417480226e-45
9.440275922e-45
1.29586803e-44
1.854463165e-44
2.696502679e-44
3.907896377e-44
5.548742844e-44
7.552471678e-44
9.447305464e-44
7.698948442e-44
9.876739579e-44
1.369231001e-43
1.981912784e-43
2.922337503e-43
4.317728032e-43
6.311405773e-43
8.970552995e-43
1.181058442e-42
3.681840926e-43
4.804963794e-43
6.814586378e-43
1.014081645e-42
1.545083342e-42
2.369938611e-42
3.60096581e-42
5.281803118e-42
7.00525773e-42
1.32531435e-42
1.76869136e-42
2.584609107e-42
3.985748969e-42
6.31742063e-42
1.00836411e-41
1.585084229e-41
2.368212241e-41
3.125493436e-41
4.195029997e-42
5.7435947e-42
8.680366888e-42
1.390765468e-41
2.292183121e-41
3.788941725e-41
6.102222364e-41
9.177367017e-41
1.199836704e-40
1.250703662e-41
1.757923297e-41
2.747620217e-41
4.565324709e-41
7.788476015e-41
1.323452052e-40
2.165220982e-40
3.259430235e-40
4.222702937e-40
3.6403364e-41
5.246231418e-41
8.458117402e-41
1.45088972e-40
2.545804254e-40
4.414194967e-40
7.289840993e-40
1.095606889e-39
1.407919495e-39
1.053302657e-40
1.552230501e-40
2.570543895e-40
4.526880801e-40
8.1175829e-40
1.427685431e-39
2.370564438e-39
3.554508399e-39
4.539425364e-39
3.056504874e-40
4.590524304e-40
7.77158057e-40
1.397240656e-39
2.546317738e-39
4.522093985e-39
7.530955575e-39
1.126600996e-38
1.432057054e-38
8.9258135e-40
1.361404192e-39
2.345373659e-39
4.283685603e-39
7.898394695e-39
1.411890858e-38
2.354942714e-38
3.515619801e-38
4.452924615e-38
2.624895745e-39
4.052562552e-39
7.075767295e-39
1.307554037e-38
2.431011498e-38
4.364357591e-38
7.284503988e-38
1.085562577e-37
1.371222959e-37
7.768375676e-39
1.210591303e-38
2.135052037e-38
3.979202664e-38
7.441237242e-38
1.339648221e-37
2.23642356e-37
3.327830222e-37
4.194497119e-37
2.311060293e-38
3.626812328e-38
6.444029835e-38
1.208375191e-37
2.268752073e-37
4.091586919e-37
6.829755739e-37
1.014991339e-36
1.277144396e-36
6.903106636e-38
1.088973108e-37
1.945342894e-37
3.663737401e-37
6.897375898e-37
1.245185413e-36
2.07782869e-36
3.084551641e-36
3.876006659e-36
2.068145925e-37
3.275009376e-37
5.873370796e-37
1.109539083e-36
2.092608122e-36
3.779894065e-36
6.304798731e-36
9.350656721e-36
1.173793923e-35
6.209469073e-37
9.860450922e-37
1.773351041e-36
3.357317411e-36
6.339949312e-36
1.145613901e-35
1.910215196e-35
2.830858837e-35
3.550967156e-35
1.867123986e-36
2.970922316e-36
5.353820782e-36
1.015149112e-35
1.918759933e-35
3.468356838e-35
5.782544072e-35
8.563364745e-35
1.073674354e-34
5.619648245e-36
8.954541752e-36
1.615876423e-35
3.066801436e-35
5.798966159e-35
1.048090053e-34
1.746462946e-34
2.584395287e-34
3.239750741e-34
1.692359585e-35
2.699274e-35
4.8752013e-35
9.257545096e-35
1.750624892e-34
3.162985998e-34
5.267545819e-34
7.792260264e-34
9.768071823e-34
5.097881768e-35
8.136060002e-35
1.470204193e-34
2.792305211e-34
5.279372999e-34
9.533867323e-34
1.586659111e-33
2.345952548e-33
2.943272787e-33
1.535605573e-34
2.451613115e-34
4.430926625e-34
8.414503967e-34
1.59020049e-33
2.869584451e-33
4.771408144e-33
7.04972221e-33
8.855972978e-33
4.624191513e-34
7.383230749e-34
1.334241243e-33
2.532641484e-33
4.782487285e-33
8.620872422e-33
1.431637915e-32
2.112609784e-32
2.651436434e-32
1.391583068e-33
2.221511352e-33
4.01270165e-33
7.610456219e-33
1.435337548e-32
2.583261726e-32
4.282316672e-32
6.308156325e-32
7.906286117e-32
4.183214554e-33
6.675072162e-33
1.204682091e-32
2.281728343e-32
4.295476037e-32
7.71337489e-32
1.275431056e-31
1.87409011e-31
2.34421868e-31
1.255433323e-32
2.00170197e-32
3.607685037e-32
6.819541295e-32
1.280434495e-31
2.291913973e-31
3.776209493e-31
5.528824128e-31
6.895783747e-31
3.758712049e-32
5.985797193e-32
1.076683532e-31
2.029455491e-31
3.796396099e-31
6.764992096e-31
1.109050314e-30
1.615599178e-30
2.006688397e-30
1.121573163e-31
1.783015232e-31
3.198180898e-31
6.004533077e-31
1.117519599e-30
1.979171509e-30
3.222426712e-30
4.661574422e-30
5.756343372e-30
3.331363095e-31
5.283207184e-31
9.440059622e-31
1.7628818e-30
3.258453383e-30
5.7234153e-30
9.2330293e-30
1.323121226e-29
1.62089918e-29
9.834353847e-31
1.554519158e-30
2.763335543e-30
5.12376276e-30
9.384948011e-30
1.630649273e-29
2.59885667e-29
3.67832875e-29
4.458843611e-29
2.879824204e-30
4.532384105e-30
8.00246859e-30
1.470116587e-29
2.661284279e-29
4.559877685e-29
7.155203748e-29
9.967553668e-29
1.191965699e-28
8.34599424e-30
1.306121205e-29
2.286100815e-29
4.150326447e-29
7.402145072e-29
1.246200064e-28
1.917830465e-28
2.619235638e-28
3.079630026e-28
2.387252561e-29
3.709136948e-29
6.421014707e-29
1.148570844e-28
2.01102334e-28
3.31333373e-28
4.979513051e-28
6.639358765e-28
7.648417033e-28
6.718361533e-29
1.034471601e-28
1.766543134e-28
3.103049436e-28
5.312747729e-28
8.529051998e-28
1.24617919e-27
1.615260327e-27
1.816795643e-27
1.853702937e-28
2.822790328e-28
4.741114328e-28
8.148220077e-28
1.358444313e-27
2.115508793e-27
2.991750519e-27
3.754455305e-27
4.110227082e-27
4.995159391e-28
7.5054602e-28
1.235916177e-27
2.070185118e-27
3.346400604e-27
5.033183108e-27
6.861091817e-27
8.30680204e-27
8.828964754e-27
1.309192998e-27
1.936217835e-27
3.115477787e-27
5.06619945e-27
7.907510028e-27
1.144084197e-26
1.498056148e-26
1.745039356e-26
1.79770964e-26
3.323252592e-27
4.825377649e-27
7.56141441e-27
1.189220903e-26
1.785567552e-26
2.476845155e-26
3.107206276e-26
3.476783314e-26
3.469603075e-26
8.135989032e-27
1.156908344e-26
1.759872412e-26
2.667905446e-26
3.841443522e-26
5.096653344e-26
6.117192674e-26
6.572707914e-26
6.357678468e-26
1.913556188e-26
2.658390431e-26
3.914449861e-26
5.704076107e-26
7.859096402e-26
9.961171755e-26
1.143812879e-25
1.181356564e-25
1.109589451e-25
4.309005199e-26
5.836332608e-26
8.299608989e-26
1.160269743e-25
1.52810546e-25
1.850534853e-25
2.035682252e-25
2.025777881e-25
1.852811517e-25
9.265876683e-26
1.221584898e-25
1.675018003e-25
2.244466282e-25
2.826205735e-25
3.274952563e-25
3.460575052e-25
3.329678401e-25
2.976382227e-25
1.899833647e-25
2.435371744e-25
3.217593059e-25
4.133434743e-25
4.983534612e-25
5.541042449e-25
5.645501211e-25
5.274879674e-25
4.627687627e-25
3.713744538e-25
4.62708139e-25
5.89182207e-25
7.266072642e-25
8.410067962e-25
9.006122703e-25
8.887483871e-25
8.102724608e-25
7.007245987e-25
6.931545175e-25
8.397032919e-25
1.031742968e-24
1.224397609e-24
1.365300285e-24
1.414359413e-24
1.358391279e-24
1.214257266e-24
1.039466831e-24
1.239340942e-24
1.461429174e-24
1.736418094e-24
1.989349005e-24
2.145931685e-24
2.160425196e-24
2.028765281e-24
1.78572798e-24
1.518604969e-24
2.133368876e-24
2.453436493e-24
2.827392413e-24
3.139469422e-24
3.290727401e-24
3.233864816e-24
2.980768376e-24
2.59161404e-24
2.194532437e-24
3.558304474e-24
4.001741565e-24
4.49020064e-24
4.854374267e-24
4.967353974e-24
4.784298306e-24
4.340714898e-24
3.732896344e-24
3.148387904e-24
5.792116503e-24
6.392309702e-24
7.016623829e-24
7.425023467e-24
7.455335002e-24
7.066140411e-24
6.323993117e-24
5.37769699e-24
4.508699293e-24
9.265210215e-24
1.007657362e-23
1.088060557e-23
1.134030338e-23
1.12415339e-23
1.05399136e-23
9.339416962e-24
7.869289669e-24
6.569437982e-24
1.464547529e-23
1.576941148e-23
1.685396754e-23
1.742359955e-23
1.71805576e-23
1.606473466e-23
1.424183585e-23
1.211319226e-23
1.049194407e-23
2.295161024e-23
2.458191897e-23
2.616764657e-23
2.703188899e-23
2.674953473e-23
2.526474092e-23
2.298558702e-23
2.078855253e-23
1.875846718e-23
3.569068071e-23
3.819111301e-23
4.073650624e-23
4.237617805e-23
4.257229183e-23
4.159565674e-23
4.051868634e-23
3.865611322e-23
3.616368725e-23
5.502484221e-23
5.908042725e-23
6.356678104e-23
6.732520819e-23
7.029369526e-23
7.359604612e-23
7.57868884e-23
7.557809435e-23
7.293121205e-23
8.410861755e-23
9.113478308e-23
1.000716155e-22
1.106923706e-22
1.234174776e-22
1.362459069e-22
1.466032131e-22
1.516407618e-22
1.50274916e-22
1.287580822e-22
1.42481804e-22
1.645052585e-22
1.925997517e-22
2.249593829e-22
2.582556131e-22
2.873824381e-22
3.058541789e-22
3.095130244e-22
2.074490895e-22
2.388947199e-22
2.861147825e-22
3.470602258e-22
4.18299367e-22
4.934569754e-22
5.618458156e-22
6.089523759e-22
6.240193554e-22
3.576796237e-22
4.204385546e-22
5.148786408e-22
6.383451844e-22
7.846125706e-22
9.405355702e-22
1.082942144e-21
1.181064398e-21
1.214505233e-21
6.442059744e-22
7.647449036e-22
9.474938028e-22
1.188235213e-21
1.474033941e-21
1.775734477e-21
2.043981598e-21
2.22159347e-21
2.281640605e-21
1.195864208e-21
1.423329992e-21
1.769062075e-21
2.223471686e-21
2.756105358e-21
3.303169329e-21
3.771580397e-21
4.076450641e-21
4.196013234e-21
2.264411565e-21
2.685890308e-21
3.322847956e-21
4.148528768e-21
5.093023939e-21
6.034472778e-21
6.832339687e-21
7.396258042e-21
7.712118824e-21
4.319772179e-21
5.078246665e-21
6.209319005e-21
7.645674006e-21
9.251878994e-21
1.084395813e-20
1.227110201e-20
1.348700652e-20
1.443543766e-20
8.175232225e-21
9.487635192e-21
1.141634805e-20
1.382947862e-20
1.652554407e-20
1.93101987e-20
2.21241168e-20
2.505499331e-20
2.782554319e-20
1.513945024e-20
1.733260827e-20
2.053659042e-20
2.456369786e-20
2.921253712e-20
3.442528479e-20
4.046399683e-20
4.774341995e-20
5.526986269e-20
2.728128287e-20
3.090236315e-20
3.624098085e-20
4.313674966e-20
5.157380844e-20
6.197753154e-20
7.546418849e-20
9.316779031e-20
1.121211091e-19
4.803344885e-20
5.410077187e-20
6.324230648e-20
7.554700794e-20
9.162628666e-20
1.131851002e-19
1.433310627e-19
1.845831854e-19
2.290596871e-19
8.337715472e-20
9.38357014e-20
1.100351967e-19
1.328331162e-19
1.644587011e-19
2.095686292e-19
2.75428017e-19
3.668437697e-19
4.646746393e-19
1.438891565e-19
1.624341786e-19
1.919813496e-19
2.352837542e-19
2.982201644e-19
3.915754377e-19
5.304933642e-19
7.228845022e-19
9.256563736e-19
2.482921176e-19
2.818915618e-19
3.367888517e-19
4.198810544e-19
5.445033369e-19
7.330956427e-19
1.014470549e-18
1.399461617e-18
1.797346134e-18
4.296722015e-19
4.912996749e-19
5.939982069e-19
7.529428074e-19
9.955157721e-19
1.364669677e-18
1.911007536e-18
2.645212387e-18
3.387488548e-18
7.461095472e-19
8.594057851e-19
1.050743934e-18
1.350636479e-18
1.811107905e-18
2.508733143e-18
3.526001197e-18
4.864124631e-18
6.185823551e-18
1.298142778e-18
1.504964572e-18
1.856776586e-18
2.410681155e-18
3.2592229e-18
4.530500575e-18
6.349508498e-18
8.687150798e-18
1.094160864e-17
2.256211828e-18
2.628211341e-18
3.262286035e-18
4.258931744e-18
5.773437915e-18
8.007850878e-18
1.113776337e-17
1.506387081e-17
1.876024858e-17
3.901725772e-18
4.557168164e-18
5.672243159e-18
7.414406637e-18
1.003074358e-17
1.38226426e-17
1.901676811e-17
2.537468129e-17
3.121882251e-17
6.685470259e-18
7.812358006e-18
9.720522629e-18
1.267544746e-17
1.705136138e-17
2.327409415e-17
3.160682909e-17
4.156181246e-17
5.049824546e-17
1.130645733e-17
1.319262271e-17
1.636579755e-17
2.122794377e-17
2.832013382e-17
3.821216028e-17
5.116443418e-17
6.627446152e-17
7.952691912e-17
1.88128829e-17
2.188300869e-17
2.700905239e-17
3.477393473e-17
4.592593807e-17
6.118539463e-17
8.073426078e-17
1.030197708e-16
1.221272896e-16
3.072459776e-17
3.558315819e-17
4.362968377e-17
5.567565407e-17
7.271202259e-17
9.559408596e-17
1.243005354e-16
1.563085485e-16
1.831560065e-16
4.917361328e-17
5.665158747e-17
6.893391048e-17
8.71066912e-17
1.124267209e-16
1.458360005e-16
1.869231514e-16
2.31778714e-16
2.686113249e-16
7.705603963e-17
8.825810913e-17
1.065061698e-16
1.331991499e-16
1.698617472e-16
2.174309477e-16
2.748454463e-16
3.362836933e-16
3.857217792e-16
1.181860296e-16
1.345340584e-16
1.609519986e-16
1.991741833e-16
2.509645345e-16
3.171103224e-16
3.955555809e-16
4.779445948e-16
5.429882351e-16
1.774403971e-16
2.007086098e-16
2.380203299e-16
2.914443195e-16
3.629129596e-16
4.528556452e-16
5.578026555e-16
6.661234071e-16
7.500707027e-16
2.608822538e-16
2.932202416e-16
3.446940086e-16
4.176712789e-16
5.141402601e-16
6.339002964e-16
7.715423253e-16
9.112574739e-16
1.01767122e-15
3.758532954e-16
4.197877816e-16
4.892376825e-16
5.867951746e-16
7.143341372e-16
8.706474637e-16
1.047718382e-15
1.22469995e-15
1.357329884e-15
5.310256757e-16
5.89457392e-16
6.812212018e-16
8.0902228e-16
9.743118873e-16
1.174417591e-15
1.398086608e-15
1.618470784e-15
1.781155154e-15
7.364432274e-16
8.126246414e-16
9.314992288e-16
1.095625437e-15
1.305754741e-15
1.557266984e-15
1.834942053e-15
2.10494974e-15
2.301498904e-15
1.003437666e-15
1.100814485e-15
1.251840592e-15
1.458688951e-15
1.721016664e-15
2.031699732e-15
2.37079266e-15
2.696522356e-15
2.930588593e-15
1.344230905e-15
1.466405127e-15
1.654805975e-15
1.910906395e-15
2.232822815e-15
2.610327653e-15
3.017989853e-15
3.405191588e-15
3.680130498e-15
1.771830546e-15
1.922447737e-15
2.153453943e-15
2.465247588e-15
2.853909595e-15
3.305486349e-15
3.788328331e-15
4.24216965e-15
4.560899683e-15
2.299696609e-15
2.482316772e-15
2.760974737e-15
3.134570894e-15
3.596620682e-15
4.128821738e-15
4.692630927e-15
5.217467107e-15
5.582334421e-15
2.941339701e-15
3.159298546e-15
3.490268936e-15
3.931193794e-15
4.472475826e-15
5.090865143e-15
5.740337298e-15
6.339498355e-15
6.75215433e-15
3.709866222e-15
3.966134088e-15
4.353490492e-15
4.866441505e-15
5.491733144e-15
6.200617945e-15
6.939117149e-15
7.614723529e-15
8.076021867e-15
4.6174929e-15
4.914539103e-15
5.36157788e-15
5.950197407e-15
6.662968283e-15
7.465168095e-15
8.294528708e-15
9.047346025e-15
9.557265271e-15
5.675057434e-15
6.014727686e-15
6.523799688e-15
7.190480618e-15
7.992694143e-15
8.889359909e-15
9.809741269e-15
1.063908196e-14
1.119667778e-14
6.891553681e-15
7.274967487e-15
7.847341064e-15
8.593075124e-15
9.48504282e-15
1.047553551e-14
1.148533672e-14
1.238901349e-14
1.29924032e-14
8.273718633e-15
8.701192263e-15
9.336954862e-15
1.016123145e-14
1.114152728e-14
1.222336157e-14
1.331919984e-14
1.429353255e-14
1.493991228e-14
9.825694621e-15
1.029669352e-14
1.099469663e-14
1.189545671e-14
1.296089474e-14
1.412974922e-14
1.530650146e-14
1.634637588e-14
1.703206911e-14
1.154878452e-14
1.206190712e-14
1.28197565e-14
1.379340268e-14
1.49390775e-14
1.618886909e-14
1.743977272e-14
1.853874692e-14
1.925928124e-14
1.344131095e-14
1.399430385e-14
1.480839435e-14
1.584985489e-14
1.706924097e-14
1.839225769e-14
1.970906404e-14
2.085951583e-14
2.160972364e-14
1.549858356e-14
1.608838635e-14
1.695397804e-14
1.805681994e-14
1.934192287e-14
2.072900678e-14
2.210217805e-14
2.329548541e-14
2.406962336e-14
1.771297177e-14
1.83357883e-14
1.924711883e-14
2.040370277e-14
2.174525366e-14
2.318602361e-14
2.460496294e-14
2.583170849e-14
2.662358997e-14
2.007407507e-14
2.072546673e-14
2.167589335e-14
2.287756181e-14
2.426524431e-14
2.574834743e-14
2.720165122e-14
2.845184128e-14
2.925497626e-14
2.256897812e-14
2.324397411e-14
2.422613774e-14
2.546342689e-14
2.688612605e-14
2.839950641e-14
2.987522784e-14
3.113851717e-14
3.194625363e-14
2.518257517e-14
2.587579428e-14
2.688179793e-14
2.814466345e-14
2.959072549e-14
3.112189873e-14
3.26078122e-14
3.387372588e-14
3.467938799e-14
2.789794617e-14
2.860372469e-14
2.962531839e-14
3.090336587e-14
3.23608586e-14
3.389718247e-14
3.538103954e-14
3.663918473e-14
3.743620316e-14
3.069676658e-14
3.140928703e-14
3.243805205e-14
3.372076339e-14
3.517772809e-14
3.670665974e-14
3.817642884e-14
3.941669009e-14
4.019872096e-14
3.355973299e-14
3.427314914e-14
3.53006751e-14
3.657762338e-14
3.802231029e-14
3.953164303e-14
4.097572632e-14
4.218843977e-14
4.294946937e-14
3.646698822e-14
3.71755423e-14
3.819359172e-14
3.945463833e-14
4.08757195e-14
4.235379323e-14
4.376121606e-14
4.493731904e-14
4.567175256e-14
3.939853118e-14
4.009666013e-14
4.109731615e-14
4.233278548e-14
4.371954038e-14
4.515542165e-14
4.651599149e-14
4.764714541e-14
4.834987841e-14
4.233459931e-14
4.301702769e-14
4.399282187e-14
4.519365027e-14
4.653612111e-14
4.791975054e-14
4.922418366e-14
5.030286943e-14
5.0969342e-14
4.525601398e-14
4.591783193e-14
4.686185021e-14
4.80197073e-14
4.930882264e-14
5.06311287e-14
5.187114464e-14
5.289073085e-14
5.351696462e-14
4.814448179e-14
4.87812073e-14
4.968717332e-14
5.079455509e-14
5.202222152e-14
5.32752013e-14
5.444358588e-14
5.539837096e-14
5.598098999e-14
5.098284751e-14
5.159047286e-14
5.245280861e-14
5.350310282e-14
5.466226588e-14
5.58390343e-14
5.69296733e-14
5.781490351e-14
5.835114034e-14
5.375529654e-14
5.433031946e-14
5.514418429e-14
5.613170951e-14
5.721638576e-14
5.83111958e-14
5.931908185e-14
6.013094769e-14
6.06186362e-14
5.64475071e-14
5.698694755e-14
5.774825706e-14
5.866827762e-14
5.967356056e-14
6.068179743e-14
6.160301332e-14
6.233862709e-14
6.277618409e-14
5.904675402e-14
5.954815796e-14
6.025358473e-14
6.110230414e-14
6.202434714e-14
6.294250002e-14
6.3774182e-14
6.443153956e-14
6.481793692e-14
6.154196738e-14
6.200339913e-14
6.265035764e-14
6.342489349e-14
6.426087323e-14
6.508648824e-14
6.582677273e-14
6.640470255e-14
6.673943189e-14
6.39237504e-14
6.434377524e-14
6.493039356e-14
6.562873699e-14
6.637680096e-14
6.710841901e-14
6.775637646e-14
6.82544788e-14
6.853751062e-14
6.618436157e-14
6.656202042e-14
6.708710103e-14
6.7708064e-14
6.836726549e-14
6.90043487e-14
6.955990786e-14
6.997848711e-14
7.021022602e-14
6.831766637e-14
6.865244425e-14
6.911541669e-14
6.965856992e-14
7.022879391e-14
7.077164395e-14
7.123550975e-14
7.157550233e-14
7.175674001e-14
7.031906417e-14
7.061085411e-14
7.101172159e-14
7.147732609e-14
7.195920911e-14
7.240888051e-14
7.278244836e-14
7.304534845e-14
7.317721579e-14
7.218539557e-14
7.243445949e-14
7.277374172e-14
7.316267646e-14
7.355752308e-14
7.391573424e-14
7.420100317e-14
7.438878841e-14
7.447270784e-14
7.391483533e-14
7.412176329e-14
7.440043738e-14
7.471412523e-14
7.502382364e-14
7.529286788e-14
7.549235468e-14
7.560741317e-14
7.56450524e-14
7.550677553e-14
7.567244444e-14
7.589188546e-14
7.613221946e-14
7.635915808e-14
7.654181666e-14
7.66584726e-14
7.670353287e-14
7.669676055e-14
7.696170302e-14
7.708723587e-14
7.724915854e-14
7.74184299e-14
7.756541676e-14
7.766487537e-14
7.770200696e-14
7.768007168e-14
7.763091581e-14
7.828107483e-14
7.836780131e-14
7.847420374e-14
7.857503298e-14
7.864521903e-14
7.866498898e-14
7.862618372e-14
7.854046801e-14
7.845107739e-14
7.946719453e-14
7.951661349e-14
7.956972402e-14
7.960499613e-14
7.960180346e-14
7.954564853e-14
7.943470631e-14
7.928858109e-14
7.916119017e-14
8.052309198e-14
8.053683638e-14
8.053906397e-14
8.051186825e-14
8.043892399e-14
8.031079326e-14
8.013166398e-14
7.992860478e-14
7.976550191e-14
8.145240838e-14
8.143221295e-14
8.138610165e-14
8.129967675e-14
8.11607529e-14
8.096472017e-14
8.072144763e-14
8.046498882e-14
8.026848814e-14
8.225928813e-14
8.220696002e-14
8.211514768e-14
8.197283199e-14
8.17717915e-14
8.15120012e-14
8.120867345e-14
8.090236792e-14
8.067478468e-14
8.294827848e-14
8.286567088e-14
8.27308523e-14
8.253603984e-14
8.227678883e-14
8.195740846e-14
8.159811436e-14
8.124549855e-14
8.09891278e-14
8.352423761e-14
8.341322643e-14
8.323812082e-14
8.299422249e-14
8.268066859e-14
8.230584748e-14
8.189463927e-14
8.149920319e-14
8.121630169e-14
8.399225146e-14
8.385471499e-14
8.364203767e-14
8.33524477e-14
8.298846416e-14
8.256229821e-14
8.210315981e-14
8.166832187e-14
8.136109299e-14
8.43575594e-14
8.419536078e-14
8.394779892e-14
8.36158663e-14
8.320526163e-14
8.273176367e-14
8.222858425e-14
8.175767044e-14
8.142825173e-14
8.462548852e-14
8.444046092e-14
8.416065312e-14
8.378965762e-14
8.333615027e-14
8.281922563e-14
8.227577802e-14
8.177200515e-14
8.142245853e-14
8.480139638e-14
8.459533065e-14
8.428584994e-14
8.387898237e-14
8.338618015e-14
8.282960698e-14
8.224953053e-14
8.171599307e-14
8.134829718e-14
8.489062157e-14
8.466525615e-14
8.43285963e-14
8.388894267e-14
8.336032637e-14
8.276774021e-14
8.215452759e-14
8.159418776e-14
8.121023238e-14
8.489844175e-14
8.46554547e-14
8.429401935e-14
8.38245485e-14
8.326345931e-14
8.263834147e-14
8.1995329e-14
8.141100972e-14
8.101259188e-14
8.48300385e-14
8.457104133e-14
8.418713576e-14
8.369069009e-14
8.310032035e-14
8.244598969e-14
8.177635068e-14
8.117073102e-14
8.075955269e-14
8.469046844e-14
8.441700158e-14
8.401282676e-14
8.349211569e-14
8.287550266e-14
8.219511021e-14
8.150185108e-14
8.087746381e-14
8.045513087e-14
8.448463985e-14
8.419816957e-14
8.377581814e-14
8.323341395e-14
8.259343605e-14
8.188996223e-14
8.11759208e-14
8.053515184e-14
8.010317418e-14
8.421729439e-14
8.391921091e-14
8.348066495e-14
8.291900061e-14
8.225837585e-14
8.15346298e-14
8.08024756e-14
8.014756503e-14
7.970735759e-14
8.389299323e-14
8.358460996e-14
8.313174017e-14
8.255310895e-14
8.187439523e-14
8.113301595e-14
8.038525213e-14
7.97182964e-14
7.927118096e-14
8.351610702e-14
8.319866067e-14
8.273322688e-14
8.21397834e-14
8.144538036e-14
8.068883934e-14
7.992780586e-14
7.925076107e-14
7.879796869e-14
8.30908091e-14
8.276546059e-14
8.228911328e-14
8.168287582e-14
8.097502795e-14
8.0205633e-14
7.943351096e-14
7.874819701e-14
7.829087089e-14
8.262107123e-14
8.22889074e-14
8.180319021e-14
8.118604408e-14
8.046684488e-14
7.968674505e-14
7.890556181e-14
7.821366717e-14
7.775286595e-14
8.21106611e-14
8.177269744e-14
8.12790507e-14
8.065275253e-14
7.992414962e-14
7.913534081e-14
7.834697585e-14
7.765006283e-14
7.718676416e-14
8.156314072e-14
8.122032591e-14
8.072009125e-14
8.008627414e-14
7.935007504e-14
7.855440627e-14
7.776059749e-14
7.706010787e-14
7.659521216e-14
8.098187059e-14
8.063509014e-14
8.012951522e-14
7.948969426e-14
7.874757257e-14
7.794675262e-14
7.714910295e-14
7.644636384e-14
7.598069814e-14
8.037002303e-14
8.00200955e-14
7.951033832e-14
7.886591591e-14
7.811941752e-14
7.731502168e-14
7.651500583e-14
7.581123558e-14
7.534555748e-14
7.973059099e-14
7.937826726e-14
7.886539674e-14
7.821766646e-14
7.746821527e-14
7.666169196e-14
7.58606632e-14
7.515697731e-14
7.469197881e-14
7.906638705e-14
7.871235743e-14
7.819735254e-14
7.754750373e-14
7.679640773e-14
7.59890852e-14
7.51882819e-14
7.448569887e-14
7.402201025e-14
7.838004439e-14
7.802494167e-14
7.750869976e-14
7.685782257e-14
7.610627981e-14
7.529937272e-14
7.449992507e-14
7.379937222e-14
7.333756584e-14
7.767402461e-14
7.731842826e-14
7.680176703e-14
7.61508607e-14
7.539996613e-14
7.459458236e-14
7.379751892e-14
7.309983802e-14
7.264043197e-14
7.695062627e-14
7.659506717e-14
7.607873634e-14
7.542870864e-14
7.467945873e-14
7.387660548e-14
7.308285939e-14
7.238881215e-14
7.193227384e-14
7.621199127e-14
7.585695382e-14
7.534163574e-14
7.469331309e-14
7.394661293e-14
7.314720337e-14
7.235761869e-14
7.166789214e-14
7.121464169e-14
7.546011242e-14
7.510603758e-14
7.459235296e-14
7.394648434e-14
7.320315401e-14
7.240801386e-14
7.162335178e-14
7.093856342e-14
7.048897708e-14
7.46968412e-14
7.434412914e-14
7.383264033e-14
7.318990234e-14
7.24506841e-14
7.16605581e-14
7.088150282e-14
7.020220567e-14
6.975661895e-14
7.392389614e-14
7.357290948e-14
7.306412595e-14
7.242513176e-14
7.169069157e-14
7.09062479e-14
7.013341179e-14
6.946009895e-14
6.90188096e-14
7.314286986e-14
7.279393585e-14
7.228831643e-14
7.165361612e-14
7.092455376e-14
7.014639099e-14
6.938032022e-14
6.87134294e-14
6.827670031e-14
7.235523677e-14
7.200864988e-14
7.150660683e-14
7.087669373e-14
7.015354586e-14
6.938219776e-14
6.862337725e-14
6.796329501e-14
6.753135689e-14
7.156236042e-14
7.121838495e-14
7.072028791e-14
7.009560375e-14
6.937884754e-14
6.861478748e-14
6.786364539e-14
6.721071106e-14
6.678376495e-14
7.076550024e-14
7.042437257e-14
6.993055166e-14
6.931149031e-14
6.86015481e-14
6.784519374e-14
6.710210588e-14
6.645661526e-14
6.603483491e-14
6.996581793e-14
6.962774846e-14
6.913849673e-14
6.85254059e-14
6.782265148e-14
6.707436965e-14
6.633966376e-14
6.570187265e-14
6.528540677e-14
6.916438371e-14
6.882955889e-14
6.834513549e-14
6.773832204e-14
6.704308277e-14
6.630319319e-14
6.557715281e-14
6.494728031e-14
6.453625463e-14
6.836218223e-14
6.803076639e-14
6.755139922e-14
6.695113194e-14
6.626369288e-14
6.553247209e-14
6.48153402e-14
6.419357177e-14
6.378809102e-14
6.756011823e-14
6.723225535e-14
6.675814343e-14
6.616465607e-14
6.548526355e-14
6.47629485e-14
6.405493092e-14
6.344142126e-14
6.304157097e-14
6.675902189e-14
6.64348372e-14
6.596615308e-14
6.53796472e-14
6.470851202e-14
6.399530339e-14
6.329657198e-14
6.269144767e-14
6.229729587e-14
6.595965395e-14
6.563925548e-14
6.517614738e-14
6.459679503e-14
6.393409545e-14
6.323016079e-14
6.254085635e-14
6.194421837e-14
6.155581715e-14
6.516271047e-14
6.484619048e-14
6.438878434e-14
6.381673055e-14
6.316261511e-14
6.246809167e-14
6.178832675e-14
6.120025274e-14
6.081763971e-14
6.436882727e-14
6.40562636e-14
6.360466501e-14
6.304003013e-14
6.239462023e-14
6.17096177e-14
6.103947909e-14
6.04600255e-14
6.008322516e-14
6.357858418e-14
6.327004148e-14
6.282433741e-14
6.22672193e-14
6.163061165e-14
6.095521463e-14
6.029476577e-14
5.97239699e-14
5.935299492e-14
6.279250882e-14
6.248803975e-14
6.204830025e-14
6.14987763e-14
6.087104517e-14
6.020531554e-14
5.955459877e-14
5.899248063e-14
5.862733302e-14
6.201108018e-14
6.171072647e-14
6.127700623e-14
6.073513528e-14
6.011633465e-14
5.946031379e-14
5.881935247e-14
5.826591657e-14
5.790658881e-14
6.123473175e-14
6.093852523e-14
6.051086504e-14
5.99766892e-14
5.936685477e-14
5.872056566e-14
5.808936615e-14
5.754460322e-14
5.719107939e-14
6.046385422e-14
6.017181784e-14
5.975024595e-14
5.922379228e-14
5.862294341e-14
5.798639264e-14
5.736494631e-14
5.682883493e-14
5.648109176e-14
5.969879771e-14
5.941094636e-14
5.899547982e-14
5.847676196e-14
5.788490349e-14
5.725808322e-14
5.664636829e-14
5.611887659e-14
5.577688452e-14
5.893987313e-14
5.865621456e-14
5.824686041e-14
5.773588011e-14
5.715300416e-14
5.6535894e-14
5.593387746e-14
5.541496476e-14
5.507868905e-14
5.818735278e-14
5.790788835e-14
5.750464477e-14
5.700139335e-14
5.642748094e-14
5.582004981e-14
5.52276893e-14
5.471730777e-14
5.438670967e-14
5.744146956e-14
5.716619493e-14
5.676905227e-14
5.627351189e-14
5.570853457e-14
5.511074243e-14
5.452798805e-14
5.40260845e-14
5.370112245e-14
5.670241457e-14
5.643132025e-14
5.604026184e-14
5.555240663e-14
5.499632779e-14
5.440812728e-14
5.38349234e-14
5.334144095e-14
5.302207187e-14
5.597033239e-14
5.57034041e-14
5.531840683e-14
5.483820368e-14
5.429097962e-14
5.371231736e-14
5.314860412e-14
5.266348384e-14
5.234966436e-14
5.524531348e-14
5.498253223e-14
5.460356667e-14
5.413097548e-14
5.359255589e-14
5.302337322e-14
5.246908768e-14
5.199226993e-14
5.168395754e-14
5.452738275e-14
5.426872445e-14
5.389575433e-14
5.343072748e-14
5.290105507e-14
5.234128804e-14
5.179636444e-14
5.132778956e-14
5.102494347e-14
5.381648347e-14
5.356191786e-14
5.319489862e-14
5.273737906e-14
5.221638811e-14
5.166596597e-14
5.113033479e-14
5.066994279e-14
5.037252412e-14
5.31124554e-14
5.286194421e-14
5.250082042e-14
5.205073897e-14
5.153835106e-14
5.099719262e-14
5.047077755e-14
5.001850607e-14
4.972647704e-14
5.241500606e-14
5.216849994e-14
5.18132008e-14
5.137047042e-14
5.086658837e-14
5.03345957e-14
4.98173078e-14
4.937308764e-14
4.908640914e-14
5.172367438e-14
5.148110818e-14
5.113154065e-14
5.069604755e-14
5.020054629e-14
4.967759468e-14
4.916932281e-14
4.873306997e-14
4.845169687e-14
5.103778579e-14
5.079907206e-14
5.045511121e-14
5.002670247e-14
4.953941539e-14
4.902533856e-14
4.852593473e-14
4.809753805e-14
4.782141149e-14
5.035639868e-14
5.012141911e-14
4.978289568e-14
4.936136376e-14
4.888206257e-14
4.837663151e-14
4.788589012e-14
4.746519325e-14
4.719422909e-14
4.967824179e-14
4.944683596e-14
4.911351979e-14
4.869858117e-14
4.822695093e-14
4.772984645e-14
4.724747661e-14
4.683425353e-14
4.656832636e-14
4.900164366e-14
4.877359504e-14
4.844517413e-14
4.803644199e-14
4.757205061e-14
4.708282896e-14
4.660841921e-14
4.620234267e-14
4.59412647e-14
4.832445604e-14
4.80994753e-14
4.777553126e-14
4.737248519e-14
4.691474479e-14
4.643279528e-14
4.59657704e-14
4.556637286e-14
4.530986766e-14
4.764397359e-14
4.742167934e-14
4.710165901e-14
4.670360872e-14
4.625173252e-14
4.577622896e-14
4.531579965e-14
4.492242742e-14
4.467009858e-14
4.695685449e-14
4.673675227e-14
4.641993694e-14
4.602598272e-14
4.557893722e-14
4.510878394e-14
4.465389076e-14
4.426565253e-14
4.401694831e-14
4.625904675e-14
4.604050691e-14
4.572598432e-14
4.533497454e-14
4.489142853e-14
4.442520338e-14
4.397445748e-14
4.359016971e-14
4.334434517e-14
4.554572902e-14
4.532797128e-14
4.501460435e-14
4.4625093e-14
4.418336711e-14
4.371926505e-14
4.327088964e-14
4.288902241e-14
4.264510155e-14
4.481129026e-14
4.459336371e-14
4.427975524e-14
4.38899625e-14
4.344798333e-14
4.298376587e-14
4.253554375e-14
4.215417213e-14
4.19109137e-14
4.40493277e-14
4.383008658e-14
4.35145547e-14
4.312233674e-14
4.267760205e-14
4.221055899e-14
4.175979321e-14
4.137656058e-14
4.113243184e-14
4.325267067e-14
4.303076571e-14
4.271133102e-14
4.231416453e-14
4.186372626e-14
4.139065773e-14
4.093415324e-14
4.05462541e-14
4.029941807e-14
4.241346518e-14
4.218734533e-14
4.186173381e-14
4.145672057e-14
4.099719181e-14
4.051441842e-14
4.004849429e-14
3.965268524e-14
3.940100721e-14
4.152331939e-14
4.129124645e-14
4.095691204e-14
4.054081031e-14
4.006840546e-14
3.957181536e-14
3.90923551e-14
3.868500235e-14
3.842608223e-14
4.057351794e-14
4.033359708e-14
3.998776861e-14
3.955705654e-14
3.906767065e-14
3.855281201e-14
3.805536244e-14
3.763253356e-14
3.736376912e-14
3.95553094e-14
3.930553855e-14
3.894529495e-14
3.849627146e-14
3.798560501e-14
3.744783013e-14
3.692775446e-14
3.648536119e-14
3.620404686e-14
3.84602683e-14
3.819860833e-14
3.782098499e-14