/*--------------------------------*- C++ -*----------------------------------*\
| =========                 |                                                 |
| \\      /  F ield         | OpenFOAM: The Open Source CFD Toolbox           |
|  \\    /   O peration     | Version:  2212                                  |
|   \\  /    A nd           | Website:  www.openfoam.com                      |
|    \\/     M anipulation  |                                                 |
\*---------------------------------------------------------------------------*/
FoamFile
{
    version     2.0;
    format      ascii;
    arch        "LSB;label=32;scalar=64";
    class       volScalarField;
    location    "20.00000000";
    object      CH3COCH2_0;
}
// * * * * * * * * * * * * * * * * * * * * * * * * * * * * * * * * * * * * * //

dimensions      [0 0 0 0 0 0 0];

internalField   nonuniform List<scalar> 
3000
(
6.583636751e-24
7.395712161e-24
8.621121968e-24
1.025408049e-23
1.227798844e-23
1.463788822e-23
1.719161134e-23
1.962835702e-23
2.135145251e-23
2.471737864e-23
2.787814933e-23
3.26456559e-23
3.901285383e-23
4.697342284e-23
5.648324362e-23
6.737727142e-23
7.910560319e-23
8.949510364e-23
5.536356163e-23
6.293333851e-23
7.446008516e-23
9.011067611e-23
1.1016653e-22
1.349185867e-22
1.642694734e-22
1.965714037e-22
2.241788449e-22
1.054479368e-22
1.211210628e-22
1.453368874e-22
1.789145905e-22
2.230435742e-22
2.788450069e-22
3.460143336e-22
4.191743862e-22
4.782251433e-22
1.872367046e-22
2.177054019e-22
2.655221586e-22
3.331153626e-22
4.236636287e-22
5.397042317e-22
6.792982863e-22
8.275404788e-22
9.41336316e-22
3.219448409e-22
3.791270021e-22
4.701537033e-22
6.008329031e-22
7.781340159e-22
1.006516809e-21
1.279159088e-21
1.561678262e-21
1.770693243e-21
5.46505663e-22
6.515372809e-22
8.206830876e-22
1.066253742e-21
1.401921366e-21
1.834356372e-21
2.345671129e-21
2.865171422e-21
3.24002139e-21
9.247991121e-22
1.114870395e-21
1.423691204e-21
1.875519512e-21
2.495552458e-21
3.29271378e-21
4.227007066e-21
5.162440352e-21
5.826153136e-21
1.567503725e-21
1.907835497e-21
2.46437446e-21
3.282764269e-21
4.407824832e-21
5.850365112e-21
7.528889682e-21
9.19197969e-21
1.035895608e-20
2.666252122e-21
3.270837891e-21
4.264039861e-21
5.729273883e-21
7.744814337e-21
1.032234923e-20
1.330492585e-20
1.62384033e-20
1.828149465e-20
4.553059961e-21
5.620760874e-21
7.380343413e-21
9.981458031e-21
1.355961744e-20
1.812522667e-20
2.338649123e-20
2.853460806e-20
3.210214346e-20
7.803280306e-21
9.680487283e-21
1.278093539e-20
1.736998823e-20
2.368147585e-20
3.172025155e-20
4.095586468e-20
4.996032894e-20
5.617871641e-20
1.341431518e-20
1.670383913e-20
2.214511538e-20
3.020521141e-20
4.128726528e-20
5.538233075e-20
7.154003394e-20
8.725347532e-20
9.807955756e-20
2.311569046e-20
2.886591312e-20
3.838742697e-20
5.249840586e-20
7.189393557e-20
9.653537229e-20
1.247359883e-19
1.521122484e-19
1.709455153e-19
3.99072269e-20
4.994076611e-20
6.656704719e-20
9.12151032e-20
1.250843112e-19
1.680765463e-19
2.172162032e-19
2.648586871e-19
2.976102676e-19
6.89929738e-20
8.647765196e-20
1.154668922e-19
1.584538325e-19
2.175144069e-19
2.924433851e-19
3.780144598e-19
4.608991722e-19
5.17850654e-19
1.194016694e-19
1.498415988e-19
2.003321338e-19
2.752222347e-19
3.781221328e-19
5.086602247e-19
6.577143897e-19
8.020068468e-19
9.009246191e-19
2.0679869e-19
2.597526071e-19
3.476122642e-19
4.779465449e-19
6.570092594e-19
8.840877438e-19
1.143224717e-18
1.393902679e-18
1.565692762e-18
3.583697288e-19
4.504375514e-19
6.032232603e-19
8.298843205e-19
1.14124835e-18
1.535982125e-18
1.986246645e-18
2.421623798e-18
2.719912488e-18
6.212996078e-19
7.81309185e-19
1.046878664e-18
1.440869006e-18
1.982037215e-18
2.667949247e-18
3.450110949e-18
4.206163055e-18
4.724005996e-18
1.077491703e-18
1.355504279e-18
1.816963792e-18
2.501574198e-18
3.441835015e-18
4.633354137e-18
5.991721878e-18
7.304377621e-18
8.203268841e-18
1.869119137e-18
2.352063749e-18
3.153713489e-18
4.342990534e-18
5.976189892e-18
8.045418823e-18
1.040382221e-17
1.268226683e-17
1.424218958e-17
3.242971512e-18
4.081784743e-18
5.474145379e-18
7.539624043e-18
1.037566763e-17
1.396808028e-17
1.806142166e-17
2.201485235e-17
2.472084245e-17
5.627387782e-18
7.084104188e-18
9.502014748e-18
1.308841063e-17
1.801180872e-17
2.424657519e-17
3.13484062e-17
3.820514549e-17
4.289688854e-17
9.765676247e-18
1.229511382e-17
1.649313855e-17
2.271879097e-17
3.126307174e-17
4.207936221e-17
5.43947666e-17
6.627997553e-17
7.440921609e-17
1.694729229e-17
2.13386468e-17
2.86256356e-17
3.942939231e-17
5.425138351e-17
7.300596839e-17
9.434835474e-17
1.149334897e-16
1.290058367e-16
2.940789398e-17
3.702988434e-17
4.96747297e-17
6.841530091e-17
9.411335301e-17
1.26609553e-16
1.635632038e-16
1.991787124e-16
2.235086796e-16
5.102061946e-17
6.424529545e-17
8.617764885e-17
1.186670446e-16
1.631889343e-16
2.194426319e-16
2.833521109e-16
3.448854056e-16
3.8688023e-16
8.848810637e-17
1.114219993e-16
1.494394975e-16
2.057200062e-16
2.827775629e-16
3.80036279e-16
4.903947117e-16
5.965095894e-16
6.688380706e-16
1.533927145e-16
1.931347713e-16
2.589765074e-16
3.56365297e-16
4.895582336e-16
6.574368189e-16
8.476230005e-16
1.030183446e-15
1.154411637e-15
2.65711603e-16
3.345098328e-16
4.484037028e-16
6.166859477e-16
8.465081125e-16
1.135671859e-15
1.462595803e-15
1.775729474e-15
1.98835973e-15
4.598201504e-16
5.787527477e-16
7.754547578e-16
1.065692547e-15
1.461359794e-15
1.958097966e-15
2.51828169e-15
3.05338208e-15
3.41577892e-15
7.946983513e-16
9.999228192e-16
1.338937728e-15
1.838312507e-15
2.517579014e-15
3.36805399e-15
4.324180293e-15
5.234470155e-15
5.84898207e-15
1.371189316e-15
1.724481506e-15
2.307236272e-15
3.163859024e-15
4.32592225e-15
5.776116445e-15
7.400376079e-15
8.940640984e-15
9.976447969e-15
2.36099898e-15
2.967388191e-15
3.965844537e-15
5.429843297e-15
7.409422892e-15
9.870203824e-15
1.261420294e-14
1.520422292e-14
1.693820912e-14
4.055067533e-15
5.092074116e-15
6.795930266e-15
9.286767027e-15
1.264195094e-14
1.679372217e-14
2.139972774e-14
2.572414354e-14
2.860462003e-14
6.943562855e-15
8.709150906e-15
1.160282253e-14
1.581824067e-14
2.147133115e-14
2.843005725e-14
3.610553861e-14
4.326886189e-14
4.801353462e-14
1.184684458e-14
1.483708523e-14
1.972360672e-14
2.681352328e-14
3.627361698e-14
4.785035813e-14
6.053786114e-14
7.230171853e-14
8.004633184e-14
2.012735791e-14
2.516037745e-14
3.335780944e-14
4.519753644e-14
6.090669638e-14
8.000698213e-14
1.00795227e-13
1.199365868e-13
1.32457804e-13
3.40277421e-14
4.243815868e-14
5.608547497e-14
7.569735906e-14
1.015594928e-13
1.327875332e-13
1.665281165e-13
1.973732334e-13
2.174194208e-13
5.720167978e-14
7.113944106e-14
9.366308393e-14
1.258536593e-13
1.68026116e-13
2.185815995e-13
2.727988417e-13
3.220085956e-13
3.537861065e-13
9.553216996e-14
1.184106858e-13
1.55218482e-13
2.07517072e-13
2.755661611e-13
3.565443771e-13
4.427500883e-13
5.204557829e-13
5.703351819e-13
1.583680465e-13
1.955163265e-13
2.549977845e-13
3.389949743e-13
4.475276344e-13
5.757431562e-13
7.112775192e-13
8.326769714e-13
9.101937901e-13
2.603569963e-13
3.199342376e-13
4.148460259e-13
5.480203306e-13
7.188788857e-13
9.192902367e-13
1.129753293e-12
1.317218884e-12
1.436405009e-12
4.241246718e-13
5.183462233e-13
6.67633506e-13
8.756915246e-13
1.140680862e-12
1.449303782e-12
1.771377753e-12
2.056827297e-12
2.237677384e-12
6.84182151e-13
8.308775381e-13
1.061908769e-12
1.381503788e-12
1.785310293e-12
2.251972964e-12
2.735629261e-12
3.161907967e-12
3.430937125e-12
1.092721663e-12
1.317205817e-12
1.668279106e-12
2.149677649e-12
2.75200497e-12
3.441095111e-12
4.148192699e-12
4.765524191e-12
5.151897538e-12
1.72851181e-12
2.065734805e-12
2.588592331e-12
3.297453102e-12
4.172376447e-12
5.157556791e-12
6.14991869e-12
6.997756584e-12
7.5157885e-12
2.710985581e-12
3.20797755e-12
3.970018974e-12
4.987065657e-12
6.21641142e-12
7.562501163e-12
8.867316441e-12
9.924072619e-12
1.052477055e-11
4.222395128e-12
4.941028317e-12
6.0268024e-12
7.443774902e-12
9.100478739e-12
1.082451817e-11
1.236448193e-11
1.344997992e-11
1.39291238e-11
6.53974212e-12
7.559044457e-12
9.06922601e-12
1.097766168e-11
1.309404739e-11
1.510190799e-11
1.65974969e-11
1.726073664e-11
1.717376725e-11
1.007052771e-11
1.148417258e-11
1.352422819e-11
1.598579465e-11
1.849638774e-11
2.050201732e-11
2.140598221e-11
2.094494648e-11
1.972033675e-11
1.53645181e-11
1.725995942e-11
1.989615596e-11
2.286570185e-11
2.550359133e-11
2.695397683e-11
2.652999558e-11
2.433413494e-11
2.172265794e-11
2.303020116e-11
2.542320361e-11
2.856954214e-11
3.173831389e-11
3.389023525e-11
3.397568126e-11
3.162213249e-11
2.769670675e-11
2.410164761e-11
3.344198503e-11
3.614636628e-11
3.937701636e-11
4.199139287e-11
4.268067512e-11
4.06582281e-11
3.641300129e-11
3.148149039e-11
2.758690622e-11
4.617128485e-11
4.866216192e-11
5.110218437e-11
5.20643438e-11
5.044609919e-11
4.633021144e-11
4.100786831e-11
3.586854194e-11
3.2024704e-11
5.944888616e-11
6.095628674e-11
6.164241014e-11
6.027674346e-11
5.653532818e-11
5.129002315e-11
4.572681432e-11
4.055084015e-11
3.656877117e-11
7.069339234e-11
7.078675702e-11
6.958353095e-11
6.649054782e-11
6.182169439e-11
5.636858263e-11
5.064450626e-11
4.495361033e-11
4.037462895e-11
7.879217905e-11
7.794616364e-11
7.584663018e-11
7.231441105e-11
6.759864964e-11
6.194862512e-11
5.546982506e-11
4.86652206e-11
4.323094116e-11
8.563449276e-11
8.468868693e-11
8.263215029e-11
7.919159378e-11
7.423343604e-11
6.767942152e-11
5.980628405e-11
5.170405643e-11
4.552547704e-11
9.387865091e-11
9.305232834e-11
9.098488364e-11
8.71138219e-11
8.10721911e-11
7.294291031e-11
6.355858262e-11
5.44450733e-11
4.780224474e-11
1.041419944e-10
1.029817109e-10
1.00162252e-10
9.498793328e-11
8.725393073e-11
7.752880752e-11
6.705072459e-11
5.736836979e-11
5.050257611e-11
1.149369574e-10
1.128597665e-10
1.08651506e-10
1.018191387e-10
9.256495122e-11
8.180312047e-11
7.079640555e-11
6.08976559e-11
5.395152757e-11
1.243099243e-10
1.211597209e-10
1.156271354e-10
1.07579178e-10
9.751115151e-11
8.638142879e-11
7.528509379e-11
6.538022898e-11
5.84174292e-11
1.315615866e-10
1.27712922e-10
1.214872969e-10
1.130060837e-10
1.028419466e-10
9.184435286e-11
8.092800513e-11
7.112457052e-11
6.416487657e-11
1.374565741e-10
1.334567708e-10
1.272269074e-10
1.189737295e-10
1.092190624e-10
9.866475826e-11
8.808543175e-11
7.844106264e-11
7.148705173e-11
1.432334678e-10
1.395134105e-10
1.337717314e-10
1.261824065e-10
1.171506212e-10
1.072380202e-10
9.710632662e-11
8.766805337e-11
8.072363126e-11
1.498988208e-10
1.467328405e-10
1.417848762e-10
1.351303381e-10
1.270370244e-10
1.179260285e-10
1.083526977e-10
9.918394481e-11
9.226738317e-11
1.581078181e-10
1.556629159e-10
1.517080778e-10
1.461894394e-10
1.392226361e-10
1.310818462e-10
1.222074114e-10
1.134060405e-10
1.065594445e-10
1.68256102e-10
1.666552318e-10
1.638557876e-10
1.596599451e-10
1.540210034e-10
1.470544438e-10
1.390663575e-10
1.307759244e-10
1.240718624e-10
1.805986632e-10
1.799526636e-10
1.784677754e-10
1.75795422e-10
1.717179798e-10
1.661765531e-10
1.593162063e-10
1.517309696e-10
1.452761169e-10
1.953093852e-10
1.957310718e-10
1.957303252e-10
1.948048628e-10
1.925582061e-10
1.887389921e-10
1.832993963e-10
1.766626444e-10
1.705978468e-10
2.125063915e-10
2.141131265e-10
2.157765885e-10
2.168398635e-10
2.167203402e-10
2.14955248e-10
2.112694515e-10
2.058645452e-10
2.003606878e-10
2.322567878e-10
2.351657667e-10
2.386750541e-10
2.419735419e-10
2.442863685e-10
2.449213552e-10
2.43342028e-10
2.394761187e-10
2.347255474e-10
2.545705822e-10
2.588895051e-10
2.644128636e-10
2.701770796e-10
2.752109094e-10
2.78577741e-10
2.794495158e-10
2.774310223e-10
2.736349579e-10
2.79390276e-10
2.852054526e-10
2.928794815e-10
3.012995924e-10
3.092970361e-10
3.156808837e-10
3.193085801e-10
3.194209398e-10
3.167743139e-10
3.065808115e-10
3.139446851e-10
3.238555348e-10
3.350567316e-10
3.461850294e-10
3.557925211e-10
3.624098426e-10
3.648853369e-10
3.635612264e-10
3.359235347e-10
3.448436746e-10
3.570107576e-10
3.710323807e-10
3.853591322e-10
3.982926516e-10
4.080380291e-10
4.130391332e-10
4.131771585e-10
3.671168802e-10
3.775483804e-10
3.919134806e-10
4.086956996e-10
4.261744193e-10
4.424187991e-10
4.553272627e-10
4.629480999e-10
4.646847816e-10
3.99785279e-10
4.116281177e-10
4.280521899e-10
4.474333042e-10
4.67902688e-10
4.873300977e-10
5.033484285e-10
5.136735022e-10
5.172270795e-10
4.334964536e-10
4.465988933e-10
4.648681682e-10
4.865956064e-10
5.097955194e-10
5.321897714e-10
5.512309325e-10
5.643292305e-10
5.695878957e-10
4.677864916e-10
4.819558463e-10
5.017976188e-10
5.255497475e-10
5.511665943e-10
5.763064609e-10
5.982436602e-10
6.13776348e-10
6.206057606e-10
5.021929694e-10
5.172081485e-10
5.383235042e-10
5.637739524e-10
5.915406112e-10
6.191261502e-10
6.434151564e-10
6.610220105e-10
6.692577479e-10
5.363068809e-10
5.519611111e-10
5.740813601e-10
6.010079681e-10
6.304806437e-10
6.598543914e-10
6.859597639e-10
7.052562926e-10
7.147051555e-10
5.699287697e-10
5.861110326e-10
6.090090028e-10
6.368204212e-10
6.673339058e-10
6.978870469e-10
7.252794133e-10
7.458641151e-10
7.563100664e-10
6.029670016e-10
6.193194726e-10
6.424806732e-10
6.706411736e-10
7.016216226e-10
7.327873593e-10
7.609511616e-10
7.824171687e-10
7.936295559e-10
6.347758239e-10
6.510138191e-10
6.740376757e-10
7.020772522e-10
7.330089808e-10
7.642614949e-10
7.927051125e-10
8.146526608e-10
8.263951352e-10
6.64909778e-10
6.807950328e-10
7.033431694e-10
7.308493889e-10
7.612709677e-10
7.921309597e-10
8.203974046e-10
8.424456121e-10
8.544847884e-10
6.93029238e-10
7.083602408e-10
7.301439213e-10
7.567594162e-10
7.862659532e-10
8.163072128e-10
8.439834553e-10
8.657803772e-10
8.778935651e-10
7.188619246e-10
7.33470754e-10
7.542478695e-10
7.796703916e-10
8.0791622e-10
8.367707012e-10
8.63494601e-10
8.847250014e-10
8.967065804e-10
7.421872485e-10
7.559381625e-10
7.755120148e-10
7.994943319e-10
8.261942656e-10
8.535548333e-10
8.7901937e-10
8.994100219e-10
9.110762471e-10
7.628305323e-10
7.756185803e-10
7.938363067e-10
8.161849163e-10
8.411136151e-10
8.667344001e-10
8.906893011e-10
9.100118822e-10
9.212040751e-10
7.806614284e-10
7.924105943e-10
8.091607393e-10
8.297332478e-10
8.52722801e-10
8.764174286e-10
8.98668502e-10
9.167403203e-10
9.273265292e-10
7.955937046e-10
8.062545478e-10
8.214638261e-10
8.401651888e-10
8.611012438e-10
8.827393422e-10
9.031459257e-10
9.19828808e-10
9.297041184e-10
8.07584881e-10
8.171317976e-10
8.307612588e-10
8.475391894e-10
8.663560199e-10
8.858584549e-10
9.04329433e-10
9.195271672e-10
9.28612899e-10
8.166349565e-10
8.250632187e-10
8.371040552e-10
8.519439301e-10
8.68618835e-10
8.859521105e-10
9.024409494e-10
9.160956805e-10
9.243377345e-10
8.227839552e-10
8.301066802e-10
8.405759042e-10
8.534954538e-10
8.68042843e-10
8.83213064e-10
8.977122777e-10
9.09800238e-10
9.171668488e-10
8.2610835e-10
8.323535237e-10
8.412897022e-10
8.52333737e-10
8.647991985e-10
8.778459346e-10
8.903813356e-10
9.009082385e-10
9.073873687e-10
8.267166095e-10
8.319242624e-10
8.393834533e-10
8.486188138e-10
8.590733964e-10
8.70063707e-10
8.806887233e-10
8.896850908e-10
8.952816613e-10
8.247441956e-10
8.289637957e-10
8.350157866e-10
8.42526652e-10
8.510615241e-10
8.600843384e-10
8.688746026e-10
8.763912311e-10
8.811243413e-10
8.203483385e-10
8.236364409e-10
8.283613504e-10
8.342449856e-10
8.409665766e-10
8.481275489e-10
8.551759005e-10
8.612796057e-10
8.651798591e-10
8.13702867e-10
8.161210367e-10
8.196063053e-10
8.239692882e-10
8.289949637e-10
8.344118724e-10
8.39823853e-10
8.44593587e-10
8.477005977e-10
8.049933047e-10
8.066063122e-10
8.089440856e-10
8.118990206e-10
8.153533059e-10
8.191520219e-10
8.230419008e-10
8.265652878e-10
8.289254168e-10
7.944123721e-10
7.952866505e-10
7.965715407e-10
7.982342436e-10
8.002455845e-10
8.025566001e-10
8.050439348e-10
8.074142443e-10
8.090785906e-10
7.821559737e-10
7.823583198e-10
7.826855189e-10
7.831726453e-10
7.838706748e-10
7.848261696e-10
7.860328824e-10
7.873464343e-10
7.883690877e-10
7.684197069e-10
7.680162032e-10
7.674799203e-10
7.669069995e-10
7.664202727e-10
7.66151676e-10
7.661996163e-10
7.66553598e-10
7.669901495e-10
7.533958906e-10
7.524510281e-10
7.51143217e-10
7.496230537e-10
7.480772057e-10
7.467132126e-10
7.457221628e-10
7.452128303e-10
7.451191271e-10
7.372710984e-10
7.358470767e-10
7.338564226e-10
7.314978262e-10
7.290141089e-10
7.266791024e-10
7.247651867e-10
7.234864135e-10
7.229175409e-10
7.202241631e-10
7.183803476e-10
7.157914831e-10
7.126982863e-10
7.093924407e-10
7.062052739e-10
7.034797223e-10
7.015218634e-10
7.005313324e-10
7.024246153e-10
7.002171324e-10
6.971100546e-10
6.933803864e-10
6.893618069e-10
6.854349005e-10
6.820031283e-10
6.794521595e-10
6.780912782e-10
6.840315159e-10
6.815129684e-10
6.779626307e-10
6.736884089e-10
6.690595638e-10
6.644982774e-10
6.604592353e-10
6.573961328e-10
6.557135397e-10
6.651926396e-10
6.624119265e-10
6.584879819e-10
6.537545964e-10
6.486106659e-10
6.435129027e-10
6.389586599e-10
6.354589874e-10
6.335003228e-10
6.460439721e-10
6.430461971e-10
6.388128697e-10
6.33699027e-10
6.281277257e-10
6.225837352e-10
6.175992586e-10
6.137329282e-10
6.115406256e-10
6.267094761e-10
6.235359319e-10
6.190519973e-10
6.136296995e-10
6.077112538e-10
6.018035988e-10
5.96466696e-10
5.922978754e-10
5.899110517e-10
6.073010907e-10
6.03989305e-10
5.993081606e-10
5.936427967e-10
5.874500488e-10
5.812537067e-10
5.756351018e-10
5.712222396e-10
5.686766677e-10
5.879189252e-10
5.845027584e-10
5.796725665e-10
5.738230931e-10
5.674217063e-10
5.610042783e-10
5.551677942e-10
5.505637406e-10
5.478918872e-10
5.686516131e-10
5.651613966e-10
5.602252847e-10
5.542444776e-10
5.476932214e-10
5.411152245e-10
5.35118047e-10
5.303702489e-10
5.276013648e-10
5.495767948e-10
5.460394993e-10
5.410358047e-10
5.349705637e-10
5.28321658e-10
5.216368797e-10
5.155298834e-10
5.106806345e-10
5.078408839e-10
5.307616965e-10
5.272011238e-10
5.221636697e-10
5.160553616e-10
5.093548631e-10
5.026107594e-10
4.964388771e-10
4.915256075e-10
4.886382267e-10
5.122637812e-10
5.087007706e-10
5.036591629e-10
4.975439897e-10
4.908322056e-10
4.84070328e-10
4.778729478e-10
4.729285402e-10
4.700140155e-10
4.941314462e-10
4.905840898e-10
4.855640263e-10
4.794734068e-10
4.727853234e-10
4.660417602e-10
4.598531376e-10
4.549062583e-10
4.519825166e-10
4.764047461e-10
4.728886075e-10
4.67912191e-10
4.618731476e-10
4.552388629e-10
4.485446849e-10
4.423943599e-10
4.374697954e-10
4.345524003e-10
4.591161247e-10
4.55644457e-10
4.507305066e-10
4.447660482e-10
4.382112008e-10
4.315929021e-10
4.255061121e-10
4.206251035e-10
4.177274531e-10
4.422911403e-10
4.38875099e-10
4.340394545e-10
4.281689505e-10
4.217151368e-10
4.151950644e-10
4.091931458e-10
4.043737167e-10
4.015072375e-10
4.259491726e-10
4.22598021e-10
4.178538364e-10
4.120933768e-10
4.057585523e-10
3.993553179e-10
3.934560934e-10
3.887133642e-10
3.858876999e-10
4.101041014e-10
4.068254072e-10
4.021834297e-10
3.965461676e-10
3.903450282e-10
3.840739002e-10
3.782920447e-10
3.73638533e-10
3.708617243e-10
3.947649514e-10
3.915647715e-10
3.870336053e-10
3.815300791e-10
3.754744198e-10
3.693476908e-10
3.636950771e-10
3.591409795e-10
3.564196344e-10
3.799364968e-10
3.768195505e-10
3.724059023e-10
3.670443369e-10
3.611433863e-10
3.551707159e-10
3.496567355e-10
3.452101911e-10
3.425496445e-10
3.656198232e-10
3.625896524e-10
3.582985601e-10
3.53085145e-10
3.473458743e-10
3.415346061e-10
3.361664663e-10
3.318338005e-10
3.292382615e-10
3.51812845e-10
3.48871962e-10
3.447070036e-10
3.396461492e-10
3.340735564e-10
3.284290082e-10
3.232120051e-10
3.189979528e-10
3.164706416e-10
3.385107779e-10
3.356608003e-10
3.316242858e-10
3.267188568e-10
3.213162253e-10
3.158419547e-10
3.10779721e-10
3.066876317e-10
3.042309037e-10
3.257065674e-10
3.229483405e-10
3.190414855e-10
3.142930127e-10
3.090621462e-10
3.037601906e-10
2.988549212e-10
2.948869436e-10
2.925024029e-10
3.133912735e-10
3.107249809e-10
3.069480635e-10
3.02356935e-10
2.97298369e-10
2.92169462e-10
2.874221171e-10
2.835793666e-10
2.812679684e-10
3.015544154e-10
2.989796782e-10
2.953321795e-10
2.908978121e-10
2.860110038e-10
2.81054769e-10
2.764652558e-10
2.727479643e-10
2.705101069e-10
2.901842762e-10
2.87700242e-10
2.841809718e-10
2.799019635e-10
2.751854608e-10
2.704005851e-10
2.659679204e-10
2.623755705e-10
2.602111778e-10
2.792681726e-10
2.768735938e-10
2.73480802e-10
2.693550682e-10
2.648066599e-10
2.601910469e-10
2.559135013e-10
2.524449451e-10
2.503535399e-10
2.687926903e-10
2.664859937e-10
2.63217469e-10
2.592423621e-10
2.548592106e-10
2.504101166e-10
2.462853414e-10
2.429389061e-10
2.40919675e-10
2.587438889e-10
2.565232373e-10
2.533763935e-10
2.495488085e-10
2.453275664e-10
2.410417192e-10
2.370668593e-10
2.338404395e-10
2.318922907e-10
2.491074791e-10
2.469708246e-10
2.439427771e-10
2.402592438e-10
2.36196156e-10
2.320698595e-10
2.282416508e-10
2.251327903e-10
2.232544037e-10
2.398689731e-10
2.378141038e-10
2.349017354e-10
2.31358499e-10
2.274494919e-10
2.234787174e-10
2.19793573e-10
2.167995358e-10
2.149894072e-10
2.310138146e-10
2.290383954e-10
2.262384135e-10
2.228315042e-10
2.190722624e-10
2.152527273e-10
2.117068118e-10
2.088246439e-10
2.070811238e-10
2.225274877e-10
2.206290949e-10
2.179380808e-10
2.146633739e-10
2.11049407e-10
2.07376643e-10
2.039659367e-10
2.011925193e-10
1.99513846e-10
2.143956081e-10
2.125717593e-10
2.099862109e-10
2.06839478e-10
2.033661775e-10
1.998355889e-10
1.965559424e-10
1.938880384e-10
1.922723669e-10
2.066039972e-10
2.048521771e-10
2.023685447e-10
1.993454982e-10
1.960081859e-10
1.926150994e-10
1.894622815e-10
1.868965745e-10
1.853420013e-10
1.99138743e-10
1.97456425e-10
1.950711426e-10
1.921674724e-10
1.889614421e-10
1.857011495e-10
1.826708869e-10
1.802040147e-10
1.787085992e-10
1.919862492e-10
1.903709133e-10
1.880804239e-10
1.852918299e-10
1.82212382e-10
1.790801758e-10
1.76168187e-10
1.737967707e-10
1.723585527e-10
1.851332816e-10
1.835824219e-10
1.813831989e-10
1.787054168e-10
1.757478878e-10
1.727390912e-10
1.699411153e-10
1.676617825e-10
1.662787981e-10
1.785669949e-10
1.77078129e-10
1.749666922e-10
1.72395515e-10
1.695553018e-10
1.666652936e-10
1.639771134e-10
1.617865187e-10
1.604568125e-10
1.722749178e-10
1.708456441e-10
1.688185621e-10
1.663498561e-10
1.636224345e-10
1.60846669e-10
1.582641306e-10
1.56158972e-10
1.548806079e-10
1.662449952e-10
1.648729706e-10
1.629269055e-10
1.605566273e-10
1.579375682e-10
1.552715915e-10
1.527906199e-10
1.507676517e-10
1.495387216e-10
1.604656514e-10
1.591485805e-10
1.572802782e-10
1.550044775e-10
1.524894568e-10
1.499289188e-10
1.475455295e-10
1.456015735e-10
1.444202044e-10
1.549257381e-10
1.536613722e-10
1.518676812e-10
1.496825122e-10
1.472673205e-10
1.448079844e-10
1.425182937e-10
1.406502472e-10
1.395146068e-10
1.496145452e-10
1.484007036e-10
1.466785519e-10
1.445802863e-10
1.422608379e-10
1.398985885e-10
1.376988206e-10
1.359036633e-10
1.348119643e-10
1.445217942e-10
1.433563661e-10
1.417027764e-10
1.396878023e-10
1.374601381e-10
1.351909866e-10
1.33077479e-10
1.313522778e-10
1.303027815e-10
1.396376307e-10
1.385185739e-10
1.369306582e-10
1.349954944e-10
1.328557884e-10
1.306758763e-10
1.286450836e-10
1.26986996e-10
1.259780149e-10
1.349526195e-10
1.338779654e-10
1.323529425e-10
1.304942248e-10
1.284387822e-10
1.263443834e-10
1.243928799e-10
1.227991568e-10
1.218290561e-10
1.304577341e-10
1.294255876e-10
1.279607809e-10
1.261752741e-10
1.242005265e-10
1.221880477e-10
1.203125286e-10
1.187805153e-10
1.178477143e-10
1.261443469e-10
1.251528854e-10
1.237457184e-10
1.220302983e-10
1.201328237e-10
1.181988073e-10
1.163960891e-10
1.149232262e-10
1.14026199e-10
1.220042182e-10
1.210516909e-10
1.196996887e-10
1.180513567e-10
1.162278626e-10
1.14368984e-10
1.126360043e-10
1.112198273e-10
1.103571026e-10
1.180294842e-10
1.171142114e-10
1.158149991e-10
1.142308773e-10
1.124782023e-10
1.106912681e-10
1.090250837e-10
1.076632222e-10
1.068333836e-10
1.142126446e-10
1.133330162e-10
1.120843172e-10
1.105616453e-10
1.088767573e-10
1.071587031e-10
1.055564882e-10
1.042466648e-10
1.034483497e-10
1.105465495e-10
1.097010236e-10
1.085006577e-10
1.070367939e-10
1.054167836e-10
1.037646706e-10
1.022237141e-10
1.009637424e-10
1.001956413e-10
1.070243852e-10
1.062114856e-10
1.050573641e-10
1.036497717e-10
1.020918602e-10
1.005028742e-10
9.902057766e-11
9.780836032e-11
9.706921621e-11
1.036396611e-10
1.028579758e-10
1.017481011e-10
1.003943559e-10
9.889587996e-11
9.73673258e-11
9.594120018e-11
9.477472692e-11
9.406333356e-11
1.003861961e-10
9.963437524e-11
9.856683737e-11
9.726462167e-11
9.582303292e-11
9.435233136e-11
9.297999351e-11
9.18573385e-11
9.117253942e-11
9.725810542e-11
9.653485891e-11
9.550783257e-11
9.425493075e-11
9.286779243e-11
9.145247647e-11
9.013164602e-11
8.905096537e-11
8.839165241e-11
9.424978705e-11
9.355388268e-11
9.256562402e-11
9.135991903e-11
9.002490217e-11
8.866261321e-11
8.739110913e-11
8.635063825e-11
8.571575008e-11
9.135590959e-11
9.068617058e-11
8.973501419e-11
8.857448386e-11
8.72893633e-11
8.597784727e-11
8.475358434e-11
8.375163525e-11
8.314015583e-11
8.857139951e-11
8.79267025e-11
8.70110583e-11
8.589377169e-11
8.465642216e-11
8.33935256e-11
8.221451088e-11
8.124946944e-11
8.066042649e-11
8.589142926e-11
8.527070208e-11
8.438905238e-11
8.331316612e-11
8.212155832e-11
8.090522447e-11
7.97695538e-11
7.8839877e-11
7.827234044e-11
8.331140558e-11
8.271362518e-11
8.186452168e-11
8.082827648e-11
7.968047322e-11
7.850873815e-11
7.74145927e-11
7.651880596e-11
7.597188637e-11
8.082695824e-11
8.025114866e-11
7.943320958e-11
7.84349267e-11
7.732907916e-11
7.620006808e-11
7.514571095e-11
7.428240546e-11
7.375525258e-11
7.843392926e-11
7.787915962e-11
7.709106693e-11
7.612914486e-11
7.50634889e-11
7.397541253e-11
7.295918548e-11
7.212701568e-11
7.161881691e-11
7.612836243e-11
7.559374505e-11
7.483424173e-11
7.390715296e-11
7.288000568e-11
7.183115672e-11
7.085147709e-11
7.004915819e-11
6.955913721e-11
7.39064933e-11
7.339118182e-11
7.265906933e-11
7.176535725e-11
7.077511362e-11
6.97638635e-11
6.881922117e-11
6.804552685e-11
6.757294229e-11
7.176473933e-11
7.1267927e-11
7.056206282e-11
6.970033878e-11
6.87454685e-11
6.777026423e-11
6.685921887e-11
6.611297911e-11
6.565712333e-11
6.969969042e-11
6.92206084e-11
6.853990371e-11
6.770884426e-11
6.678788875e-11
6.584725001e-11
6.496842848e-11
6.424852759e-11
6.380872555e-11
6.770809935e-11
6.724601518e-11
6.658943264e-11
6.57877769e-11
6.489934654e-11
6.399186295e-11
6.314395692e-11
6.244933174e-11
6.202494004e-11
6.578687225e-11
6.534108833e-11
6.470763996e-11
6.393418718e-11
6.307695865e-11
6.220128726e-11
6.138305101e-11
6.071268931e-11
6.030309532e-11
6.393305871e-11
6.35029108e-11
6.289165604e-11
6.214526314e-11
6.131797694e-11
6.047283982e-11
5.968308826e-11
5.903602727e-11
5.86406484e-11
6.214384125e-11
6.172869706e-11
6.113874067e-11
6.041831996e-11
5.961977792e-11
5.880395983e-11
5.804156651e-11
5.741689156e-11
5.70351746e-11
6.041652385e-11
6.001578155e-11
5.944627157e-11
5.875078822e-11
5.797985098e-11
5.719219695e-11
5.645609204e-11
5.585293519e-11
5.548435569e-11
5.874851913e-11
5.836160566e-11
5.78117311e-11
5.714020042e-11
5.639578463e-11
5.56351973e-11
5.492436532e-11
5.434190374e-11
5.39859652e-11
5.713733367e-11
5.676370288e-11
5.623269088e-11
5.558417427e-11
5.486525019e-11
5.413068668e-11
5.344416366e-11
5.288161751e-11
5.253785033e-11
5.55805512e-11
5.521968177e-11
5.470679502e-11
5.408039839e-11
5.338598325e-11
5.267645036e-11
5.201331989e-11
5.146994937e-11
5.11379092e-11
5.407581299e-11
5.372720561e-11
5.323173828e-11
5.262660641e-11
5.195575969e-11
5.127030844e-11
5.062969645e-11
5.010479751e-11
4.97840628e-11
5.262079515e-11
5.228396897e-11
5.18052413e-11
5.122055038e-11
5.057236803e-11
4.991008651e-11
4.92911541e-11
4.878405252e-11
4.847422079e-11
5.121318297e-11
5.088767123e-11
5.042502323e-11
4.985997367e-11
4.923357813e-11
4.859358154e-11
4.799551532e-11
4.750555827e-11
4.720624087e-11
4.985064197e-11
4.953598673e-11
4.908877042e-11
4.854257612e-11
4.793710519e-11
4.731852301e-11
4.674052223e-11
4.626706711e-11
4.597788188e-11
4.853078574e-11
4.822653143e-11
4.779410158e-11
4.726597908e-11
4.668056982e-11
4.608252945e-11
4.552378971e-11
4.506618966e-11
4.478675147e-11
4.725114101e-11
4.695682655e-11
4.653852899e-11
4.602768293e-11
4.546145411e-11
4.488306157e-11
4.434275497e-11
4.390034099e-11
4.36302497e-11
4.6009111e-11
4.572426055e-11
4.53194177e-11
4.482502269e-11
4.427705677e-11
4.371737417e-11
4.319462575e-11
4.276668527e-11
4.250551125e-11
4.480193834e-11
4.452605173e-11
4.413395055e-11
4.36551306e-11
4.312444926e-11
4.25824687e-11
4.20763295e-11
4.166208176e-11
4.14093491e-11
4.362666862e-11
4.335921084e-11
4.297908762e-11
4.251489556e-11
4.200043447e-11
4.147504958e-11
4.098446703e-11
4.058303586e-11
4.033820373e-11
4.248011717e-11
4.222050687e-11
4.185153231e-11
4.140092927e-11
4.09015116e-11
4.039148756e-11
3.991527422e-11
3.95256594e-11
3.928810228e-11
4.135884769e-11
4.110645721e-11
4.074770658e-11
4.030954081e-11
3.982385047e-11
3.932779376e-11
3.886459605e-11
3.84856445e-11
3.82546324e-11
4.025916766e-11
4.001328794e-11
3.9663738e-11
3.923672245e-11
3.876327811e-11
3.8279608e-11
3.782787685e-11
3.745825589e-11
3.723293594e-11
3.917709808e-11
3.893694583e-11
3.859545575e-11
3.817814809e-11
3.771528069e-11
3.724220488e-11
3.680017101e-11
3.643834601e-11
3.621772718e-11
3.810839611e-11
3.787310081e-11
3.75383992e-11
3.712918726e-11
3.667502408e-11
3.621052149e-11
3.577617822e-11
3.542039739e-11
3.520334031e-11
3.704856785e-11
3.681716672e-11
3.648784536e-11
3.608493961e-11
3.563739594e-11
3.51792093e-11
3.475030658e-11
3.439859616e-11
3.418381028e-11
3.59929031e-11
3.576434116e-11
3.54388557e-11
3.504029115e-11
3.459707404e-11
3.414271528e-11
3.371676671e-11
3.336693974e-11
3.315299031e-11
3.493653154e-11
3.470966711e-11
3.438634594e-11
3.398999493e-11
3.354862038e-11
3.309539239e-11
3.266970052e-11
3.231938184e-11
3.210470874e-11
3.387450037e-11
3.364811698e-11
3.332517988e-11
3.292877808e-11
3.248660473e-11
3.203164228e-11
3.160334436e-11
3.125001578e-11
3.103296643e-11
3.28018747e-11
3.257470049e-11
3.225028873e-11