/*--------------------------------*- C++ -*----------------------------------*\
| =========                 |                                                 |
| \\      /  F ield         | OpenFOAM: The Open Source CFD Toolbox           |
|  \\    /   O peration     | Version:  2212                                  |
|   \\  /    A nd           | Website:  www.openfoam.com                      |
|    \\/     M anipulation  |                                                 |
\*---------------------------------------------------------------------------*/
FoamFile
{
    version     2.0;
    format      ascii;
    arch        "LSB;label=32;scalar=64";
    class       volScalarField;
    location    "20.00000000";
    object      CH4;
}
// * * * * * * * * * * * * * * * * * * * * * * * * * * * * * * * * * * * * * //

dimensions      [0 0 0 0 0 0 0];

internalField   nonuniform List<scalar> 
3000
(
0.0004199879352
0.0004199879352
0.0004199879352
0.0004199879352
0.0004199879352
0.0004199879352
0.0004199879352
0.0004199879352
0.0004199879352
0.0004199879352
0.0004199879352
0.0004199879352
0.0004199879352
0.0004199879352
0.0004199879352
0.0004199879352
0.0004199879352
0.0004199879352
0.0004199879352
0.0004199879352
0.0004199879352
0.0004199879352
0.0004199879352
0.0004199879352
0.0004199879352
0.0004199879352
0.0004199879352
0.0004199879352
0.0004199879352
0.0004199879352
0.0004199879352
0.0004199879352
0.0004199879352
0.0004199879352
0.0004199879352
0.0004199879352
0.0004199879352
0.0004199879352
0.0004199879352
0.0004199879352
0.0004199879352
0.0004199879352
0.0004199879352
0.0004199879352
0.0004199879352
0.0004199879352
0.0004199879352
0.0004199879352
0.0004199879352
0.0004199879352
0.0004199879352
0.0004199879352
0.0004199879352
0.0004199879352
0.0004199879352
0.0004199879352
0.0004199879352
0.0004199879352
0.0004199879352
0.0004199879352
0.0004199879352
0.0004199879352
0.0004199879352
0.0004199879352
0.0004199879352
0.0004199879352
0.0004199879352
0.0004199879352
0.0004199879352
0.0004199879352
0.0004199879352
0.0004199879352
0.0004199879352
0.0004199879352
0.0004199879352
0.0004199879352
0.0004199879352
0.0004199879352
0.0004199879352
0.0004199879352
0.0004199879352
0.0004199879352
0.0004199879352
0.0004199879352
0.0004199879352
0.0004199879352
0.0004199879352
0.0004199879352
0.0004199879352
0.0004199879352
0.0004199879352
0.0004199879352
0.0004199879352
0.0004199879352
0.0004199879352
0.0004199879352
0.0004199879352
0.0004199879352
0.0004199879352
0.0004199879352
0.0004199879352
0.0004199879352
0.0004199879352
0.0004199879352
0.0004199879352
0.0004199879352
0.0004199879352
0.0004199879352
0.0004199879352
0.0004199879352
0.0004199879352
0.0004199879352
0.0004199879352
0.0004199879352
0.0004199879352
0.0004199879352
0.0004199879352
0.0004199879352
0.0004199879352
0.0004199879352
0.0004199879352
0.0004199879352
0.0004199879352
0.0004199879352
0.0004199879352
0.0004199879352
0.0004199879352
0.0004199879352
0.0004199879352
0.0004199879352
0.0004199879352
0.0004199879352
0.0004199879352
0.0004199879352
0.0004199879352
0.0004199879352
0.0004199879352
0.0004199879352
0.0004199879352
0.0004199879352
0.0004199879352
0.0004199879352
0.0004199879352
0.0004199879352
0.0004199879352
0.0004199879352
0.0004199879352
0.0004199879352
0.0004199879352
0.0004199879352
0.0004199879352
0.0004199879352
0.0004199879352
0.0004199879352
0.0004199879352
0.0004199879352
0.0004199879352
0.0004199879352
0.0004199879352
0.0004199879352
0.0004199879352
0.0004199879352
0.0004199879352
0.0004199879352
0.0004199879352
0.0004199879352
0.0004199879352
0.0004199879352
0.0004199879352
0.0004199879352
0.0004199879352
0.0004199879352
0.0004199879352
0.0004199879352
0.0004199879352
0.0004199879352
0.0004199879352
0.0004199879352
0.0004199879352
0.0004199879352
0.0004199879352
0.0004199879352
0.0004199879352
0.0004199879352
0.0004199879352
0.0004199879352
0.0004199879352
0.0004199879352
0.0004199879352
0.0004199879352
0.0004199879352
0.0004199879352
0.0004199879352
0.0004199879352
0.0004199879352
0.0004199879352
0.0004199879352
0.0004199879352
0.0004199879352
0.0004199879352
0.0004199879352
0.0004199879352
0.0004199879352
0.0004199879352
0.0004199879352
0.0004199879352
0.0004199879352
0.0004199879352
0.0004199879352
0.0004199879352
0.0004199879352
0.0004199879352
0.0004199879352
0.0004199879352
0.0004199879352
0.0004199879352
0.0004199879352
0.0004199879352
0.0004199879352
0.0004199879352
0.0004199879352
0.0004199879352
0.0004199879352
0.0004199879352
0.0004199879352
0.0004199879352
0.0004199879352
0.0004199879352
0.0004199879352
0.0004199879352
0.0004199879352
0.0004199879352
0.0004199879352
0.0004199879352
0.0004199879352
0.0004199879352
0.0004199879352
0.0004199879352
0.0004199879352
0.0004199879352
0.0004199879352
0.0004199879352
0.0004199879352
0.0004199879352
0.0004199879352
0.0004199879352
0.0004199879352
0.0004199879352
0.0004199879352
0.0004199879352
0.0004199879352
0.0004199879352
0.0004199879352
0.0004199879352
0.0004199879352
0.0004199879352
0.0004199879352
0.0004199879352
0.0004199879352
0.0004199879352
0.0004199879352
0.0004199879352
0.0004199879352
0.0004199879352
0.0004199879352
0.0004199879352
0.0004199879352
0.0004199879352
0.0004199879352
0.0004199879352
0.0004199879352
0.0004199879352
0.0004199879352
0.0004199879352
0.0004199879352
0.0004199879352
0.0004199879352
0.0004199879352
0.0004199879352
0.0004199879352
0.0004199879352
0.0004199879352
0.0004199879352
0.0004199879352
0.0004199879352
0.0004199879352
0.0004199879352
0.0004199879352
0.0004199879352
0.0004199879352
0.0004199879352
0.0004199879352
0.0004199879352
0.0004199879352
0.0004199879352
0.0004199879352
0.0004199879352
0.0004199879352
0.0004199879352
0.0004199879352
0.0004199879352
0.0004199879352
0.0004199879352
0.0004199879352
0.0004199879353
0.0004199879353
0.0004199879352
0.0004199879352
0.0004199879352
0.0004199879352
0.0004199879352
0.0004199879353
0.0004199879353
0.0004199879353
0.0004199879353
0.0004199879352
0.0004199879352
0.0004199879352
0.0004199879353
0.0004199879353
0.0004199879353
0.0004199879353
0.0004199879354
0.0004199879354
0.0004199879352
0.0004199879353
0.0004199879353
0.0004199879353
0.0004199879353
0.0004199879354
0.0004199879354
0.0004199879355
0.0004199879355
0.0004199879353
0.0004199879353
0.0004199879353
0.0004199879354
0.0004199879354
0.0004199879355
0.0004199879356
0.0004199879357
0.0004199879357
0.0004199879353
0.0004199879354
0.0004199879354
0.0004199879355
0.0004199879356
0.0004199879357
0.0004199879359
0.000419987936
0.0004199879361
0.0004199879354
0.0004199879355
0.0004199879356
0.0004199879357
0.0004199879359
0.0004199879361
0.0004199879363
0.0004199879366
0.0004199879367
0.0004199879356
0.0004199879357
0.0004199879358
0.0004199879361
0.0004199879364
0.0004199879367
0.0004199879371
0.0004199879374
0.0004199879376
0.0004199879359
0.000419987936
0.0004199879363
0.0004199879366
0.0004199879371
0.0004199879377
0.0004199879383
0.0004199879388
0.0004199879391
0.0004199879363
0.0004199879366
0.000419987937
0.0004199879376
0.0004199879383
0.0004199879392
0.0004199879401
0.000419987941
0.0004199879415
0.000419987937
0.0004199879375
0.0004199879381
0.0004199879391
0.0004199879403
0.0004199879417
0.0004199879431
0.0004199879444
0.0004199879452
0.0004199879383
0.0004199879389
0.00041998794
0.0004199879415
0.0004199879433
0.0004199879455
0.0004199879478
0.0004199879497
0.000419987951
0.0004199879402
0.0004199879413
0.000419987943
0.0004199879453
0.0004199879482
0.0004199879515
0.000419987955
0.000419987958
0.0004199879598
0.0004199879434
0.0004199879451
0.0004199879477
0.0004199879513
0.0004199879558
0.0004199879609
0.0004199879661
0.0004199879706
0.0004199879733
0.0004199879484
0.0004199879511
0.0004199879551
0.0004199879607
0.0004199879675
0.0004199879752
0.000419987983
0.0004199879897
0.0004199879938
0.0004199879565
0.0004199879605
0.0004199879667
0.0004199879752
0.0004199879855
0.000419987997
0.0004199880087
0.0004199880186
0.0004199880247
0.0004199879691
0.0004199879753
0.0004199879847
0.0004199879974
0.0004199880129
0.0004199880301
0.0004199880472
0.0004199880618
0.0004199880708
0.0004199879888
0.0004199879982
0.0004199880124
0.0004199880314
0.0004199880543
0.0004199880797
0.0004199881049
0.0004199881262
0.0004199881392
0.0004199880194
0.0004199880334
0.0004199880546
0.0004199880827
0.0004199881165
0.0004199881537
0.0004199881905
0.0004199882215
0.0004199882404
0.0004199880665
0.0004199880872
0.0004199881185
0.0004199881598
0.0004199882093
0.0004199882635
0.0004199883168
0.0004199883617
0.0004199883889
0.0004199881381
0.0004199881686
0.0004199882145
0.0004199882748
0.0004199883467
0.0004199884252
0.0004199885022
0.0004199885667
0.0004199886058
0.0004199882464
0.0004199882909
0.0004199883578
0.0004199884452
0.0004199885491
0.000419988662
0.0004199887726
0.0004199888651
0.000419988921
0.0004199884088
0.0004199884732
0.0004199885699
0.0004199886958
0.000419988845
0.0004199890067
0.0004199891645
0.0004199892964
0.000419989376
0.0004199886503
0.0004199887431
0.0004199888818
0.000419989062
0.0004199892748
0.000419989505
0.0004199897291
0.0004199899161
0.0004199900289
0.0004199890068
0.0004199891393
0.0004199893371
0.0004199895933
0.0004199898952
0.0004199902208
0.0004199905371
0.0004199908005
0.0004199909591
0.000419989529
0.000419989717
0.0004199899971
0.0004199903591
0.0004199907845
0.0004199912421
0.0004199916856
0.0004199920542
0.0004199922758
0.0004199902881
0.0004199905532
0.0004199909473
0.0004199914553
0.0004199920507
0.0004199926895
0.0004199933074
0.0004199938197
0.0004199941274
0.0004199913835
0.0004199917547
0.0004199923054
0.0004199930137
0.0004199938415
0.0004199947274
0.0004199955824
0.0004199962904
0.000419996715
0.0004199929524
0.0004199934686
0.0004199942329
0.0004199952135
0.000419996357
0.000419997578
0.0004199987542
0.0004199997268
0.0004200003099
0.000419995182
0.0004199958949
0.0004199969484
0.0004199982974
0.0004199998671
0.0004200015401
0.0004200031493
0.0004200044786
0.0004200052751
0.0004199983259
0.0004199993038
0.0004200007469
0.0004200025912
0.0004200047335
0.0004200070132
0.0004200092033
0.000420011011
0.0004200120937
0.0004200027246
0.0004200040578
0.0004200060225
0.0004200085298
0.0004200114375
0.0004200145278
0.0004200174935
0.0004200199396
0.0004200214041
0.0004200088326
0.0004200106396
0.0004200132994
0.0004200166892
0.0004200206152
0.0004200247827
0.0004200287786
0.0004200320725
0.0004200340441
0.0004200172518
0.0004200196871
0.000420023268
0.0004200278264
0.0004200330997
0.0004200386914
0.0004200440485
0.0004200484621
0.0004200511034
0.000420028772
0.0004200320358
0.0004200368307
0.0004200429278
0.0004200499734
0.0004200574374
0.000420064583
0.0004200704672
0.000420073988
0.00042004442
0.0004200487698
0.0004200551547
0.0004200632656
0.0004200726288
0.0004200825394
0.0004200920206
0.0004200998247
0.0004201044935
0.0004200655173
0.0004200712812
0.0004200797352
0.0004200904645
0.0004201028388
0.0004201159256
0.0004201284373
0.0004201387315
0.000420144889
0.0004200937459
0.0004201013385
0.0004201124664
0.0004201265766
0.0004201428357
0.0004201600172
0.0004201764331
0.0004201899339
0.0004201980078
0.0004201312228
0.0004201411626
0.0004201557202
0.0004201741635
0.0004201953967
0.0004202178166
0.0004202392237
0.0004202568215
0.0004202673429
0.0004201805809
0.0004201935097
0.0004202124314
0.000420236383
0.0004202639334
0.0004202929997
0.0004203207341
0.0004203435217
0.0004203571418
0.0004202450549
0.0004202617574
0.0004202861846
0.0004203170783
0.0004203525814
0.0004203900055
0.0004204256882
0.0004204549892
0.0004204724951
0.0004203285685
0.0004203499927
0.0004203813022
0.0004204208644
0.0004204662855
0.0004205141196
0.00042055969
0.0004205970846
0.0004206194144
0.00042043582
0.0004204630958
0.0004205029264
0.0004205532078
0.0004206108759
0.0004206715457
0.0004207292903
0.000420776637
0.0004208048916
0.0004205723624
0.0004206068182
0.0004206570934
0.0004207204953
0.0004207931306
0.0004208694612
0.0004209420352
0.0004210014862
0.0004210369371
0.0004207446736
0.0004207878492
0.0004208507939
0.0004209300875
0.00042102082
0.0004211160518
0.0004212064913
0.0004212804999
0.0004213245932
0.0004209602127
0.0004210138668
0.0004210920174
0.0004211903536
0.0004213027307
0.0004214205241
0.0004215322468
0.0004216235665
0.0004216779203
0.0004212274587
0.0004212935708
0.0004213897762
0.0004215106835
0.000421648665
0.0004217930912
0.0004219298854
0.0004220415572
0.0004221079533
0.0004215559289
0.0004216366945
0.0004217541067
0.0004219014774
0.0004220694163
0.0004222449338
0.0004224109317
0.000422546261
0.0004226266329
0.000421956174
0.0004220539912
0.0004221960459
0.0004223741097
0.0004225767181
0.0004227881332
0.0004229877706
0.0004231502955
0.0004232467051
0.0004224397468
0.0004225571975
0.0004227275834
0.0004229408661
0.0004231831655
0.0004234355787
0.0004236735461
0.0004238669913
0.0004239816036
0.0004230191447
0.0004231589658
0.0004233615832
0.000423614852
0.000423902112
0.000424200854
0.0004244820306
0.0004247102573
0.0004248453114
0.0004237077187
0.0004238727662
0.0004241116741
0.0004244098757
0.0004247475406
0.0004250980934
0.0004254274773
0.0004256944279
0.0004258522044
0.0004245195485
0.0004247127578
0.0004249921163
0.0004253403004
0.0004257339056
0.0004261418204
0.0004265244529
0.0004268340899
0.0004270168762
0.0004254692891
0.0004256936273
0.0004260176311
0.000426420872
0.0004268759578
0.0004273467668
0.0004277876509
0.0004281438935
0.0004283539465
0.0004265719855
0.0004268304046
0.000427203215
0.0004276665288
0.0004281885485
0.0004287276727
0.0004292316896
0.0004296383475
0.0004298778565
0.0004278428724
0.0004281382589
0.0004285639334
0.0004290921919
0.000429686418
0.0004302990732
0.0004308708976
0.0004313316056
0.0004316026542
0.0004292971515
0.0004296322757
0.000430114696
0.0004307125401
0.0004313839706
0.0004320750749
0.0004327190928
0.0004332372468
0.000433541777
0.0004309497544
0.0004313272199
0.0004318700212
0.0004325417771
0.0004332950449
0.0004340691309
0.0004347893611
0.0004353680582
0.0004357078363
0.0004328150967
0.0004332372921
0.0004338437961
0.0004345933958
0.0004354326852
0.0004362938179
0.0004370938409
0.0004377358251
0.000438112411
0.0004349068315
0.0004353758864
0.0004360490406
0.0004368799502
0.0004378089211
0.0004387606263
0.0004396435217
0.0004403511369
0.0004407658579
0.0004372376117
0.0004377553576
0.0004384976814
0.0004394128392
0.0004404345631
0.0004414797663
0.0004424480612
0.0004432232126
0.0004436771418
0.0004398188673
0.000440386805
0.0004412003458
0.000442202112
0.00044331902
0.0004444599993
0.0004455156281
0.0004463597531
0.0004468536932
0.0004426606059
0.0004432798805
0.0004441661798
0.0004452562979
0.0004464701435
0.0004477084955
0.0004488527732
0.0004497668221
0.0004503012953
0.0004457712417
0.0004464426247
0.0004474026953
0.0004485822685
0.0004498941044
0.000451230725
0.0004524643327
0.0004534487594
0.0004540240025
0.0004491574574
0.0004498813378
0.0004509156524
0.0004521851319
0.0004535953017
0.0004550303815
0.0004563533649
0.000457408128
0.0004580240934
0.0004528241023
0.0004536004849
0.000454708976
0.000456068164
0.0004575763077
0.0004591093407
0.0004605211209
0.000461645693
0.0004623020551
0.0004567741285
0.0004576026404
0.0004587847105
0.0004602327743
0.0004618378475
0.0004634676529
0.0004649670482
0.0004661604347
0.0004668566006
0.0004610085641
0.0004618884677
0.0004631430095
0.0004646785081
0.0004663788128
0.0004681035681
0.0004696888256
0.0004709495906
0.0004716847151
0.0004655265233
0.0004664567362
0.0004677821611
0.0004694030814
0.000471196307
0.0004730135908
0.0004746824268
0.0004760087249
0.0004767817295
0.0004703252514
0.0004713043709
0.0004726986447
0.0004744024458
0.0004762857194
0.0004781925624
0.0004799422091
0.000481331823
0.0004821414172
0.0004754001993
0.0004764265321
0.000477887217
0.0004796708814
0.0004816408241
0.0004836337665
0.0004854610242
0.0004869114055
0.0004877561102
0.0004807451276
0.0004818167215
0.0004833410223
0.0004852011118
0.0004872539002
0.000489329053
0.0004912303462
0.0004927386591
0.0004936168319
0.0004863522312
0.0004874669105
0.000489051723
0.0004909844383
0.000493115869
0.0004952689784
0.0004972404131
0.0004988035791
0.0004997134398
0.0004922122843
0.000493367685
0.0004950096473
0.0004970108882
0.0004992164435
0.0005014429558
0.000503480378
0.0005050951215
0.0005060347776
0.0004983147973
0.000499508404
0.0005012039465
0.0005032693729
0.0005055442865
0.0005078394125
0.0005099384656
0.000511601358
0.0005125688305
0.0005046481843
0.0005058773652
0.0005076227606
0.0005097478519
0.0005120871723
0.0005144459501
0.0005166021305
0.0005183096332
0.0005193028806
0.0005111999339
0.0005124619754
0.0005142533868
0.0005164334986
0.0005188321501
0.0005212495044
0.0005234582143
0.0005252067192
0.0005262236608
0.0005179567818
0.0005192489208
0.0005210824464
0.0005233128641
0.0005257657043
0.000528236502
0.0005304930982
0.0005322789654
0.0005333175027
0.0005249048796
0.0005262243335
0.0005280960489
0.0005303720371
0.0005328739086
0.00053539301
0.0005376928493
0.0005395124414
0.0005405704775
0.0005320299583
0.0005333739526
0.0005352799481
0.0005375967953
0.0005401425736
0.000542704878
0.0005450433572
0.0005468930708
0.0005479685281
0.000539317483
0.0005406832753
0.0005426196902
0.0005449727485
0.000547557384
0.0005501578706
0.0005525304622
0.0005544067545
0.00055549759
0.0005467527969
0.0005481376987
0.0005501007505
0.00055248547
0.0005551040245
0.0005577377873
0.0005601400705
0.000562039483
0.0005631437022
0.0005543212537
0.0005557226483
0.0005577086579
0.0005601206167
0.0005627682941
0.0005654305719
0.0005678582583
0.0005697774369
0.0005708931046
0.0005620083366
0.0005634236948
0.0005654291074
0.0005678640356
0.0005705362078
0.0005732224087
0.0005756713641
0.0005776070752
0.000578732325
0.0005697997643
0.000571226656
0.0005732480583
0.0005757018578
0.0005783940854
0.0005810998065
0.0005835660674
0.0005855152112
0.0005866482532
0.0005776815821
0.0005791176869
0.0005811518199
0.0005836205797
0.0005863286274
0.0005890496696
0.0005915294571
0.0005934890774
0.0005946282035
0.000585640241
0.0005870833544
0.0005891271234
0.0005916071306
0.000594326979
0.0005970593582
0.0005995490867
0.000601516378
0.0006026599665
0.0005936626623
0.000595110701
0.0005971611819
0.0005996489291
0.0006023767824
0.0006051167363
0.0006076130198
0.000609585332
0.00061073185
0.0006017362905
0.000603187295
0.000605241738
0.0006077339278
0.0006104662173
0.0006132102093
0.0006157098645
0.0006176847055
0.0006188327102
0.0006098491341
0.0006113012701
0.000613357101
0.0006158506467
0.0006185840324
0.0006213287525
0.0006238287995
0.0006258038351
0.0006269519748
0.0006179897961
0.0006194413536
0.000621496173
0.0006239881978
0.000626719567
0.0006294619297
0.0006319595902
0.0006339326437
0.0006350796563
0.0006261474946
0.0006275968862
0.0006296484671
0.0006321363007
0.0006348627638
0.0006375999049
0.0006400925991
0.000642061648
0.0006432063604
0.0006343120746
0.0006357578327
0.0006378041161
0.0006402852899
0.0006430041755
0.0006457334462
0.0006482187879
0.0006501819604
0.000651323286
0.0006424740121
0.0006439147855
0.0006459538754
0.0006484261161
0.0006511349638
0.0006538539245
0.0006563297145
0.000658285285
0.0006594222212
0.0006506244123
0.0006520589616
0.000654089119
0.0006565503412
0.0006592468938
0.0006619533055
0.0006644175254
0.000666363909
0.0006674955342
0.0006587550012
0.000660182194
0.00066220183
0.0006646501283
0.0006673323229
0.0006700241391
0.000672474943
0.0006744106895
0.0006755361599
0.0006668581132
0.0006682769191
0.0006702845875
0.0006727182276
0.0006753841865
0.0006780595438
0.0006804952504
0.0006824190382
0.0006835375841
0.0006749266744
0.0006763361593
0.0006783305496
0.0006807479595
0.0006833959802
0.0006860531887
0.0006884722727
0.0006903829022
0.0006914938242
0.0006829541831
0.0006843535041
0.0006863334332
0.0006887331938
0.0006913617394
0.0006939992732
0.0006964003566
0.0006982967434
0.0006993994091
0.0006909346875
0.0006923230871
0.0006942874922
0.0006966683282
0.0006992760173
0.0007018925045
0.0007042743481
0.0007061555165
0.0007072493563
0.0006988627623
0.0007002395632
0.0007021874935
0.0007045482644
0.0007071338614
0.0007097280747
0.0007120895695
0.0007139546457
0.000715039149
0.0007067334833
0.0007080980828
0.0007100286924
0.0007123683835
0.0007149307888
0.0007175016359
0.0007198417946
0.0007216900004
0.0007227647121
0.0007145424014
0.0007158942664
0.0007178068071
0.0007201245207
0.0007226627617
0.0007252092762
0.000727527225
0.0007293578713
0.0007304223879
0.0007222855166
0.0007236241785
0.0007255179928
0.0007278129399
0.0007303261619
0.0007328474944
0.0007351424652
0.0007369549457
0.0007380089122
0.0007299592516
0.0007312843016
0.0007331588158
0.0007354303083
0.0007379177658
0.0007404131755
0.000742684498
0.0007444782837
0.0007455213898
0.0007375604258
0.0007388715102
0.000740726228
0.000742973671
0.0007454347194
0.000747903566
0.000750150661
0.0007519252943
0.0007529572713
0.0007450862304
0.0007463830462
0.0007482175429
0.000750440427
0.000752874515
0.0007553162508
0.0007575386227
0.000759293712
0.0007603143298
0.0007525342028
0.000753816494
0.0007556304105
0.0007578283054
0.0007602349674
0.00076264913
0.0007648463605
0.0007665815751
0.000767590639
0.0007599022031
0.0007611697564
0.0007629627939
0.000765135342
0.0007675141911
0.0007699003966
0.0007720721385
0.0007737872037
0.000774784552
0.0007671883897
0.0007684410313
0.0007702129464
0.0007723598566
0.0007747105784
0.0007770685151
0.0007792144866
0.0007809091795
0.0007818946804
0.0007743911982
0.0007756287901
0.0007773793901
0.0007795004323
0.0007818227787
0.0007841522011
0.0007862721805
0.0007879463254
0.000788919875
0.0007815093197
0.0007827317571
0.0007844608955
0.0007865558953
0.000788849679
0.000791150402
0.0007932442223
0.0007948976869
0.0007958592066
0.0007885416812
0.000789748889
0.0007914564618
0.0007935252959
0.0007957903847
0.0007980622785
0.0008001298229
0.0008017625147
0.0008027119491
0.000795487426
0.0007966793568
0.0007983652984
0.0008004078897
0.0008026442022
0.0008048871875
0.000806928385
0.0008085402475
0.0008094775624
0.0008023458966
0.000803522528
0.0008051868079
0.0008072031216
0.0008094106222
0.0008116246654
0.0008136394867
0.0008152304964
0.000816155677
0.0008091166178
0.0008102779498
0.0008119205693
0.000813910609
0.0008160893038
0.0008182744131
0.0008202628667
0.0008218330302
0.0008227460791
0.0008157992816
0.0008169453344
0.0008185663236
0.0008205301275
0.0008226800605
0.0008248362817
0.0008267984103
0.0008283477613
0.0008292486974
0.0008223937319
0.0008235245444
0.0008251239592
0.0008270615966
0.0008291828455
0.0008313102586
0.0008332461362
0.0008347747332
0.0008356635896
0.0008288999511
0.0008300155783
0.0008315934979
0.0008335050664
0.0008355977401
0.000837696456
0.0008396061846
0.0008411141082
0.0008419909312
0.0008353180467
0.0008364185587
0.0008379750831
0.0008398607059
0.0008419249411
0.0008439950986
0.0008458788054
0.0008473661563
0.000848231004
0.0008416482399
0.0008427337203
0.0008442689689
0.0008461287918
0.0008481647499
0.0008502065126
0.0008520643478
0.0008535312445
0.0008543841855
0.0008478908549
0.0008489613992
0.0008504755079
0.0008523096974
0.0008543175624
0.0008563311162
0.00085816325
0.0008596098276
0.00086045094
0.0008540463082
0.0008551020227
0.0008565951428
0.0008584038834
0.0008603838591
0.0008623694101
0.000864176031
0.0008656024387
0.000866431809
0.0008601150991
0.0008611560998
0.0008626283961
0.0008644118888
0.0008663641967
0.0008683219685
0.0008701032813
0.0008715096812
0.0008723274036
0.0008660978018
0.000867124213
0.0008685758622
0.0008703343224
0.0008722591997
0.000874189432
0.0008759456557
0.0008773322213
0.0008781383967
0.0008719950564
0.00087300701
0.0008744381996
0.0008761718553
0.0008780695534
0.0008799724994
0.0008817038658
0.0008830707807
0.0008838655159
0.0008778075623
0.0008788051969
0.0008802161234
0.000881925214
0.0008837959964
0.0008856719218
0.0008873786738
0.0008887261303
0.0008895095373
0.000883536071
0.0008845195309
0.0008859103991
0.0008875951739
0.0008894393146
0.0008912884958
0.0008929708859
0.0008942990843
0.0008950712795
0.0008891813799
0.0008901508145
0.0008915218363
0.000893182553
0.0008950003355
0.0008968230581
0.0008984813473
0.0008997904943
0.0009005515983
0.000894744327
0.0008956998899
0.0008970512834
0.0008986882069
0.0009004799226
0.0009022764801
0.0009039109368
0.0009052012449
0.0009059513815
0.000900225785
0.0009011676336
0.0009024996218
0.0009041130236
0.0009058789706
0.0009076496633
0.0009092605618
0.0009105322485
0.0009112715444
0.0009056266568
0.0009065549516
0.0009078677621
0.0009094579186
0.0009111984008
0.0009129435348
0.0009145311546
0.0009157844413
0.0009165130255
0.0009109478712
0.0009118627752
0.0009131566391
0.0009147238311
0.0009164391571
0.0009181590428
0.0009197236676
0.0009209587791
0.0009216767827
0.0009161903785
0.0009170920568
0.0009183672081
0.0009199117198
0.0009216022018
0.0009232971536
0.0009248390703
0.0009260562339
0.0009267637895
0.0009213551467
0.000922243766
0.0009235004409
0.0009250225592
0.0009266885122
0.000928358847
0.0009298783452
0.0009310777903
0.0009317750315
0.0009264431582
0.0009273188862
0.0009285573225
0.0009300573363
0.0009316990772
0.0009333451141
0.000934842485
0.0009360244421
0.0009367115035
0.0009314554063
0.0009323184116
0.0009335388479
0.0009350170469
0.0009366348941
0.0009382569531
0.0009397324887
0.0009408971893
0.0009415742058
0.0009363928918
0.0009372433431
0.0009384460187
0.0009399026933
0.0009414969653
0.0009430953667
0.0009445493594
0.000945697035
0.0009463641414
0.0009412566203
0.0009420946864
0.0009432798401
0.0009447152803
0.0009462862952
0.0009478613588
0.0009492941004
0.0009504249819
0.000951082313
0.0009460475986
0.0009468734478
0.0009480413178
0.0009494558124
0.000951003887
0.0009525559313
0.0009539677122
0.0009550820294
0.0009557297191
0.0009507668322
0.0009515806314
0.0009527314544
0.0009541252904
0.0009556507395
0.0009571800805
0.0009585711888
0.0009596691697
0.0009603073509
0.0009554153208
0.0009562172359
0.0009573512463
0.000958724708
0.0009602278429
0.0009617347935
0.000963105514
0.0009641873838
0.0009648161876
0.0009599940556
0.0009607842501
0.0009619016793
0.0009632550473
0.0009647361751
0.0009662210432
0.0009675716564
0.0009686376368
0.0009692571922
0.0009645040143
0.000965282649
0.0009663837245
0.000967717274
0.0009691766961
0.0009706397836
0.0009719705643
0.000973020872
0.0009736313052
0.0009689461558
0.0009697133881
0.0009707983321
0.0009721123319
0.0009735503421
0.0009749919432
0.0009763031584
0.0009773380041
0.0009779394374
0.0009733214145
0.000974077397
0.000975146425
0.0009764411357
0.0009778580181
0.0009792784168
0.000980570324
0.0009815899103
0.0009821824613
0.000977630692
0.0009783755717
0.0009794288907
0.0009807045619
0.0009821005884
0.0009835000558
0.0009847729002
0.0009857774195
0.0009863611997
0.000981874848
0.0009826087641
0.0009836465703
0.000984903438
0.000986278865
0.0009876576557
0.0009889116667
0.0009899012988
0.0009904764118
0.0009860546879
0.0009867777703
0.0009878002461
0.000989038529
0.0009903935929
0.0009917519407
0.0009929873279
0.0009939622357
0.0009945287752
0.0009901709482
0.0009908833147
0.0009918906249
0.0009931105197
0.0009944454318
0.000995783544
0.0009970004918
0.0009979608177
0.0009985188648
0.0009942242777
0.0009949260311
0.0009959183184
0.0009971199941
0.0009984349338
0.0009997529845
0.001000951645
0.001001897505
0.001002447126
0.0009982152154
0.0009989064392
0.0009998838187
0.001001067409
0.001002362516
0.001003660637
0.001004841124
0.001005772601
0.00100631384
0.001002144163
0.001002824917
0.001003787468
0.001004953064
0.001006228428
0.0010075067
0.001008669075
0.001009586212
0.001010119089
0.001006011351
0.001006681665
0.001007629426
0.001008777063
0.001010032712
0.001011291148
0.001012435413
0.001013338201
0.001013862708
0.001009816803
0.00101047667
0.001011409624
0.001012539271
0.001013775157
0.001015013694
0.001016139775
0.001017028143
0.001017544232
0.001013560289
0.001014209657
0.001015127723
0.001016239268
0.00101745525
0.001018673727
0.001019781456
0.001020655259
0.001021162839
0.001017241276
0.00101788004
0.001018783057
0.001019876291
0.001021072117
0.001022270255
0.001023359359
0.00102421836
0.001024717285
0.001020858874
0.001021486863
0.001022374578
0.001023449174
0.00102462446
0.001025801846
0.001026871917
0.001027715777
0.001028205837
0.001024411775
0.001025028743
0.001025900794
0.001026956288
0.001028110497
0.001029266555
0.001030317039
0.001031145292
0.001031626204
0.001027898195
0.001028503807
0.001029359706
0.001030395479
0.001031527894
0.001032661866
0.001033692033
0.001034504075
0.001034975475
0.001031315811
0.001031909635
0.001032748748
0.001033764001
0.001034873707
0.001035984628
0.001036993557
0.001037788627
0.001038250055
0.001034661708
0.001035243198
0.001036064733
0.001037058471
0.001038144331
0.001039231009
0.001040217565
0.001040994732
0.001041445629
0.00103793233
0.00103850082
0.001039303811
0.001040274823
0.001041335461
0.001042396459
0.001043359282
0.001044117431
0.00104455713
0.001041123445
0.001041678141
0.001042461438
0.001043408289
0.001044442078
0.001045475703
0.001046413196
0.001047151024
0.001047578748
0.001044230137
0.001044770111
0.001045532373
0.001046453396
0.001047458454
0.001048462755
0.001049373085
0.001050089104
0.001050503966
0.001047246811
0.001047771003
0.001048510704
0.001049404004
0.001050378198
0.001051350976
0.001052232084
0.001052924628
0.001053325641
0.001050167238
0.001050674463
0.001051389899
0.001052253371
0.001053194341
0.001054133168
0.001054982795
0.00105565004
0.001056036128
0.001052984635
0.001053473597
0.001054162911
0.001054994265
0.001055899458
0.001056801721
0.001057617442
0.001058257445
0.001058627463
0.001055691788
0.001056161102
0.001056822317
0.001057619127
0.001058485846
0.001059348803
0.001060128087
0.001060738826
0.001061091592
0.001058281215
0.001058729442
0.001059360508
0.001060120269
0.001060945748
0.001061766599
0.001062506882
0.001063086322
0.001063420651
0.001060745376
0.001061171063
0.001061769918
0.001062490126
0.001063271615
0.0010640476
0.001064746371
0.001065292537
0.001065607286
0.001063076929
0.001063478657
0.001064043301
0.00106472154
0.001065456413