/*--------------------------------*- C++ -*----------------------------------*\
| =========                 |                                                 |
| \\      /  F ield         | OpenFOAM: The Open Source CFD Toolbox           |
|  \\    /   O peration     | Version:  2212                                  |
|   \\  /    A nd           | Website:  www.openfoam.com                      |
|    \\/     M anipulation  |                                                 |
\*---------------------------------------------------------------------------*/
FoamFile
{
    version     2.0;
    format      ascii;
    arch        "LSB;label=32;scalar=64";
    class       volScalarField;
    location    "20.00000000";
    object      CH4_0;
}
// * * * * * * * * * * * * * * * * * * * * * * * * * * * * * * * * * * * * * //

dimensions      [0 0 0 0 0 0 0];

internalField   nonuniform List<scalar> 
3000
(
0.0004199879352
0.0004199879352
0.0004199879352
0.0004199879352
0.0004199879352
0.0004199879352
0.0004199879352
0.0004199879352
0.0004199879352
0.0004199879352
0.0004199879352
0.0004199879352
0.0004199879352
0.0004199879352
0.0004199879352
0.0004199879352
0.0004199879352
0.0004199879352
0.0004199879352
0.0004199879352
0.0004199879352
0.0004199879352
0.0004199879352
0.0004199879352
0.0004199879352
0.0004199879352
0.0004199879352
0.0004199879352
0.0004199879352
0.0004199879352
0.0004199879352
0.0004199879352
0.0004199879352
0.0004199879352
0.0004199879352
0.0004199879352
0.0004199879352
0.0004199879352
0.0004199879352
0.0004199879352
0.0004199879352
0.0004199879352
0.0004199879352
0.0004199879352
0.0004199879352
0.0004199879352
0.0004199879352
0.0004199879352
0.0004199879352
0.0004199879352
0.0004199879352
0.0004199879352
0.0004199879352
0.0004199879352
0.0004199879352
0.0004199879352
0.0004199879352
0.0004199879352
0.0004199879352
0.0004199879352
0.0004199879352
0.0004199879352
0.0004199879352
0.0004199879352
0.0004199879352
0.0004199879352
0.0004199879352
0.0004199879352
0.0004199879352
0.0004199879352
0.0004199879352
0.0004199879352
0.0004199879352
0.0004199879352
0.0004199879352
0.0004199879352
0.0004199879352
0.0004199879352
0.0004199879352
0.0004199879352
0.0004199879352
0.0004199879352
0.0004199879352
0.0004199879352
0.0004199879352
0.0004199879352
0.0004199879352
0.0004199879352
0.0004199879352
0.0004199879352
0.0004199879352
0.0004199879352
0.0004199879352
0.0004199879352
0.0004199879352
0.0004199879352
0.0004199879352
0.0004199879352
0.0004199879352
0.0004199879352
0.0004199879352
0.0004199879352
0.0004199879352
0.0004199879352
0.0004199879352
0.0004199879352
0.0004199879352
0.0004199879352
0.0004199879352
0.0004199879352
0.0004199879352
0.0004199879352
0.0004199879352
0.0004199879352
0.0004199879352
0.0004199879352
0.0004199879352
0.0004199879352
0.0004199879352
0.0004199879352
0.0004199879352
0.0004199879352
0.0004199879352
0.0004199879352
0.0004199879352
0.0004199879352
0.0004199879352
0.0004199879352
0.0004199879352
0.0004199879352
0.0004199879352
0.0004199879352
0.0004199879352
0.0004199879352
0.0004199879352
0.0004199879352
0.0004199879352
0.0004199879352
0.0004199879352
0.0004199879352
0.0004199879352
0.0004199879352
0.0004199879352
0.0004199879352
0.0004199879352
0.0004199879352
0.0004199879352
0.0004199879352
0.0004199879352
0.0004199879352
0.0004199879352
0.0004199879352
0.0004199879352
0.0004199879352
0.0004199879352
0.0004199879352
0.0004199879352
0.0004199879352
0.0004199879352
0.0004199879352
0.0004199879352
0.0004199879352
0.0004199879352
0.0004199879352
0.0004199879352
0.0004199879352
0.0004199879352
0.0004199879352
0.0004199879352
0.0004199879352
0.0004199879352
0.0004199879352
0.0004199879352
0.0004199879352
0.0004199879352
0.0004199879352
0.0004199879352
0.0004199879352
0.0004199879352
0.0004199879352
0.0004199879352
0.0004199879352
0.0004199879352
0.0004199879352
0.0004199879352
0.0004199879352
0.0004199879352
0.0004199879352
0.0004199879352
0.0004199879352
0.0004199879352
0.0004199879352
0.0004199879352
0.0004199879352
0.0004199879352
0.0004199879352
0.0004199879352
0.0004199879352
0.0004199879352
0.0004199879352
0.0004199879352
0.0004199879352
0.0004199879352
0.0004199879352
0.0004199879352
0.0004199879352
0.0004199879352
0.0004199879352
0.0004199879352
0.0004199879352
0.0004199879352
0.0004199879352
0.0004199879352
0.0004199879352
0.0004199879352
0.0004199879352
0.0004199879352
0.0004199879352
0.0004199879352
0.0004199879352
0.0004199879352
0.0004199879352
0.0004199879352
0.0004199879352
0.0004199879352
0.0004199879352
0.0004199879352
0.0004199879352
0.0004199879352
0.0004199879352
0.0004199879352
0.0004199879352
0.0004199879352
0.0004199879352
0.0004199879352
0.0004199879352
0.0004199879352
0.0004199879352
0.0004199879352
0.0004199879352
0.0004199879352
0.0004199879352
0.0004199879352
0.0004199879352
0.0004199879352
0.0004199879352
0.0004199879352
0.0004199879352
0.0004199879352
0.0004199879352
0.0004199879352
0.0004199879352
0.0004199879352
0.0004199879352
0.0004199879352
0.0004199879352
0.0004199879352
0.0004199879352
0.0004199879352
0.0004199879352
0.0004199879352
0.0004199879352
0.0004199879352
0.0004199879352
0.0004199879352
0.0004199879352
0.0004199879352
0.0004199879352
0.0004199879352
0.0004199879352
0.0004199879352
0.0004199879352
0.0004199879352
0.0004199879352
0.0004199879352
0.0004199879352
0.0004199879352
0.0004199879352
0.0004199879352
0.0004199879352
0.0004199879352
0.0004199879352
0.0004199879352
0.0004199879352
0.0004199879352
0.0004199879352
0.0004199879352
0.0004199879352
0.0004199879352
0.0004199879352
0.0004199879352
0.0004199879352
0.0004199879352
0.0004199879352
0.0004199879352
0.0004199879352
0.0004199879352
0.0004199879352
0.0004199879352
0.0004199879352
0.0004199879352
0.0004199879352
0.0004199879352
0.0004199879352
0.0004199879353
0.0004199879353
0.0004199879352
0.0004199879352
0.0004199879352
0.0004199879352
0.0004199879352
0.0004199879353
0.0004199879353
0.0004199879353
0.0004199879353
0.0004199879352
0.0004199879352
0.0004199879352
0.0004199879353
0.0004199879353
0.0004199879353
0.0004199879353
0.0004199879354
0.0004199879354
0.0004199879352
0.0004199879353
0.0004199879353
0.0004199879353
0.0004199879353
0.0004199879354
0.0004199879354
0.0004199879355
0.0004199879355
0.0004199879353
0.0004199879353
0.0004199879353
0.0004199879354
0.0004199879354
0.0004199879355
0.0004199879356
0.0004199879357
0.0004199879357
0.0004199879353
0.0004199879354
0.0004199879354
0.0004199879355
0.0004199879356
0.0004199879357
0.0004199879359
0.000419987936
0.0004199879361
0.0004199879354
0.0004199879355
0.0004199879356
0.0004199879357
0.0004199879359
0.0004199879361
0.0004199879363
0.0004199879366
0.0004199879367
0.0004199879356
0.0004199879357
0.0004199879358
0.0004199879361
0.0004199879364
0.0004199879367
0.0004199879371
0.0004199879374
0.0004199879376
0.0004199879359
0.000419987936
0.0004199879363
0.0004199879366
0.0004199879371
0.0004199879377
0.0004199879383
0.0004199879388
0.0004199879391
0.0004199879363
0.0004199879366
0.000419987937
0.0004199879376
0.0004199879383
0.0004199879392
0.0004199879401
0.000419987941
0.0004199879415
0.000419987937
0.0004199879375
0.0004199879381
0.0004199879391
0.0004199879403
0.0004199879417
0.0004199879431
0.0004199879444
0.0004199879452
0.0004199879383
0.0004199879389
0.00041998794
0.0004199879415
0.0004199879433
0.0004199879455
0.0004199879478
0.0004199879497
0.000419987951
0.0004199879402
0.0004199879413
0.000419987943
0.0004199879453
0.0004199879482
0.0004199879515
0.000419987955
0.000419987958
0.0004199879598
0.0004199879434
0.0004199879451
0.0004199879477
0.0004199879513
0.0004199879558
0.0004199879609
0.0004199879661
0.0004199879706
0.0004199879733
0.0004199879484
0.0004199879511
0.0004199879551
0.0004199879607
0.0004199879675
0.0004199879752
0.000419987983
0.0004199879897
0.0004199879938
0.0004199879565
0.0004199879605
0.0004199879667
0.0004199879752
0.0004199879855
0.000419987997
0.0004199880087
0.0004199880186
0.0004199880247
0.0004199879691
0.0004199879753
0.0004199879847
0.0004199879974
0.0004199880129
0.0004199880301
0.0004199880472
0.0004199880618
0.0004199880708
0.0004199879888
0.0004199879982
0.0004199880124
0.0004199880314
0.0004199880543
0.0004199880797
0.0004199881049
0.0004199881262
0.0004199881392
0.0004199880194
0.0004199880334
0.0004199880546
0.0004199880827
0.0004199881165
0.0004199881537
0.0004199881905
0.0004199882215
0.0004199882404
0.0004199880665
0.0004199880872
0.0004199881185
0.0004199881598
0.0004199882093
0.0004199882635
0.0004199883168
0.0004199883617
0.0004199883889
0.0004199881381
0.0004199881686
0.0004199882145
0.0004199882748
0.0004199883467
0.0004199884252
0.0004199885022
0.0004199885667
0.0004199886058
0.0004199882464
0.0004199882909
0.0004199883578
0.0004199884452
0.0004199885491
0.000419988662
0.0004199887726
0.0004199888651
0.000419988921
0.0004199884088
0.0004199884732
0.0004199885699
0.0004199886958
0.000419988845
0.0004199890067
0.0004199891645
0.0004199892964
0.000419989376
0.0004199886503
0.0004199887431
0.0004199888818
0.000419989062
0.0004199892748
0.000419989505
0.0004199897291
0.0004199899161
0.0004199900289
0.0004199890068
0.0004199891393
0.0004199893371
0.0004199895933
0.0004199898952
0.0004199902208
0.0004199905371
0.0004199908005
0.0004199909591
0.000419989529
0.000419989717
0.0004199899971
0.0004199903591
0.0004199907845
0.0004199912421
0.0004199916856
0.0004199920542
0.0004199922758
0.0004199902881
0.0004199905532
0.0004199909473
0.0004199914553
0.0004199920507
0.0004199926895
0.0004199933074
0.0004199938197
0.0004199941274
0.0004199913835
0.0004199917547
0.0004199923054
0.0004199930137
0.0004199938415
0.0004199947274
0.0004199955824
0.0004199962904
0.000419996715
0.0004199929524
0.0004199934686
0.0004199942329
0.0004199952135
0.000419996357
0.000419997578
0.0004199987542
0.0004199997268
0.0004200003099
0.000419995182
0.0004199958949
0.0004199969484
0.0004199982974
0.0004199998671
0.0004200015401
0.0004200031493
0.0004200044786
0.0004200052751
0.0004199983259
0.0004199993038
0.0004200007469
0.0004200025912
0.0004200047335
0.0004200070132
0.0004200092033
0.000420011011
0.0004200120937
0.0004200027246
0.0004200040578
0.0004200060225
0.0004200085298
0.0004200114375
0.0004200145278
0.0004200174935
0.0004200199396
0.0004200214041
0.0004200088326
0.0004200106396
0.0004200132994
0.0004200166892
0.0004200206152
0.0004200247827
0.0004200287786
0.0004200320725
0.0004200340441
0.0004200172518
0.0004200196871
0.000420023268
0.0004200278264
0.0004200330997
0.0004200386914
0.0004200440486
0.0004200484621
0.0004200511034
0.000420028772
0.0004200320358
0.0004200368307
0.0004200429278
0.0004200499734
0.0004200574374
0.000420064583
0.0004200704672
0.000420073988
0.00042004442
0.0004200487698
0.0004200551547
0.0004200632656
0.0004200726288
0.0004200825394
0.0004200920206
0.0004200998247
0.0004201044935
0.0004200655173
0.0004200712812
0.0004200797352
0.0004200904645
0.0004201028388
0.0004201159256
0.0004201284373
0.0004201387315
0.000420144889
0.0004200937459
0.0004201013385
0.0004201124664
0.0004201265766
0.0004201428357
0.0004201600172
0.0004201764331
0.0004201899339
0.0004201980078
0.0004201312228
0.0004201411626
0.0004201557202
0.0004201741635
0.0004201953967
0.0004202178166
0.0004202392237
0.0004202568215
0.0004202673429
0.0004201805809
0.0004201935097
0.0004202124314
0.000420236383
0.0004202639334
0.0004202929997
0.0004203207341
0.0004203435217
0.0004203571418
0.0004202450549
0.0004202617574
0.0004202861846
0.0004203170783
0.0004203525814
0.0004203900055
0.0004204256882
0.0004204549892
0.0004204724951
0.0004203285685
0.0004203499927
0.0004203813022
0.0004204208644
0.0004204662855
0.0004205141196
0.00042055969
0.0004205970846
0.0004206194144
0.00042043582
0.0004204630958
0.0004205029265
0.0004205532078
0.0004206108759
0.0004206715457
0.0004207292903
0.0004207766371
0.0004208048916
0.0004205723624
0.0004206068182
0.0004206570934
0.0004207204953
0.0004207931306
0.0004208694612
0.0004209420352
0.0004210014862
0.0004210369371
0.0004207446736
0.0004207878492
0.0004208507939
0.0004209300875
0.00042102082
0.0004211160518
0.0004212064914
0.0004212805
0.0004213245932
0.0004209602127
0.0004210138668
0.0004210920174
0.0004211903536
0.0004213027307
0.0004214205241
0.0004215322469
0.0004216235665
0.0004216779203
0.0004212274587
0.0004212935708
0.0004213897763
0.0004215106835
0.000421648665
0.0004217930912
0.0004219298854
0.0004220415573
0.0004221079533
0.0004215559289
0.0004216366945
0.0004217541067
0.0004219014774
0.0004220694163
0.0004222449339
0.0004224109317
0.000422546261
0.0004226266329
0.000421956174
0.0004220539913
0.0004221960459
0.0004223741097
0.0004225767181
0.0004227881333
0.0004229877706
0.0004231502956
0.0004232467052
0.0004224397468
0.0004225571975
0.0004227275834
0.0004229408661
0.0004231831655
0.0004234355787
0.0004236735462
0.0004238669913
0.0004239816036
0.0004230191447
0.0004231589658
0.0004233615832
0.000423614852
0.000423902112
0.000424200854
0.0004244820306
0.0004247102574
0.0004248453114
0.0004237077187
0.0004238727662
0.0004241116741
0.0004244098757
0.0004247475406
0.0004250980934
0.0004254274774
0.0004256944279
0.0004258522044
0.0004245195486
0.0004247127578
0.0004249921163
0.0004253403004
0.0004257339057
0.0004261418205
0.0004265244529
0.00042683409
0.0004270168762
0.0004254692891
0.0004256936273
0.0004260176311
0.000426420872
0.0004268759578
0.0004273467669
0.0004277876509
0.0004281438936
0.0004283539466
0.0004265719856
0.0004268304046
0.0004272032151
0.0004276665288
0.0004281885486
0.0004287276728
0.0004292316896
0.0004296383476
0.0004298778565
0.0004278428724
0.0004281382589
0.0004285639335
0.0004290921919
0.000429686418
0.0004302990732
0.0004308708976
0.0004313316057
0.0004316026542
0.0004292971515
0.0004296322758
0.0004301146961
0.0004307125402
0.0004313839706
0.000432075075
0.0004327190929
0.0004332372469
0.0004335417771
0.0004309497545
0.00043132722
0.0004318700212
0.0004325417771
0.000433295045
0.000434069131
0.0004347893612
0.0004353680583
0.0004357078363
0.0004328150968
0.0004332372922
0.0004338437962
0.0004345933959
0.0004354326853
0.000436293818
0.000437093841
0.0004377358252
0.0004381124111
0.0004349068315
0.0004353758865
0.0004360490406
0.0004368799502
0.0004378089212
0.0004387606264
0.0004396435218
0.000440351137
0.000440765858
0.0004372376117
0.0004377553576
0.0004384976814
0.0004394128393
0.0004404345632
0.0004414797664
0.0004424480613
0.0004432232127
0.0004436771419
0.0004398188673
0.0004403868051
0.0004412003459
0.0004422021121
0.00044331902
0.0004444599994
0.0004455156282
0.0004463597532
0.0004468536933
0.000442660606
0.0004432798805
0.0004441661799
0.000445256298
0.0004464701436
0.0004477084956
0.0004488527734
0.0004497668222
0.0004503012954
0.0004457712418
0.0004464426248
0.0004474026954
0.0004485822686
0.0004498941045
0.0004512307251
0.0004524643329
0.0004534487596
0.0004540240027
0.0004491574574
0.0004498813378
0.0004509156525
0.000452185132
0.0004535953018
0.0004550303816
0.0004563533651
0.0004574081281
0.0004580240936
0.0004528241024
0.000453600485
0.0004547089762
0.0004560681641
0.0004575763078
0.0004591093408
0.0004605211211
0.0004616456932
0.0004623020553
0.0004567741286
0.0004576026405
0.0004587847107
0.0004602327744
0.0004618378476
0.0004634676531
0.0004649670484
0.000466160435
0.0004668566008
0.0004610085641
0.0004618884678
0.0004631430097
0.0004646785083
0.0004663788129
0.0004681035682
0.0004696888258
0.0004709495908
0.0004716847153
0.0004655265234
0.0004664567364
0.0004677821612
0.0004694030815
0.0004711963072
0.000473013591
0.000474682427
0.0004760087251
0.0004767817297
0.0004703252514
0.0004713043711
0.0004726986449
0.0004744024459
0.0004762857196
0.0004781925626
0.0004799422093
0.0004813318232
0.0004821414174
0.0004754001994
0.0004764265322
0.0004778872172
0.0004796708815
0.0004816408242
0.0004836337667
0.0004854610245
0.0004869114058
0.0004877561105
0.0004807451277
0.0004818167216
0.0004833410224
0.000485201112
0.0004872539003
0.0004893290532
0.0004912303465
0.0004927386593
0.0004936168321
0.0004863522313
0.0004874669106
0.0004890517232
0.0004909844385
0.0004931158692
0.0004952689786
0.0004972404134
0.0004988035794
0.00049971344
0.0004922122844
0.0004933676852
0.0004950096475
0.0004970108884
0.0004992164437
0.000501442956
0.0005034803783
0.0005050951218
0.0005060347779
0.0004983147974
0.0004995084042
0.0005012039466
0.0005032693731
0.0005055442867
0.0005078394127
0.0005099384659
0.0005116013583
0.0005125688307
0.0005046481843
0.0005058773654
0.0005076227608
0.0005097478521
0.0005120871725
0.0005144459503
0.0005166021308
0.0005183096335
0.0005193028809
0.000511199934
0.0005124619756
0.0005142533869
0.0005164334987
0.0005188321503
0.0005212495047
0.0005234582146
0.0005252067195
0.0005262236611
0.0005179567818
0.0005192489209
0.0005210824466
0.0005233128643
0.0005257657045
0.0005282365023
0.0005304930986
0.0005322789657
0.000533317503
0.0005249048797
0.0005262243337
0.0005280960491
0.0005303720373
0.0005328739088
0.0005353930102
0.0005376928496
0.0005395124418
0.0005405704778
0.0005320299584
0.0005333739527
0.0005352799483
0.0005375967955
0.0005401425738
0.0005427048783
0.0005450433576
0.0005468930712
0.0005479685283
0.0005393174831
0.0005406832755
0.0005426196904
0.0005449727487
0.0005475573842
0.0005501578709
0.0005525304626
0.0005544067548
0.0005554975903
0.000546752797
0.0005481376988
0.0005501007507
0.0005524854702
0.0005551040247
0.0005577377876
0.0005601400708
0.0005620394833
0.0005631437024
0.0005543212538
0.0005557226485
0.0005577086581
0.0005601206169
0.0005627682943
0.0005654305722
0.0005678582587
0.0005697774373
0.0005708931049
0.0005620083367
0.0005634236949
0.0005654291076
0.0005678640358
0.000570536208
0.000573222409
0.0005756713644
0.0005776070756
0.0005787323253
0.0005697997644
0.0005712266562
0.0005732480585
0.0005757018581
0.0005783940856
0.0005810998068
0.0005835660678
0.0005855152116
0.0005866482535
0.0005776815822
0.0005791176871
0.0005811518201
0.0005836205799
0.0005863286276
0.0005890496699
0.0005915294575
0.0005934890778
0.0005946282039
0.0005856402411
0.0005870833546
0.0005891271236
0.0005916071308
0.0005943269793
0.0005970593585
0.0005995490871
0.0006015163784
0.0006026599668
0.0005936626625
0.0005951107012
0.0005971611821
0.0005996489294
0.0006023767826
0.0006051167366
0.0006076130202
0.0006095853324
0.0006107318503
0.0006017362906
0.0006031872952
0.0006052417382
0.000607733928
0.0006104662175
0.0006132102096
0.0006157098649
0.0006176847059
0.0006188327106
0.0006098491342
0.0006113012703
0.0006133571012
0.0006158506469
0.0006185840327
0.0006213287528
0.0006238287998
0.0006258038356
0.0006269519751
0.0006179897963
0.0006194413538
0.0006214961733
0.000623988198
0.0006267195673
0.00062946193
0.0006319595906
0.0006339326441
0.0006350796567
0.0006261474948
0.0006275968864
0.0006296484673
0.0006321363009
0.0006348627641
0.0006375999052
0.0006400925995
0.0006420616484
0.0006432063607
0.0006343120747
0.0006357578329
0.0006378041163
0.0006402852901
0.0006430041757
0.0006457334466
0.0006482187883
0.0006501819608
0.0006513232863
0.0006424740122
0.0006439147857
0.0006459538757
0.0006484261164
0.0006511349641
0.0006538539248
0.0006563297149
0.0006582852854
0.0006594222216
0.0006506244124
0.0006520589618
0.0006540891192
0.0006565503414
0.000659246894
0.0006619533058
0.0006644175258
0.0006663639094
0.0006674955345
0.0006587550013
0.0006601821942
0.0006622018302
0.0006646501285
0.0006673323231
0.0006700241394
0.0006724749434
0.00067441069
0.0006755361603
0.0006668581133
0.0006682769193
0.0006702845877
0.0006727182279
0.0006753841868
0.0006780595441
0.0006804952507
0.0006824190386
0.0006835375844
0.0006749266745
0.0006763361595
0.0006783305498
0.0006807479597
0.0006833959805
0.000686053189
0.000688472273
0.0006903829026
0.0006914938245
0.0006829541832
0.0006843535042
0.0006863334335
0.0006887331941
0.0006913617397
0.0006939992735
0.0006964003569
0.0006982967438
0.0006993994094
0.0006909346876
0.0006923230873
0.0006942874924
0.0006966683285
0.0006992760176
0.0007018925048
0.0007042743485
0.0007061555169
0.0007072493566
0.0006988627624
0.0007002395634
0.0007021874937
0.0007045482647
0.0007071338616
0.000709728075
0.0007120895699
0.0007139546461
0.0007150391493
0.0007067334834
0.000708098083
0.0007100286926
0.0007123683837
0.000714930789
0.0007175016362
0.000719841795
0.0007216900008
0.0007227647124
0.0007145424015
0.0007158942666
0.0007178068073
0.0007201245209
0.0007226627619
0.0007252092765
0.0007275272254
0.0007293578717
0.0007304223882
0.0007222855167
0.0007236241787
0.000725517993
0.0007278129401
0.0007303261621
0.0007328474947
0.0007351424655
0.0007369549461
0.0007380089125
0.0007299592517
0.0007312843018
0.000733158816
0.0007354303085
0.000737917766
0.0007404131758
0.0007426844984
0.0007444782841
0.0007455213901
0.0007375604259
0.0007388715104
0.0007407262282
0.0007429736712
0.0007454347197
0.0007479035663
0.0007501506613
0.0007519252947
0.0007529572716
0.0007450862305
0.0007463830464
0.0007482175431
0.0007504404272
0.0007528745152
0.0007553162511
0.000757538623
0.0007592937124
0.0007603143301
0.0007525342029
0.0007538164942
0.0007556304107
0.0007578283057
0.0007602349677
0.0007626491303
0.0007648463608
0.0007665815754
0.0007675906393
0.0007599022032
0.0007611697566
0.0007629627941
0.0007651353422
0.0007675141914
0.0007699003969
0.0007720721389
0.0007737872041
0.0007747845523
0.0007671883898
0.0007684410314
0.0007702129466
0.0007723598568
0.0007747105786
0.0007770685154
0.000779214487
0.0007809091799
0.0007818946807
0.0007743911983
0.0007756287903
0.0007773793903
0.0007795004325
0.000781822779
0.0007841522014
0.0007862721808
0.0007879463257
0.0007889198752
0.0007815093199
0.0007827317572
0.0007844608957
0.0007865558956
0.0007888496792
0.0007911504022
0.0007932442226
0.0007948976873
0.0007958592069
0.0007885416813
0.0007897488892
0.000791456462
0.0007935252961
0.0007957903849
0.0007980622788
0.0008001298233
0.0008017625151
0.0008027119493
0.0007954874261
0.000796679357
0.0007983652986
0.0008004078899
0.0008026442025
0.0008048871878
0.0008069283854
0.0008085402479
0.0008094775627
0.0008023458967
0.0008035225282
0.0008051868081
0.0008072031218
0.0008094106224
0.0008116246656
0.000813639487
0.0008152304968
0.0008161556773
0.0008091166179
0.00081027795
0.0008119205695
0.0008139106092
0.000816089304
0.0008182744134
0.000820262867
0.0008218330306
0.0008227460794
0.0008157992817
0.0008169453346
0.0008185663238
0.0008205301277
0.0008226800607
0.0008248362819
0.0008267984106
0.0008283477617
0.0008292486977
0.000822393732
0.0008235245446
0.0008251239594
0.0008270615968
0.0008291828457
0.0008313102589
0.0008332461365
0.0008347747335
0.0008356635899
0.0008288999512
0.0008300155785
0.0008315934981
0.0008335050666
0.0008355977403
0.0008376964563
0.000839606185
0.0008411141085
0.0008419909315
0.0008353180468
0.0008364185589
0.0008379750833
0.0008398607061
0.0008419249413
0.0008439950988
0.0008458788058
0.0008473661566
0.0008482310043
0.00084164824
0.0008427337205
0.0008442689691
0.000846128792
0.0008481647502
0.0008502065129
0.0008520643481
0.0008535312449
0.0008543841858
0.000847890855
0.0008489613994
0.0008504755081
0.0008523096976
0.0008543175626
0.0008563311165
0.0008581632504
0.000859609828
0.0008604509402
0.0008540463083
0.0008551020229
0.000856595143
0.0008584038836
0.0008603838593
0.0008623694103
0.0008641760314
0.000865602439
0.0008664318093
0.0008601150992
0.0008611561
0.0008626283963
0.000864411889
0.0008663641969
0.0008683219688
0.0008701032817
0.0008715096815
0.0008723274039
0.0008660978019
0.0008671242131
0.0008685758624
0.0008703343226
0.0008722591999
0.0008741894322
0.000875945656
0.0008773322216
0.0008781383969
0.0008719950565
0.0008730070102
0.0008744381998
0.0008761718555
0.0008780695536
0.0008799724997
0.0008817038661
0.000883070781
0.0008838655161
0.0008778075624
0.0008788051971
0.0008802161235
0.0008819252142
0.0008837959966
0.0008856719221
0.0008873786741
0.0008887261306
0.0008895095375
0.0008835360711
0.000884519531
0.0008859103993
0.000887595174
0.0008894393148
0.000891288496
0.0008929708862
0.0008942990846
0.0008950712797
0.00088918138
0.0008901508147
0.0008915218365
0.0008931825532
0.0008950003357
0.0008968230583
0.0008984813476
0.0008997904946
0.0009005515986
0.0008947443271
0.0008956998901
0.0008970512835
0.0008986882071
0.0009004799228
0.0009022764803
0.0009039109371
0.0009052012452
0.0009059513817
0.0009002257851
0.0009011676337
0.000902499622
0.0009041130237
0.0009058789708
0.0009076496636
0.0009092605621
0.0009105322488
0.0009112715446
0.0009056266569
0.0009065549518
0.0009078677623
0.0009094579187
0.000911198401
0.000912943535
0.0009145311549
0.0009157844416
0.0009165130257
0.0009109478713
0.0009118627754
0.0009131566393
0.0009147238313
0.0009164391573
0.0009181590431
0.0009197236679
0.0009209587794
0.0009216767829
0.0009161903786
0.0009170920569
0.0009183672083
0.00091991172
0.000921602202
0.0009232971538
0.0009248390706
0.0009260562342
0.0009267637897
0.0009213551468
0.0009222437661
0.000923500441
0.0009250225594
0.0009266885124
0.0009283588473
0.0009298783455
0.0009310777906
0.0009317750318
0.0009264431583
0.0009273188864
0.0009285573227
0.0009300573364
0.0009316990774
0.0009333451144
0.0009348424852
0.0009360244424
0.0009367115037
0.0009314554064
0.0009323184117
0.0009335388481
0.0009350170471
0.0009366348943
0.0009382569533
0.000939732489
0.0009408971896
0.000941574206
0.0009363928919
0.0009372433433
0.0009384460189
0.0009399026935
0.0009414969655
0.0009430953669
0.0009445493597
0.0009456970353
0.0009463641417
0.0009412566204
0.0009420946866
0.0009432798403
0.0009447152805
0.0009462862954
0.0009478613591
0.0009492941007
0.0009504249822
0.0009510823133
0.0009460475988
0.0009468734479
0.000948041318
0.0009494558126
0.0009510038872
0.0009525559315
0.0009539677125
0.0009550820297
0.0009557297194
0.0009507668323
0.0009515806316
0.0009527314546
0.0009541252906
0.0009556507397
0.0009571800808
0.0009585711891
0.00095966917
0.0009603073511
0.0009554153209
0.0009562172361
0.0009573512464
0.0009587247082
0.0009602278431
0.0009617347937
0.0009631055143
0.0009641873841
0.0009648161878
0.0009599940558
0.0009607842503
0.0009619016795
0.0009632550475
0.0009647361753
0.0009662210434
0.0009675716567
0.0009686376371
0.0009692571925
0.0009645040144
0.0009652826492
0.0009663837247
0.0009677172742
0.0009691766963
0.0009706397838
0.0009719705646
0.0009730208723
0.0009736313054
0.0009689461559
0.0009697133883
0.0009707983322
0.0009721123321
0.0009735503423
0.0009749919434
0.0009763031587
0.0009773380043
0.0009779394376
0.0009733214146
0.0009740773972
0.0009751464252
0.0009764411359
0.0009778580183
0.000979278417
0.0009805703243
0.0009815899106
0.0009821824616
0.0009776306921
0.0009783755718
0.0009794288909
0.000980704562
0.0009821005886
0.000983500056
0.0009847729004
0.0009857774198
0.0009863612
0.0009818748481
0.0009826087642
0.0009836465705
0.0009849034382
0.0009862788652
0.0009876576559
0.000988911667
0.000989901299
0.000990476412
0.000986054688
0.0009867777705
0.0009878002462
0.0009890385292
0.000990393593
0.0009917519409
0.0009929873281
0.000993962236
0.0009945287754
0.0009901709482
0.0009908833149
0.0009918906251
0.0009931105199
0.0009944454319
0.0009957835442
0.0009970004921
0.000997960818
0.000998518865
0.0009942242778
0.0009949260312
0.0009959183186
0.0009971199942
0.000998434934
0.0009997529847
0.001000951646
0.001001897506
0.001002447126
0.0009982152155
0.0009989064393
0.0009998838188
0.001001067409
0.001002362516
0.001003660638
0.001004841124
0.001005772602
0.00100631384
0.001002144163
0.001002824917
0.001003787469
0.001004953064
0.001006228428
0.0010075067
0.001008669075
0.001009586212
0.00101011909
0.001006011351
0.001006681665
0.001007629426
0.001008777063
0.001010032712
0.001011291149
0.001012435414
0.001013338201
0.001013862709
0.001009816803
0.00101047667
0.001011409624
0.001012539271
0.001013775157
0.001015013694
0.001016139775
0.001017028143
0.001017544233
0.001013560289
0.001014209657
0.001015127723
0.001016239268
0.00101745525
0.001018673727
0.001019781457
0.001020655259
0.001021162839
0.001017241277
0.00101788004
0.001018783057
0.001019876291
0.001021072117
0.001022270256
0.001023359359
0.001024218361
0.001024717285
0.001020858874
0.001021486863
0.001022374579
0.001023449174
0.00102462446
0.001025801846
0.001026871918
0.001027715777
0.001028205837
0.001024411775
0.001025028743
0.001025900795
0.001026956288
0.001028110497
0.001029266556
0.001030317039
0.001031145292
0.001031626204
0.001027898195
0.001028503808
0.001029359706
0.001030395479
0.001031527894
0.001032661866
0.001033692033
0.001034504075
0.001034975475
0.001031315811
0.001031909635
0.001032748748
0.001033764001
0.001034873707
0.001035984629
0.001036993557
0.001037788627
0.001038250055
0.001034661708
0.001035243199
0.001036064733
0.001037058471
0.001038144331
0.001039231009
0.001040217565
0.001040994732
0.001041445629
0.00103793233
0.00103850082
0.001039303811
0.001040274823
0.001041335462
0.001042396459
0.001043359282
0.001044117431
0.00104455713
0.001041123445
0.001041678141
0.001042461438
0.001043408289
0.001044442078
0.001045475703
0.001046413196
0.001047151025
0.001047578748
0.001044230137
0.001044770111
0.001045532373
0.001046453396
0.001047458454
0.001048462755
0.001049373085
0.001050089104
0.001050503967
0.001047246811
0.001047771003
0.001048510704
0.001049404004
0.001050378198
0.001051350976
0.001052232085
0.001052924628
0.001053325641
0.001050167238
0.001050674463
0.001051389899
0.001052253371
0.001053194341
0.001054133168
0.001054982795
0.00105565004
0.001056036128
0.001052984636
0.001053473597
0.001054162911
0.001054994265
0.001055899458
0.001056801722
0.001057617442
0.001058257445
0.001058627464
0.001055691788
0.001056161102
0.001056822317
0.001057619127
0.001058485846
0.001059348803
0.001060128087
0.001060738826
0.001061091593
0.001058281215
0.001058729442
0.001059360508
0.001060120269
0.001060945748
0.001061766599
0.001062506882
0.001063086322
0.001063420651
0.001060745376
0.001061171063
0.001061769918
0.001062490126
0.001063271615
0.0010640476
0.001064746371
0.001065292537
0.001065607286
0.001063076929
0.001063478657
0.001064043301
0.001064721541