/*--------------------------------*- C++ -*----------------------------------*\
| =========                 |                                                 |
| \\      /  F ield         | OpenFOAM: The Open Source CFD Toolbox           |
|  \\    /   O peration     | Version:  2212                                  |
|   \\  /    A nd           | Website:  www.openfoam.com                      |
|    \\/     M anipulation  |                                                 |
\*---------------------------------------------------------------------------*/
FoamFile
{
    version     2.0;
    format      ascii;
    arch        "LSB;label=32;scalar=64";
    class       volScalarField;
    location    "20.00000000";
    object      H2;
}
// * * * * * * * * * * * * * * * * * * * * * * * * * * * * * * * * * * * * * //

dimensions      [0 0 0 0 0 0 0];

internalField   nonuniform List<scalar> 
3000
(
3.998126586e-22
4.491379485e-22
5.235695704e-22
6.227565197e-22
7.456908543e-22
8.890345021e-22
1.044151861e-21
1.192164206e-21
1.296828467e-21
1.501072629e-21
1.693062186e-21
1.982649278e-21
2.369407895e-21
2.852955437e-21
3.430612076e-21
4.092350902e-21
4.804765594e-21
5.435849883e-21
3.3623183e-21
3.82213607e-21
4.522321762e-21
5.473017648e-21
6.691323066e-21
8.194913456e-21
9.977872512e-21
1.194009795e-20
1.361714591e-20
6.404346108e-21
7.356445822e-21
8.827507051e-21
1.086730879e-20
1.354812116e-20
1.693806719e-20
2.101865219e-20
2.546320725e-20
2.905062203e-20
1.137249405e-20
1.322351204e-20
1.612848867e-20
2.023499472e-20
2.573618662e-20
3.278625853e-20
4.126744683e-20
5.027417137e-20
5.718811178e-20
1.955599609e-20
2.303017785e-20
2.856072005e-20
3.650059656e-20
4.727337343e-20
6.115014258e-20
7.771647492e-20
9.488323511e-20
1.075838216e-19
3.319953848e-20
3.958146454e-20
4.98592836e-20
6.478124522e-20
8.517838761e-20
1.114563139e-19
1.425282532e-19
1.740982523e-19
1.968782346e-19
5.618599533e-20
6.773625172e-20
8.650306849e-20
1.139610332e-19
1.516419389e-19
2.000886649e-19
2.568708965e-19
3.137236991e-19
3.540628883e-19
9.524365492e-20
1.159271462e-19
1.497512736e-19
1.994909532e-19
2.678712999e-19
3.55550375e-19
4.575756165e-19
5.586651686e-19
6.29600244e-19
1.620235342e-19
1.987710186e-19
2.59140508e-19
3.482039234e-19
4.707211663e-19
6.274047749e-19
8.087153661e-19
9.870457856e-19
1.111250834e-18
2.767142505e-19
3.416179115e-19
4.485824637e-19
6.067082263e-19
8.242369821e-19
1.101805064e-18
1.421675365e-18
1.734674874e-18
1.951581366e-18
4.743052069e-19
5.884307327e-19
7.76928427e-19
1.055937198e-18
1.439680385e-18
1.928459834e-18
2.490027486e-18
3.037555076e-18
3.41567963e-18
8.154598343e-19
1.015471655e-18
1.346324207e-18
1.836427113e-18
2.510305559e-18
3.367427754e-18
4.35001051e-18
5.30560344e-18
5.963989756e-18
1.405383747e-18
1.755055076e-18
2.334073675e-18
3.192211444e-18
4.371760442e-18
5.870394819e-18
7.585552528e-18
9.250622266e-18
1.03960984e-17
2.426576848e-18
3.036792032e-18
4.047987734e-18
5.547107876e-18
7.607142027e-18
1.022217889e-17
1.321128315e-17
1.610942074e-17
1.810164794e-17
4.195678175e-18
5.259186301e-18
7.022508118e-18
9.637351308e-18
1.323007477e-17
1.778831375e-17
2.299427506e-17
2.80370658e-17
3.150164572e-17
7.262109152e-18
9.113856243e-18
1.218542193e-17
1.674147098e-17
2.300174824e-17
3.094373154e-17
4.001242619e-17
4.879153635e-17
5.481046674e-17
1.257926807e-17
1.580101209e-17
2.114658742e-17
2.907667688e-17
3.99719918e-17
5.378934778e-17
6.955786725e-17
8.481208432e-17
9.526625586e-17
2.180189466e-17
2.74040567e-17
3.670105063e-17
5.049381365e-17
6.944159189e-17
9.346360066e-17
1.208658853e-16
1.473629203e-16
1.655172177e-16
3.780240832e-17
4.753993595e-17
6.370185254e-17
8.767995232e-17
1.206164147e-16
1.623637171e-16
2.099707182e-16
2.559898658e-16
2.875105043e-16
6.556740449e-17
8.248825685e-17
1.105751257e-16
1.522455235e-16
2.094787094e-16
2.820084143e-16
3.646971922e-16
4.446056347e-16
4.993272789e-16
1.137540853e-16
1.431515831e-16
1.919504308e-16
2.6434772e-16
3.637723154e-16
4.897455927e-16
6.333283426e-16
7.720471214e-16
8.670222876e-16
1.973920032e-16
2.484582346e-16
3.332262578e-16
4.589783696e-16
6.316506938e-16
8.50382134e-16
1.099621812e-15
1.340349427e-15
1.505123234e-15
3.425707945e-16
4.312658501e-16
5.784890606e-16
7.968668086e-16
1.096665832e-15
1.476330753e-15
1.908809455e-15
2.326374879e-15
2.612101893e-15
5.945712459e-16
7.486010571e-16
1.004246042e-15
1.383378561e-15
1.90372975e-15
2.562469986e-15
3.312534242e-15
4.036418309e-15
4.531551856e-15
1.031956839e-15
1.299403133e-15
1.743213439e-15
2.401231216e-15
3.304015346e-15
4.446365687e-15
5.746381186e-15
7.000306066e-15
7.857530407e-15
1.790965038e-15
2.255229068e-15
3.025459988e-15
4.167032e-15
5.732465838e-15
7.712082555e-15
9.963309063e-15
1.213307556e-14
1.361533927e-14
3.107666451e-15
3.913308571e-15
5.249450304e-15
7.228794183e-15
9.941273661e-15
1.336861411e-14
1.726250845e-14
2.101172624e-14
2.357052579e-14
5.390689747e-15
6.788017406e-15
9.104415751e-15
1.253366402e-14
1.72290167e-14
2.315545405e-14
2.988030194e-14
3.634672629e-14
4.075437581e-14
9.346366834e-15
1.17681677e-14
1.578050256e-14
2.171541522e-14
2.983243852e-14
4.006351478e-14
5.165436405e-14
6.278071922e-14
7.035211197e-14
1.619343706e-14
2.038657653e-14
2.732831088e-14
3.758513012e-14
5.159305045e-14
6.921821674e-14
8.914531047e-14
1.082322011e-13
1.211932184e-13
2.80300899e-14
3.528022934e-14
4.727125705e-14
6.496436376e-14
8.90846809e-14
1.193666136e-13
1.535165917e-13
1.861378288e-13
2.082309327e-13
4.845882412e-14
6.097213395e-14
8.164299818e-14
1.12091246e-13
1.535075554e-13
2.05362315e-13
2.636584423e-13
3.191598904e-13
3.566277958e-13
8.364515089e-14
1.051926133e-13
1.407341599e-13
1.929768414e-13
2.638447292e-13
3.5228092e-13
4.513289501e-13
5.452531177e-13
6.084157643e-13
1.441017299e-13
1.810986168e-13
2.420127643e-13
3.313224728e-13
4.520750173e-13
6.021683247e-13
7.695241762e-13
9.274804249e-13
1.033227849e-12
2.47677056e-13
3.109760315e-13
4.149688621e-13
5.669742078e-13
7.716968531e-13
1.024986317e-12
1.305947899e-12
1.56970331e-12
1.745379195e-12
4.245290573e-13
5.323697051e-13
7.090821316e-13
9.664544267e-13
1.311516085e-12
1.736160008e-12
2.20442357e-12
2.641349217e-12
2.930712276e-12
7.253426009e-13
9.081504044e-13
1.206803702e-12
1.639966512e-12
2.21769388e-12
2.924367458e-12
3.698504053e-12
4.416011048e-12
4.888254591e-12
1.234801428e-12
1.542902305e-12
2.044498032e-12
2.768549293e-12
3.72858516e-12
4.895003901e-12
6.163562851e-12
7.330849511e-12
8.094062088e-12
2.093490036e-12
2.609350625e-12
3.445873862e-12
4.646946066e-12
6.229124092e-12
8.137320981e-12
1.019653329e-11
1.207690445e-11
1.329790635e-11
3.533182345e-12
4.390562044e-12
5.774777181e-12
7.750500836e-12
1.033470659e-11
1.342688795e-11
1.673653108e-11
1.973483425e-11
2.166808181e-11
5.933158173e-12
7.346641048e-12
9.617643958e-12
1.283834785e-11
1.701905945e-11
2.198016562e-11
2.724531151e-11
3.197678951e-11
3.500607961e-11
9.909172031e-12
1.221902584e-11
1.591085389e-11
2.111079373e-11
2.78069948e-11
3.568520571e-11
4.397451461e-11
5.136377651e-11
5.606191329e-11
1.645251955e-11
2.019181746e-11
2.613528437e-11
3.444675439e-11
4.506194751e-11
5.744259046e-11
7.035782042e-11
8.177992145e-11
8.899347073e-11
2.714502388e-11
3.313860647e-11
4.261034271e-11
5.575828884e-11
7.241077252e-11
9.166480856e-11
1.115816761e-10
1.290617974e-10
1.400307457e-10
4.448764877e-11
5.399599609e-11
6.893374285e-11
8.951487444e-11
1.153657804e-10
1.450018153e-10
1.754097954e-10
2.019041654e-10
2.184299841e-10
7.239709013e-11
8.732279168e-11
1.10632747e-10
1.425117112e-10
1.82228221e-10
2.273875459e-10
2.733663591e-10
3.131554545e-10
3.378361139e-10
1.169477517e-10
1.401284011e-10
1.761194492e-10
2.249861733e-10
2.853907662e-10
3.535392809e-10
4.224236547e-10
4.816601919e-10
5.182175927e-10
1.874681431e-10
2.230876866e-10
2.780794671e-10
3.522273288e-10
4.432020838e-10
5.450924383e-10
6.473956192e-10
7.348655738e-10
7.886003254e-10
2.98143792e-10
3.523053665e-10
4.354734172e-10
5.468788029e-10
6.826182201e-10
8.336218482e-10
9.84314083e-10
1.11249088e-09
1.190912279e-09
4.703368793e-10
5.518549466e-10
6.763978809e-10
8.422094677e-10
1.042947644e-09
1.264891483e-09
1.485164635e-09
1.671666259e-09
1.785365462e-09
7.359106093e-10
8.57400161e-10
1.042142704e-09
1.286725415e-09
1.581104846e-09
1.904792794e-09
2.224489758e-09
2.49409066e-09
2.657951803e-09
1.141949261e-09
1.321317365e-09
1.592891139e-09
1.950600181e-09
2.378905301e-09
2.847577643e-09
3.308535934e-09
3.695947459e-09
3.930823098e-09
1.757276369e-09
2.019729282e-09
2.415551305e-09
2.93455665e-09
3.55315469e-09
4.227222565e-09
4.887843754e-09
5.441518548e-09
5.776534183e-09
2.681608725e-09
3.062384151e-09
3.634678096e-09
4.382093182e-09
5.269402404e-09
6.232829248e-09
7.174263395e-09
7.961562213e-09
8.437262479e-09
4.058113384e-09
4.606134006e-09
5.427309467e-09
6.496058565e-09
7.76053008e-09
9.129354642e-09
1.046373853e-08
1.157778683e-08
1.225028631e-08
6.090492556e-09
6.873219272e-09
8.043010658e-09
9.560926805e-09
1.135159006e-08
1.328513371e-08
1.516633725e-08
1.673485915e-08
1.768110398e-08
9.066013196e-09
1.017583118e-08
1.183067415e-08
1.397241199e-08
1.649261584e-08
1.920797592e-08
2.184535253e-08
2.404183962e-08
2.536620193e-08
1.338622079e-08
1.494874285e-08
1.727392992e-08
2.02763382e-08
2.380136878e-08
2.75918653e-08
3.126768021e-08
3.432564545e-08
3.616852183e-08
1.960736235e-08
2.179204965e-08
2.503721208e-08
2.921879916e-08
3.411805913e-08
3.937642538e-08
4.446798975e-08
4.869949344e-08
5.124874425e-08
2.849263634e-08
3.152609119e-08
3.602449e-08
4.180957972e-08
4.857412099e-08
5.582157076e-08
6.282945066e-08
6.864890657e-08
7.215442104e-08
4.10781501e-08
4.526038685e-08
5.145250883e-08
5.940088678e-08
6.86775439e-08
7.860025055e-08
8.818368299e-08
9.613725344e-08
1.009285815e-07
5.875418335e-08
6.447834972e-08
7.294068324e-08
8.37841048e-08
9.641784675e-08
1.099119719e-07
1.22931774e-07
1.337323453e-07
1.402394626e-07
8.336400483e-08
9.114045689e-08
1.026207995e-07
1.17307795e-07
1.343931398e-07
1.526184455e-07
1.701872833e-07
1.847550885e-07
1.935323741e-07
1.173239256e-07
1.278094916e-07
1.432695515e-07
1.630186992e-07
1.859597525e-07
2.104013792e-07
2.339412757e-07
2.534501275e-07
2.652035117e-07
1.637672719e-07
1.777995029e-07
1.984641523e-07
2.248248764e-07
2.554032345e-07
2.879411707e-07
3.192478791e-07
3.451766509e-07
3.607936425e-07
2.26710841e-07
2.453463348e-07
2.727583998e-07
3.076782768e-07
3.481278373e-07
3.911131589e-07
4.32426433e-07
4.666148876e-07
4.871969374e-07
3.112395079e-07
3.35795401e-07
3.718747831e-07
4.177718633e-07
4.708589511e-07
5.271949659e-07
5.812728237e-07
6.259802288e-07
6.528764911e-07
4.237029649e-07
4.558002837e-07
5.029055703e-07
5.627434358e-07
6.318492757e-07
7.05074362e-07
7.752682809e-07
8.332322765e-07
8.680732474e-07
5.719156985e-07
6.13522742e-07
6.745124315e-07
7.518740565e-07
8.410751057e-07
9.354424673e-07
1.02576889e-06
1.100260771e-06
1.144989487e-06
7.653480495e-07
8.188208443e-07
8.971098792e-07
9.962649156e-07
1.110404793e-06
1.230952445e-06
1.346154132e-06
1.441025154e-06
1.497922693e-06
1.015292217e-06
1.083408315e-06
1.183014447e-06
1.308972945e-06
1.453717864e-06
1.606320224e-06
1.751909126e-06
1.871620925e-06
1.943322061e-06
1.334984807e-06
1.420965917e-06
1.546539301e-06
1.705083536e-06
1.886951651e-06
2.078342617e-06
2.260614601e-06
2.410245793e-06
2.49974009e-06
1.73966668e-06
1.847185151e-06
2.004014005e-06
2.201699428e-06
2.428053966e-06
2.665810985e-06
2.891822623e-06
3.077043754e-06
3.187657584e-06
2.246562379e-06
2.379726742e-06
2.573712181e-06
2.81782919e-06
3.096826251e-06
3.389306357e-06
3.666805785e-06
3.8938166e-06
4.029172781e-06
2.874765891e-06
3.038081583e-06
3.275676417e-06
3.574166931e-06
3.914651991e-06
4.270874619e-06
4.60818265e-06
4.883609502e-06
5.047563848e-06
3.645026757e-06
3.843330129e-06
4.13143937e-06
4.492766375e-06
4.904118743e-06
5.333596183e-06
5.739440221e-06
6.070197223e-06
6.266755005e-06
4.579440088e-06
4.817806534e-06
5.163651548e-06
5.596625256e-06
6.088556355e-06
6.601080058e-06
7.084390752e-06
7.477514246e-06
7.710731452e-06
5.70105439e-06
5.984684567e-06
6.3956374e-06
6.909207435e-06
7.49152529e-06
8.096923269e-06
8.666611229e-06
9.129086065e-06
9.402982836e-06
7.033420529e-06
7.367511591e-06
7.850909932e-06
8.453937389e-06
9.136293554e-06
9.844175948e-06
1.050890423e-05
1.104750688e-05
1.136599776e-05
8.600111914e-06
8.98972276e-06
9.552678525e-06
1.025370404e-05
1.104533975e-05
1.186484574e-05
1.263281125e-05
1.325391306e-05
1.362055382e-05
1.042424858e-05
1.087416878e-05
1.152338312e-05
1.23304042e-05
1.323991814e-05
1.417949594e-05
1.505819445e-05
1.576744113e-05
1.618540685e-05
1.252805469e-05
1.304268225e-05
1.378428394e-05
1.470457232e-05
1.573972383e-05
1.680687527e-05
1.780276074e-05
1.860503318e-05
1.907704958e-05
1.493247506e-05
1.551572624e-05
1.635513612e-05
1.739508163e-05
1.856251534e-05
1.97634938e-05
2.088195314e-05
2.178127925e-05
2.230957687e-05
1.765688203e-05
1.831211775e-05
1.925391256e-05
2.041870133e-05
2.172374964e-05
2.30635622e-05
2.430883853e-05
2.530834201e-05
2.589463123e-05
2.071868802e-05
2.14485051e-05
2.249618692e-05
2.378982196e-05
2.523653719e-05
2.671889724e-05
2.809405575e-05
2.919593705e-05
2.984140094e-05
2.413275527e-05
2.49390535e-05
2.609514683e-05
2.752043377e-05
2.911156133e-05
3.073887615e-05
3.22458035e-05
3.345134636e-05
3.415664728e-05
2.791147163e-05
2.879544921e-05
3.006149063e-05
3.162004111e-05
3.335702922e-05
3.513041984e-05
3.676985071e-05
3.80794484e-05
3.884474506e-05
3.206463662e-05
3.302679951e-05
3.440335333e-05
3.609561223e-05
3.797864929e-05
3.989799569e-05
4.166956019e-05
4.308275646e-05
4.390772846e-05
3.659938604e-05
3.763957073e-05
3.912626414e-05
4.095155766e-05
4.297963076e-05
4.504363626e-05
4.694592267e-05
4.846146325e-05
4.934534097e-05
4.152015477e-05
4.26375619e-05
4.42331349e-05
4.618973475e-05
4.836070418e-05
5.05669738e-05
5.259760229e-05
5.421349368e-05
5.51550919e-05
4.682867649e-05
4.802191277e-05
4.97242791e-05
5.180947866e-05
5.412016375e-05
5.646529242e-05
5.862099633e-05
6.033456975e-05
6.133232379e-05
5.252401907e-05
5.379114519e-05
5.559746099e-05
5.780765984e-05
6.025393284e-05
6.27336003e-05
6.501031239e-05
6.681829099e-05
6.787029452e-05
5.860265399e-05
5.994123664e-05
6.184797448e-05
6.417876853e-05
6.675565356e-05
6.936472345e-05
7.175766524e-05
7.365623318e-05
7.476027712e-05
6.505855785e-05
6.64657243e-05
6.846875045e-05
7.09150255e-05
7.36168005e-05
7.634942159e-05
7.885319407e-05
8.083806656e-05
8.199167831e-05
7.18833431e-05
7.335583734e-05
7.545049076e-05
7.800651753e-05
8.082681733e-05
8.367652545e-05
8.628520001e-05
8.835169315e-05
8.955217592e-05
7.906641508e-05
8.060065425e-05
8.278182601e-05
8.544135542e-05
8.837327446e-05
9.133309365e-05
9.404030196e-05
9.61834018e-05
9.742787341e-05
8.659515132e-05
8.818728195e-05
9.044949393e-05
9.320585115e-05
9.624204474e-05
9.930458653e-05
0.0001021036086
0.0001043180386
0.0001056034695
9.44550995e-05
9.610105261e-05
9.843853465e-05
0.000101284711
0.0001044174939
0.0001075750538
0.0001104589032
0.0001127391897
0.0001140624396
0.0001026301896
0.0001043257343
0.0001067324989
0.0001096612409
0.0001128826822
0.0001161273321
0.000119088838
0.0001214293725
0.0001227872259
0.0001111029564
0.0001128437511
0.000115313665
0.000118317559
0.0001216195729
0.0001249432498
0.0001279751343
0.0001303702331
0.0001317594328
0.0001198547679
0.0001216364093
0.0001241632613
0.0001272348139
0.0001306092451
0.0001340038334
0.0001370987846
0.0001395427443
0.0001409600226
0.0001288660558
0.0001306841246
0.000133261689
0.0001363934021
0.0001398321049
0.0001432895138
0.0001464402534
0.0001489274026
0.0001503695104
0.0001381165446
0.0001399666474
0.0001425887427
0.0001457731823
0.0001492680943
0.0001527803281
0.000155979673
0.0001585044189
0.0001599681525
0.0001475854746
0.000149463283
0.000152123825
0.0001553536838
0.0001588968915
0.0001624561133
0.000165697031
0.0001682539022
0.000169736127
0.000157251817
0.0001591531015
0.000161846151
0.0001651143044
0.0001686981019
0.0001722966899
0.0001755723478
0.000178156031
0.0001796537027
0.0001670944767
0.0001690151376
0.0001717349421
0.0001750344966
0.0001786514366
0.0001822820327
0.0001855858405
0.0001881912127
0.0001897013954
0.0001770924817
0.0001790285745
0.0001817696037
0.0001850939387
0.0001887368759
0.000192392427
0.0001957180719
0.0001983402278
0.0001998601091
0.0001872251552
0.0001891729128
0.0001919298884
0.0001952726901
0.0001989348166
0.0002026086085
0.0002059500845
0.0002085843578
0.0002101112613
0.0001974722714
0.0001994281209
0.0002021960403
0.000205551329
0.0002092262024
0.0002129118857
0.000216263516
0.0002189054965
0.0002204368917
0.0002078141911
0.0002097747674
0.0002125489213
0.0002159110719
0.0002195926361
0.0002232842458
0.000226640699
0.0002292862452
0.000230819754
0.0002182319787
0.0002201941339
0.0002229701187
0.0002263338748
0.0002300164738
0.0002337084418
0.000237064743
0.0002397099893
0.0002412433907
0.0002287075
0.0002306683085
0.0002334420341
0.0002368025156
0.0002404809015
0.0002441680634
0.0002475195991
0.00025016096
0.0002516921925
0.0002392235
0.0002411802616
0.0002439479537
0.0002473006598
0.0002509699944
0.0002546475909
0.0002579901095
0.0002606242802
0.0002621514415
0.0002497636641
0.0002517139025
0.0002544721018
0.0002578129086
0.0002614687607
0.0002651324337
0.0002684620422
0.0002710859948
0.0002726073409
0.0002603126601
0.0002622541203
0.000264999677
0.0002683248313
0.0002719631693
0.0002756089543
0.0002789221109
0.0002815330894
0.000283047031
0.0002708561661
0.0002727868086
0.000275516875
0.0002788229843
0.0002824401648
0.0002860644797
0.0002893579833
0.0002919534955
0.0002934585935
0.0002813808829
0.0002832988763
0.0002860108961
0.0002892949158
0.0002928876701
0.0002964873007
0.0002997582784
0.0003023360858
0.0003038310461
0.0002918745337
0.0002937782464
0.0002964699422
0.0002997291607
0.0003032945776
0.0003068666615
0.0003101125539
0.0003126706605
0.0003141543275
0.0003023258534
0.0003042138431
0.0003068832024
0.0003101152241
0.0003136507321
0.0003171927404
0.0003204112852
0.0003229479253
0.000324419275
0.0003127245671
0.0003145955704
0.0003172408307
0.0003204435578
0.0003239469052
0.0003274566234
0.0003306458385
0.0003331594631
0.0003346175954
0.0003230613618
0.0003249142829
0.0003275339156
0.0003307055293
0.0003341747641
0.0003376502718
0.0003408084372
0.0003432977005
0.0003447418322
0.0003333278509
0.0003351617498
0.0003377544445
0.0003408933856
0.0003443268344
0.000347766485
0.000350892125
0.0003533558707
0.0003547853267
0.0003435165336
0.000345330615
0.0003478952627
0.0003510002123
0.0003543964597
0.0003577988604
0.0003608907252
0.0003633279723
0.0003647421787
0.0003536207513
0.0003554143526
0.0003579500302
0.0003610198904
0.0003643777587
0.0003677417496
0.0003707987978
0.0003732087273
0.000374607203
0.0003636346406
0.000365407221
0.0003679131749
0.0003709470505
0.0003742655792
0.0003775902144
0.0003806115957
0.000382993537
0.0003843758867
0.0003735530848
0.0003753042143
0.0003777798459
0.000380777026
0.0003840554528
0.0003873399815
0.0003903250196
0.0003926784377
0.0003940443442
0.0003833716652
0.000385101014
0.0003875458651
0.0003905058059
0.0003937435482
0.0003969873963
0.0003999355733
0.0004022600568
0.000403609274
0.0003930866116
0.0003947939405
0.0003972076792
0.0004001299879
0.0004033266255
0.0004065293788
0.0004094403198
0.0004117355686
0.0004130679155
0.0004026947539
0.0004043799051
0.0004067623131
0.0004096467324
0.0004128019907
0.0004159633786
0.0004188368375
0.0004211026525
0.0004224180061
0.000412193475
0.0004138563633
0.0004162073237
0.0004190537174
0.0004221674522
0.0004252873328
0.0004281231791
0.0004303594514
0.0004316577412
0.000421580665
0.0004232212696
0.0004255407559
0.0004283490953
0.0004314212786
0.0004344996245
0.0004372978307
0.000439504532
0.0004407857346
0.000430854677
0.0004324730342
0.0004347610995
0.0004375314515
0.000440562158
0.0004435990437
0.0004463596735
0.0004485368476
0.0004498009813
0.0004400142854
0.0004416104817
0.0004438672496
0.0004465997649
0.0004495891601
0.0004525847496
0.0004553079477
0.0004574557017
0.0004587028222
0.0004490586463
0.000450632812
0.0004528584675
0.0004555533707
0.0004585016994
0.0004614562355
0.0004641422177
0.0004662607149
0.0004674909103
0.0004579872599
0.0004595395638
0.0004617343455
0.000464391925
0.0004672995014
0.0004702132959
0.0004728623401
0.0004749517925
0.0004761651801
0.0004667999359
0.0004683305797
0.0004704947725
0.0004731153724
0.0004759825709
0.000478855995
0.000481468433
0.0004835290958
0.0004847258176
0.0004754967602
0.0004770059742
0.0004791399028
0.000481723915
0.0004845511616
0.0004873846381
0.0004899608486
0.0004919930135
0.0004931732337
0.0004840780656
0.0004855661039
0.000487670127
0.000490217984
0.0004930057489
0.0004957997446
0.0004983401461
0.000500344137
0.0005015080382
0.0004925444038
0.000494011541
0.0004960860457
0.0004985982141
0.0005013470048
0.0005041020236
0.0005066070686
0.000508583236
0.0005097310173
0.0005008965195
0.0005023430471
0.0005043884444
0.0005068654196
0.0005095757745
0.0005122923514
0.0005147625206
0.0005167112381
0.0005178431117
0.0005091353268
0.0005105615501
0.0005125782703
0.0005150205712
0.0005176930544
0.0005203717502
0.0005228075479
0.0005247292077
0.0005258453974
0.0005172618866
0.0005186681223
0.0005206566117
0.0005230647761
0.0005256999727
0.000528341369
0.0005307433189
0.0005326383289
0.0005337390676
0.000525277388
0.0005266639615
0.0005286246787
0.0005309992596
0.0005335977711
0.0005362024663
0.0005385711074
0.0005404398879
0.0005415254164
0.0005331831297
0.0005345503732
0.0005364837865
0.0005388253485
0.000541387789
0.0005439563943
0.0005462922776
0.0005481352586
0.0005492058233
0.0005409805042
0.0005423287547
0.0005442353393
0.0005465444553
0.0005490714483
0.0005516045843
0.0005539082696
0.0005557258884
0.0005567817405
0.000548670983
0.0005500005808
0.0005518808164
0.0005541580649
0.0005566502401
0.0005591485341
0.0005614205872
0.0005632132865
0.0005642546803
0.0005562561033
0.0005575673903
0.0005594217593
0.0005616677221
0.0005641257129
0.0005665897958
0.0005688307865
0.0005705990119
0.0005716262039
0.000563737456
0.000565030775
0.0005668597604
0.0005690750204
0.0005714994614
0.0005739299656
0.0005761404653
0.0005778846642
0.000578897912
0.0005711166752
0.0005723923684
0.0005741964525
0.0005763815918
0.0005787731171
0.0005811706745
0.0005833512541
0.0005850718741
0.0005860714358
0.0005783954285
0.0005796538368
0.0005814335002
0.0005835890983
0.000585948339
0.0005883135794
0.0005904648083
0.0005921622957
0.0005931484288
0.0005855754089
0.0005868168706
0.0005885725905
0.000590699223
0.0005930268068
0.000595360356
0.0005974828004
0.0005991575994
0.0006001305602
0.0005926583262
0.0005938831768
0.0005956154262
0.0005977136642
0.0006000102132
0.0006023126921
0.0006044069139
0.0006060594653
0.0006070195086
0.0005996459015
0.0006008544726
0.0006025637196
0.0006046341279
0.0006069002581
0.0006091722814
0.0006112388369
0.0006128695777
0.0006138169558
0.0006065398603
0.0006077324796
0.0006094191864
0.0006114623233
0.0006136986431
0.0006159408185
0.0006179802577
0.0006195896197
0.0006205245825
0.0006133419279
0.0006145189184
0.000616183541
0.000618199957
0.0006204070669
0.0006226199937
0.0006246328596
0.0006262212695
0.0006271440639
0.0006200538243
0.0006212155042
0.0006228584916
0.0006248487291
0.0006270272207
0.0006292114898
0.0006311983176
0.0006327661961
0.0006336770655
0.0006266772602
0.0006278239427
0.0006294457366
0.0006314103293
0.0006335607847
0.0006357169777
0.0006376782945
0.000639226056
0.0006401252403
0.0006332139339
0.0006343459265
0.0006359469612
0.0006378864337
0.0006400094253
0.000642138114
0.0006440744381
0.0006456024902
0.0006464902256
0.0006396655277
0.0006407831324
0.0006423638343
0.0006442787017
0.0006463747916
0.0006484765378
0.0006503883785
0.0006518971219
0.0006527736406
0.0006460337055
0.0006471372186
0.0006486980061
0.0006505887739
0.0006526585138
0.0006547338689
0.0006566217262
0.0006581115544
0.0006589770844
0.0006523201106
0.0006534098227
0.0006549511057
0.0006568182697
0.0006588622005
0.0006609117054
0.0006627760698
0.0006642473688
0.000665102134
0.0006585263637
0.0006596025594
0.0006611247399
0.0006629687855
0.0006649874375
0.0006670116221
0.0006688529744
0.0006703061228
0.0006711503427
0.0006646540614
0.0006657170193
0.0006672204906
0.0006690418934
0.0006710357857
0.0006730351692
0.0006748539805
0.0006762893491
0.0006771232388
0.0006707047746
0.0006717547673
0.0006732399144
0.0006750391398
0.0006770087805
0.0006789838712
0.0006807806026
0.0006821985545
0.0006830223247
0.0006766800474
0.0006777173415
0.000679184541
0.0006809620442
0.0006829079305
0.0006848592254
0.000686634328
0.0006880352186
0.0006888490756
0.0006825813961
0.0006836062525
0.0006850558724
0.0006868120984
0.0006887347161
0.0006906627014
0.0006924166164
0.0006938007933
0.0006946049387
0.0006884103087
0.0006894229819
0.0006908553819
0.0006925907654
0.0006944905894
0.0006963957401
0.0006981288986
0.0006994967014
0.0007002913324
0.0006941682434
0.0006951689821
0.0006965845134
0.000698299479
0.0007001769731
0.000702059753
0.0007037725761
0.0007051243366
0.0007059096458
0.0006998566287
0.0007008456755
0.0007022446808
0.0007039396428
0.0007057952595
0.0007076561214
0.0007093490201
0.000710685062
0.0007114612374
0.000705476862
0.0007064544537
0.0007078372671
0.0007095126297
0.0007113468102
0.0007131861956
0.0007148595705
0.0007161802096
0.0007169474345
0.0007110303093
0.0007119966764
0.0007133636237
0.0007150197805
0.0007168329549
0.0007186512937
0.0007203055353
0.0007216110791
0.000722369532
0.000716518304
0.0007174736712
0.0007188250694
0.0007204624035
0.0007222549901
0.0007240527009
0.0007256881888
0.0007269789365
0.000727728791
0.0007219421462
0.0007228867316
0.0007242228887
0.0007258417727
0.0007276141781
0.0007293916672
0.0007310087703
0.0007322850123
0.0007330264371
0.0007273031005
0.0007282371159
0.000729558331
0.0007311591259
0.0007329117443
0.0007346694059
0.0007362684815
0.0007375304992
0.0007382636574
0.0007326023946
0.000733526045
0.0007348326074
0.0007364156628
0.0007381488754
0.0007398870903
0.0007414684836
0.0007427165487
0.0007434415979
0.0007378412161
0.0007387546995
0.0007400468884
0.0007416125412
0.0007433267153
0.0007450458502
0.0007466098933
0.0007478442668
0.0007485613584
0.0007430207093
0.0007439242157
0.0007452022991
0.0007467508727
0.0007484463605
0.0007501467664
0.0007516937771
0.0007529147085
0.0007536239869
0.0007481419698
0.0007490356809
0.0007502999146
0.0007518317171
0.0007535088537
0.0007551908644
0.0007567211439
0.0007579288696
0.0007586304715
0.0007532060384
0.0007540901261
0.0007553407519
0.0007568560743
0.0007585151755
0.0007601791048
0.0007616929359
0.000762887677
0.00076358173
0.0007582138921
0.000759088517
0.0007603257608
0.0007618248742
0.0007634662335
0.0007651123719
0.0007666100155
0.0007677919754
0.0007684785965
0.0007631664328
0.0007640317428
0.0007652558117
0.0007667389637
0.000768362848
0.0007699914584
0.0007714731495
0.0007726425104
0.0007733218041
0.0007680644732
0.0007689206005
0.000770131679
0.0007715990893
0.0007732057338
0.0007748170463
0.0007762829885
0.0007774399072
0.0007781119624
0.0007729087182
0.0007737557763
0.0007749540219
0.0007764058762
0.0007779954776
0.0007795896822
0.0007810400413
0.0007821846433
0.0007828495305
0.0007776997419
0.0007785378215
0.0007797233587
0.0007811598016
0.0007827325098
0.0007843097473
0.0007857446428
0.0007868770158
0.0007875347827
0.0007824379591
0.0007832671232
0.0007844400363
0.0007858611619
0.0007874170696
0.0007889774211
0.0007903969157
0.0007915171007
0.0007921677669
0.0007871235913
0.0007879438689
0.0007891041928
0.0007905100337
0.0007920491634
0.000793592637
0.000794996724
0.0007961047053
0.0007967482565
0.0007917566254
0.000792568004
0.0007937157139
0.0007951062276
0.0007966285165
0.000798155031
0.0007995436193
0.0008006393119
0.0008012756923
0.0007963367655
0.0007971391826
0.0007982741806
0.0007996492337
0.0008011545158
0.0008026638822
0.0008040367786
0.0008051200141
0.0008057491177
0.0008008633785
0.0008016567109
0.0008027788118
0.0008041381613
0.0008056261462
0.0008071180461
0.0008084749353
0.0008095454451
0.0008101671061
0.0008053354315
0.000806119484
0.0008072283979
0.0008085716707
0.0008100419206
0.0008115158821
0.0008128563035
0.0008139137005
0.0008145276824
0.0008097514249
0.000810525917
0.0008116212311
0.0008129479007
0.0008143998042
0.000815855175
0.0008171784984
0.0008182222574
0.0008188282408
0.0008141093202
0.0008148738721
0.0008159550306
0.0008172643923
0.000818697137
0.0008201330568
0.000821438456
0.0008224678922
0.0008230654631
0.0008184064664
0.0008191605846
0.0008202268676
0.0008215180133
0.0008229305575
0.0008243459286
0.0008256323553
0.0008266466034
0.0008272352404
0.0008226395278
0.0008233825906
0.0008244330933
0.0008257048859
0.000827095931
0.0008284893908
0.0008297555488
0.0008307535432
0.0008313326059
0.000826804418
0.0008275356611
0.0008285692745
0.0008298203246
0.0008311882891
0.0008325581848
0.0008338025074
0.0008347829644
0.0008353516834
0.0008308962435
0.0008316147481
0.0008326301419
0.0008338587876
0.0008352017864
0.0008365461545
0.000837766787
0.0008387281912
0.0008392856607
0.0008349092649
0.0008356139487
0.0008366095587
0.0008378138514
0.0008391296811
0.0008404462343
0.0008416410232
0.0008425816208
0.0008431267949
0.00083883688
0.0008395264926
0.0008405005152
0.0008416782134
0.0008429643468
0.0008442504709
0.000845416964
0.0008463347639
0.0008468664585
0.0008426716355
0.000843344759
0.0008442951538
0.0008454437287
0.0008466973242
0.0008479500892
0.0008490855463
0.0008499783319
0.0008504952322
0.0008464052777
0.000847060335
0.0008479848372
0.0008491014907
0.0008503194147
0.0008515356015
0.0008526370242
0.000853502377
0.0008540030532
0.0008500288433
0.0008506641149
0.0008515602614
0.0008526419597
0.0008538208271
0.0008549969728
0.0008560611483
0.0008568964876
0.0008573794187
0.000853532798
0.0008541464485
0.0008550116169
0.0008560551413
0.0008571913761
0.0008583238388
0.0008593474045
0.0008601500411
0.0008606136482
0.0008569072235
0.0008574973385
0.0008583288015