/*--------------------------------*- C++ -*----------------------------------*\
| =========                 |                                                 |
| \\      /  F ield         | OpenFOAM: The Open Source CFD Toolbox           |
|  \\    /   O peration     | Version:  2212                                  |
|   \\  /    A nd           | Website:  www.openfoam.com                      |
|    \\/     M anipulation  |                                                 |
\*---------------------------------------------------------------------------*/
FoamFile
{
    version     2.0;
    format      ascii;
    arch        "LSB;label=32;scalar=64";
    class       volScalarField;
    location    "20.00000000";
    object      H2_0;
}
// * * * * * * * * * * * * * * * * * * * * * * * * * * * * * * * * * * * * * //

dimensions      [0 0 0 0 0 0 0];

internalField   nonuniform List<scalar> 
3000
(
3.998126579e-22
4.491379327e-22
5.235695308e-22
6.227564457e-22
7.456907346e-22
8.890343262e-22
1.044151622e-21
1.192163904e-21
1.296828117e-21
1.501072564e-21
1.693062048e-21
1.982649026e-21
2.369407478e-21
2.852954803e-21
3.430611169e-21
4.092349675e-21
4.804764017e-21
5.435848001e-21
3.362317888e-21
3.822135427e-21
4.522320758e-21
5.473016121e-21
6.691320834e-21
8.194910316e-21
9.977868269e-21
1.194009246e-20
1.361713933e-20
6.404344593e-21
7.356443687e-21
8.827503922e-21
1.086730422e-20
1.354811458e-20
1.693805798e-20
2.10186397e-20
2.546319108e-20
2.905060281e-20
1.137248973e-20
1.322350619e-20
1.612848036e-20
2.023498277e-20
2.573616957e-20
3.278623472e-20
4.12674146e-20
5.027412994e-20
5.718806309e-20
1.955598536e-20
2.303016368e-20
2.856070026e-20
3.650056847e-20
4.727333365e-20
6.115008738e-20
7.771640082e-20
9.488314103e-20
1.075837125e-19
3.319951459e-20
3.958143356e-20
4.985924096e-20
6.478118536e-20
8.517830378e-20
1.114561989e-19
1.425281008e-19
1.740980619e-19
1.968780168e-19
5.61859466e-20
6.77361896e-20
8.650298448e-20
1.139609172e-19
1.516417794e-19
2.000884501e-19
2.568706181e-19
3.137233583e-19
3.540625051e-19
9.524356317e-20
1.159270317e-19
1.497511228e-19
1.994907509e-19
2.6787103e-19
3.555500235e-19
4.575751763e-19
5.586646473e-19
6.295996716e-19
1.620233754e-19
1.987708264e-19
2.591402652e-19
3.482036133e-19
4.707207764e-19
6.274043013e-19
8.087148162e-19
9.870451791e-19
1.111250203e-18
2.767139994e-19
3.416176227e-19
4.485821249e-19
6.067078375e-19
8.242365662e-19
1.101804672e-18
1.421675055e-18
1.734674681e-18
1.951581299e-18
4.74304849e-19
5.88430356e-19
7.769280534e-19
1.05593691e-18
1.439680355e-18
1.928460304e-18
2.490028619e-18
3.037556912e-18
3.415682192e-18
8.154593807e-19
1.015471259e-18
1.346324018e-18
1.8364275e-18
2.510307163e-18
3.367431134e-18
4.350015475e-18
5.305609897e-18
5.96399925e-18
1.405383242e-18
1.755054832e-18
2.334074188e-18
3.192213769e-18
4.371765734e-18
5.870401743e-18
7.585554867e-18
9.250618433e-18
1.03961065e-17
2.42657634e-18
3.036792143e-18
4.047989486e-18
5.547112689e-18
7.607147809e-18
1.02221678e-17
1.321121287e-17
1.6109275e-17
1.810155508e-17
4.195677537e-18
5.259186473e-18
7.022510081e-18
9.637354666e-18
1.323006708e-17
1.77882401e-17
2.29940038e-17
2.803650275e-17
3.150129056e-17
7.262107917e-18
9.113855445e-18
1.218542239e-17
1.674147548e-17
2.300176723e-17
3.094380202e-17
4.001264907e-17
4.879201855e-17
5.481079639e-17
1.257926588e-17
1.580100959e-17
2.114658402e-17
2.90766725e-17
3.997199289e-17
5.378938292e-17
6.95579927e-17
8.481230618e-17
9.526638723e-17
2.180189146e-17
2.740405284e-17
3.670104483e-17
5.04938036e-17
6.944157651e-17
9.346358718e-17
1.208658897e-16
1.473629376e-16
1.655172049e-16
3.780240426e-17
4.753993124e-17
6.370184613e-17
8.767994229e-17
1.206163988e-16
1.623636957e-16
2.099706956e-16
2.559898432e-16
2.875104764e-16
6.556740002e-17
8.248825186e-17
1.105751196e-16
1.522455153e-16
2.094786982e-16
2.820083998e-16
3.646971762e-16
4.446056194e-16
4.993272642e-16
1.137540811e-16
1.431515786e-16
1.919504258e-16
2.643477141e-16
3.637723086e-16
4.897455853e-16
6.333283355e-16
7.720471159e-16
8.670222838e-16
1.97392e-16
2.484582313e-16
3.332262545e-16
4.589783665e-16
6.316506911e-16
8.503821323e-16
1.099621812e-15
1.340349429e-15
1.505123238e-15
3.425707931e-16
4.312658486e-16
5.784890599e-16
7.968668089e-16
1.096665834e-15
1.476330756e-15
1.908809461e-15
2.326374887e-15
2.612101905e-15
5.945712465e-16
7.486010581e-16
1.004246044e-15
1.383378565e-15
1.903729756e-15
2.562469994e-15
3.312534253e-15
4.036418324e-15
4.531551875e-15
1.031956842e-15
1.299403138e-15
1.743213445e-15
2.401231224e-15
3.304015357e-15
4.446365702e-15
5.746381204e-15
7.00030609e-15
7.857530438e-15
1.790965044e-15
2.255229077e-15
3.02546e-15
4.167032013e-15
5.732465856e-15
7.712082579e-15
9.963309091e-15
1.21330756e-14
1.361533932e-14
3.107666462e-15
3.913308586e-15
5.249450324e-15
7.228794206e-15
9.94127369e-15
1.336861415e-14
1.726250849e-14
2.101172631e-14
2.357052589e-14
5.390689766e-15
6.788017428e-15
9.104415784e-15
1.253366406e-14
1.722901675e-14
2.315545412e-14
2.988030202e-14
3.634672642e-14
4.075437598e-14
9.346366868e-15
1.176816774e-14
1.578050261e-14
2.171541529e-14
2.98324386e-14
4.006351489e-14
5.16543642e-14
6.278071946e-14
7.035211228e-14
1.619343712e-14
2.03865766e-14
2.732831098e-14
3.758513025e-14
5.159305061e-14
6.921821694e-14
8.914531075e-14
1.082322015e-13
1.211932189e-13
2.803008999e-14
3.528022947e-14
4.727125722e-14
6.496436397e-14
8.908468117e-14
1.19366614e-13
1.535165922e-13
1.861378296e-13
2.082309338e-13
4.845882427e-14
6.097213418e-14
8.164299848e-14
1.120912463e-13
1.535075558e-13
2.053623157e-13
2.636584432e-13
3.191598918e-13
3.566277976e-13
8.364515119e-14
1.051926137e-13
1.407341604e-13
1.92976842e-13
2.638447301e-13
3.522809212e-13
4.513289517e-13
5.452531201e-13
6.084157675e-13
1.441017304e-13
1.810986174e-13
2.420127651e-13
3.31322474e-13
4.520750189e-13
6.021683268e-13
7.69524179e-13
9.274804294e-13
1.033227854e-12
2.476770569e-13
3.109760324e-13
4.149688635e-13
5.669742098e-13
7.716968556e-13
1.02498632e-12
1.305947904e-12
1.569703318e-12
1.745379205e-12
4.245290587e-13
5.323697067e-13
7.09082134e-13
9.6645443e-13
1.311516089e-12
1.736160013e-12
2.204423578e-12
2.64134923e-12
2.930712294e-12
7.253426033e-13
9.081504073e-13
1.206803706e-12
1.639966518e-12
2.217693887e-12
2.924367468e-12
3.698504067e-12
4.416011071e-12
4.888254619e-12
1.234801432e-12
1.54290231e-12
2.044498039e-12
2.768549303e-12
3.728585172e-12
4.895003917e-12
6.163562875e-12
7.33084955e-12
8.094062136e-12
2.093490041e-12
2.609350634e-12
3.445873874e-12
4.646946082e-12
6.229124111e-12
8.137321009e-12
1.019653333e-11
1.207690452e-11
1.329790643e-11
3.533182355e-12
4.39056206e-12
5.774777202e-12
7.750500861e-12
1.033470662e-11
1.3426888e-11
1.673653115e-11
1.973483436e-11
2.166808195e-11
5.933158191e-12
7.346641074e-12
9.617643992e-12
1.283834789e-11
1.701905951e-11
2.19801657e-11
2.724531163e-11
3.197678971e-11
3.500607984e-11
9.909172066e-12
1.221902588e-11
1.591085395e-11
2.111079381e-11
2.78069949e-11
3.568520585e-11
4.397451481e-11
5.136377684e-11
5.606191366e-11
1.645251961e-11
2.019181752e-11
2.613528447e-11
3.444675452e-11
4.506194768e-11
5.744259069e-11
7.035782076e-11
8.177992201e-11
8.899347133e-11
2.714502397e-11
3.313860659e-11
4.261034288e-11
5.575828906e-11
7.24107728e-11
9.166480894e-11
1.115816767e-10
1.290617984e-10
1.400307467e-10
4.448764893e-11
5.399599631e-11
6.893374314e-11
8.95148748e-11
1.153657809e-10
1.45001816e-10
1.754097964e-10
2.019041669e-10
2.184299857e-10
7.239709041e-11
8.732279206e-11
1.106327475e-10
1.425117119e-10
1.822282218e-10
2.27387547e-10
2.733663607e-10
3.131554569e-10
3.378361163e-10
1.169477522e-10
1.401284017e-10
1.7611945e-10
2.249861743e-10
2.853907675e-10
3.535392827e-10
4.224236573e-10
4.816601958e-10
5.182175965e-10
1.874681439e-10
2.230876876e-10
2.780794684e-10
3.522273305e-10
4.432020859e-10
5.450924411e-10
6.473956235e-10
7.3486558e-10
7.886003313e-10
2.981437932e-10
3.523053683e-10
4.354734194e-10
5.468788056e-10
6.826182234e-10
8.336218526e-10
9.843140897e-10
1.112490889e-09
1.190912288e-09
4.703368813e-10
5.518549495e-10
6.763978843e-10
8.42209472e-10
1.04294765e-09
1.26489149e-09
1.485164645e-09
1.671666273e-09
1.785365476e-09
7.359106124e-10
8.574001654e-10
1.042142709e-09
1.286725422e-09
1.581104854e-09
1.904792804e-09
2.224489774e-09
2.494090682e-09
2.657951824e-09
1.141949265e-09
1.321317372e-09
1.592891147e-09
1.950600191e-09
2.378905313e-09
2.847577659e-09
3.308535958e-09
3.695947492e-09
3.930823128e-09
1.757276377e-09
2.019729293e-09
2.415551318e-09
2.934556665e-09
3.553154707e-09
4.227222588e-09
4.887843791e-09
5.441518599e-09
5.776534227e-09
2.681608737e-09
3.062384167e-09
3.634678115e-09
4.382093203e-09
5.26940243e-09
6.232829285e-09
7.174263451e-09
7.961562287e-09
8.437262543e-09
4.058113401e-09
4.60613403e-09
5.427309494e-09
6.496058597e-09
7.76053012e-09
9.129354698e-09
1.046373861e-08
1.157778694e-08
1.22502864e-08
6.090492582e-09
6.873219308e-09
8.043010699e-09
9.560926853e-09
1.135159012e-08
1.328513379e-08
1.516633737e-08
1.673485931e-08
1.768110411e-08
9.066013233e-09
1.017583123e-08
1.183067422e-08
1.397241206e-08
1.649261593e-08
1.920797604e-08
2.18453527e-08
2.404183985e-08
2.536620212e-08
1.338622084e-08
1.494874293e-08
1.727393001e-08
2.02763383e-08
2.380136891e-08
2.759186547e-08
3.126768047e-08
3.432564578e-08
3.61685221e-08
1.960736243e-08
2.179204977e-08
2.503721222e-08
2.921879932e-08
3.411805932e-08
3.937642565e-08
4.446799013e-08
4.869949392e-08
5.124874465e-08
2.849263646e-08
3.152609136e-08
3.602449021e-08
4.180957995e-08
4.857412127e-08
5.582157115e-08
6.282945122e-08
6.864890725e-08
7.215442159e-08
4.107815027e-08
4.526038711e-08
5.145250912e-08
5.940088711e-08
6.867754431e-08
7.860025111e-08
8.818368379e-08
9.61372544e-08
1.009285823e-07
5.87541836e-08
6.447835009e-08
7.294068366e-08
8.378410527e-08
9.641784733e-08
1.099119726e-07
1.229317751e-07
1.337323467e-07
1.402394637e-07
8.336400519e-08
9.114045743e-08
1.026208001e-07
1.173077957e-07
1.343931407e-07
1.526184466e-07
1.701872849e-07
1.847550904e-07
1.935323756e-07
1.173239261e-07
1.278094924e-07
1.432695524e-07
1.630187002e-07
1.859597537e-07
2.104013808e-07
2.339412779e-07
2.534501301e-07
2.652035138e-07
1.637672727e-07
1.77799504e-07
1.984641535e-07
2.248248777e-07
2.554032361e-07
2.879411729e-07
3.192478821e-07
3.451766545e-07
3.607936454e-07
2.26710842e-07
2.453463363e-07
2.727584014e-07
3.076782787e-07
3.481278395e-07
3.911131619e-07
4.324264371e-07
4.666148924e-07
4.871969413e-07
3.112395092e-07
3.357954031e-07
3.718747854e-07
4.177718658e-07
4.708589541e-07
5.2719497e-07
5.812728294e-07
6.259802352e-07
6.528764964e-07
4.237029667e-07
4.558002864e-07
5.029055734e-07
5.627434392e-07
6.318492798e-07
7.050743676e-07
7.752682884e-07
8.33232285e-07
8.680732543e-07
5.719157009e-07
6.135227457e-07
6.745124357e-07
7.518740611e-07
8.410751113e-07
9.354424747e-07
1.0257689e-06
1.100260782e-06
1.144989496e-06
7.653480527e-07
8.188208492e-07
8.971098848e-07
9.962649218e-07
1.110404801e-06
1.230952455e-06
1.346154145e-06
1.441025168e-06
1.497922705e-06
1.015292221e-06
1.083408322e-06
1.183014454e-06
1.308972953e-06
1.453717874e-06
1.606320236e-06
1.751909142e-06
1.871620943e-06
1.943322076e-06
1.334984813e-06
1.420965925e-06
1.546539311e-06
1.705083546e-06
1.886951664e-06
2.078342633e-06
2.260614622e-06
2.410245816e-06
2.499740109e-06
1.739666687e-06
1.847185162e-06
2.004014017e-06
2.201699441e-06
2.428053982e-06
2.665811006e-06
2.89182265e-06
3.077043784e-06
3.187657608e-06
2.246562388e-06
2.379726756e-06
2.573712196e-06
2.817829207e-06
3.096826271e-06
3.389306383e-06
3.666805819e-06
3.893816637e-06
4.029172811e-06
2.874765902e-06
3.0380816e-06
3.275676436e-06
3.574166952e-06
3.914652015e-06
4.27087465e-06
4.608182691e-06
4.883609547e-06
5.047563884e-06
3.645026771e-06
3.843330151e-06
4.131439394e-06
4.4927664e-06
4.904118773e-06
5.333596222e-06
5.739440272e-06
6.070197278e-06
6.266755049e-06
4.579440106e-06
4.81780656e-06
5.163651578e-06
5.596625288e-06
6.088556392e-06
6.601080105e-06
7.084390813e-06
7.477514311e-06
7.710731504e-06
5.701054411e-06
5.984684598e-06
6.395637435e-06
6.909207474e-06
7.491525334e-06
8.096923325e-06
8.666611302e-06
9.129086143e-06
9.402982898e-06
7.033420554e-06
7.367511628e-06
7.850909974e-06
8.453937435e-06
9.136293606e-06
9.844176015e-06
1.050890431e-05
1.104750697e-05
1.136599783e-05
8.600111943e-06
8.989722804e-06
9.552678575e-06
1.02537041e-05
1.104533981e-05
1.186484582e-05
1.263281135e-05
1.325391317e-05
1.362055391e-05
1.042424861e-05
1.087416883e-05
1.152338318e-05
1.233040426e-05
1.323991821e-05
1.417949603e-05
1.505819456e-05
1.576744125e-05
1.618540695e-05
1.252805472e-05
1.304268231e-05
1.378428401e-05
1.470457239e-05
1.573972391e-05
1.680687537e-05
1.780276087e-05
1.860503331e-05
1.907704969e-05
1.49324751e-05
1.551572631e-05
1.63551362e-05
1.739508171e-05
1.856251543e-05
1.976349392e-05
2.088195329e-05
2.17812794e-05
2.230957699e-05
1.765688208e-05
1.831211782e-05
1.925391265e-05
2.041870142e-05
2.172374974e-05
2.306356233e-05
2.430883869e-05
2.530834218e-05
2.589463137e-05
2.071868808e-05
2.144850519e-05
2.249618702e-05
2.378982206e-05
2.523653731e-05
2.671889738e-05
2.809405593e-05
2.919593724e-05
2.984140109e-05
2.413275533e-05
2.493905359e-05
2.609514694e-05
2.752043388e-05
2.911156145e-05
3.07388763e-05
3.22458037e-05
3.345134656e-05
3.415664745e-05
2.79114717e-05
2.879544931e-05
3.006149075e-05
3.162004123e-05
3.335702936e-05
3.513042001e-05
3.676985092e-05
3.807944862e-05
3.884474524e-05
3.20646367e-05
3.302679963e-05
3.440335346e-05
3.609561237e-05
3.797864944e-05
3.989799587e-05
4.166956042e-05
4.308275671e-05
4.390772866e-05
3.659938612e-05
3.763957086e-05
3.912626427e-05
4.09515578e-05
4.297963092e-05
4.504363646e-05
4.694592292e-05
4.846146351e-05
4.934534118e-05
4.152015486e-05
4.263756203e-05
4.423313504e-05
4.61897349e-05
4.836070435e-05
5.056697401e-05
5.259760256e-05
5.421349396e-05
5.515509212e-05
4.682867658e-05
4.802191291e-05
4.972427925e-05
5.180947882e-05
5.412016393e-05
5.646529265e-05
5.862099661e-05
6.033457005e-05
6.133232402e-05
5.252401916e-05
5.379114534e-05
5.559746116e-05
5.780766001e-05
6.025393303e-05
6.273360054e-05
6.501031269e-05
6.68182913e-05
6.787029477e-05
5.860265409e-05
5.994123679e-05
6.184797465e-05
6.417876871e-05
6.675565377e-05
6.93647237e-05
7.175766555e-05
7.365623351e-05
7.476027738e-05
6.505855795e-05
6.646572447e-05
6.846875063e-05
7.091502568e-05
7.361680071e-05
7.634942185e-05
7.88531944e-05
8.08380669e-05
8.199167859e-05
7.188334321e-05
7.335583751e-05
7.545049095e-05
7.800651773e-05
8.082681755e-05
8.367652572e-05
8.628520035e-05
8.83516935e-05
8.95521762e-05
7.906641519e-05
8.060065444e-05
8.278182621e-05
8.544135562e-05
8.837327469e-05
9.133309393e-05
9.404030231e-05
9.618340217e-05
9.742787371e-05
8.659515144e-05
8.818728214e-05
9.044949414e-05
9.320585136e-05
9.624204498e-05
9.930458682e-05
0.000102103609
0.000104318039
0.0001056034698
9.445509962e-05
9.610105281e-05
9.843853487e-05
0.0001012847113
0.0001044174942
0.0001075750541
0.0001104589036
0.0001127391901
0.0001140624399
0.0001026301897
0.0001043257345
0.0001067324991
0.0001096612411
0.0001128826824
0.0001161273324
0.0001190888384
0.0001214293729
0.0001227872263
0.0001111029565
0.0001128437513
0.0001153136652
0.0001183175592
0.0001216195732
0.0001249432501
0.0001279751347
0.0001303702335
0.0001317594331
0.000119854768
0.0001216364095
0.0001241632615
0.0001272348142
0.0001306092453
0.0001340038337
0.000137098785
0.0001395427448
0.0001409600229
0.0001288660559
0.0001306841248
0.0001332616892
0.0001363934023
0.0001398321052
0.0001432895142
0.0001464402538
0.000148927403
0.0001503695107
0.0001381165447
0.0001399666476
0.000142588743
0.0001457731825
0.0001492680946
0.0001527803285
0.0001559796734
0.0001585044194
0.0001599681529
0.0001475854748
0.0001494632832
0.0001521238252
0.000155353684
0.0001588968918
0.0001624561137
0.0001656970314
0.0001682539027
0.0001697361274
0.0001572518171
0.0001591531018
0.0001618461513
0.0001651143047
0.0001686981022
0.0001722966902
0.0001755723483
0.0001781560315
0.0001796537031
0.0001670944769
0.0001690151378
0.0001717349423
0.0001750344968
0.0001786514369
0.000182282033
0.0001855858409
0.0001881912132
0.0001897013958
0.0001770924818
0.0001790285747
0.000181769604
0.0001850939389
0.0001887368762
0.0001923924274
0.0001957180724
0.0001983402283
0.0001998601095
0.0001872251554
0.000189172913
0.0001919298887
0.0001952726903
0.0001989348169
0.0002026086089
0.0002059500849
0.0002085843582
0.0002101112617
0.0001974722716
0.0001994281211
0.0002021960406
0.0002055513293
0.0002092262027
0.0002129118861
0.0002162635164
0.000218905497
0.0002204368921
0.0002078141912
0.0002097747677
0.0002125489215
0.0002159110722
0.0002195926364
0.0002232842462
0.0002266406995
0.0002292862457
0.0002308197544
0.0002182319789
0.0002201941341
0.0002229701189
0.0002263338751
0.0002300164741
0.0002337084421
0.0002370647435
0.0002397099897
0.0002412433911
0.0002287075001
0.0002306683087
0.0002334420343
0.0002368025159
0.0002404809018
0.0002441680638
0.0002475195995
0.0002501609605
0.0002516921928
0.0002392235002
0.0002411802618
0.000243947954
0.0002473006601
0.0002509699947
0.0002546475913
0.00025799011
0.0002606242807
0.0002621514419
0.0002497636642
0.0002517139027
0.000254472102
0.0002578129088
0.000261468761
0.0002651324341
0.0002684620427
0.0002710859953
0.0002726073413
0.0002603126603
0.0002622541205
0.0002649996773
0.0002683248316
0.0002719631696
0.0002756089547
0.0002789221114
0.0002815330899
0.0002830470314
0.0002708561663
0.0002727868088
0.0002755168753
0.0002788229845
0.0002824401652
0.0002860644801
0.0002893579838
0.000291953496
0.0002934585939
0.000281380883
0.0002832988766
0.0002860108964
0.0002892949161
0.0002928876704
0.0002964873011
0.0002997582789
0.0003023360863
0.0003038310465
0.0002918745339
0.0002937782467
0.0002964699424
0.000299729161
0.0003032945779
0.0003068666619
0.0003101125544
0.000312670661
0.0003141543279
0.0003023258535
0.0003042138433
0.0003068832026
0.0003101152244
0.0003136507324
0.0003171927407
0.0003204112857
0.0003229479258
0.0003244192754
0.0003127245673
0.0003145955707
0.000317240831
0.0003204435581
0.0003239469055
0.0003274566238
0.000330645839
0.0003331594636
0.0003346175958
0.000323061362
0.0003249142831
0.0003275339159
0.0003307055296
0.0003341747644
0.0003376502722
0.0003408084377
0.000343297701
0.0003447418326
0.000333327851
0.0003351617501
0.0003377544448
0.0003408933859
0.0003443268347
0.0003477664854
0.0003508921255
0.0003533558712
0.0003547853271
0.0003435165337
0.0003453306152
0.000347895263
0.0003510002126
0.0003543964601
0.0003577988608
0.0003608907257
0.0003633279728
0.0003647421791
0.0003536207514
0.0003554143529
0.0003579500304
0.0003610198907
0.000364377759
0.0003677417499
0.0003707987983
0.0003732087278
0.0003746072034
0.0003636346407
0.0003654072212
0.0003679131752
0.0003709470508
0.0003742655795
0.0003775902148
0.0003806115962
0.0003829935375
0.0003843758871
0.000373553085
0.0003753042145
0.0003777798462
0.0003807770263
0.0003840554531
0.0003873399819
0.00039032502
0.0003926784382
0.0003940443445
0.0003833716654
0.0003851010142
0.0003875458653
0.0003905058062
0.0003937435485
0.0003969873967
0.0003999355738
0.0004022600572
0.0004036092744
0.0003930866117
0.0003947939407
0.0003972076794
0.0004001299882
0.0004033266258
0.0004065293791
0.0004094403202
0.0004117355691
0.0004130679158
0.000402694754
0.0004043799054
0.0004067623133
0.0004096467327
0.000412801991
0.0004159633789
0.000418836838
0.000421102653
0.0004224180064
0.0004121934752
0.0004138563636
0.000416207324
0.0004190537176
0.0004221674525
0.0004252873331
0.0004281231796
0.0004303594518
0.0004316577415
0.0004215806652
0.0004232212698
0.0004255407561
0.0004283490955
0.0004314212789
0.0004344996249
0.0004372978311
0.0004395045325
0.0004407857349
0.0004308546771
0.0004324730344
0.0004347610998
0.0004375314517
0.0004405621583
0.000443599044
0.0004463596739
0.000448536848
0.0004498009817
0.0004400142856
0.0004416104819
0.0004438672498
0.0004465997652
0.0004495891604
0.0004525847499
0.0004553079481
0.0004574557022
0.0004587028225
0.0004490586464
0.0004506328122
0.0004528584678
0.0004555533709
0.0004585016996
0.0004614562359
0.0004641422182
0.0004662607153
0.0004674909107
0.0004579872601
0.0004595395641
0.0004617343457
0.0004643919252
0.0004672995017
0.0004702132962
0.0004728623405
0.000474951793
0.0004761651805
0.000466799936
0.0004683305799
0.0004704947727
0.0004731153726
0.0004759825711
0.0004788559953
0.0004814684335
0.0004835290962
0.000484725818
0.0004754967603
0.0004770059744
0.0004791399031
0.0004817239153
0.0004845511619
0.0004873846384
0.000489960849
0.0004919930139
0.000493173234
0.0004840780657
0.0004855661041
0.0004876701272
0.0004902179842
0.0004930057492
0.0004957997449
0.0004983401465
0.0005003441374
0.0005015080386
0.0004925444039
0.0004940115412
0.0004960860459
0.0004985982144
0.0005013470051
0.0005041020239
0.000506607069
0.0005085832365
0.0005097310176
0.0005008965197
0.0005023430473
0.0005043884446
0.0005068654198
0.0005095757748
0.0005122923518
0.000514762521
0.0005167112385
0.000517843112
0.0005091353269
0.0005105615503
0.0005125782705
0.0005150205714
0.0005176930547
0.0005203717505
0.0005228075483
0.0005247292081
0.0005258453977
0.0005172618868
0.0005186681225
0.0005206566119
0.0005230647763
0.000525699973
0.0005283413693
0.0005307433193
0.0005326383293
0.000533739068
0.0005252773881
0.0005266639617
0.0005286246789
0.0005309992599
0.0005335977714
0.0005362024666
0.0005385711078
0.0005404398883
0.0005415254167
0.0005331831298
0.0005345503734
0.0005364837867
0.0005388253487
0.0005413877892
0.0005439563946
0.000546292278
0.000548135259
0.0005492058236
0.0005409805043
0.0005423287549
0.0005442353395
0.0005465444555
0.0005490714485
0.0005516045846
0.00055390827
0.0005557258888
0.0005567817408
0.0005486709831
0.000550000581
0.0005518808166
0.0005541580651
0.0005566502404
0.0005591485344
0.0005614205876
0.0005632132869
0.0005642546806
0.0005562561034
0.0005575673905
0.0005594217595
0.0005616677224
0.0005641257132
0.0005665897961
0.0005688307869
0.0005705990123
0.0005716262042
0.0005637374562
0.0005650307752
0.0005668597606
0.0005690750206
0.0005714994617
0.0005739299659
0.0005761404656
0.0005778846646
0.0005788979124
0.0005711166753
0.0005723923686
0.0005741964528
0.000576381592
0.0005787731173
0.0005811706749
0.0005833512545
0.0005850718745
0.0005860714361
0.0005783954287
0.000579653837
0.0005814335005
0.0005835890985
0.0005859483393
0.0005883135797
0.0005904648087
0.0005921622961
0.0005931484291
0.000585575409
0.0005868168708
0.0005885725907
0.0005906992233
0.0005930268071
0.0005953603563
0.0005974828008
0.0005991575998
0.0006001305605
0.0005926583263
0.000593883177
0.0005956154264
0.0005977136644
0.0006000102134
0.0006023126924
0.0006044069142
0.0006060594657
0.0006070195089
0.0005996459016
0.0006008544728
0.0006025637198
0.0006046341282
0.0006069002583
0.0006091722817
0.0006112388373
0.000612869578
0.0006138169561
0.0006065398604
0.0006077324798
0.0006094191867
0.0006114623235
0.0006136986434
0.0006159408188
0.000617980258
0.0006195896201
0.0006205245828
0.000613341928
0.0006145189186
0.0006161835412
0.0006181999572
0.0006204070672
0.000622619994
0.00062463286
0.0006262212699
0.0006271440642
0.0006200538244
0.0006212155044
0.0006228584918
0.0006248487293
0.0006270272209
0.00062921149
0.000631198318
0.0006327661965
0.0006336770658
0.0006266772603
0.0006278239429
0.0006294457368
0.0006314103295
0.000633560785
0.000635716978
0.0006376782948
0.0006392260563
0.0006401252406
0.0006332139341
0.0006343459267
0.0006359469614
0.0006378864339
0.0006400094255
0.0006421381142
0.0006440744384
0.0006456024905
0.0006464902258
0.0006396655278
0.0006407831326
0.0006423638345
0.000644278702
0.0006463747919
0.0006484765381
0.0006503883789
0.0006518971223
0.0006527736409
0.0006460337056
0.0006471372188
0.0006486980063
0.0006505887741
0.000652658514
0.0006547338692
0.0006566217266
0.0006581115548
0.0006589770847
0.0006523201107
0.0006534098229
0.0006549511059
0.0006568182699
0.0006588622008
0.0006609117057
0.0006627760702
0.0006642473691
0.0006651021343
0.0006585263639
0.0006596025596
0.0006611247401
0.0006629687857
0.0006649874377
0.0006670116224
0.0006688529748
0.0006703061231
0.0006711503429
0.0006646540616
0.0006657170195
0.0006672204908
0.0006690418936
0.0006710357859
0.0006730351695
0.0006748539809
0.0006762893494
0.0006771232391
0.0006707047747
0.0006717547675
0.0006732399146
0.00067503914
0.0006770087807
0.0006789838715
0.0006807806029
0.0006821985548
0.000683022325
0.0006766800475
0.0006777173417
0.0006791845412
0.0006809620444
0.0006829079307
0.0006848592257
0.0006866343283
0.000688035219
0.0006888490759
0.0006825813963
0.0006836062527
0.0006850558726
0.0006868120986
0.0006887347163
0.0006906627017
0.0006924166167
0.0006938007936
0.000694604939
0.0006884103088
0.0006894229821
0.0006908553821
0.0006925907656
0.0006944905896
0.0006963957404
0.000698128899
0.0006994967018
0.0007002913327
0.0006941682436
0.0006951689823
0.0006965845136
0.0006982994792
0.0007001769733
0.0007020597533
0.0007037725765
0.0007051243369
0.0007059096461
0.0006998566288
0.0007008456757
0.000702244681
0.000703939643
0.0007057952597
0.0007076561217
0.0007093490204
0.0007106850623
0.0007114612377
0.0007054768621
0.0007064544538
0.0007078372673
0.0007095126299
0.0007113468105
0.0007131861958
0.0007148595708
0.00071618021
0.0007169474347
0.0007110303094
0.0007119966766
0.0007133636239
0.0007150197807
0.0007168329551
0.000718651294
0.0007203055356
0.0007216110794
0.0007223695322
0.0007165183042
0.0007174736713
0.0007188250696
0.0007204624037
0.0007222549904
0.0007240527012
0.0007256881891
0.0007269789368
0.0007277287913
0.0007219421463
0.0007228867317
0.0007242228889
0.0007258417729
0.0007276141783
0.0007293916675
0.0007310087706
0.0007322850126
0.0007330264373
0.0007273031007
0.0007282371161
0.0007295583312
0.0007311591261
0.0007329117445
0.0007346694062
0.0007362684818
0.0007375304995
0.0007382636577
0.0007326023947
0.0007335260452
0.0007348326076
0.000736415663
0.0007381488756
0.0007398870906
0.0007414684839
0.000742716549
0.0007434415982
0.0007378412162
0.0007387546996
0.0007400468885
0.0007416125414
0.0007433267155
0.0007450458504
0.0007466098936
0.0007478442671
0.0007485613587
0.0007430207094
0.0007439242159
0.0007452022993
0.0007467508729
0.0007484463607
0.0007501467667
0.0007516937774
0.0007529147088
0.0007536239872
0.00074814197
0.0007490356811
0.0007502999148
0.0007518317173
0.0007535088539
0.0007551908647
0.0007567211442
0.0007579288699
0.0007586304717
0.0007532060386
0.0007540901262
0.0007553407521
0.0007568560745
0.0007585151757
0.000760179105
0.0007616929362
0.0007628876773
0.0007635817302
0.0007582138922
0.0007590885172
0.000760325761
0.0007618248744
0.0007634662337
0.0007651123721
0.0007666100158
0.0007677919757
0.0007684785968
0.0007631664329
0.000764031743
0.0007652558119
0.0007667389639
0.0007683628482
0.0007699914587
0.0007714731498
0.0007726425107
0.0007733218043
0.0007680644733
0.0007689206007
0.0007701316792
0.0007715990895
0.000773205734
0.0007748170466
0.0007762829888
0.0007774399075
0.0007781119627
0.0007729087183
0.0007737557765
0.0007749540221
0.0007764058764
0.0007779954778
0.0007795896824
0.0007810400416
0.0007821846436
0.0007828495308
0.000777699742
0.0007785378217
0.0007797233589
0.0007811598018
0.00078273251
0.0007843097475
0.0007857446431
0.0007868770161
0.0007875347829
0.0007824379592
0.0007832671234
0.0007844400364
0.0007858611621
0.0007874170698
0.0007889774213
0.000790396916
0.000791517101
0.0007921677672
0.0007871235914
0.0007879438691
0.000789104193
0.0007905100339
0.0007920491636
0.0007935926373
0.0007949967242
0.0007961047056
0.0007967482567
0.0007917566255
0.0007925680042
0.000793715714
0.0007951062278
0.0007966285167
0.0007981550312
0.0007995436195
0.0008006393122
0.0008012756925
0.0007963367656
0.0007971391828
0.0007982741808
0.0007996492339
0.000801154516
0.0008026638824
0.0008040367789
0.0008051200144
0.0008057491179
0.0008008633786
0.0008016567111
0.000802778812
0.0008041381615
0.0008056261464
0.0008071180464
0.0008084749356
0.0008095454454
0.0008101671063
0.0008053354316
0.0008061194842
0.0008072283981
0.0008085716709
0.0008100419208
0.0008115158823
0.0008128563038
0.0008139137008
0.0008145276826
0.000809751425
0.0008105259171
0.0008116212313
0.0008129479009
0.0008143998043
0.0008158551752
0.0008171784987
0.0008182222576
0.0008188282411
0.0008141093203
0.0008148738722
0.0008159550307
0.0008172643925
0.0008186971372
0.000820133057
0.0008214384563
0.0008224678924
0.0008230654633
0.0008184064664
0.0008191605848
0.0008202268677
0.0008215180134
0.0008229305577
0.0008243459288
0.0008256323556
0.0008266466037
0.0008272352407
0.0008226395279
0.0008233825907
0.0008244330935
0.0008257048861
0.0008270959312
0.000828489391
0.000829755549
0.0008307535435
0.0008313326061
0.000826804418
0.0008275356612
0.0008285692746
0.0008298203247
0.0008311882892
0.000832558185
0.0008338025077
0.0008347829647
0.0008353516836
0.0008308962435
0.0008316147483
0.0008326301421
0.0008338587877
0.0008352017866
0.0008365461547
0.0008377667872
0.0008387281915
0.0008392856609
0.000834909265
0.0008356139489
0.0008366095588
0.0008378138515
0.0008391296813
0.0008404462345
0.0008416410234
0.0008425816211
0.0008431267951
0.00083883688
0.0008395264927
0.0008405005154
0.0008416782135
0.0008429643469
0.0008442504711
0.0008454169642
0.0008463347642
0.0008468664587
0.0008426716356
0.0008433447591
0.0008442951539
0.0008454437288
0.0008466973243
0.0008479500894
0.0008490855465
0.0008499783322
0.0008504952324
0.0008464052778
0.0008470603351
0.0008479848373
0.0008491014909
0.0008503194149
0.0008515356017
0.0008526370244
0.0008535023772
0.0008540030534
0.0008500288434
0.000850664115
0.0008515602615
0.0008526419598
0.0008538208273
0.000854996973
0.0008560611485
0.0008568964878
0.0008573794189
0.000853532798
0.0008541464486
0.0008550116171
0.0008560551414
0.0008571913763
0.000858323839
0.0008593474047
0.0008601500413
0.0008606136484
0.0008569072236
0.0008574973386
0.0008583288016
0.0008593308179