/*--------------------------------*- C++ -*----------------------------------*\
| =========                 |                                                 |
| \\      /  F ield         | OpenFOAM: The Open Source CFD Toolbox           |
|  \\    /   O peration     | Version:  2212                                  |
|   \\  /    A nd           | Website:  www.openfoam.com                      |
|    \\/     M anipulation  |                                                 |
\*---------------------------------------------------------------------------*/
FoamFile
{
    version     2.0;
    format      ascii;
    arch        "LSB;label=32;scalar=64";
    class       volScalarField;
    location    "20.00000000";
    object      H_0;
}
// * * * * * * * * * * * * * * * * * * * * * * * * * * * * * * * * * * * * * //

dimensions      [0 0 0 0 0 0 0];

internalField   nonuniform List<scalar> 
3000
(
1.410932576e-28
1.584195135e-28
1.845103266e-28
2.191488774e-28
2.617901025e-28
3.108627259e-28
3.624999329e-28
4.08475026e-28
4.344206497e-28
5.276252722e-28
5.943932819e-28
6.946536865e-28
8.275527339e-28
9.916807343e-28
1.183850619e-27
1.396785833e-27
1.61354034e-27
1.78753391e-27
1.175998852e-27
1.334276463e-27
1.573830177e-27
1.896004473e-27
2.303106208e-27
2.795561494e-27
3.363332899e-27
3.964139274e-27
4.447535352e-27
2.227988196e-27
2.552903589e-27
3.051547423e-27
3.736141318e-27
4.623765532e-27
5.726566569e-27
7.024651798e-27
8.398312234e-27
9.459407153e-27
3.93498071e-27
4.562417238e-27
5.540443025e-27
6.909812245e-27
8.721694506e-27
1.100868577e-26
1.371001878e-26
1.65135964e-26
1.859047213e-26
6.731026243e-27
7.902483141e-27
9.755113224e-27
1.239106741e-26
1.592774568e-26
2.042355112e-26
2.570839389e-26
3.108088806e-26
3.494067887e-26
1.136986347e-26
1.351263558e-26
1.694202781e-26
2.187972802e-26
2.856123177e-26
3.706918144e-26
4.699586775e-26
5.691964329e-26
6.393247409e-26
1.915140522e-26
2.301555011e-26
2.925728254e-26
3.831954822e-26
5.0642156e-26
6.63215611e-26
8.448483874e-26
1.024195696e-25
1.149664518e-25
3.232160787e-26
3.92195546e-26
5.043820863e-26
6.681878412e-26
8.915104078e-26
1.175204628e-25
1.501914699e-25
1.821752434e-25
2.044256307e-25
5.475900244e-26
6.697993209e-26
8.695452056e-26
1.162308383e-25
1.561991995e-25
2.068868801e-25
2.650026824e-25
3.215667231e-25
3.608038762e-25
9.31672279e-26
1.146972984e-25
1.500125855e-25
2.019061643e-25
2.728029864e-25
3.625865247e-25
4.652027683e-25
5.646988906e-25
6.336376461e-25
1.591376528e-25
1.969089615e-25
2.590230412e-25
3.504570431e-25
4.754255408e-25
6.335164967e-25
8.13809706e-25
9.881917205e-25
1.109000536e-24
2.727247801e-25
3.387836982e-25
4.476182717e-25
6.080275476e-25
8.273288118e-25
1.104545672e-24
1.420229759e-24
1.725095617e-24
1.936403686e-24
4.686422871e-25
5.839130782e-25
7.74087826e-25
1.054642509e-24
1.43827902e-24
1.922976342e-24
2.474381773e-24
3.006405245e-24
3.375488056e-24
8.070062597e-25
1.00782681e-24
1.339490734e-24
1.829130951e-24
2.498808281e-24
3.344609308e-24
4.306168551e-24
5.233457757e-24
5.877501052e-24
1.391964838e-24
1.741436721e-24
2.319094333e-24
3.172447322e-24
4.33992895e-24
5.814391056e-24
7.490159425e-24
9.105797359e-24
1.02287037e-23
2.404008233e-24
3.011697287e-24
4.016894651e-24
5.502774448e-24
7.536621269e-24
1.01062719e-23
1.30279009e-23
1.584676879e-23
1.779850371e-23
4.156034904e-24
5.212142015e-24
6.960074683e-24
9.545116612e-24
1.308458503e-23
1.755696566e-23
2.264146941e-23
2.754666145e-23
3.093744027e-23
7.190781392e-24
9.025599818e-24
1.206380328e-23
1.655895331e-23
2.271561408e-23
3.049619656e-23
3.934153101e-23
4.786736998e-23
5.375506409e-23
1.245020828e-23
1.563759689e-23
2.091777513e-23
2.873338278e-23
3.944179426e-23
5.29787574e-23
6.837141757e-23
8.320292898e-23
9.338835093e-23
2.15702947e-23
2.71079519e-23
3.62855308e-23
4.987641093e-23
6.850650754e-23
9.206843041e-23
1.188715911e-22
1.4469623e-22
1.622809637e-22
3.739484568e-23
4.701896872e-23
6.297652067e-23
8.662087284e-23
1.190520951e-22
1.600962368e-22
2.068208718e-22
2.518764147e-22
2.825844569e-22
6.487277538e-23
8.160867592e-23
1.093732665e-22
1.50540881e-22
2.070546236e-22
2.786465418e-22
3.602383162e-22
4.390195258e-22
4.92808549e-22
1.126287907e-22
1.41757405e-22
1.901142764e-22
2.618809026e-22
3.605142656e-22
4.856393662e-22
6.284812322e-22
7.666834134e-22
8.613073576e-22
1.957221908e-22
2.464841144e-22
3.308298954e-22
4.56163822e-22
6.286965952e-22
8.480105648e-22
1.098993232e-21
1.342564668e-21
1.510053735e-21
3.405115205e-22
4.291272656e-22
5.765459697e-22
7.959750367e-22
1.098714012e-21
1.484628895e-21
1.927819084e-21
2.359829403e-21
2.658806209e-21
5.932738794e-22
7.483310142e-22
1.006691309e-21
1.39213817e-21
1.925552767e-21
2.608169526e-21
3.395909042e-21
4.168550156e-21
4.708158435e-21
1.035569559e-21
1.30770651e-21
1.762112031e-21
2.44212173e-21
3.387033953e-21
4.60256879e-21
6.014463633e-21
7.410923163e-21
8.398342586e-21
1.811826281e-21
2.291296888e-21
3.094138193e-21
4.30042481e-21
5.985625205e-21
8.168254127e-21
1.072502886e-20
1.328144338e-20
1.511822487e-20
3.179279988e-21
4.028141477e-21
5.454631532e-21
7.609086616e-21
1.063953256e-20
1.459843998e-20
1.928560624e-20
2.403599264e-20
2.751717225e-20
5.599274128e-21
7.111054005e-21
9.663163258e-21
1.354279562e-20
1.904644253e-20
2.631281619e-20
3.502778172e-20
4.400477019e-20
5.073751377e-20
9.906020336e-21
1.26177168e-20
1.722134796e-20
2.427558913e-20
3.438615601e-20
4.790447947e-20
6.436525432e-20
8.164049545e-20
9.493727946e-20
1.76224006e-20
2.252755713e-20
3.091197164e-20
4.388235172e-20
6.269837417e-20
8.822543397e-20
1.198459354e-19
1.537227503e-19
1.805297044e-19
3.155892904e-20
4.051873262e-20
5.595743006e-20
8.010606217e-20
1.156250067e-19
1.646027047e-19
2.264155564e-19
2.941047783e-19
3.492018548e-19
5.696626835e-20
7.351421466e-20
1.022929096e-19
1.478736601e-19
2.159476531e-19
3.11479329e-19
4.344350924e-19
5.721164062e-19
6.87316571e-19
1.037867813e-19
1.347265986e-19
1.890936854e-19
2.763917258e-19
4.089207213e-19
5.983404279e-19
8.470187229e-19
1.131616201e-18
1.375952455e-18
1.911224303e-19
2.49746419e-19
3.539238489e-19
5.236615293e-19
7.857461804e-19
1.167277993e-18
1.677896478e-18
2.274312799e-18
2.798253032e-18
3.56241591e-19
4.689003013e-19
6.714818497e-19
1.006536428e-18
1.532691368e-18
2.312305776e-18
3.37446565e-18
4.637877677e-18
5.769597202e-18
6.730203852e-19
8.92700304e-19
1.292502849e-18
1.963622743e-18
3.034664278e-18
4.647606394e-18
6.879828494e-18
9.575998324e-18
1.20289305e-17
1.290270408e-18
1.724963023e-18
2.525408831e-18
3.888032566e-18
6.094752343e-18
9.464969325e-18
1.418960279e-17
1.996483462e-17
2.527896543e-17
2.512521248e-18
3.385039196e-18
5.009317103e-18
7.809296998e-18
1.240066636e-17
1.949192388e-17
2.952855867e-17
4.189884624e-17
5.336271078e-17
4.972456569e-18
6.74744505e-18
1.008339338e-17
1.589431742e-17
2.551545917e-17
4.049248307e-17
6.181592737e-17
8.82141563e-17
1.127517276e-16
1.000305722e-17
1.365797695e-17
2.05796726e-17
3.273039113e-17
5.297621902e-17
8.462395348e-17
1.297756286e-16
1.857067639e-16
2.376509398e-16
2.044793759e-17
2.80526639e-17
4.253062499e-17
6.806343849e-17
1.107206632e-16
1.7741906e-16
2.724064205e-16
3.897065589e-16
4.981656932e-16
4.243721454e-17
5.839413924e-17
8.885216626e-17
1.426314231e-16
2.323767787e-16
3.721922483e-16
5.702064963e-16
8.131306279e-16
1.036044643e-15
8.92925121e-17
1.22985449e-16
1.872836683e-16
3.005580653e-16
4.886673609e-16
7.795825703e-16
1.187895231e-15
1.683962686e-15
2.134459451e-15
1.901098938e-16
2.615423024e-16
3.974607772e-16
6.355966999e-16
1.027808705e-15
1.627995235e-15
2.460360958e-15
3.459168716e-15
4.354731502e-15
4.085245494e-16
5.60254298e-16
8.474270358e-16
1.346464579e-15
2.159477852e-15
3.387589826e-15
5.067052547e-15
7.053875368e-15
8.809708257e-15
8.832709735e-16
1.205469413e-15
1.810981121e-15
2.852772956e-15
4.529168148e-15
7.026442048e-15
1.039211142e-14
1.431609101e-14
1.773190675e-14
1.914244437e-15
2.596702266e-15
3.869088841e-15
6.03540191e-15
9.479215107e-15
1.454405976e-14
2.128453042e-14
2.904721312e-14
3.571466659e-14
4.140428434e-15
5.578748201e-15
8.239513235e-15
1.272678361e-14
1.979013039e-14
3.008551103e-14
4.368828307e-14
5.926091926e-14
7.253037604e-14
8.896230773e-15
1.190419336e-14
1.743167769e-14
2.668807406e-14
4.117718296e-14
6.224512272e-14
9.012692718e-14
1.221876507e-13
1.495661588e-13
1.890215941e-14
2.51267616e-14
3.650999555e-14
5.550345556e-14
8.523207347e-14
1.286963187e-13
1.868938396e-13
2.548917488e-13
3.137721289e-13
3.95677349e-14
5.228260429e-14
7.547281474e-14
1.141637133e-13
1.750229479e-13
2.650407303e-13
3.877947135e-13
5.344049203e-13
6.638540531e-13
8.145627267e-14
1.070709312e-13
1.537476854e-13
2.317963946e-13
3.5543845e-13
5.406093082e-13
7.971925896e-13
1.108471523e-12
1.386492996e-12
1.651101405e-13
2.160718509e-13
3.089083949e-13
4.644457836e-13
7.119427299e-13
1.084520223e-12
1.601800261e-12
2.22612719e-12
2.777396761e-12
3.310077979e-13
4.31453372e-13
6.141375332e-13
9.196167221e-13
1.403679263e-12
2.12465972e-12
3.103543936e-12
4.242992707e-12
5.206699709e-12
6.607570251e-13
8.573612555e-13
1.212873204e-12
1.801298014e-12
2.716513917e-12
4.036034177e-12
5.738888397e-12
7.593216654e-12
9.057456572e-12
1.320796324e-12
1.701632442e-12
2.381095079e-12
3.480225598e-12
5.127738112e-12
7.375344092e-12
1.0071316e-11
1.27785696e-11
1.476832031e-11
2.641819987e-12
3.361888215e-12
4.616106009e-12
6.569408412e-12
9.341615478e-12
1.286612208e-11
1.677793018e-11
2.044245031e-11
2.299788236e-11
5.228499652e-12
6.526543007e-12
8.710425972e-12
1.194480984e-11
1.625229126e-11
2.136624951e-11
2.671487837e-11
3.152050901e-11
3.477102404e-11
1.003507275e-11
1.221208932e-11
1.573027894e-11
2.067499111e-11
2.690155965e-11
3.395071905e-11
4.109725827e-11
4.739836078e-11
5.158328136e-11
1.830069673e-11
2.166372844e-11
2.6907973e-11
3.398888281e-11
4.260337644e-11
5.214306082e-11
6.170519271e-11
7.006572341e-11
7.554377909e-11
3.139920125e-11
3.626084801e-11
4.367376596e-11
5.347481504e-11
6.523217403e-11
7.816394515e-11
9.108120464e-11
1.02317932e-10
1.095980911e-10
5.091807606e-11
5.770943063e-11
6.796409064e-11
8.141996956e-11
9.749822402e-11
1.151574389e-10
1.327729132e-10
1.480406997e-10
1.578459202e-10
7.904157256e-11
8.843669044e-11
1.025747172e-10
1.21084585e-10
1.43186335e-10
1.674577051e-10
1.916590195e-10
2.12593114e-10
2.259574051e-10
1.189001344e-10
1.318851663e-10
1.51401468e-10
1.76937195e-10
2.074270366e-10
2.409317686e-10
2.743661608e-10
3.032840839e-10
3.216901233e-10
1.747714707e-10
1.927111926e-10
2.196566121e-10
2.549085253e-10
2.970307942e-10
3.433917226e-10
3.897528102e-10
4.299233339e-10
4.554858512e-10
2.522559548e-10
2.769769203e-10
3.141037067e-10
3.627023204e-10
4.208600244e-10
4.850320109e-10
5.49416889e-10
6.053939987e-10
6.410872275e-10
3.584560878e-10
3.923712152e-10
4.433245254e-10
5.100971798e-10
5.90176953e-10
6.788281114e-10
7.681459223e-10
8.461484009e-10
8.960632638e-10
5.021764972e-10
5.484164348e-10
6.179364918e-10
7.091810596e-10
8.188940182e-10
9.407996793e-10
1.064187578e-09
1.172480078e-09
1.242079626e-09
6.940527737e-10
7.565922415e-10
8.507050737e-10
9.744418216e-10
1.123628648e-09
1.290013292e-09
1.459186019e-09
1.608389929e-09
1.704713388e-09
9.465705677e-10
1.030324683e-09
1.15648181e-09
1.322627487e-09
1.523453955e-09
1.748190858e-09
1.977624262e-09
2.180864604e-09
2.312616934e-09
1.273923922e-09
1.384783013e-09
1.551900515e-09
1.772295774e-09
2.039250545e-09
2.3388153e-09
2.645653695e-09
2.918442447e-09
3.095904573e-09
1.691669041e-09
1.836437713e-09
2.05478232e-09
2.343002577e-09
2.692612397e-09
3.085696313e-09
3.489290416e-09
3.849067198e-09
4.083778139e-09
2.216148057e-09
2.40235912e-09
2.683238925e-09
3.054136808e-09
3.50434332e-09
4.011074363e-09
4.532108406e-09
4.997412901e-09
5.301613582e-09
2.863689128e-09
3.099277788e-09
3.454520887e-09
3.923488201e-09
4.49268723e-09
5.133480055e-09
5.792734104e-09
6.382076133e-09
6.767987017e-09
3.649631938e-09
3.942479813e-09
4.383723564e-09
4.965717759e-09
5.671538293e-09
6.465691054e-09
7.282598099e-09
8.013209638e-09
8.492166645e-09
4.587273279e-09
4.944661098e-09
5.482520292e-09
6.190963229e-09
7.048945161e-09
8.013212029e-09
9.004545769e-09
9.891414408e-09
1.047411374e-08
5.686864106e-09
6.11489994e-09
6.758123439e-09
7.603834807e-09
8.626225467e-09
9.773675717e-09
1.095267857e-08
1.200922121e-08
1.270766212e-08
6.954807865e-09
7.457921187e-09
8.212678357e-09
9.203073385e-09
1.039799099e-08
1.173731774e-08
1.311415194e-08
1.435168225e-08
1.516849608e-08
8.393214007e-09
8.973843198e-09
9.843260637e-09
1.098179553e-08
1.235329327e-08
1.389010299e-08
1.54712814e-08
1.688827896e-08
1.782313714e-08
9.999958214e-09
1.065827289e-08
1.164256942e-08
1.292972854e-08
1.447970446e-08
1.62144804e-08
1.799233196e-08
1.958263431e-08
2.063191848e-08
1.176954216e-08
1.250432204e-08
1.36018868e-08
1.503765726e-08
1.676042775e-08
1.868031373e-08
2.064235604e-08
2.239506835e-08
2.35519233e-08
1.36974172e-08
1.450805907e-08
1.57159961e-08
1.728815323e-08
1.916784628e-08
2.125598856e-08
2.338509241e-08
2.528498558e-08
2.653962411e-08
1.577897175e-08
1.665700628e-08
1.796220233e-08
1.965547683e-08
2.167372066e-08
2.390958056e-08
2.618461506e-08
2.821281529e-08
2.955298295e-08
1.799212262e-08
1.892846e-08
2.031729522e-08
2.211419295e-08
2.424992423e-08
2.660987749e-08
2.900656981e-08
3.114139423e-08
3.255292157e-08
2.031526432e-08
2.129996315e-08
2.275760148e-08
2.463881874e-08
2.686886978e-08
2.932706258e-08
3.181896627e-08
3.403681542e-08
3.550420494e-08
2.272596355e-08
2.374837307e-08
2.525898376e-08
2.720398613e-08
2.950386602e-08
3.203314455e-08
3.459261656e-08
3.686885491e-08
3.837586247e-08
2.520078217e-08
2.624983287e-08
2.779704108e-08
2.978471231e-08
3.212940742e-08
3.470221622e-08
3.730133401e-08
3.96111098e-08
4.114129023e-08
2.771553942e-08
2.87800663e-08
3.034743444e-08
3.235670471e-08
3.472142072e-08
3.731061297e-08
3.992198988e-08
4.224096208e-08
4.377815786e-08
3.024576175e-08
3.131480836e-08
3.288627872e-08
3.489668375e-08
3.725749061e-08
3.983702052e-08
4.24344957e-08
4.473944864e-08
4.626820729e-08
3.276720989e-08
3.383029073e-08
3.539056221e-08
3.738271055e-08
3.971707249e-08
4.226255608e-08
4.482174799e-08
4.709108396e-08
4.859699616e-08
3.525641844e-08
3.630373098e-08
3.783855998e-08
3.979450054e-08
4.208168573e-08
4.45708272e-08
4.706954927e-08
4.928365734e-08
5.075361331e-08
3.769120091e-08
3.871378553e-08
4.021020991e-08
4.211370043e-08
4.433507347e-08
4.674796223e-08
4.916650675e-08
5.130801328e-08
5.273037972e-08
4.005108511e-08
4.104093536e-08
4.248742574e-08
4.432410872e-08
4.646331489e-08
4.878260427e-08
5.11039065e-08
5.315781786e-08
5.452254188e-08
4.231765625e-08
4.326778424e-08
4.465433008e-08
4.641182653e-08
4.845488062e-08
5.066586339e-08
5.287556177e-08
5.48293135e-08
5.612796257e-08
4.447479763e-08
4.537926081e-08
4.669740074e-08
4.8365334e-08
5.030062903e-08
5.239122691e-08
5.447763717e-08
5.63210659e-08
5.754681436e-08
4.650882992e-08
4.736272608e-08
4.860553258e-08
5.017549554e-08
5.199374708e-08
5.395443183e-08
5.590845334e-08
5.763370761e-08
5.878128066e-08
4.840855845e-08
4.920799573e-08
5.037002411e-08
5.183550252e-08
5.352964375e-08
5.535330671e-08
5.716827793e-08
5.876968358e-08
5.983526922e-08
5.016524289e-08
5.09072909e-08
5.198450164e-08
5.334076516e-08
5.490580632e-08
5.658759112e-08
5.825910954e-08
5.973300317e-08
6.071414136e-08
5.17725054e-08
5.245513291e-08
5.34447953e-08
5.468876621e-08
5.61216299e-08
5.76587411e-08
5.918446026e-08
6.052900256e-08
6.142445983e-08
5.322619318e-08
5.384819689e-08
5.474878029e-08
5.587888807e-08
5.717823003e-08
5.856972786e-08
5.994914195e-08
6.116412029e-08
6.197375628e-08
5.452420944e-08
5.508513723e-08
5.589619532e-08
5.69122235e-08
5.807824623e-08
5.932483562e-08
6.055905986e-08
6.164568762e-08
6.237031905e-08
5.566632439e-08
5.616639595e-08
5.688844779e-08
5.77913782e-08
5.882564333e-08
5.992946334e-08
6.102101632e-08
6.198173487e-08
6.262300086e-08
5.665397542e-08
5.709400235e-08
5.772841345e-08
5.852027168e-08
5.942551529e-08
6.038993364e-08
6.134252648e-08
6.21808139e-08
6.2741046e-08
5.749006356e-08
5.78713706e-08
5.842023628e-08
5.910394118e-08
5.988389545e-08
6.07133117e-08
6.153164719e-08
6.225183702e-08
6.2733936e-08
5.817875146e-08
5.850310004e-08
5.896913286e-08
5.954835232e-08
6.020757587e-08
6.090723549e-08
6.159681989e-08
6.220393193e-08
6.261125303e-08
5.872526677e-08
5.899478186e-08
5.938120448e-08
5.986021901e-08
6.040393771e-08
6.0979759e-08
6.154672782e-08
6.204631259e-08
6.238256025e-08
5.913571375e-08
5.935281484e-08
5.966325935e-08
6.004683473e-08
6.048079405e-08
6.09392089e-08
6.139016803e-08
6.178816554e-08
6.205729815e-08
5.941689551e-08
5.958423213e-08
5.982264648e-08
6.011591625e-08
6.044624617e-08
6.079405548e-08
6.113593789e-08
6.143855114e-08
6.164469606e-08
5.957614807e-08
5.969654036e-08
5.986710267e-08
6.007546108e-08
6.030855389e-08
6.055279788e-08
6.079273607e-08
6.100631928e-08
6.115369803e-08
5.962118784e-08
5.969757254e-08
5.980461337e-08
5.9933619e-08
6.007602016e-08
6.02238635e-08
6.03690776e-08
6.050003876e-08
6.059290221e-08
5.955997305e-08
5.959535483e-08
5.964328774e-08
5.969857794e-08
5.975689e-08
5.981552152e-08
5.987322246e-08
5.992793975e-08
5.997051275e-08
5.940057955e-08
5.939798799e-08
5.93912483e-08
5.93784643e-08
5.935926345e-08
5.933581005e-08
5.931311713e-08
5.929786836e-08
5.929430336e-08
5.915109127e-08
5.911354327e-08
5.905653495e-08
5.898125734e-08
5.889102226e-08
5.879247612e-08
5.869634815e-08
5.861725247e-08
5.857159142e-08
5.881950512e-08
5.874997268e-08
5.864702299e-08
5.851471719e-08
5.835976948e-08
5.819292787e-08
5.803010698e-08
5.789307773e-08
5.780922153e-08
5.841365e-08
5.831503308e-08
5.817035477e-08
5.798632583e-08
5.777278127e-08
5.7544198e-08
5.732116492e-08
5.713187272e-08
5.701355754e-08
5.794111932e-08
5.781622357e-08
5.763388393e-08
5.740324015e-08
5.713696995e-08
5.685291743e-08
5.657585722e-08
5.633970222e-08
5.619048192e-08
5.740921624e-08
5.726073517e-08
5.704463165e-08
5.677225612e-08
5.645885727e-08
5.612529816e-08
5.58000753e-08
5.552216745e-08
5.53454013e-08
5.682491076e-08
5.665541203e-08
5.640925365e-08
5.609978311e-08
5.574455683e-08
5.536712416e-08
5.499926581e-08
5.468441224e-08
5.448325734e-08
5.619480756e-08
5.600672301e-08
5.573401705e-08
5.539182716e-08
5.499976463e-08
5.458374935e-08
5.41784357e-08
5.383113414e-08
5.360854179e-08
5.552512357e-08
5.532074249e-08
5.50247859e-08
5.465398218e-08
5.422975646e-08
5.378010146e-08
5.334216222e-08
5.296659957e-08
5.272531491e-08
5.482167416e-08
5.460313945e-08
5.428701427e-08
5.389142796e-08
5.343939133e-08
5.296069091e-08
5.249460683e-08
5.2094662e-08
5.183722652e-08
5.408986676e-08
5.38591736e-08
5.352574583e-08
5.310893396e-08
5.263311978e-08
5.21296236e-08
5.16395323e-08
5.121878256e-08
5.09475387e-08
5.333470092e-08
5.309369749e-08
5.274561896e-08
5.231086781e-08
5.181499614e-08
5.129061697e-08
5.078032212e-08
5.034205218e-08
5.005914983e-08
5.256077368e-08
5.231116366e-08
5.195087626e-08
5.150120775e-08
5.0988694e-08
5.04470184e-08
4.992000153e-08
4.946721487e-08
4.917461911e-08
5.177228937e-08
5.151563587e-08
5.114537775e-08
5.068355804e-08
5.015752396e-08
4.960182528e-08
4.906125971e-08
4.859669143e-08
4.829619126e-08
5.097307293e-08
5.071080348e-08
5.033261675e-08
4.986116666e-08
4.93244532e-08
4.875770622e-08
4.820647239e-08
4.773260319e-08
4.742582102e-08
5.016658589e-08
4.989999834e-08
4.951573793e-08
4.903694461e-08
4.849212604e-08
4.791702285e-08
4.735772467e-08
4.687679557e-08
4.656519706e-08
4.935594442e-08
4.908621341e-08
4.869755677e-08
4.821348626e-08
4.766288518e-08
4.708185182e-08
4.651683353e-08
4.603086098e-08
4.571576504e-08
4.854393871e-08
4.827212258e-08
4.788057988e-08
4.739309027e-08
4.683879313e-08
4.625400653e-08
4.568536982e-08
4.519616086e-08
4.487874976e-08
4.77330532e-08
4.746010117e-08
4.706702578e-08
4.657778063e-08
4.602165342e-08
4.543505848e-08
4.486467956e-08
4.437384686e-08
4.405517612e-08
4.692548725e-08
4.665224665e-08
4.625884578e-08
4.576932757e-08
4.521303142e-08
4.462635789e-08
4.405590426e-08
4.356488082e-08
4.324588892e-08
4.612317581e-08
4.58503993e-08
4.545774453e-08
4.496926794e-08
4.441427453e-08
4.382905346e-08
4.326000021e-08
4.277005362e-08
4.245157133e-08
4.532780981e-08
4.505616251e-08
4.466520007e-08
4.417892498e-08
4.362653142e-08
4.304411116e-08
4.247775665e-08
4.199000275e-08
4.167276209e-08
4.454085605e-08
4.427092244e-08
4.388248326e-08
4.339942727e-08
4.285077052e-08
4.227233194e-08
4.170981284e-08
4.122522873e-08
4.090987148e-08
4.376357636e-08
4.349586694e-08
4.311067626e-08
4.263172674e-08
4.208779728e-08
4.151436837e-08
4.095667385e-08
4.047611022e-08
4.016319594e-08
4.299704591e-08
4.273200362e-08
4.235069017e-08
4.187661568e-08
4.133827058e-08
4.077074018e-08
4.021872531e-08
3.974291796e-08
3.943293153e-08
4.224217052e-08
4.198017674e-08
4.160328146e-08
4.113474256e-08
4.060271772e-08
4.004184846e-08
3.949624682e-08
3.902582755e-08
3.871918622e-08
4.149970306e-08
4.124108331e-08
4.086906748e-08
4.040662689e-08
3.988154853e-08
3.932798893e-08
3.87894243e-08
3.832493097e-08
3.802199091e-08
4.077025876e-08
4.051528804e-08
4.014854098e-08
3.969267302e-08
3.917506842e-08
3.862936409e-08
3.809836137e-08
3.764024725e-08
3.734130964e-08
4.005432947e-08
3.980323725e-08
3.944208345e-08
3.899318291e-08
3.848349033e-08
3.794609442e-08
3.742308965e-08
3.697173204e-08
3.667704864e-08
3.935229679e-08
3.910527166e-08
3.874997738e-08
3.830836769e-08
3.780694557e-08
3.727822839e-08
3.676357806e-08
3.631928625e-08
3.602906455e-08
3.866444412e-08
3.842163807e-08
3.807241756e-08
3.763835832e-08
3.714549384e-08
3.662575168e-08
3.611974126e-08
3.56827638e-08
3.539717175e-08
3.799096793e-08
3.775250015e-08
3.740952126e-08
3.698321532e-08
3.649913216e-08
3.598859547e-08
3.549144721e-08
3.506197859e-08
3.478114893e-08
3.733199029e-08
3.709794862e-08
3.676133774e-08
3.634293753e-08
3.58678031e-08
3.536664391e-08
3.4878524e-08
3.445671075e-08
3.418074493e-08
3.668756743e-08
3.645801068e-08
3.612785694e-08
3.57174702e-08
3.525140215e-08
3.475974088e-08
3.428076593e-08
3.386671215e-08
3.359568391e-08
3.605768785e-08
3.583266151e-08
3.550901796e-08
3.510671255e-08
3.464978453e-08
3.416769608e-08
3.369793899e-08
3.329171135e-08
3.302566998e-08
3.544228599e-08
3.522181809e-08
3.490471437e-08
3.451052411e-08
3.406277124e-08
3.359029045e-08
3.312978575e-08
3.2731418e-08
3.247039123e-08
3.484126442e-08
3.462536289e-08
3.431480484e-08
3.392873149e-08
3.349015459e-08
3.302728113e-08
3.257602959e-08
3.218552662e-08
3.192952329e-08
3.425448597e-08
3.404313903e-08
3.373911474e-08
3.336113279e-08
3.293170275e-08
3.247840554e-08
3.203637854e-08
3.165372005e-08
3.140273248e-08
3.368178207e-08
3.347496492e-08
3.317743999e-08
3.280750168e-08
3.238716383e-08
3.194338517e-08
3.151052857e-08
3.11356724e-08
3.088967853e-08
3.312295647e-08
3.292063257e-08
3.262955513e-08
3.226759267e-08
3.185626993e-08
3.142192903e-08
3.099816661e-08
3.063105165e-08
3.039001695e-08
3.257778921e-08
3.237991128e-08
3.209521207e-08
3.174114342e-08
3.133874003e-08
3.091373641e-08
3.049897302e-08
3.01395219e-08
2.99034011e-08
3.204604115e-08
3.185255372e-08
3.157415288e-08
3.122787987e-08
3.083428325e-08
3.041849945e-08
3.001262381e-08
2.966074529e-08
2.942948398e-08
3.152745726e-08
3.133829793e-08
3.106610613e-08
3.072752027e-08
3.034260147e-08
2.993590546e-08
2.953879263e-08
2.919438377e-08
2.89679197e-08
3.102176977e-08
3.083687009e-08
3.057078882e-08
3.023976727e-08
2.986338999e-08
2.946563861e-08
2.907715243e-08
2.874010049e-08
2.851836491e-08
3.052870108e-08
3.03479877e-08
3.008791163e-08
2.976432437e-08
2.939634165e-08
2.900738197e-08
2.862737699e-08
2.829756114e-08
2.808047981e-08
3.004796634e-08
2.987136198e-08
2.961718024e-08
2.930089056e-08
2.894114767e-08
2.856081893e-08
2.818914212e-08
2.786643494e-08
2.765392918e-08
2.957927572e-08
2.94067e-08
2.915829731e-08
2.884916276e-08
2.849749934e-08
2.812563453e-08
2.776212684e-08
2.744639562e-08
2.723838312e-08
2.912233628e-08
2.89537065e-08
2.871096444e-08
2.840883944e-08
2.80650894e-08
2.770151653e-08
2.734601421e-08
2.703712211e-08
2.683351772e-08
2.867685345e-08
2.851208502e-08
2.827488209e-08
2.797961556e-08
2.7643612e-08
2.728815608e-08
2.694049205e-08
2.663829917e-08
2.643901554e-08
2.82425326e-08
2.808153973e-08
2.784975291e-08
2.756119283e-08
2.723276535e-08
2.688524882e-08
2.65452536e-08
2.624961788e-08
2.605456611e-08
2.781908014e-08
2.766177636e-08
2.743528169e-08
2.715327498e-08
2.683225159e-08
2.649249539e-08
2.615999804e-08
2.587077604e-08
2.567986615e-08
2.740620457e-08
2.725250308e-08
2.703117624e-08
2.675556932e-08
2.644177746e-08
2.610960192e-08
2.578443089e-08
2.55014785e-08
2.531461991e-08
2.700361739e-08
2.685343146e-08
2.663714818e-08
2.636778763e-08
2.606105489e-08
2.573628051e-08
2.541826433e-08
2.514143737e-08
2.495853931e-08
2.66110338e-08
2.646427705e-08
2.625291364e-08
2.598964674e-08
2.568980147e-08
2.537224956e-08
2.506121747e-08
2.479037224e-08
2.461134407e-08
2.62281734e-08
2.608476011e-08
2.58781938e-08
2.562086898e-08
2.532774085e-08
2.501723409e-08
2.471301658e-08
2.444801029e-08
2.427276184e-08
2.585476066e-08
2.571460597e-08
2.551271525e-08
2.526118255e-08
2.4974603e-08
2.46709659e-08
2.437339515e-08
2.411408635e-08
2.394252814e-08
2.549052533e-08
2.535354546e-08
2.51562104e-08
2.491032178e-08
2.463012442e-08
2.433318376e-08
2.404209404e-08
2.378834293e-08
2.362038645e-08
2.51352027e-08
2.500131514e-08
2.480841761e-08
2.456802728e-08
2.429404825e-08
2.400363341e-08
2.371886145e-08
2.347053023e-08
2.330608811e-08
2.478853385e-08
2.465765748e-08
2.446908137e-08
2.423404605e-08
2.396612431e-08
2.368206761e-08
2.340345292e-08
2.316040603e-08
2.299939224e-08
2.44502656e-08
2.432232086e-08
2.413795229e-08
2.390813145e-08
2.364610905e-08
2.336824603e-08
2.309563118e-08
2.28577356e-08
2.270006565e-08
2.412015051e-08
2.399505947e-08
2.381478693e-08
2.359004301e-08
2.333376534e-08
2.306193506e-08
2.279516594e-08
2.256229143e-08
2.240788254e-08
2.379794649e-08
2.367563299e-08
2.349934751e-08
2.327954608e-08
2.302886211e-08
2.276290738e-08
2.250183353e-08
2.227385291e-08
2.21226242e-08
2.348341628e-08
2.336380598e-08
2.319140122e-08
2.297641118e-08
2.273117368e-08
2.247094134e-08
2.22154162e-08
2.199220565e-08
2.184407841e-08
2.317632642e-08
2.305934689e-08
2.289071928e-08
2.268041299e-08
2.244047869e-08
2.218581985e-08
2.193570111e-08
2.171714049e-08
2.157203842e-08
2.287644584e-08
2.276202654e-08
2.25970753e-08
2.239132868e-08
2.215655848e-08
2.190732877e-08
2.166247866e-08
2.14484519e-08
2.130630139e-08
2.258354356e-08
2.247161587e-08
2.231024301e-08
2.210893555e-08
2.187919456e-08
2.163525432e-08
2.13955399e-08
2.118593538e-08
2.10466659e-08
2.229738553e-08
2.21878826e-08
2.202999278e-08
2.183300743e-08
2.160816496e-08
2.136937927e-08
2.113467269e-08
2.092938356e-08
2.079292806e-08
2.201773004e-08
2.191058658e-08
2.17560868e-08
2.156330963e-08
2.134323889e-08
2.110947745e-08
2.087965594e-08
2.067858042e-08
2.054487562e-08
2.174432156e-08
2.163947336e-08
2.148827232e-08
2.129959177e-08
2.108416926e-08
2.085530584e-08
2.063025143e-08
2.043329283e-08
2.030227947e-08
2.147688223e-08
2.137426544e-08
2.122627243e-08
2.104157771e-08
2.083068236e-08
2.060659375e-08
2.038619243e-08
2.019325866e-08
2.006488151e-08
2.12151009e-08
2.111465096e-08
2.096977455e-08
2.07889547e-08
2.058246468e-08
2.036302833e-08
2.014716822e-08
1.995817062e-08
1.983237797e-08
2.095861879e-08
2.086026876e-08
2.07184143e-08
2.054135498e-08
2.033914465e-08
2.012423539e-08
1.991280371e-08
1.972765477e-08
1.960439727e-08
2.070701157e-08
2.061068969e-08
2.04717557e-08
2.029833424e-08
2.010026994e-08
1.988975508e-08
1.968263341e-08
1.95012429e-08
1.938047134e-08
2.045976737e-08
2.036539379e-08
2.02292673e-08
2.00593472e-08
1.986527992e-08
1.965901188e-08
1.945606913e-08
1.927833819e-08
1.915999989e-08
2.021626051e-08
2.012374306e-08
1.999029328e-08
1.982371573e-08
1.963347238e-08
1.943127872e-08
1.92323612e-08
1.905817384e-08
1.894220714e-08
1.997572075e-08
1.988494954e-08
1.975402004e-08
1.959059455e-08
1.940396499e-08
1.92056351e-08
1.901055336e-08
1.883976482e-08
1.872609155e-08
1.973719838e-08
1.964803897e-08
1.951943773e-08
1.935892967e-08
1.917565151e-08
1.898092011e-08
1.878943217e-08
1.862185394e-08
1.851036926e-08
1.949952587e-08
1.941181109e-08
1.92852979e-08
1.912741247e-08
1.89471546e-08
1.875568202e-08
1.856747291e-08
1.840285406e-08
1.829341376e-08
1.926127755e-08
1.91747986e-08
1.905007318e-08
1.889443702e-08
1.871677788e-08
1.852812667e-08
1.834278435e-08
1.81807895e-08
1.807319466e-08
1.902072878e-08
1.893522531e-08
1.881191295e-08
1.865805478e-08
1.848245916e-08
1.829606814e-08
1.811305661e-08
1.795324093e-08
1.784722038e-08
1.877581766e-08
1.869096704e-08
1.856860335e-08
1.841593454e-08
1.824172923e-08
1.805688616e-08
1.787551678e-08
1.771729929e-08
1.761249059e-08
1.85241168e-08
1.843952995e-08
1.831753654e-08
1.816533165e-08
1.799168136e-08
1.780749568e-08
1.762689874e-08
1.746953551e-08
1.736546567e-08
1.826281802e-08
1.817801381e-08
1.80556937e-08
1.790307165e-08
1.772895686e-08
1.754433518e-08
1.736343419e-08
1.720599404e-08
1.71020617e-08
1.798871034e-08
1.790312055e-08
1.777964419e-08
1.762555315e-08
1.744975308e-08
1.726338061e-08
1.708087291e-08
1.692221876e-08
1.681768019e-08
1.769820744e-08
1.76111688e-08
1.748556674e-08
1.732877642e-08
1.714986092e-08
1.696019279e-08
1.677454054e-08
1.661332038e-08
1.650728199e-08
1.738738236e-08
1.729813659e-08
1.716930074e-08
1.700840494e-08
1.682473847e-08
1.66300053e-08
1.643944169e-08
1.627409362e-08
1.616551437e-08
1.705203643e-08
1.695973752e-08
1.682643277e-08
1.665986558e-08
1.646962794e-08
1.626786009e-08
1.607041503e-08
1.589919096e-08
1.578689783e-08
1.668780532e-08
1.659153522e-08
1.645242355e-08
1.627849207e-08
1.607971923e-08
1.58687942e-08
1.566234468e-08
1.548335682e-08
1.536607661e-08
1.629030472e-08
1.618909879e-08
1.60427781e-08
1.585971432e-08
1.565036256e-08
1.542807886e-08
1.521042732e-08
1.502172112e-08
1.489813093e-08
1.585531675e-08
1.574819996e-08
1.559325885e-08
1.539929254e-08