/*--------------------------------*- C++ -*----------------------------------*\
| =========                 |                                                 |
| \\      /  F ield         | OpenFOAM: The Open Source CFD Toolbox           |
|  \\    /   O peration     | Version:  2212                                  |
|   \\  /    A nd           | Website:  www.openfoam.com                      |
|    \\/     M anipulation  |                                                 |
\*---------------------------------------------------------------------------*/
FoamFile
{
    version     2.0;
    format      ascii;
    arch        "LSB;label=32;scalar=64";
    class       volScalarField;
    location    "20.00000000";
    object      I-C4H3_0;
}
// * * * * * * * * * * * * * * * * * * * * * * * * * * * * * * * * * * * * * //

dimensions      [0 0 0 0 0 0 0];

internalField   nonuniform List<scalar> 
3000
(
8.551090006e-24
9.60604697e-24
1.119797186e-23
1.331935742e-23
1.594864601e-23
1.901444378e-23
2.233205465e-23
2.549770525e-23
2.773623796e-23
3.210456002e-23
3.62107843e-23
4.240439995e-23
5.067629532e-23
6.101828739e-23
7.337306048e-23
8.752616164e-23
1.02763105e-22
1.162605743e-22
7.191241258e-23
8.174687776e-23
9.672227044e-23
1.170555102e-22
1.431123131e-22
1.752707163e-22
2.134041835e-22
2.553717525e-22
2.912400187e-22
1.36974528e-22
1.573377902e-22
1.88800466e-22
2.324272144e-22
2.897637284e-22
3.622670051e-22
4.495414836e-22
5.446004552e-22
6.21327134e-22
2.43231991e-22
2.828210768e-22
3.449519507e-22
4.32780815e-22
5.504388453e-22
7.012239037e-22
8.826172909e-22
1.0752507e-21
1.223124198e-21
4.182585791e-22
4.925634505e-22
6.108492063e-22
7.806651536e-22
1.011070403e-21
1.307862995e-21
1.662179226e-21
2.029337236e-21
2.30097393e-21
7.100630219e-22
8.465579346e-22
1.06637715e-21
1.385524025e-21
1.821772576e-21
2.383797731e-21
3.048355928e-21
3.723566495e-21
4.210778572e-21
1.201691177e-21
1.448724937e-21
1.850104536e-21
2.437368062e-21
3.243277101e-21
4.279442623e-21
5.493885731e-21
6.709838237e-21
7.572602055e-21
2.037045911e-21
2.479418874e-21
3.202840268e-21
4.266659291e-21
5.729160039e-21
7.604417026e-21
9.786506226e-21
1.194858334e-20
1.346572449e-20
3.465316274e-21
4.251261829e-21
5.542428747e-21
7.447294093e-21
1.006766162e-20
1.341877116e-20
1.729659697e-20
2.111068413e-20
2.376715157e-20
5.918291662e-21
7.306434753e-21
9.594165877e-21
1.297612083e-20
1.762857349e-20
2.356513433e-20
3.040644653e-20
3.710080887e-20
4.173995674e-20
1.014431759e-20
1.258520684e-20
1.6616751e-20
2.258412669e-20
3.079154156e-20
4.124545315e-20
5.325614592e-20
6.496655443e-20
7.305381081e-20
1.744085025e-20
2.171865747e-20
2.87948591e-20
3.927707869e-20
5.368986167e-20
7.202183296e-20
9.303712285e-20
1.134751591e-19
1.27556642e-19
3.005800426e-20
3.753669939e-20
4.992063217e-20
6.827432551e-20
9.350231573e-20
1.25554805e-19
1.622381129e-19
1.978501166e-19
2.223495635e-19
5.189904659e-20
6.495020264e-20
8.657746142e-20
1.1864037e-19
1.626999388e-19
2.186293968e-19
2.825584055e-19
3.445414873e-19
3.871519501e-19
8.973617837e-20
1.124822662e-19
1.50195833e-19
2.061215405e-19
2.829616647e-19
3.80450827e-19
4.91790468e-19
5.996382154e-19
6.737423854e-19
1.553202956e-19
1.949250537e-19
2.606190356e-19
3.580628758e-19
4.919565958e-19
6.618190756e-19
8.557815987e-19
1.043552867e-18
1.172281093e-18
2.690424735e-19
3.379484051e-19
4.522783527e-19
6.218853094e-19
8.549119872e-19
1.150435251e-18
1.487690793e-18
1.813946686e-18
2.037536213e-18
4.662939311e-19
5.861117102e-19
7.849537058e-19
1.079950164e-18
1.485200925e-18
1.998978368e-18
2.585052762e-18
3.151765783e-18
3.540045244e-18
8.085093557e-19
1.016773428e-18
1.362440894e-18
1.875279126e-18
2.579716806e-18
3.472598818e-18
4.490806894e-18
5.475054353e-18
6.149210766e-18
1.402340983e-18
1.764240445e-18
2.364956211e-18
3.256193511e-18
4.48028432e-18
6.03153376e-18
7.80006331e-18
9.509127727e-18
1.067950239e-17
2.432947202e-18
3.061694466e-18
4.10539358e-18
5.653811041e-18
7.780282693e-18
1.047457185e-17
1.354548867e-17
1.6512376e-17
1.854368441e-17
4.221776888e-18
5.313970378e-18
7.126970521e-18
9.816529535e-18
1.350960799e-17
1.8187789e-17
2.351847374e-17
2.866710438e-17
3.219125133e-17
7.326829674e-18
9.223820435e-18
1.237259884e-17
1.70432153e-17
2.345525265e-17
3.157544487e-17
4.082520713e-17
4.975600752e-17
5.586707618e-17
1.271656154e-17
1.601091823e-17
2.147859864e-17
2.958740421e-17
4.071656483e-17
5.480556121e-17
7.084777663e-17
8.633005595e-17
9.691986771e-17
2.207127193e-17
2.779135656e-17
3.728347735e-17
5.135702239e-17
7.066557875e-17
9.509792709e-17
1.22902385e-16
1.497210669e-16
1.680552014e-16
3.830477981e-17
4.823436113e-17
6.470789804e-17
8.912360043e-17
1.226047712e-16
1.649443992e-16
2.130931612e-16
2.594996745e-16
2.912020219e-16
6.646611551e-17
8.369702079e-17
1.122741412e-16
1.546079354e-16
2.126218819e-16
2.859251272e-16
3.692069311e-16
4.493944248e-16
5.041215004e-16
1.152949476e-16
1.451807018e-16
1.947233498e-16
2.680674022e-16
3.684906353e-16
4.952440547e-16
6.390737159e-16
7.773762701e-16
8.71646173e-16
1.998981651e-16
2.51695144e-16
3.375101379e-16
4.64444832e-16
6.380500621e-16
8.568702264e-16
1.10477294e-15
1.342741153e-15
1.504676558e-15
3.463419344e-16
4.360239475e-16
5.844923491e-16
8.038631125e-16
1.103461664e-15
1.48042514e-15
1.906621776e-15
2.314848324e-15
2.592055938e-15
5.995019515e-16
7.545664742e-16
1.01102816e-15
1.389444761e-15
1.905325243e-15
2.552989117e-15
3.283381968e-15
3.981078422e-15
4.453601288e-15
1.03642785e-15
1.304060035e-15
1.746164366e-15
2.397385421e-15
3.283189179e-15
4.392248415e-15
5.639074323e-15
6.826128196e-15
7.62748427e-15
1.78898665e-15
2.249839566e-15
3.009995197e-15
4.127351387e-15
5.643059774e-15
7.534515492e-15
9.652935072e-15
1.166176648e-14
1.30126766e-14
3.082021807e-15
3.87330415e-15
5.176124221e-15
7.086262962e-15
9.668894805e-15
1.287906094e-14
1.645843479e-14
1.983677169e-14
2.209847658e-14
5.297275457e-15
6.651102206e-15
8.875281371e-15
1.212634282e-14
1.65049113e-14
2.192221687e-14
2.79313677e-14
3.357251596e-14
3.732983673e-14
9.079764852e-15
1.13862415e-14
1.516573492e-14
2.06703659e-14
2.80504791e-14
3.713268076e-14
4.714780894e-14
5.649268677e-14
6.268152528e-14
1.551354225e-14
1.942340529e-14
2.581095081e-14
3.507535955e-14
4.743168464e-14
6.254588172e-14
7.910295936e-14
9.444885081e-14
1.045490969e-13
2.640984434e-14
3.299946031e-14
4.372751057e-14
5.921339598e-14
7.974646743e-14
1.046936028e-13
1.318252779e-13
1.567909517e-13
1.731143725e-13
4.477556252e-14
5.580872612e-14
7.370017018e-14
9.938851383e-14
1.332278547e-13
1.740399873e-13
2.180819663e-13
2.582989001e-13
2.844133881e-13
7.556808525e-14
9.390565268e-14
1.235110985e-13
1.657676025e-13
2.210381462e-13
2.871730733e-13
3.579589162e-13
4.220858135e-13
4.634335558e-13
1.26900026e-13
1.571315705e-13
2.057036449e-13
2.745877028e-13
3.640040606e-13
4.701110756e-13
5.827205318e-13
6.839158309e-13
7.487052012e-13
2.119426796e-13
2.613460075e-13
3.403068687e-13
4.515228193e-13
5.947400875e-13
7.632372444e-13
9.40526109e-13
1.098564513e-12
1.199046027e-12
3.519018601e-13
4.318787894e-13
5.589983737e-13
7.367640242e-13
9.638001382e-13
1.228593538e-12
1.504818631e-12
1.749107924e-12
1.903386518e-12
5.806196904e-13
7.088130852e-13
9.113972764e-13
1.192606636e-12
1.548767504e-12
1.960565339e-12
2.386534904e-12
2.760385329e-12
2.994978593e-12
9.516118479e-13
1.154983776e-12
1.474480269e-12
1.914674e-12
2.467569487e-12
3.101409504e-12
3.751748264e-12
4.318377748e-12
4.671808194e-12
1.548709761e-12
1.86795985e-12
2.36653433e-12
3.048374959e-12
3.89782596e-12
4.863660271e-12
5.84699465e-12
6.697931568e-12
7.22574795e-12
2.501979277e-12
2.99781457e-12
3.767644079e-12
4.812840603e-12
6.10476466e-12
7.562251512e-12
9.035414196e-12
1.03022019e-11
1.108397065e-11
4.011283361e-12
4.7732286e-12
5.949520785e-12
7.535481842e-12
9.481233562e-12
1.166029989e-11
1.384805177e-11
1.571848892e-11
1.686749401e-11
6.380818636e-12
7.539496263e-12
9.31859733e-12
1.170154407e-11
1.460471087e-11
1.783400865e-11
2.105631611e-11
2.379692052e-11
2.54735738e-11
1.006928376e-11
1.181342038e-11
1.447785372e-11
1.802473111e-11
2.231808462e-11
2.706421101e-11
3.177384488e-11
3.576083063e-11
3.819119724e-11
1.576217067e-11
1.836203983e-11
2.231496922e-11
2.754731384e-11
3.384353108e-11
4.07648574e-11
4.759907204e-11
5.336097771e-11
5.686233652e-11
2.44751924e-11
2.831484872e-11
3.412713966e-11
4.178080457e-11
5.094185459e-11
6.096243405e-11
7.081400638e-11
7.909038289e-11
8.410633997e-11
3.769868695e-11
4.331963466e-11
5.17945296e-11
6.290248171e-11
7.61353628e-11
9.054640609e-11
1.046608252e-10
1.164823812e-10
1.23630883e-10
5.760314642e-11
6.5764374e-11
7.802567452e-11
9.403010432e-11
1.130166862e-10
1.336144741e-10
1.537224218e-10
1.705204813e-10
1.806595909e-10
8.732614517e-11
9.908557758e-11
1.166973558e-10
1.396020623e-10
1.666754519e-10
1.959485909e-10
2.244456743e-10
2.482005741e-10
2.62517494e-10
1.313711732e-10
1.481960512e-10
1.733248378e-10
2.059015773e-10
2.442847819e-10
2.85667307e-10
3.258565112e-10
3.592971645e-10
3.794274319e-10
1.96159167e-10
2.200752076e-10
2.557090763e-10
3.017761073e-10
3.559038585e-10
4.141159495e-10
4.705331984e-10
5.174042252e-10
5.455908486e-10
2.907869326e-10
3.245792866e-10
3.748228628e-10
4.396197181e-10
5.155709883e-10
5.970762975e-10
6.759271888e-10
7.4134798e-10
7.806565544e-10
4.280637053e-10
4.755467013e-10
5.460169209e-10
6.367068006e-10
7.42784297e-10
8.564030888e-10
9.66150535e-10
1.057102035e-09
1.111715176e-09
6.259177029e-10
6.922952791e-10
7.906500101e-10
9.169908423e-10
1.064496045e-09
1.22222835e-09
1.374386621e-09
1.500373337e-09
1.575992562e-09
9.092886084e-10
1.001633696e-09
1.138275253e-09
1.313514411e-09
1.517784852e-09
1.735918086e-09
1.946126091e-09
2.120072516e-09
2.224462928e-09
1.312651115e-09
1.440541515e-09
1.629551802e-09
1.871619512e-09
2.153418037e-09
2.454014859e-09
2.743479262e-09
2.982936282e-09
3.126661268e-09
1.883354406e-09
2.059715866e-09
2.320099064e-09
2.653198039e-09
3.040565742e-09
3.453448831e-09
3.850870344e-09
4.179628539e-09
4.377034475e-09
2.686013603e-09
2.928234299e-09
3.285560402e-09
3.742268004e-09
4.272973579e-09
4.838350027e-09
5.382473512e-09
5.832701794e-09
6.10322458e-09
3.808234254e-09
4.139624351e-09
4.628180224e-09
5.252198333e-09
5.97694234e-09
6.748838771e-09
7.491792825e-09
8.106839068e-09
8.476713548e-09
5.367975629e-09
5.819654526e-09
6.485224411e-09
7.33493353e-09
8.321489338e-09
9.372190299e-09
1.038379893e-08
1.122180034e-08
1.172625905e-08
7.522871265e-09
8.136173779e-09
9.039582669e-09
1.019256803e-08
1.153105094e-08
1.295673837e-08
1.432998857e-08
1.546843839e-08
1.615448397e-08
1.048181202e-08
1.131130298e-08
1.253285151e-08
1.409155967e-08
1.590099795e-08
1.782876646e-08
1.968659003e-08
2.122798366e-08
2.215780394e-08
1.451902085e-08
1.563618866e-08
1.7281076e-08
1.937971285e-08
2.181603554e-08
2.44123898e-08
2.691584721e-08
2.899446912e-08
3.024952626e-08
1.999067955e-08
2.148833109e-08
2.369308874e-08
2.650577158e-08
2.977120525e-08
3.325200716e-08
3.660981999e-08
3.939961221e-08
4.108536285e-08
2.735387104e-08
2.935116738e-08
3.229099928e-08
3.604100433e-08
4.039466173e-08
4.503625946e-08
4.951540084e-08
5.323864849e-08
5.548972617e-08
3.718716482e-08
3.983510951e-08
4.373184005e-08
4.870152953e-08
5.447066027e-08
6.062158237e-08
6.655828203e-08
7.149454833e-08
7.448005173e-08
5.02116001e-08
5.369861903e-08
5.88286909e-08
6.536936252e-08
7.296032645e-08
8.105247133e-08
8.88625396e-08
9.535689457e-08
9.928518621e-08
6.731015941e-08
7.186720752e-08
7.856886833e-08
8.710938021e-08
9.701694589e-08
1.075747021e-07
1.177615935e-07
1.262307742e-07
1.313529464e-07
8.954318167e-08
9.544760888e-08
1.041261338e-07
1.15178796e-07
1.27991963e-07
1.416372865e-07
1.5479595e-07
1.657307961e-07
1.723417862e-07
1.181566936e-07
1.257339555e-07
1.368635556e-07
1.510255636e-07
1.674279089e-07
1.848792373e-07
2.016937325e-07
2.156562397e-07
2.240925605e-07
1.545805303e-07
1.642028016e-07
1.783238653e-07
1.962726091e-07
2.170353174e-07
2.390984884e-07
2.603317566e-07
2.779456025e-07
2.885796468e-07
2.004135307e-07
2.124944317e-07
2.302050131e-07
2.526860193e-07
2.786523567e-07
3.062024617e-07
3.326774844e-07
3.546119492e-07
3.678415969e-07
2.573941139e-07
2.723791101e-07
2.943201439e-07
3.221271934e-07
3.541881863e-07
3.881424206e-07
4.207155279e-07
4.476626979e-07
4.63899058e-07
3.273560941e-07
3.457086589e-07
3.725431788e-07
4.064911453e-07
4.455534818e-07
4.868365926e-07
5.2636311e-07
5.590090039e-07
5.786523852e-07
4.121714662e-07
4.34355673e-07
4.667432998e-07
5.076359102e-07
5.545843479e-07
6.04088481e-07
6.513837607e-07
6.903693015e-07
7.137924603e-07
5.136837425e-07
5.401449273e-07
5.787134393e-07
6.273074658e-07
6.829650009e-07
7.415064035e-07
7.972990636e-07
8.431916432e-07
8.707210509e-07
6.336369592e-07
6.647810954e-07
7.1009748e-07
7.67068019e-07
8.321524351e-07
9.004248359e-07
9.653244073e-07
1.018589512e-06
1.050488987e-06
7.736052753e-07
8.097804459e-07
8.623229169e-07
9.282224134e-07
1.00330708e-06
1.081851579e-06
1.156318716e-06
1.21729731e-06
1.253755283e-06
9.349236132e-07
9.763966524e-07
1.036524176e-06
1.111758546e-06
1.197248585e-06
1.286428118e-06
1.370753209e-06
1.439646245e-06
1.480767359e-06
1.118614058e-06
1.165560951e-06
1.233501001e-06
1.318311095e-06
1.414424551e-06
1.514407764e-06
1.608698695e-06
1.685559156e-06
1.731360352e-06
1.325350438e-06
1.377848086e-06
1.453685886e-06
1.548136834e-06
1.654895505e-06
1.765650418e-06
1.869829372e-06
1.954561503e-06
2.004972289e-06
1.555429285e-06
1.613452053e-06
1.697126904e-06
1.801105771e-06
1.918335227e-06
2.039632012e-06
2.153440408e-06
2.245805248e-06
2.300671565e-06
1.808756744e-06
1.872177664e-06
1.963485797e-06
2.076706916e-06
2.204044653e-06
2.335466213e-06
2.45847641e-06
2.558102406e-06
2.617193335e-06
2.084851024e-06
2.153447085e-06
2.252050134e-06
2.374066899e-06
2.510977118e-06
2.651935829e-06
2.783567983e-06
2.889965354e-06
2.952981888e-06
2.382858957e-06
2.456319708e-06
2.561757609e-06
2.691979231e-06
2.837772556e-06
2.987531409e-06
3.127073844e-06
3.239651414e-06
3.306236534e-06
2.701584549e-06
2.779523095e-06
2.891230126e-06
3.028941806e-06
3.18279823e-06
3.340494693e-06
3.487126303e-06
3.605209635e-06
3.674959038e-06
3.03952693e-06
3.121492432e-06
3.23881516e-06
3.383200195e-06
3.544193703e-06
3.7088648e-06
3.861678182e-06
3.984528047e-06
4.057000986e-06
3.39492497e-06
3.480415843e-06
3.602631842e-06
3.75279439e-06
3.919917938e-06
4.090525326e-06
4.248549603e-06
4.375380023e-06
4.450109835e-06
3.765805893e-06
3.854282999e-06
3.980619446e-06
4.135606895e-06
4.307796687e-06
4.483250767e-06
4.645473329e-06
4.775468628e-06
4.851972643e-06
4.150035428e-06
4.24093475e-06
4.37058616e-06
4.529410322e-06
4.705568627e-06
4.88475102e-06
5.050137626e-06
5.182468124e-06
5.260256755e-06
4.545367417e-06
4.638111827e-06
4.770256447e-06
4.931913033e-06
5.110929017e-06
5.292712953e-06
5.460225884e-06
5.594061987e-06
5.672646883e-06
4.949491211e-06
5.043501072e-06
5.177315623e-06
5.34080167e-06
5.521569953e-06
5.704838345e-06
5.873452418e-06
6.007977026e-06
6.086878239e-06
5.360075588e-06
5.454778084e-06
5.589450675e-06
5.753779778e-06
5.935216584e-06
6.11887771e-06
6.287594123e-06
6.422013325e-06
6.500765476e-06
5.774808343e-06
5.869645482e-06
6.004386679e-06
6.168601998e-06
6.349658912e-06
6.532659719e-06
6.700517778e-06
6.834069893e-06
6.912227384e-06
6.191431054e-06
6.285866379e-06
6.419918459e-06
6.583103572e-06
6.76277899e-06
6.944116153e-06
7.110202978e-06
7.242166021e-06
7.319307329e-06
6.607768792e-06
6.70129286e-06
6.833937365e-06
6.995225109e-06
7.172573532e-06
7.351302389e-06
7.514760749e-06
7.644458437e-06
7.720189561e-06
7.021754793e-06
7.113889527e-06
7.244453241e-06
7.403032686e-06
7.577172035e-06
7.7524136e-06
7.912448022e-06
8.039254439e-06
8.113211565e-06
7.431450256e-06
7.521752272e-06
7.649611784e-06
7.80473353e-06
7.974850664e-06
8.14579688e-06
8.301678199e-06
8.425021237e-06
8.496872691e-06
7.835059569e-06
7.923122587e-06
8.047707577e-06
8.198687545e-06
8.364042175e-06
8.529959597e-06
8.681028093e-06
8.800391796e-06
8.869839342e-06
8.230941312e-06
8.316397762e-06
8.437193163e-06
8.583415054e-06
8.743342229e-06
8.903574297e-06
9.049241578e-06
9.164167484e-06
9.230947049e-06
8.617615455e-06
8.70013737e-06
8.816684548e-06
8.95760112e-06
9.11151245e-06
9.265480521e-06
9.405230277e-06
9.515317881e-06
9.579199751e-06
8.993767165e-06
9.073066458e-06
9.184963521e-06
9.320096849e-06
9.467480613e-06
9.61468389e-06
9.748071653e-06
9.852978084e-06
9.913766638e-06
9.358247645e-06
9.434075856e-06
9.540977223e-06
9.669918048e-06
9.810338337e-06
9.950352834e-06
1.007700487e-05
1.017644387e-05
1.023397691e-05
9.710072424e-06
9.782219998e-06
9.883835316e-06
1.000624163e-05
1.013933665e-05
1.027181332e-05
1.039142476e-05
1.048516507e-05
1.05393128e-05
1.004841747e-05
1.011671265e-05
1.021280516e-05
1.032840013e-05
1.045387978e-05
1.057854193e-05
1.069087424e-05
1.077873745e-05
1.082940114e-05
1.037261352e-05
1.043692091e-05
1.052730535e-05
1.063587466e-05
1.07535175e-05
1.087015758e-05
1.09750355e-05
1.105689352e-05
1.110400391e-05
1.068213893e-05
1.074235774e-05
1.082689786e-05
1.092828662e-05
1.103793635e-05
1.114641227e-05
1.124372027e-05
1.131949236e-05
1.136300793e-05
1.097661133e-05
1.103267351e-05
1.111127927e-05
1.12053885e-05
1.130695001e-05
1.140718103e-05
1.149685944e-05
1.156650904e-05
1.160641401e-05
1.125577853e-05
1.130764658e-05
1.138027108e-05
1.146705398e-05
1.156048908e-05
1.165245141e-05
1.173449225e-05
1.179802358e-05
1.183432587e-05
1.151950864e-05
1.156717338e-05
1.163380967e-05
1.171326759e-05
1.179859054e-05
1.188231268e-05
1.195675534e-05
1.201420982e-05
1.204693894e-05
1.176777989e-05
1.181125813e-05
1.187193583e-05
1.194411412e-05
1.2021387e-05
1.209694502e-05
1.216387178e-05
1.221532443e-05
1.224452929e-05
1.200067022e-05
1.204000238e-05
1.209478424e-05
1.215976807e-05
1.222909608e-05
1.229660876e-05
1.235614028e-05
1.240169611e-05
1.242744284e-05
1.221834688e-05
1.225359454e-05
1.230257304e-05
1.236048313e-05
1.242200985e-05
1.248163388e-05
1.253392478e-05
1.257371512e-05
1.259608495e-05
1.24210561e-05
1.245229963e-05
1.24955935e-05
1.254658199e-05
1.260048475e-05
1.265241e-05
1.269764442e-05
1.273182343e-05
1.27509106e-05
1.260911303e-05
1.263644922e-05
1.267420017e-05
1.271844643e-05
1.276493178e-05
1.280937668e-05
1.284776404e-05
1.28765053e-05
1.289241502e-05
1.278289208e-05
1.280643189e-05
1.283880127e-05
1.287650803e-05
1.291580734e-05
1.295301441e-05
1.298478534e-05
1.300827858e-05
1.302112515e-05
1.294281767e-05
1.2962684e-05
1.298984975e-05
1.302123923e-05
1.305360451e-05
1.308383619e-05
1.310923864e-05
1.312768668e-05
1.313759165e-05
1.308935553e-05
1.310568113e-05
1.312783479e-05
1.315314515e-05
1.31788451e-05
1.320237974e-05
1.322167535e-05
1.323529118e-05
1.324238173e-05
1.322300451e-05
1.323593004e-05
1.325327397e-05
1.327275591e-05
1.329207224e-05
1.330920038e-05
1.332266112e-05
1.333166526e-05
1.333607258e-05
1.33442891e-05
1.335396128e-05
1.336670606e-05
1.338061968e-05
1.339384366e-05
1.340486464e-05
1.341276968e-05
1.341738776e-05
1.341924567e-05
1.345375247e-05
1.346032238e-05
1.346868444e-05
1.347729639e-05
1.348472572e-05
1.348994451e-05
1.349257742e-05
1.349303791e-05
1.349248159e-05
1.355195021e-05
1.355557174e-05
1.355977119e-05
1.3563352e-05
1.356528796e-05
1.356501239e-05
1.356265856e-05
1.355919083e-05
1.355635566e-05
1.363944469e-05
1.364027317e-05
1.364053177e-05
1.363935354e-05
1.363609846e-05
1.363063663e-05
1.362358103e-05
1.361641356e-05
1.361143413e-05
1.371680006e-05
1.371499095e-05
1.371153043e-05
1.370586468e-05
1.369771962e-05
1.368737769e-05
1.367590287e-05
1.366526174e-05
1.365827095e-05
1.37845778e-05
1.378028563e-05
1.377332606e-05
1.37634419e-05
1.375070472e-05
1.373578496e-05
1.372016932e-05
1.370627683e-05
1.369740516e-05
1.384333292e-05
1.38367103e-05
1.382646879e-05
1.381263129e-05
1.379559485e-05
1.377639398e-05
1.375691026e-05
1.373998385e-05
1.37293587e-05
1.389361067e-05
1.388480741e-05
1.387149692e-05
1.385396576e-05
1.383291652e-05
1.380972421e-05
1.378663829e-05
1.376688955e-05
1.375463472e-05
1.393594373e-05
1.39251062e-05
1.390893454e-05
1.388796278e-05
1.386317954e-05
1.383627732e-05
1.380984714e-05
1.378748105e-05
1.37737163e-05
1.397084997e-05
1.395812044e-05
1.393928945e-05
1.391512264e-05
1.388687552e-05
1.385653575e-05
1.382701049e-05
1.380222478e-05
1.378706551e-05
1.399883053e-05
1.398434669e-05
1.396305159e-05
1.393592695e-05
1.390447658e-05
1.387096171e-05
1.383858116e-05
1.381156586e-05
1.379512284e-05
1.402036835e-05
1.400426297e-05
1.398069182e-05
1.395083763e-05
1.391643455e-05
1.387999652e-05
1.384499059e-05
1.381592767e-05
1.379830684e-05
1.403592713e-05
1.401832771e-05
1.3992661e-05
1.396029617e-05
1.392318035e-05
1.388406019e-05
1.384664855e-05
1.381571169e-05
1.379701407e-05
1.404595044e-05
1.402697905e-05
1.399938943e-05
1.396472315e-05
1.392512368e-05
1.388355125e-05
1.384394316e-05
1.381129761e-05
1.379161921e-05
1.405086132e-05
1.403063439e-05
1.400128646e-05
1.396451805e-05
1.392265298e-05
1.387884681e-05
1.383724098e-05
1.380304352e-05
1.378247538e-05
1.405106191e-05
1.402969021e-05
1.399874048e-05
1.396005923e-05
1.391613549e-05
1.387030277e-05
1.382688741e-05
1.379128638e-05
1.376991454e-05
1.40469335e-05
1.402452209e-05
1.39921189e-05
1.395170417e-05
1.390591759e-05
1.385825421e-05
1.381320711e-05
1.37763425e-05
1.375424811e-05
1.403883669e-05
1.401548493e-05
1.398176854e-05
1.393978973e-05
1.389232519e-05
1.38430159e-05
1.379650458e-05
1.37585082e-05
1.373576759e-05
1.402711169e-05
1.400291331e-05
1.396801594e-05
1.392463271e-05
1.387566426e-05
1.382488289e-05
1.377706483e-05
1.373806048e-05
1.371474529e-05
1.401207902e-05
1.398712208e-05
1.395116801e-05
1.390653038e-05
1.385622153e-05
1.38041312e-05
1.375515408e-05
1.371525777e-05
1.369143512e-05
1.399404024e-05
1.3968407e-05
1.393151264e-05
1.388576117e-05
1.383426508e-05
1.378101856e-05
1.373102058e-05
1.369034079e-05
1.366607339e-05
1.397327846e-05
1.394704538e-05
1.390931931e-05
1.386258536e-05
1.381004516e-05
1.375578515e-05
1.370489533e-05
1.36635333e-05
1.363887963e-05
1.395005778e-05
1.392329648e-05
1.388483974e-05
1.383724571e-05
1.378379485e-05
1.372865439e-05
1.367699294e-05
1.363504295e-05
1.361005744e-05
1.392462339e-05
1.38974014e-05
1.385830816e-05
1.380996809e-05
1.375573082e-05
1.369983367e-05
1.364751242e-05
1.360506208e-05
1.357979532e-05
1.389720318e-05
1.386958359e-05
1.38299422e-05
1.378096223e-05
1.372605407e-05
1.366951523e-05
1.361663796e-05
1.357376857e-05
1.354826745e-05
1.386800918e-05
1.384005087e-05
1.379994371e-05
1.375042254e-05
1.369495072e-05
1.363787685e-05
1.358453975e-05
1.35413266e-05
1.351563455e-05
1.383723822e-05
1.380899597e-05
1.376850008e-05
1.371852901e-05
1.366259286e-05
1.36050827e-05
1.355137479e-05
1.35078875e-05
1.348204465e-05
1.380507259e-05
1.377659707e-05
1.373578348e-05
1.368544762e-05
1.362913923e-05
1.357128413e-05
1.351728764e-05
1.34735905e-05
1.344763387e-05
1.377168097e-05
1.374301906e-05
1.370195362e-05
1.365133165e-05
1.359473615e-05
1.353662047e-05
1.348241127e-05
1.343856353e-05
1.341252722e-05
1.373721928e-05
1.370841427e-05
1.366715774e-05
1.361632246e-05
1.355951838e-05
1.350121984e-05
1.344686777e-05
1.340292392e-05
1.337683929e-05
1.370183138e-05
1.367292324e-05
1.363153171e-05
1.358055042e-05
1.352360985e-05
1.346519988e-05
1.341076909e-05
1.336677917e-05
1.3340675e-05
1.366564981e-05
1.363667526e-05
1.359520019e-05
1.354413441e-05
1.348712401e-05
1.342866829e-05
1.337421768e-05
1.333022757e-05
1.330413023e-05
1.362879648e-05
1.359978927e-05
1.355827801e-05
1.350718447e-05
1.345016508e-05
1.339172374e-05
1.333730719e-05
1.329335886e-05
1.326729245e-05
1.359138337e-05
1.356237446e-05
1.35208704e-05
1.346980109e-05
1.341282835e-05
1.335445635e-05
1.330012309e-05
1.325625486e-05
1.323024138e-05
1.355351311e-05
1.35245308e-05
1.348307357e-05
1.343207585e-05
1.337520073e-05
1.331694828e-05
1.326274323e-05
1.321899e-05
1.319304948e-05
1.351527962e-05
1.348634971e-05
1.344497544e-05
1.339409239e-05
1.333736149e-05
1.327927434e-05
1.322523838e-05
1.318163189e-05
1.315578254e-05
1.347676873e-05
1.344791475e-05
1.340665635e-05
1.335592736e-05
1.329938287e-05
1.324150257e-05
1.318767279e-05
1.314424185e-05
1.311850017e-05
1.343805877e-05
1.340930207e-05
1.336818943e-05
1.331765018e-05
1.326133047e-05
1.32036947e-05
1.315010471e-05
1.310687536e-05
1.308125627e-05
1.339922106e-05
1.337058103e-05
1.332964123e-05
1.327932403e-05
1.32232638e-05
1.316590663e-05
1.311258676e-05
1.306958252e-05
1.304409946e-05
1.336032046e-05
1.333181461e-05
1.329107213e-05
1.324100616e-05
1.318523676e-05
1.312818889e-05
1.307516647e-05
1.303240847e-05
1.300707355e-05
1.332141583e-05
1.329305996e-05
1.325253687e-05
1.32027484e-05
1.314729803e-05
1.309058705e-05
1.303788661e-05
1.29953938e-05
1.297021784e-05
1.328256046e-05
1.325436879e-05
1.321408491e-05
1.316459754e-05
1.310949148e-05
1.30531421e-05
1.300078555e-05
1.295857488e-05
1.293356755e-05
1.32438025e-05
1.321578776e-05
1.317576086e-05
1.312659568e-05
1.307185653e-05
1.30158908e-05
1.296389769e-05
1.29219842e-05
1.289715411e-05
1.320518533e-05
1.31773589e-05
1.313760481e-05
1.308878066e-05
1.303442851e-05
1.297886601e-05
1.292725367e-05
1.288565071e-05
1.286100545e-05
1.316674792e-05
1.313911991e-05
1.309965273e-05
1.305118628e-05
1.299723895e-05
1.294209701e-05
1.289088072e-05
1.284960005e-05
1.282514631e-05
1.312852515e-05
1.310110452e-05
1.306193669e-05
1.30138427e-05
1.296031589e-05
1.290560973e-05
1.285480291e-05
1.281385483e-05
1.278959846e-05
1.309054806e-05
1.306334271e-05
1.302448518e-05
1.297677658e-05
1.292368405e-05
1.286942699e-05
1.281904134e-05
1.277843479e-05
1.275438089e-05
1.305284411e-05
1.302586093e-05
1.298732327e-05
1.294001135e-05
1.288736507e-05
1.283356866e-05
1.27836143e-05
1.274335701e-05
1.271950994e-05
1.301543729e-05
1.298868227e-05
1.295047279e-05
1.290356731e-05
1.28513776e-05
1.279805175e-05
1.274853734e-05
1.270863589e-05
1.268499938e-05
1.29783482e-05
1.29518265e-05
1.29139523e-05
1.286746161e-05
1.281573725e-05
1.276289038e-05
1.271382323e-05
1.267428317e-05
1.265086034e-05
1.294159399e-05
1.291530997e-05
1.287777705e-05
1.283170816e-05
1.278045651e-05
1.272809562e-05
1.267948176e-05
1.264030764e-05
1.261710105e-05
1.290518809e-05
1.287914533e-05
1.284195863e-05
1.279631727e-05
1.274554431e-05
1.269367502e-05
1.264551929e-05
1.260671471e-05
1.258372635e-05
1.286913966e-05
1.2843341e-05
1.280650439e-05
1.276129503e-05
1.271100533e-05
1.265963192e-05
1.261193789e-05
1.257350548e-05
1.255073682e-05
1.283345274e-05
1.280790024e-05
1.277141646e-05
1.27266422e-05
1.267683889e-05
1.262596414e-05
1.257873408e-05
1.254067544e-05
1.251812731e-05
1.279812489e-05
1.277281969e-05
1.273669022e-05
1.269235263e-05
1.264303714e-05
1.259266215e-05
1.254589677e-05
1.250821227e-05
1.248588481e-05
1.276314509e-05
1.273808725e-05
1.270231205e-05
1.26584108e-05
1.260958246e-05
1.255970619e-05
1.251340424e-05
1.247609269e-05
1.245398513e-05
1.272849087e-05
1.270367908e-05
1.266825607e-05
1.262478839e-05
1.257644376e-05
1.252706235e-05
1.248121993e-05
1.2444278e-05
1.242238832e-05
1.269412426e-05
1.266955531e-05
1.263447974e-05
1.259143952e-05
1.254357131e-05
1.249467692e-05
1.244928645e-05
1.241270783e-05
1.239103221e-05
1.26599863e-05
1.263565438e-05
1.260091773e-05
1.255829409e-05
1.251088976e-05
1.2462469e-05
1.24175176e-05
1.238129167e-05
1.235982375e-05
1.262598992e-05
1.260188561e-05
1.256747407e-05
1.252524954e-05
1.247828901e-05
1.243032061e-05
1.23857879e-05
1.234989786e-05
1.232862758e-05
1.259201067e-05
1.256811956e-05
1.253401206e-05
1.249215999e-05
1.244561264e-05
1.239806416e-05
1.235391912e-05
1.231833942e-05
1.229725145e-05
1.255787519e-05
1.253417601e-05
1.250034152e-05
1.245882278e-05
1.241264319e-05
1.236546673e-05
1.232166356e-05
1.228635643e-05
1.226542806e-05
1.252334694e-05
1.249980911e-05
1.246620299e-05
1.24249612e-05
1.237908428e-05
1.2332211e-05
1.228868376e-05
1.22535947e-05
1.223279311e-05
1.248810931e-05
1.246468991e-05
1.243124948e-05
1.239020535e-05
1.23445397e-05
1.229787279e-05
1.225452862e-05
1.221958078e-05
1.219885958e-05
1.245174599e-05
1.242838604e-05
1.239502512e-05
1.235406974e-05
1.230848935e-05
1.226189541e-05
1.221860627e-05
1.21836935e-05
1.216298849e-05
1.241371875e-05
1.239033871e-05
1.235694112e-05
1.231592729e-05
1.227026223e-05
1.22235612e-05
1.21801541e-05
1.214513282e-05
1.212435699e-05
1.237334331e-05
1.234983802e-05
1.231625012e-05
1.22749826e-05
1.222900787e-05
1.21819614e-05
1.213820726e-05
1.210288714e-05
1.208192498e-05
1.23297639e-05
1.230599678e-05
1.227201895e-05
1.223024372e-05
1.218366699e-05
1.213596563e-05
1.209156703e-05
1.205570083e-05
1.203440213e-05
1.228192799e-05
1.225772494e-05
1.222310124e-05
1.218049429e-05
1.213294318e-05
1.208419301e-05
1.203877144e-05
1.200204445e-05
1.198021784e-05
1.222856231e-05
1.220370369e-05
1.216811232e-05
1.212426849e-05
1.207527793e-05
1.202498742e-05
1.197807087e-05
1.194009064e-05
1.191749734e-05
1.216814752e-05
1.214236179e-05
1.210540841e-05
1.205983136e-05
1.200883215e-05
1.195640034e-05
1.190741214e-05
1.186769944e-05
1.184404786e-05
1.20989017e-05
1.207186304e-05
1.2033074e-05
1.198516791e-05
1.193147753e-05
1.187618477e-05
1.182443525e-05
1.178241741e-05
1.175735915e-05
1.201877792e-05
1.199010255e-05
1.194892018e-05
1.189798438e-05
1.184080159e-05
1.17818046e-05
1.172648694e-05
1.168149496e-05
1.165462333e-05
1.192547091e-05
1.189471582e-05
1.185049716e-05
1.179572533e-05
1.17341302e-05
1.167046318e-05
1.161065564e-05
1.156192665e-05
1.153277847e-05
1.181643916e-05
1.178310415e-05
1.17351246e-05
1.16756103e-05
1.160857178e-05
1.153915577e-05
1.147383179e-05
1.142051861e-05
1.138858052e-05
1.168894602e-05
1.165247998e-05
1.15999431e-05
1.153469331e-05
1.146108616e-05
1.138474859e-05
1.131279722e-05
1.125398642e-05
1.121870652e-05
1.154012276e-05
1.149993501e-05
1.144198983e-05
1.136994795e-05
1.128858088e-05
1.120408708e-05
1.112434501e-05
1.105908503e-05
1.101989075e-05
1.136705561e-05
1.132253303e-05
1.125829981e-05
1.117837942e-05