/*--------------------------------*- C++ -*----------------------------------*\
| =========                 |                                                 |
| \\      /  F ield         | OpenFOAM: The Open Source CFD Toolbox           |
|  \\    /   O peration     | Version:  2212                                  |
|   \\  /    A nd           | Website:  www.openfoam.com                      |
|    \\/     M anipulation  |                                                 |
\*---------------------------------------------------------------------------*/
FoamFile
{
    version     2.0;
    format      ascii;
    arch        "LSB;label=32;scalar=64";
    class       volScalarField;
    location    "20.00000000";
    object      p;
}
// * * * * * * * * * * * * * * * * * * * * * * * * * * * * * * * * * * * * * //

dimensions      [1 -1 -2 0 0 0 0];

internalField   nonuniform List<scalar> 
3000
(
5000.312581
5000.312619
5000.312706
5000.312831
5000.313033
5000.313307
5000.313813
5000.314361
5000.316182
5000.31255
5000.312562
5000.312611
5000.312669
5000.312753
5000.312832
5000.312991
5000.313021
5000.313211
5000.312488
5000.312493
5000.312535
5000.312578
5000.312639
5000.312705
5000.312789
5000.312794
5000.312862
5000.3123
5000.312285
5000.312298
5000.312301
5000.312312
5000.31231
5000.312317
5000.312289
5000.312253
5000.312125
5000.312106
5000.312111
5000.312106
5000.312105
5000.312099
5000.312095
5000.312074
5000.312043
5000.3119
5000.311879
5000.311875
5000.311862
5000.311851
5000.311838
5000.311826
5000.311809
5000.311783
5000.3117
5000.311681
5000.311677
5000.311664
5000.311655
5000.311644
5000.311635
5000.311623
5000.311605
5000.311492
5000.311476
5000.311471
5000.31146
5000.311452
5000.311443
5000.311435
5000.311427
5000.311416
5000.311302
5000.31129
5000.311286
5000.311278
5000.311272
5000.311265
5000.31126
5000.311254
5000.311247
5000.311116
5000.311106
5000.311103
5000.311097
5000.311093
5000.311088
5000.311085
5000.311081
5000.311076
5000.310939
5000.310932
5000.31093
5000.310926
5000.310923
5000.31092
5000.310917
5000.310915
5000.310911
5000.310766
5000.310761
5000.31076
5000.310757
5000.310755
5000.310753
5000.310751
5000.310749
5000.310747
5000.310598
5000.310595
5000.310594
5000.310592
5000.310591
5000.310589
5000.310588
5000.310587
5000.310585
5000.310433
5000.31043
5000.31043
5000.310429
5000.310428
5000.310427
5000.310426
5000.310425
5000.310424
5000.31027
5000.310268
5000.310268
5000.310267
5000.310266
5000.310266
5000.310265
5000.310265
5000.310264
5000.310108
5000.310107
5000.310107
5000.310106
5000.310106
5000.310105
5000.310105
5000.310105
5000.310104
5000.309948
5000.309947
5000.309947
5000.309946
5000.309946
5000.309946
5000.309946
5000.309945
5000.309945
5000.309788
5000.309787
5000.309787
5000.309787
5000.309787
5000.309787
5000.309787
5000.309786
5000.309786
5000.309629
5000.309628
5000.309628
5000.309628
5000.309628
5000.309628
5000.309628
5000.309628
5000.309627
5000.30947
5000.309469
5000.30947
5000.309469
5000.309469
5000.309469
5000.309469
5000.309469
5000.309469
5000.309311
5000.309311
5000.309311
5000.309311
5000.309311
5000.309311
5000.309311
5000.309311
5000.30931
5000.309152
5000.309152
5000.309152
5000.309152
5000.309152
5000.309152
5000.309152
5000.309152
5000.309152
5000.308994
5000.308994
5000.308994
5000.308994
5000.308994
5000.308994
5000.308994
5000.308994
5000.308993
5000.308835
5000.308835
5000.308835
5000.308835
5000.308835
5000.308835
5000.308835
5000.308835
5000.308834
5000.308676
5000.308676
5000.308676
5000.308676
5000.308676
5000.308676
5000.308676
5000.308676
5000.308675
5000.308516
5000.308516
5000.308516
5000.308517
5000.308517
5000.308517
5000.308517
5000.308516
5000.308515
5000.308355
5000.308355
5000.308356
5000.308356
5000.308357
5000.308357
5000.308356
5000.308356
5000.308354
5000.308193
5000.308193
5000.308194
5000.308195
5000.308195
5000.308195
5000.308195
5000.308195
5000.308191
5000.30803
5000.30803
5000.308031
5000.308032
5000.308032
5000.308033
5000.308032
5000.308031
5000.308027
5000.307864
5000.307864
5000.307866
5000.307867
5000.307867
5000.307868
5000.307867
5000.307866
5000.307861
5000.307696
5000.307696
5000.307698
5000.307699
5000.3077
5000.3077
5000.307699
5000.307698
5000.307691
5000.307524
5000.307525
5000.307526
5000.307528
5000.307529
5000.307529
5000.307527
5000.307526
5000.307518
5000.307348
5000.307349
5000.307351
5000.307353
5000.307354
5000.307354
5000.307352
5000.30735
5000.307339
5000.307167
5000.307168
5000.30717
5000.307172
5000.307173
5000.307173
5000.30717
5000.307168
5000.307155
5000.30698
5000.306981
5000.306983
5000.306985
5000.306986
5000.306986
5000.306982
5000.30698
5000.306964
5000.306785
5000.306786
5000.306789
5000.306791
5000.306791
5000.306791
5000.306786
5000.306783
5000.306764
5000.306582
5000.306583
5000.306585
5000.306587
5000.306588
5000.306587
5000.306581
5000.306577
5000.306555
5000.306368
5000.306369
5000.306372
5000.306373
5000.306374
5000.306372
5000.306365
5000.30636
5000.306335
5000.306143
5000.306144
5000.306146
5000.306148
5000.306147
5000.306145
5000.306136
5000.30613
5000.306101
5000.305905
5000.305905
5000.305907
5000.305908
5000.305907
5000.305903
5000.305893
5000.305886
5000.305853
5000.305651
5000.305651
5000.305653
5000.305653
5000.305651
5000.305646
5000.305634
5000.305625
5000.305589
5000.305381
5000.30538
5000.305382
5000.305381
5000.305377
5000.305371
5000.305357
5000.305346
5000.305307
5000.305092
5000.305091
5000.305091
5000.305089
5000.305084
5000.305076
5000.30506
5000.305048
5000.305004
5000.304782
5000.304781
5000.30478
5000.304776
5000.304769
5000.304759
5000.304742
5000.304727
5000.30468
5000.30445
5000.304448
5000.304446
5000.30444
5000.304432
5000.30442
5000.3044
5000.304383
5000.304333
5000.304094
5000.30409
5000.304087
5000.304079
5000.304069
5000.304054
5000.304032
5000.304014
5000.30396
5000.303711
5000.303706
5000.303701
5000.303692
5000.303679
5000.303662
5000.303638
5000.303618
5000.30356
5000.3033
5000.303294
5000.303287
5000.303276
5000.30326
5000.303241
5000.303214
5000.303193
5000.303132
5000.302859
5000.302852
5000.302843
5000.302829
5000.302811
5000.30279
5000.302761
5000.302737
5000.302674
5000.302386
5000.302378
5000.302367
5000.302351
5000.302331
5000.302307
5000.302275
5000.30225
5000.302184
5000.30188
5000.301871
5000.301858
5000.30184
5000.301817
5000.301791
5000.301757
5000.301731
5000.301663
5000.301341
5000.30133
5000.301315
5000.301294
5000.301269
5000.301241
5000.301205
5000.301177
5000.301107
5000.300765
5000.300754
5000.300736
5000.300714
5000.300686
5000.300655
5000.300619
5000.300589
5000.300518
5000.300154
5000.300141
5000.300121
5000.300097
5000.300067
5000.300035
5000.299996
5000.299965
5000.299893
5000.299505
5000.299491
5000.29947
5000.299443
5000.299412
5000.299377
5000.299338
5000.299305
5000.299233
5000.298819
5000.298804
5000.298781
5000.298753
5000.29872
5000.298683
5000.298643
5000.298609
5000.298536
5000.298094
5000.298079
5000.298054
5000.298025
5000.29799
5000.297952
5000.297911
5000.297876
5000.297804
5000.297332
5000.297316
5000.29729
5000.297259
5000.297223
5000.297185
5000.297143
5000.297107
5000.297035
5000.296532
5000.296515
5000.296489
5000.296456
5000.29642
5000.29638
5000.296337
5000.296302
5000.29623
5000.295694
5000.295677
5000.29565
5000.295616
5000.295579
5000.295539
5000.295496
5000.29546
5000.295389
5000.294819
5000.294802
5000.294774
5000.29474
5000.294702
5000.294661
5000.294618
5000.294582
5000.294512
5000.293908
5000.29389
5000.293861
5000.293827
5000.293789
5000.293748
5000.293705
5000.293669
5000.293601
5000.29296
5000.292942
5000.292913
5000.292879
5000.29284
5000.292799
5000.292757
5000.292721
5000.292654
5000.291977
5000.291959
5000.29193
5000.291896
5000.291858
5000.291817
5000.291775
5000.291739
5000.291674
5000.29096
5000.290942
5000.290914
5000.290879
5000.290841
5000.290801
5000.290759
5000.290724
5000.290661
5000.289909
5000.289892
5000.289864
5000.28983
5000.289792
5000.289752
5000.289711
5000.289677
5000.289615
5000.288827
5000.288809
5000.288781
5000.288748
5000.288711
5000.288672
5000.288632
5000.288598
5000.288539
5000.287713
5000.287696
5000.287668
5000.287636
5000.287599
5000.287561
5000.287522
5000.287489
5000.287431
5000.286569
5000.286552
5000.286525
5000.286493
5000.286457
5000.28642
5000.286382
5000.28635
5000.286295
5000.285396
5000.28538
5000.285354
5000.285322
5000.285287
5000.285251
5000.285214
5000.285183
5000.28513
5000.284195
5000.28418
5000.284154
5000.284124
5000.28409
5000.284054
5000.284019
5000.283989
5000.283938
5000.282968
5000.282953
5000.282928
5000.282899
5000.282866
5000.282832
5000.282797
5000.282769
5000.28272
5000.281716
5000.281701
5000.281677
5000.281649
5000.281617
5000.281584
5000.281551
5000.281523
5000.281476
5000.280439
5000.280425
5000.280402
5000.280374
5000.280344
5000.280312
5000.28028
5000.280253
5000.280209
5000.279139
5000.279125
5000.279103
5000.279077
5000.279047
5000.279017
5000.278986
5000.278961
5000.278918
5000.277817
5000.277804
5000.277783
5000.277757
5000.277729
5000.2777
5000.277671
5000.277646
5000.277606
5000.276475
5000.276462
5000.276442
5000.276417
5000.27639
5000.276362
5000.276334
5000.276311
5000.276272
5000.275112
5000.2751
5000.275081
5000.275057
5000.275032
5000.275005
5000.274978
5000.274956
5000.274919
5000.273731
5000.27372
5000.273701
5000.273679
5000.273654
5000.273628
5000.273603
5000.273582
5000.273547
5000.272332
5000.272321
5000.272304
5000.272282
5000.272259
5000.272234
5000.27221
5000.27219
5000.272157
5000.270917
5000.270906
5000.270889
5000.270869
5000.270847
5000.270823
5000.270801
5000.270782
5000.27075
5000.269485
5000.269475
5000.269459
5000.26944
5000.269419
5000.269397
5000.269375
5000.269357
5000.269328
5000.268039
5000.26803
5000.268014
5000.267996
5000.267976
5000.267955
5000.267934
5000.267917
5000.267889
5000.266579
5000.26657
5000.266555
5000.266538
5000.266519
5000.266499
5000.266479
5000.266463
5000.266437
5000.265105
5000.265097
5000.265083
5000.265066
5000.265048
5000.265029
5000.265011
5000.264996
5000.264971
5000.263619
5000.263611
5000.263598
5000.263583
5000.263565
5000.263547
5000.26353
5000.263516
5000.263493
5000.262121
5000.262114
5000.262101
5000.262087
5000.262071
5000.262054
5000.262037
5000.262024
5000.262002
5000.260613
5000.260605
5000.260594
5000.26058
5000.260565
5000.260549
5000.260533
5000.26052
5000.2605
5000.259094
5000.259087
5000.259076
5000.259063
5000.259048
5000.259033
5000.259019
5000.259007
5000.258987
5000.257565
5000.257559
5000.257548
5000.257536
5000.257522
5000.257508
5000.257494
5000.257483
5000.257465
5000.256027
5000.256021
5000.256011
5000.256
5000.255987
5000.255973
5000.255961
5000.25595
5000.255933
5000.254481
5000.254475
5000.254466
5000.254455
5000.254443
5000.25443
5000.254418
5000.254408
5000.254392
5000.252927
5000.252922
5000.252913
5000.252902
5000.252891
5000.252879
5000.252868
5000.252858
5000.252844
5000.251365
5000.25136
5000.251352
5000.251342
5000.251332
5000.25132
5000.25131
5000.251301
5000.251287
5000.249797
5000.249792
5000.249784
5000.249775
5000.249765
5000.249755
5000.249744
5000.249736
5000.249723
5000.248222
5000.248217
5000.24821
5000.248201
5000.248192
5000.248182
5000.248173
5000.248165
5000.248153
5000.246641
5000.246636
5000.24663
5000.246622
5000.246613
5000.246603
5000.246594
5000.246587
5000.246576
5000.245054
5000.24505
5000.245044
5000.245036
5000.245028
5000.245019
5000.245011
5000.245004
5000.244994
5000.243462
5000.243458
5000.243452
5000.243445
5000.243437
5000.243429
5000.243421
5000.243415
5000.243405
5000.241865
5000.241862
5000.241856
5000.241849
5000.241842
5000.241834
5000.241827
5000.241821
5000.241812
5000.240264
5000.24026
5000.240255
5000.240249
5000.240242
5000.240235
5000.240228
5000.240222
5000.240214
5000.238658
5000.238655
5000.23865
5000.238644
5000.238638
5000.238631
5000.238625
5000.238619
5000.238612
5000.237048
5000.237046
5000.237041
5000.237035
5000.237029
5000.237023
5000.237017
5000.237012
5000.237005
5000.235435
5000.235433
5000.235428
5000.235423
5000.235417
5000.235411
5000.235406
5000.235401
5000.235395
5000.233819
5000.233816
5000.233812
5000.233807
5000.233802
5000.233796
5000.233791
5000.233787
5000.233781
5000.232199
5000.232196
5000.232193
5000.232188
5000.232183
5000.232178
5000.232173
5000.232169
5000.232164
5000.230576
5000.230574
5000.23057
5000.230566
5000.230561
5000.230557
5000.230552
5000.230549
5000.230544
5000.228951
5000.228949
5000.228945
5000.228941
5000.228937
5000.228933
5000.228929
5000.228925
5000.228921
5000.227323
5000.227321
5000.227318
5000.227314
5000.22731
5000.227306
5000.227302
5000.227299
5000.227295
5000.225693
5000.225691
5000.225688
5000.225685
5000.225681
5000.225677
5000.225674
5000.225671
5000.225667
5000.224061
5000.224059
5000.224057
5000.224053
5000.22405
5000.224046
5000.224043
5000.22404
5000.224037
5000.222427
5000.222425
5000.222423
5000.22242
5000.222417
5000.222413
5000.22241
5000.222408
5000.222405
5000.220791
5000.22079
5000.220787
5000.220785
5000.220782
5000.220779
5000.220776
5000.220774
5000.220771
5000.219154
5000.219153
5000.21915
5000.219148
5000.219145
5000.219142
5000.21914
5000.219138
5000.219135
5000.217515
5000.217514
5000.217512
5000.21751
5000.217507
5000.217504
5000.217502
5000.2175
5000.217498
5000.215875
5000.215874
5000.215872
5000.21587
5000.215868
5000.215865
5000.215863
5000.215861
5000.215859
5000.214234
5000.214233
5000.214231
5000.214229
5000.214227
5000.214225
5000.214223
5000.214221
5000.214219
5000.212592
5000.212591
5000.212589
5000.212587
5000.212585
5000.212583
5000.212581
5000.21258
5000.212578
5000.210949
5000.210948
5000.210946
5000.210944
5000.210943
5000.210941
5000.210939
5000.210938
5000.210936
5000.209304
5000.209304
5000.209302
5000.209301
5000.209299
5000.209297
5000.209296
5000.209295
5000.209293
5000.20766
5000.207659
5000.207658
5000.207656
5000.207655
5000.207653
5000.207652
5000.207651
5000.20765
5000.206014
5000.206014
5000.206012
5000.206011
5000.20601
5000.206008
5000.206007
5000.206006
5000.206005
5000.204368
5000.204368
5000.204367
5000.204365
5000.204364
5000.204363
5000.204362
5000.204361
5000.20436
5000.202722
5000.202721
5000.20272
5000.202719
5000.202718
5000.202717
5000.202716
5000.202715
5000.202714
5000.201075
5000.201074
5000.201074
5000.201073
5000.201071
5000.20107
5000.20107
5000.201069
5000.201068
5000.199428
5000.199427
5000.199426
5000.199425
5000.199425
5000.199424
5000.199423
5000.199422
5000.199422
5000.19778
5000.19778
5000.197779
5000.197778
5000.197777
5000.197776
5000.197776
5000.197775
5000.197775
5000.196132
5000.196132
5000.196131
5000.19613
5000.19613
5000.196129
5000.196128
5000.196128
5000.196128
5000.194484
5000.194484
5000.194483
5000.194483
5000.194482
5000.194481
5000.194481
5000.194481
5000.19448
5000.192836
5000.192836
5000.192835
5000.192835
5000.192834
5000.192834
5000.192833
5000.192833
5000.192833
5000.191188
5000.191188
5000.191187
5000.191187
5000.191186
5000.191186
5000.191185
5000.191185
5000.191185
5000.18954
5000.189539
5000.189539
5000.189539
5000.189538
5000.189538
5000.189537
5000.189537
5000.189537
5000.187891
5000.187891
5000.187891
5000.18789
5000.18789
5000.18789
5000.187889
5000.187889
5000.187889
5000.186243
5000.186243
5000.186243
5000.186242
5000.186242
5000.186242
5000.186241
5000.186241
5000.186242
5000.184595
5000.184595
5000.184594
5000.184594
5000.184594
5000.184594
5000.184594
5000.184594
5000.184594
5000.182947
5000.182947
5000.182946
5000.182946
5000.182946
5000.182946
5000.182946
5000.182946
5000.182946
5000.181299
5000.181299
5000.181298
5000.181298
5000.181298
5000.181298
5000.181298
5000.181298
5000.181298
5000.179651
5000.179651
5000.179651
5000.179651
5000.17965
5000.17965
5000.17965
5000.17965
5000.179651
5000.178003
5000.178003
5000.178003
5000.178003
5000.178003
5000.178003
5000.178003
5000.178003
5000.178003
5000.176356
5000.176356
5000.176356
5000.176356
5000.176355
5000.176356
5000.176356
5000.176356
5000.176356
5000.174708
5000.174708
5000.174708
5000.174708
5000.174708
5000.174708
5000.174708
5000.174709
5000.174709
5000.173061
5000.173061
5000.173061
5000.173061
5000.173061
5000.173061
5000.173062
5000.173062
5000.173062
5000.171415
5000.171415
5000.171415
5000.171415
5000.171415
5000.171415
5000.171415
5000.171415
5000.171416
5000.169768
5000.169768
5000.169768
5000.169768
5000.169768
5000.169768
5000.169769
5000.169769
5000.169769
5000.168122
5000.168122
5000.168122
5000.168122
5000.168122
5000.168122
5000.168122
5000.168123
5000.168123
5000.166476
5000.166476
5000.166476
5000.166476
5000.166476
5000.166476
5000.166477
5000.166477
5000.166477
5000.16483
5000.16483
5000.16483
5000.16483
5000.164831
5000.164831
5000.164831
5000.164831
5000.164832
5000.163185
5000.163185
5000.163185
5000.163185
5000.163185
5000.163186
5000.163186
5000.163186
5000.163187
5000.16154
5000.16154
5000.16154
5000.16154
5000.16154
5000.161541
5000.161541
5000.161541
5000.161542
5000.159895
5000.159895
5000.159895
5000.159896
5000.159896
5000.159896
5000.159896
5000.159897
5000.159897
5000.158251
5000.158251
5000.158251
5000.158251
5000.158252
5000.158252
5000.158252
5000.158252
5000.158253
5000.156607
5000.156607
5000.156607
5000.156607
5000.156608
5000.156608
5000.156608
5000.156609
5000.156609
5000.154963
5000.154963
5000.154964
5000.154964
5000.154964
5000.154964
5000.154965
5000.154965
5000.154966
5000.15332
5000.15332
5000.15332
5000.153321
5000.153321
5000.153321
5000.153322
5000.153322
5000.153323
5000.151677
5000.151677
5000.151677
5000.151678
5000.151678
5000.151678
5000.151679
5000.151679
5000.15168
5000.150035
5000.150035
5000.150035
5000.150035
5000.150035
5000.150036
5000.150036
5000.150037
5000.150037
5000.148392
5000.148393
5000.148393
5000.148393
5000.148393
5000.148394
5000.148394
5000.148394
5000.148395
5000.146751
5000.146751
5000.146751
5000.146751
5000.146752
5000.146752
5000.146752
5000.146753
5000.146753
5000.145109
5000.145109
5000.14511
5000.14511
5000.14511
5000.145111
5000.145111
5000.145111
5000.145112
5000.143468
5000.143468
5000.143469
5000.143469
5000.143469
5000.14347
5000.14347
5000.14347
5000.143471
5000.141828
5000.141828
5000.141828
5000.141828
5000.141829
5000.141829
5000.141829
5000.14183
5000.14183
5000.140187
5000.140187
5000.140188
5000.140188
5000.140188
5000.140189
5000.140189
5000.140189
5000.14019
5000.138547
5000.138548
5000.138548
5000.138548
5000.138548
5000.138549
5000.138549
5000.13855
5000.13855
5000.136908
5000.136908
5000.136908
5000.136909
5000.136909
5000.136909
5000.13691
5000.13691
5000.136911
5000.135269
5000.135269
5000.135269
5000.13527
5000.13527
5000.13527
5000.135271
5000.135271
5000.135272
5000.13363
5000.13363
5000.133631
5000.133631
5000.133631
5000.133632
5000.133632
5000.133632
5000.133633
5000.131992
5000.131992
5000.131992
5000.131993
5000.131993
5000.131993
5000.131994
5000.131994
5000.131995
5000.130354
5000.130354
5000.130354
5000.130355
5000.130355
5000.130355
5000.130356
5000.130356
5000.130357
5000.128716
5000.128717
5000.128717
5000.128717
5000.128717
5000.128718
5000.128718
5000.128719
5000.128719
5000.127079
5000.12708
5000.12708
5000.12708
5000.12708
5000.127081
5000.127081
5000.127082
5000.127082
5000.125443
5000.125443
5000.125443
5000.125443
5000.125444
5000.125444
5000.125444
5000.125445
5000.125446
5000.123806
5000.123806
5000.123807
5000.123807
5000.123807
5000.123808
5000.123808
5000.123809
5000.123809
5000.12217
5000.122171
5000.122171
5000.122171
5000.122171
5000.122172
5000.122172
5000.122173
5000.122173
5000.120535
5000.120535
5000.120535
5000.120535
5000.120536
5000.120536
5000.120537
5000.120537
5000.120538
5000.1189
5000.1189
5000.1189
5000.1189
5000.118901
5000.118901
5000.118901
5000.118902
5000.118903
5000.117265
5000.117265
5000.117265
5000.117266
5000.117266
5000.117266
5000.117267
5000.117267
5000.117268
5000.11563
5000.115631
5000.115631
5000.115631
5000.115631
5000.115632
5000.115632
5000.115633
5000.115633
5000.113996
5000.113997
5000.113997
5000.113997
5000.113997
5000.113998
5000.113998
5000.113999
5000.113999
5000.112363
5000.112363
5000.112363
5000.112363
5000.112364
5000.112364
5000.112365
5000.112365
5000.112366
5000.11073
5000.11073
5000.11073
5000.11073
5000.110731
5000.110731
5000.110731
5000.110732
5000.110732
5000.109097
5000.109097
5000.109097
5000.109097
5000.109098
5000.109098
5000.109098
5000.109099
5000.1091
5000.107464
5000.107464
5000.107465
5000.107465
5000.107465
5000.107466
5000.107466
5000.107466
5000.107467
5000.105832
5000.105832
5000.105832
5000.105833
5000.105833
5000.105833
5000.105834
5000.105834
5000.105835
5000.1042
5000.1042
5000.104201
5000.104201
5000.104201
5000.104202
5000.104202
5000.104202
5000.104203
5000.102569
5000.102569
5000.102569
5000.10257
5000.10257
5000.10257
5000.102571
5000.102571
5000.102572
5000.100938
5000.100938
5000.100938
5000.100938
5000.100939
5000.100939
5000.10094
5000.10094
5000.100941
5000.099307
5000.099307
5000.099308
5000.099308
5000.099308
5000.099309
5000.099309
5000.099309
5000.09931
5000.097677
5000.097677
5000.097677
5000.097678
5000.097678
5000.097678
5000.097679
5000.097679
5000.09768
5000.096047
5000.096047
5000.096047
5000.096048
5000.096048
5000.096048
5000.096049
5000.096049
5000.09605
5000.094417
5000.094418
5000.094418
5000.094418
5000.094419
5000.094419
5000.09442
5000.09442
5000.094421
5000.092788
5000.092789
5000.092789
5000.092789
5000.09279
5000.09279
5000.092791
5000.092791
5000.092792
5000.09116
5000.09116
5000.09116
5000.091161
5000.091161
5000.091161
5000.091162
5000.091163
5000.091163
5000.089532
5000.089532
5000.089532
5000.089532
5000.089533
5000.089533
5000.089534
5000.089535
5000.089536
5000.087904
5000.087904
5000.087904
5000.087905
5000.087905
5000.087906
5000.087907
5000.087907
5000.087908
5000.086277
5000.086277
5000.086278
5000.086278
5000.086278
5000.086279
5000.08628
5000.086281
5000.086282
5000.084651
5000.084651
5000.084651
5000.084652
5000.084652
5000.084653
5000.084654
5000.084655
5000.084656
5000.083026
5000.083026
5000.083026
5000.083026
5000.083027
5000.083028
5000.083029
5000.08303
5000.083032
5000.081401
5000.081401
5000.081402
5000.081402
5000.081403
5000.081404
5000.081405
5000.081406
5000.081409
5000.079778
5000.079778
5000.079779
5000.079779
5000.07978
5000.079781
5000.079782
5000.079784
5000.079787
5000.078157
5000.078157
5000.078157
5000.078158
5000.078159
5000.07816
5000.078161
5000.078163
5000.078167
5000.076537
5000.076538
5000.076538
5000.076538
5000.076539
5000.076541
5000.076542
5000.076544
5000.076549
5000.07492
5000.07492
5000.074921
5000.074921
5000.074922
5000.074924
5000.074926
5000.074928
5000.074933
5000.073306
5000.073306
5000.073306
5000.073307
5000.073308
5000.07331
5000.073312
5000.073315
5000.073321
5000.071694
5000.071695
5000.071695
5000.071696
5000.071697
5000.071699
5000.071702
5000.071705
5000.071712
5000.070087
5000.070087
5000.070088
5000.070089
5000.07009
5000.070092
5000.070096
5000.070099
5000.070108
5000.068484
5000.068485
5000.068485
5000.068486
5000.068488
5000.06849
5000.068494
5000.068498
5000.068509
5000.066887
5000.066887
5000.066888
5000.066889
5000.066891
5000.066894
5000.066898
5000.066903
5000.066915
5000.065296
5000.065296
5000.065297
5000.065298
5000.0653
5000.065303
5000.065308
5000.065314
5000.065327
5000.063711
5000.063712
5000.063712
5000.063714
5000.063716
5000.06372
5000.063725
5000.063732
5000.063748
5000.062135
5000.062136
5000.062137
5000.062138
5000.062141
5000.062145
5000.062151
5000.062159
5000.062176
5000.060568
5000.060569
5000.06057
5000.060571
5000.060574
5000.060579
5000.060586
5000.060595
5000.060615
5000.059012
5000.059012
5000.059013
5000.059015
5000.059019
5000.059024
5000.059032
5000.059041
5000.059064
5000.057466
5000.057467
5000.057468
5000.05747
5000.057474
5000.05748
5000.057489
5000.057499
5000.057524
5000.055934
5000.055935
5000.055936
5000.055938
5000.055943
5000.055949
5000.055959
5000.05597
5000.055998
5000.054415
5000.054416
5000.054418
5000.05442
5000.054425
5000.054432
5000.054443
5000.054455
5000.054485
5000.052912
5000.052913
5000.052915
5000.052918
5000.052923
5000.052931
5000.052942
5000.052956
5000.052989
5000.051425
5000.051426
5000.051428
5000.051431
5000.051437
5000.051446
5000.051458
5000.051473
5000.051508
5000.049955
5000.049957
5000.049959
5000.049963
5000.049969
5000.049978
5000.049992
5000.050008
5000.050046
5000.048505
5000.048507
5000.048509
5000.048513
5000.04852
5000.04853
5000.048545
5000.048562
5000.048603
5000.047075
5000.047077
5000.04708
5000.047084
5000.047091
5000.047102
5000.047118
5000.047136
5000.047179
5000.045666
5000.045669
5000.045672
5000.045676
5000.045684
5000.045696
5000.045712
5000.045732
5000.045777
5000.04428
5000.044283
5000.044286
5000.044291
5000.0443
5000.044312
5000.04433
5000.04435
5000.044398
5000.042918
5000.042921
5000.042924
5000.04293
5000.042939
5000.042952
5000.04297
5000.042991
5000.043042
5000.04158
5000.041583
5000.041587
5000.041593
5000.041602
5000.041616
5000.041635
5000.041658
5000.04171
5000.040267
5000.040271
5000.040275
5000.040281
5000.040291
5000.040306
5000.040326
5000.040349
5000.040404
5000.038981
5000.038985
5000.038989
5000.038996
5000.039007
5000.039022
5000.039043
5000.039067
5000.039123
5000.037722
5000.037726
5000.037731
5000.037738
5000.037749
5000.037765
5000.037786
5000.037811
5000.037869
5000.036491
5000.036495
5000.0365
5000.036508
5000.03652
5000.036535
5000.036558
5000.036583
5000.036643
5000.035288
5000.035292
5000.035298
5000.035305
5000.035317
5000.035334
5000.035358
5000.035384
5000.035445
5000.034112
5000.034117
5000.034123
5000.034131
5000.034144
5000.034163
5000.034186
5000.034212
5000.034274
5000.032968
5000.032972
5000.032978
5000.032989
5000.033002
5000.033019
5000.033044
5000.03307
5000.033133
5000.031854
5000.031859
5000.031864
5000.031874
5000.031887
5000.031905
5000.03193
5000.031957
5000.03202
5000.030767
5000.030772
5000.030778
5000.030788
5000.030802
5000.03082
5000.030845
5000.030872
5000.030936
5000.02971
5000.029716
5000.029722
5000.029732
5000.029746
5000.029765
5000.02979
5000.029817
5000.029882
5000.028683
5000.028688
5000.028695
5000.028705
5000.02872
5000.028739
5000.028765
5000.028792
5000.028856
5000.027685
5000.027691
5000.027698
5000.027708
5000.027723
5000.027742
5000.027768
5000.027795
5000.02786
5000.026717
5000.026722
5000.02673
5000.02674
5000.026755
5000.026775
5000.0268
5000.026827
5000.026892
5000.025777
5000.025783
5000.02579
5000.025801
5000.025816
5000.025836
5000.025861
5000.025888
5000.025952
5000.024866
5000.024872
5000.024879
5000.02489
5000.024905
5000.024925
5000.024951
5000.024977
5000.025041
5000.023983
5000.023989
5000.023997
5000.024008
5000.024023
5000.024043
5000.024068
5000.024094
5000.024157
5000.023128
5000.023134
5000.023142
5000.023153
5000.023168
5000.023188
5000.023213
5000.023239
5000.023301
5000.0223
5000.022306
5000.022314
5000.022325
5000.02234
5000.02236
5000.022385
5000.022411
5000.022472
5000.021499
5000.021505
5000.021513
5000.021524
5000.021539
5000.021559
5000.021584
5000.021609
5000.021669
5000.020724
5000.02073
5000.020738
5000.020749
5000.020764
5000.020783
5000.020808
5000.020832
5000.020892
5000.019974
5000.01998
5000.019988
5000.019999
5000.020014
5000.020033
5000.020058
5000.020081
5000.020139
5000.019249
5000.019255
5000.019263
5000.019274
5000.019289
5000.019308
5000.019332
5000.019355
5000.019412
5000.018548
5000.018554
5000.018562
5000.018573
5000.018588
5000.018606
5000.01863
5000.018652
5000.018708
5000.01787
5000.017876
5000.017884
5000.017895
5000.01791
5000.017928
5000.017951
5000.017973
5000.018027
5000.017215
5000.017221
5000.017229
5000.01724
5000.017254
5000.017272
5000.017295
5000.017316
5000.017369
5000.016582
5000.016588
5000.016596
5000.016606
5000.016621
5000.016638
5000.016661
5000.016681
5000.016733
5000.01597
5000.015976
5000.015984
5000.015994
5000.016008
5000.016025
5000.016047
5000.016067
5000.016117
5000.015379
5000.015384
5000.015392
5000.015403
5000.015416
5000.015433
5000.015455
5000.015474
5000.015522
5000.014807
5000.014812
5000.01482
5000.01483
5000.014844
5000.01486
5000.014881
5000.0149
5000.014947
5000.014254
5000.01426
5000.014267
5000.014277
5000.014291
5000.014307
5000.014327
5000.014345
5000.01439
5000.01372
5000.013725
5000.013732
5000.013743
5000.013755
5000.013771
5000.013791
5000.013808
5000.013852
5000.013203
5000.013208
5000.013215
5000.013225
5000.013238
5000.013253
5000.013273
5000.013289
5000.013332
5000.012703
5000.012708
5000.012715
5000.012725
5000.012737
5000.012752
5000.012771
5000.012787
5000.012828
5000.012219
5000.012224
5000.012231
5000.012241
5000.012253
5000.012267
5000.012285
5000.012301
5000.01234
5000.011751
5000.011756
5000.011762
5000.011772
5000.011784
5000.011798
5000.011815
5000.01183
5000.011868
5000.011297
5000.011302
5000.011309
5000.011318
5000.011329
5000.011343
5000.01136
5000.011374
5000.011411
5000.010858
5000.010863
5000.010869
5000.010878
5000.010889
5000.010903
5000.010919
5000.010933
5000.010968
5000.010432
5000.010437
5000.010443
5000.010452
5000.010463
5000.010476
5000.010492
5000.010505
5000.010539
5000.01002
5000.010024
5000.010031
5000.010039
5000.01005
5000.010062
5000.010078
5000.01009
5000.010123
5000.00962
5000.009624
5000.00963
5000.009638
5000.009649
5000.009661
5000.009676
5000.009688
5000.009719
5000.009231
5000.009235
5000.009242
5000.00925
5000.00926
5000.009271
5000.009286
5000.009297
5000.009327
5000.008854
5000.008858
5000.008864
5000.008872
5000.008882
5000.008893
5000.008908
5000.008918
5000.008947
5000.008488
5000.008492
5000.008498
5000.008506
5000.008515
5000.008526
5000.00854
5000.00855
5000.008577
5000.008132
5000.008136
5000.008142
5000.008149
5000.008159
5000.008169
5000.008183
5000.008192
5000.008218
5000.007786
5000.00779
5000.007796
5000.007803
5000.007812
5000.007822
5000.007835
5000.007844
5000.007869
5000.00745
5000.007453
5000.007459
5000.007466
5000.007475
5000.007484
5000.007497
5000.007506
5000.00753
5000.007122
5000.007126
5000.007131
5000.007138
5000.007146
5000.007156
5000.007168
5000.007176
5000.007199
5000.006803
5000.006806
5000.006812
5000.006818
5000.006826
5000.006835
5000.006847
5000.006855
5000.006877