/*--------------------------------*- C++ -*----------------------------------*\
| =========                 |                                                 |
| \\      /  F ield         | OpenFOAM: The Open Source CFD Toolbox           |
|  \\    /   O peration     | Version:  2212                                  |
|   \\  /    A nd           | Website:  www.openfoam.com                      |
|    \\/     M anipulation  |                                                 |
\*---------------------------------------------------------------------------*/
FoamFile
{
    version     2.0;
    format      ascii;
    arch        "LSB;label=32;scalar=64";
    class       volScalarField;
    location    "20.00000000";
    object      p_0;
}
// * * * * * * * * * * * * * * * * * * * * * * * * * * * * * * * * * * * * * //

dimensions      [1 -1 -2 0 0 0 0];

internalField   nonuniform List<scalar> 
3000
(
5000.312587
5000.312624
5000.312712
5000.312836
5000.313038
5000.313312
5000.313819
5000.314367
5000.316187
5000.312556
5000.312568
5000.312617
5000.312674
5000.312758
5000.312837
5000.312996
5000.313026
5000.313216
5000.312494
5000.312498
5000.31254
5000.312584
5000.312644
5000.312711
5000.312795
5000.3128
5000.312867
5000.312306
5000.31229
5000.312303
5000.312307
5000.312318
5000.312316
5000.312322
5000.312295
5000.312259
5000.312131
5000.312112
5000.312117
5000.312111
5000.312111
5000.312104
5000.312101
5000.312079
5000.312048
5000.311906
5000.311884
5000.311881
5000.311867
5000.311857
5000.311843
5000.311832
5000.311814
5000.311789
5000.311706
5000.311687
5000.311682
5000.31167
5000.31166
5000.31165
5000.31164
5000.311628
5000.311611
5000.311498
5000.311482
5000.311477
5000.311466
5000.311457
5000.311449
5000.311441
5000.311433
5000.311421
5000.311308
5000.311295
5000.311292
5000.311283
5000.311277
5000.311271
5000.311266
5000.31126
5000.311252
5000.311121
5000.311112
5000.311109
5000.311103
5000.311098
5000.311094
5000.31109
5000.311087
5000.311081
5000.310945
5000.310938
5000.310936
5000.310932
5000.310929
5000.310926
5000.310923
5000.31092
5000.310917
5000.310772
5000.310767
5000.310766
5000.310763
5000.310761
5000.310759
5000.310757
5000.310755
5000.310753
5000.310604
5000.310601
5000.3106
5000.310598
5000.310596
5000.310595
5000.310594
5000.310593
5000.310591
5000.310439
5000.310436
5000.310436
5000.310434
5000.310433
5000.310433
5000.310432
5000.310431
5000.31043
5000.310276
5000.310274
5000.310274
5000.310273
5000.310272
5000.310272
5000.310271
5000.31027
5000.310269
5000.310114
5000.310113
5000.310113
5000.310112
5000.310112
5000.310111
5000.310111
5000.31011
5000.31011
5000.309954
5000.309953
5000.309953
5000.309952
5000.309952
5000.309952
5000.309951
5000.309951
5000.309951
5000.309794
5000.309793
5000.309793
5000.309793
5000.309793
5000.309793
5000.309792
5000.309792
5000.309792
5000.309635
5000.309634
5000.309634
5000.309634
5000.309634
5000.309634
5000.309634
5000.309633
5000.309633
5000.309476
5000.309475
5000.309475
5000.309475
5000.309475
5000.309475
5000.309475
5000.309475
5000.309475
5000.309317
5000.309317
5000.309317
5000.309317
5000.309317
5000.309317
5000.309317
5000.309317
5000.309316
5000.309158
5000.309158
5000.309158
5000.309158
5000.309159
5000.309159
5000.309158
5000.309158
5000.309158
5000.309
5000.309
5000.309
5000.309
5000.309
5000.309
5000.309
5000.309
5000.308999
5000.308841
5000.308841
5000.308841
5000.308841
5000.308841
5000.308842
5000.308841
5000.308841
5000.30884
5000.308682
5000.308682
5000.308682
5000.308682
5000.308683
5000.308683
5000.308682
5000.308682
5000.308681
5000.308522
5000.308522
5000.308522
5000.308523
5000.308523
5000.308523
5000.308523
5000.308523
5000.308521
5000.308361
5000.308361
5000.308362
5000.308362
5000.308363
5000.308363
5000.308363
5000.308362
5000.30836
5000.308199
5000.3082
5000.3082
5000.308201
5000.308201
5000.308202
5000.308201
5000.308201
5000.308198
5000.308036
5000.308036
5000.308037
5000.308038
5000.308039
5000.308039
5000.308038
5000.308038
5000.308033
5000.30787
5000.307871
5000.307872
5000.307873
5000.307874
5000.307874
5000.307873
5000.307872
5000.307867
5000.307702
5000.307703
5000.307704
5000.307705
5000.307706
5000.307707
5000.307705
5000.307704
5000.307697
5000.30753
5000.307531
5000.307533
5000.307534
5000.307535
5000.307536
5000.307534
5000.307533
5000.307524
5000.307355
5000.307355
5000.307357
5000.307359
5000.30736
5000.30736
5000.307358
5000.307356
5000.307346
5000.307174
5000.307174
5000.307177
5000.307178
5000.307179
5000.30718
5000.307177
5000.307175
5000.307161
5000.306986
5000.306987
5000.30699
5000.306991
5000.306992
5000.306992
5000.306989
5000.306986
5000.30697
5000.306792
5000.306793
5000.306795
5000.306797
5000.306798
5000.306798
5000.306793
5000.30679
5000.306771
5000.306588
5000.306589
5000.306592
5000.306594
5000.306594
5000.306593
5000.306588
5000.306584
5000.306562
5000.306375
5000.306376
5000.306378
5000.30638
5000.30638
5000.306378
5000.306371
5000.306366
5000.306341
5000.30615
5000.30615
5000.306153
5000.306154
5000.306154
5000.306151
5000.306143
5000.306136
5000.306108
5000.305911
5000.305911
5000.305914
5000.305915
5000.305913
5000.30591
5000.3059
5000.305892
5000.30586
5000.305658
5000.305658
5000.305659
5000.305659
5000.305657
5000.305652
5000.305641
5000.305632
5000.305595
5000.305388
5000.305387
5000.305388
5000.305387
5000.305384
5000.305377
5000.305364
5000.305353
5000.305313
5000.305099
5000.305097
5000.305098
5000.305095
5000.30509
5000.305082
5000.305067
5000.305054
5000.305011
5000.304789
5000.304787
5000.304786
5000.304783
5000.304776
5000.304766
5000.304748
5000.304734
5000.304687
5000.304457
5000.304454
5000.304452
5000.304447
5000.304438
5000.304426
5000.304406
5000.30439
5000.304339
5000.3041
5000.304097
5000.304093
5000.304086
5000.304075
5000.304061
5000.304039
5000.304021
5000.303966
5000.303717
5000.303713
5000.303707
5000.303698
5000.303685
5000.303669
5000.303644
5000.303624
5000.303567
5000.303306
5000.303301
5000.303293
5000.303282
5000.303267
5000.303248
5000.303221
5000.303199
5000.303138
5000.302865
5000.302858
5000.302849
5000.302836
5000.302818
5000.302796
5000.302767
5000.302744
5000.30268
5000.302393
5000.302385
5000.302373
5000.302358
5000.302337
5000.302313
5000.302282
5000.302257
5000.302191
5000.301887
5000.301878
5000.301864
5000.301846
5000.301824
5000.301797
5000.301764
5000.301737
5000.301669
5000.301347
5000.301337
5000.301321
5000.301301
5000.301276
5000.301247
5000.301212
5000.301184
5000.301114
5000.300772
5000.30076
5000.300743
5000.30072
5000.300693
5000.300662
5000.300625
5000.300595
5000.300524
5000.30016
5000.300147
5000.300128
5000.300103
5000.300074
5000.300041
5000.300003
5000.299971
5000.2999
5000.299511
5000.299498
5000.299476
5000.29945
5000.299419
5000.299384
5000.299344
5000.299312
5000.299239
5000.298825
5000.29881
5000.298788
5000.298759
5000.298726
5000.29869
5000.298649
5000.298616
5000.298543
5000.298101
5000.298085
5000.298061
5000.298031
5000.297997
5000.297959
5000.297918
5000.297883
5000.29781
5000.297339
5000.297322
5000.297297
5000.297266
5000.29723
5000.297191
5000.297149
5000.297114
5000.297042
5000.296539
5000.296522
5000.296495
5000.296463
5000.296426
5000.296386
5000.296344
5000.296308
5000.296237
5000.295701
5000.295684
5000.295656
5000.295623
5000.295585
5000.295545
5000.295502
5000.295466
5000.295396
5000.294826
5000.294808
5000.29478
5000.294747
5000.294708
5000.294668
5000.294625
5000.294589
5000.294519
5000.293914
5000.293896
5000.293868
5000.293834
5000.293795
5000.293754
5000.293712
5000.293675
5000.293607
5000.292967
5000.292949
5000.29292
5000.292886
5000.292847
5000.292806
5000.292763
5000.292728
5000.292661
5000.291984
5000.291966
5000.291937
5000.291903
5000.291864
5000.291823
5000.291781
5000.291746
5000.291681
5000.290966
5000.290949
5000.29092
5000.290886
5000.290848
5000.290807
5000.290766
5000.290731
5000.290667
5000.289916
5000.289898
5000.28987
5000.289836
5000.289798
5000.289758
5000.289718
5000.289683
5000.289622
5000.288833
5000.288816
5000.288788
5000.288755
5000.288717
5000.288678
5000.288638
5000.288605
5000.288545
5000.287719
5000.287702
5000.287675
5000.287642
5000.287605
5000.287567
5000.287528
5000.287495
5000.287438
5000.286575
5000.286559
5000.286532
5000.2865
5000.286464
5000.286426
5000.286389
5000.286357
5000.286301
5000.285402
5000.285386
5000.28536
5000.285329
5000.285294
5000.285257
5000.285221
5000.28519
5000.285136
5000.284202
5000.284186
5000.284161
5000.28413
5000.284096
5000.284061
5000.284025
5000.283996
5000.283944
5000.282975
5000.282959
5000.282935
5000.282905
5000.282872
5000.282838
5000.282804
5000.282775
5000.282726
5000.281722
5000.281707
5000.281683
5000.281655
5000.281623
5000.28159
5000.281557
5000.281529
5000.281482
5000.280445
5000.280431
5000.280408
5000.28038
5000.28035
5000.280318
5000.280286
5000.28026
5000.280215
5000.279145
5000.279132
5000.279109
5000.279083
5000.279054
5000.279023
5000.278992
5000.278967
5000.278924
5000.277823
5000.27781
5000.277789
5000.277764
5000.277735
5000.277706
5000.277677
5000.277652
5000.277612
5000.276481
5000.276468
5000.276448
5000.276423
5000.276396
5000.276368
5000.27634
5000.276317
5000.276278
5000.275118
5000.275106
5000.275087
5000.275063
5000.275038
5000.275011
5000.274984
5000.274962
5000.274925
5000.273737
5000.273726
5000.273707
5000.273685
5000.27366
5000.273634
5000.273609
5000.273588
5000.273553
5000.272338
5000.272327
5000.27231
5000.272288
5000.272265
5000.27224
5000.272216
5000.272196
5000.272163
5000.270922
5000.270912
5000.270895
5000.270875
5000.270853
5000.270829
5000.270806
5000.270787
5000.270756
5000.269491
5000.269481
5000.269465
5000.269446
5000.269425
5000.269402
5000.269381
5000.269363
5000.269333
5000.268045
5000.268035
5000.26802
5000.268002
5000.267982
5000.267961
5000.26794
5000.267923
5000.267895
5000.266584
5000.266575
5000.266561
5000.266544
5000.266524
5000.266504
5000.266485
5000.266469
5000.266443
5000.265111
5000.265102
5000.265088
5000.265072
5000.265054
5000.265035
5000.265017
5000.265001
5000.264977
5000.263624
5000.263617
5000.263604
5000.263588
5000.263571
5000.263553
5000.263535
5000.263521
5000.263498
5000.262127
5000.262119
5000.262107
5000.262092
5000.262076
5000.262059
5000.262043
5000.262029
5000.262007
5000.260618
5000.260611
5000.260599
5000.260585
5000.26057
5000.260554
5000.260538
5000.260526
5000.260505
5000.259099
5000.259092
5000.259081
5000.259068
5000.259053
5000.259038
5000.259024
5000.259012
5000.258993
5000.25757
5000.257564
5000.257553
5000.257541
5000.257527
5000.257513
5000.257499
5000.257488
5000.25747
5000.256032
5000.256026
5000.256017
5000.256005
5000.255992
5000.255979
5000.255966
5000.255955
5000.255938
5000.254486
5000.25448
5000.254471
5000.25446
5000.254448
5000.254435
5000.254423
5000.254413
5000.254398
5000.252932
5000.252927
5000.252918
5000.252907
5000.252896
5000.252884
5000.252873
5000.252863
5000.252849
5000.25137
5000.251365
5000.251357
5000.251347
5000.251336
5000.251325
5000.251315
5000.251306
5000.251292
5000.249802
5000.249797
5000.249789
5000.24978
5000.24977
5000.249759
5000.249749
5000.249741
5000.249728
5000.248227
5000.248222
5000.248215
5000.248206
5000.248197
5000.248187
5000.248177
5000.24817
5000.248158
5000.246645
5000.246641
5000.246635
5000.246626
5000.246617
5000.246608
5000.246599
5000.246592
5000.246581
5000.245059
5000.245055
5000.245048
5000.245041
5000.245032
5000.245024
5000.245015
5000.245009
5000.244998
5000.243467
5000.243463
5000.243457
5000.24345
5000.243442
5000.243434
5000.243426
5000.24342
5000.24341
5000.24187
5000.241866
5000.241861
5000.241854
5000.241847
5000.241839
5000.241832
5000.241826
5000.241817
5000.240268
5000.240265
5000.24026
5000.240254
5000.240247
5000.240239
5000.240233
5000.240227
5000.240219
5000.238663
5000.23866
5000.238655
5000.238649
5000.238642
5000.238636
5000.238629
5000.238624
5000.238617
5000.237053
5000.23705
5000.237046
5000.23704
5000.237034
5000.237028
5000.237022
5000.237017
5000.23701
5000.23544
5000.235437
5000.235433
5000.235428
5000.235422
5000.235416
5000.235411
5000.235406
5000.2354
5000.233823
5000.233821
5000.233817
5000.233812
5000.233806
5000.233801
5000.233796
5000.233792
5000.233786
5000.232204
5000.232201
5000.232197
5000.232193
5000.232188
5000.232183
5000.232178
5000.232174
5000.232169
5000.230581
5000.230579
5000.230575
5000.230571
5000.230566
5000.230561
5000.230557
5000.230553
5000.230548
5000.228956
5000.228954
5000.22895
5000.228946
5000.228942
5000.228937
5000.228933
5000.22893
5000.228925
5000.227328
5000.227326
5000.227323
5000.227319
5000.227315
5000.227311
5000.227307
5000.227304
5000.2273
5000.225698
5000.225696
5000.225693
5000.22569
5000.225686
5000.225682
5000.225679
5000.225676
5000.225672
5000.224066
5000.224064
5000.224061
5000.224058
5000.224055
5000.224051
5000.224048
5000.224045
5000.224042
5000.222432
5000.22243
5000.222428
5000.222425
5000.222421
5000.222418
5000.222415
5000.222413
5000.222409
5000.220796
5000.220795
5000.220792
5000.220789
5000.220786
5000.220783
5000.220781
5000.220778
5000.220775
5000.219159
5000.219157
5000.219155
5000.219153
5000.21915
5000.219147
5000.219144
5000.219143
5000.21914
5000.21752
5000.217519
5000.217517
5000.217514
5000.217512
5000.217509
5000.217507
5000.217505
5000.217503
5000.21588
5000.215879
5000.215877
5000.215875
5000.215872
5000.21587
5000.215868
5000.215866
5000.215864
5000.214239
5000.214238
5000.214236
5000.214234
5000.214232
5000.21423
5000.214228
5000.214226
5000.214224
5000.212597
5000.212596
5000.212594
5000.212592
5000.21259
5000.212588
5000.212586
5000.212585
5000.212583
5000.210953
5000.210952
5000.210951
5000.210949
5000.210947
5000.210946
5000.210944
5000.210943
5000.210941
5000.209309
5000.209309
5000.209307
5000.209306
5000.209304
5000.209302
5000.209301
5000.2093
5000.209298
5000.207665
5000.207664
5000.207663
5000.207661
5000.20766
5000.207658
5000.207657
5000.207656
5000.207654
5000.206019
5000.206018
5000.206017
5000.206016
5000.206015
5000.206013
5000.206012
5000.206011
5000.20601
5000.204373
5000.204372
5000.204371
5000.20437
5000.204369
5000.204368
5000.204367
5000.204366
5000.204365
5000.202727
5000.202726
5000.202725
5000.202724
5000.202723
5000.202722
5000.202721
5000.20272
5000.202719
5000.20108
5000.201079
5000.201078
5000.201077
5000.201076
5000.201075
5000.201074
5000.201074
5000.201073
5000.199432
5000.199432
5000.199431
5000.19943
5000.199429
5000.199428
5000.199428
5000.199427
5000.199427
5000.197785
5000.197784
5000.197784
5000.197783
5000.197782
5000.197781
5000.197781
5000.19778
5000.19778
5000.196137
5000.196137
5000.196136
5000.196135
5000.196135
5000.196134
5000.196133
5000.196133
5000.196133
5000.194489
5000.194489
5000.194488
5000.194488
5000.194487
5000.194486
5000.194486
5000.194485
5000.194485
5000.192841
5000.192841
5000.19284
5000.19284
5000.192839
5000.192838
5000.192838
5000.192838
5000.192838
5000.191193
5000.191192
5000.191192
5000.191192
5000.191191
5000.191191
5000.19119
5000.19119
5000.19119
5000.189544
5000.189544
5000.189544
5000.189543
5000.189543
5000.189543
5000.189542
5000.189542
5000.189542
5000.187896
5000.187896
5000.187896
5000.187895
5000.187895
5000.187895
5000.187894
5000.187894
5000.187894
5000.186248
5000.186248
5000.186248
5000.186247
5000.186247
5000.186247
5000.186246
5000.186246
5000.186246
5000.1846
5000.1846
5000.184599
5000.184599
5000.184599
5000.184599
5000.184599
5000.184599
5000.184599
5000.182952
5000.182952
5000.182951
5000.182951
5000.182951
5000.182951
5000.182951
5000.182951
5000.182951
5000.181304
5000.181304
5000.181303
5000.181303
5000.181303
5000.181303
5000.181303
5000.181303
5000.181303
5000.179656
5000.179656
5000.179656
5000.179656
5000.179655
5000.179655
5000.179655
5000.179655
5000.179656
5000.178008
5000.178008
5000.178008
5000.178008
5000.178008
5000.178008
5000.178008
5000.178008
5000.178008
5000.176361
5000.176361
5000.176361
5000.176361
5000.176361
5000.176361
5000.176361
5000.176361
5000.176361
5000.174714
5000.174714
5000.174713
5000.174713
5000.174713
5000.174713
5000.174714
5000.174714
5000.174714
5000.173066
5000.173066
5000.173066
5000.173066
5000.173067
5000.173067
5000.173067
5000.173067
5000.173067
5000.17142
5000.17142
5000.17142
5000.17142
5000.17142
5000.17142
5000.17142
5000.17142
5000.171421
5000.169773
5000.169773
5000.169773
5000.169773
5000.169773
5000.169774
5000.169774
5000.169774
5000.169774
5000.168127
5000.168127
5000.168127
5000.168127
5000.168127
5000.168127
5000.168128
5000.168128
5000.168128
5000.166481
5000.166481
5000.166481
5000.166481
5000.166481
5000.166481
5000.166482
5000.166482
5000.166483
5000.164835
5000.164835
5000.164835
5000.164836
5000.164836
5000.164836
5000.164836
5000.164836
5000.164837
5000.16319
5000.16319
5000.16319
5000.16319
5000.16319
5000.163191
5000.163191
5000.163191
5000.163192
5000.161545
5000.161545
5000.161545
5000.161545
5000.161545
5000.161546
5000.161546
5000.161546
5000.161547
5000.1599
5000.1599
5000.1599
5000.159901
5000.159901
5000.159901
5000.159901
5000.159902
5000.159902
5000.158256
5000.158256
5000.158256
5000.158256
5000.158256
5000.158257
5000.158257
5000.158257
5000.158258
5000.156612
5000.156612
5000.156612
5000.156612
5000.156612
5000.156613
5000.156613
5000.156613
5000.156614
5000.154968
5000.154968
5000.154968
5000.154969
5000.154969
5000.154969
5000.154969
5000.15497
5000.15497
5000.153325
5000.153325
5000.153325
5000.153325
5000.153326
5000.153326
5000.153326
5000.153327
5000.153327
5000.151682
5000.151682
5000.151682
5000.151682
5000.151683
5000.151683
5000.151683
5000.151684
5000.151684
5000.150039
5000.150039
5000.15004
5000.15004
5000.15004
5000.15004
5000.150041
5000.150041
5000.150042
5000.148397
5000.148397
5000.148397
5000.148398
5000.148398
5000.148398
5000.148399
5000.148399
5000.1484
5000.146755
5000.146755
5000.146756
5000.146756
5000.146756
5000.146756
5000.146757
5000.146757
5000.146758
5000.145114
5000.145114
5000.145114
5000.145114
5000.145115
5000.145115
5000.145115
5000.145116
5000.145117
5000.143473
5000.143473
5000.143473
5000.143473
5000.143474
5000.143474
5000.143474
5000.143475
5000.143475
5000.141832
5000.141832
5000.141832
5000.141833
5000.141833
5000.141833
5000.141834
5000.141834
5000.141835
5000.140192
5000.140192
5000.140192
5000.140192
5000.140193
5000.140193
5000.140193
5000.140194
5000.140195
5000.138552
5000.138552
5000.138552
5000.138552
5000.138553
5000.138553
5000.138554
5000.138554
5000.138555
5000.136912
5000.136912
5000.136913
5000.136913
5000.136913
5000.136914
5000.136914
5000.136914
5000.136915
5000.135273
5000.135273
5000.135274
5000.135274
5000.135274
5000.135275
5000.135275
5000.135275
5000.135276
5000.133634
5000.133635
5000.133635
5000.133635
5000.133635
5000.133636
5000.133636
5000.133637
5000.133637
5000.131996
5000.131996
5000.131996
5000.131997
5000.131997
5000.131997
5000.131998
5000.131998
5000.131999
5000.130358
5000.130358
5000.130358
5000.130359
5000.130359
5000.130359
5000.13036
5000.13036
5000.130361
5000.12872
5000.128721
5000.128721
5000.128721
5000.128721
5000.128722
5000.128722
5000.128723
5000.128723
5000.127083
5000.127083
5000.127084
5000.127084
5000.127084
5000.127085
5000.127085
5000.127085
5000.127086
5000.125446
5000.125447
5000.125447
5000.125447
5000.125447
5000.125448
5000.125448
5000.125449
5000.125449
5000.12381
5000.12381
5000.12381
5000.123811
5000.123811
5000.123811
5000.123812
5000.123812
5000.123813
5000.122174
5000.122174
5000.122174
5000.122175
5000.122175
5000.122175
5000.122176
5000.122176
5000.122177
5000.120538
5000.120538
5000.120539
5000.120539
5000.120539
5000.12054
5000.12054
5000.12054
5000.120541
5000.118903
5000.118903
5000.118903
5000.118904
5000.118904
5000.118904
5000.118905
5000.118905
5000.118906
5000.117268
5000.117268
5000.117268
5000.117269
5000.117269
5000.117269
5000.11727
5000.11727
5000.117271
5000.115633
5000.115634
5000.115634
5000.115634
5000.115634
5000.115635
5000.115635
5000.115636
5000.115636
5000.113999
5000.113999
5000.114
5000.114
5000.114
5000.114001
5000.114001
5000.114001
5000.114002
5000.112366
5000.112366
5000.112366
5000.112366
5000.112367
5000.112367
5000.112367
5000.112368
5000.112368
5000.110732
5000.110732
5000.110732
5000.110733
5000.110733
5000.110733
5000.110734
5000.110734
5000.110735
5000.109099
5000.109099
5000.109099
5000.1091
5000.1091
5000.1091
5000.109101
5000.109101
5000.109102
5000.107466
5000.107467
5000.107467
5000.107467
5000.107467
5000.107468
5000.107468
5000.107469
5000.107469
5000.105834
5000.105834
5000.105835
5000.105835
5000.105835
5000.105836
5000.105836
5000.105836
5000.105837
5000.104202
5000.104202
5000.104203
5000.104203
5000.104203
5000.104204
5000.104204
5000.104204
5000.104205
5000.102571
5000.102571
5000.102571
5000.102571
5000.102572
5000.102572
5000.102573
5000.102573
5000.102574
5000.10094
5000.10094
5000.10094
5000.10094
5000.100941
5000.100941
5000.100941
5000.100942
5000.100942
5000.099309
5000.099309
5000.099309
5000.099309
5000.09931
5000.09931
5000.099311
5000.099311
5000.099312
5000.097678
5000.097678
5000.097679
5000.097679
5000.097679
5000.09768
5000.09768
5000.097681
5000.097681
5000.096048
5000.096048
5000.096049
5000.096049
5000.096049
5000.09605
5000.09605
5000.096051
5000.096051
5000.094419
5000.094419
5000.094419
5000.094419
5000.09442
5000.09442
5000.094421
5000.094421
5000.094422
5000.092789
5000.09279
5000.09279
5000.09279
5000.092791
5000.092791
5000.092792
5000.092792
5000.092793
5000.091161
5000.091161
5000.091161
5000.091162
5000.091162
5000.091162
5000.091163
5000.091164
5000.091164
5000.089533
5000.089533
5000.089533
5000.089533
5000.089534
5000.089534
5000.089535
5000.089535
5000.089537
5000.087905
5000.087905
5000.087905
5000.087906
5000.087906
5000.087907
5000.087907
5000.087908
5000.087909
5000.086278
5000.086278
5000.086278
5000.086279
5000.086279
5000.08628
5000.086281
5000.086281
5000.086283
5000.084652
5000.084652
5000.084652
5000.084652
5000.084653
5000.084654
5000.084655
5000.084655
5000.084657
5000.083026
5000.083026
5000.083027
5000.083027
5000.083028
5000.083029
5000.08303
5000.083031
5000.083033
5000.081402
5000.081402
5000.081402
5000.081403
5000.081404
5000.081404
5000.081406
5000.081407
5000.081409
5000.079779
5000.079779
5000.079779
5000.07978
5000.079781
5000.079782
5000.079783
5000.079784
5000.079787
5000.078157
5000.078158
5000.078158
5000.078159
5000.078159
5000.078161
5000.078162
5000.078164
5000.078167
5000.076538
5000.076538
5000.076538
5000.076539
5000.07654
5000.076541
5000.076543
5000.076545
5000.076549
5000.074921
5000.074921
5000.074921
5000.074922
5000.074923
5000.074924
5000.074926
5000.074929
5000.074934
5000.073306
5000.073306
5000.073307
5000.073307
5000.073309
5000.07331
5000.073313
5000.073315
5000.073322
5000.071695
5000.071695
5000.071695
5000.071696
5000.071698
5000.071699
5000.071702
5000.071705
5000.071713
5000.070087
5000.070088
5000.070088
5000.070089
5000.07009
5000.070093
5000.070096
5000.0701
5000.070108
5000.068485
5000.068485
5000.068485
5000.068486
5000.068488
5000.068491
5000.068494
5000.068499
5000.068509
5000.066887
5000.066887
5000.066888
5000.066889
5000.066891
5000.066894
5000.066898
5000.066903
5000.066915
5000.065296
5000.065296
5000.065297
5000.065298
5000.0653
5000.065303
5000.065308
5000.065314
5000.065328
5000.063712
5000.063712
5000.063713
5000.063714
5000.063716
5000.06372
5000.063726
5000.063732
5000.063748
5000.062135
5000.062136
5000.062137
5000.062138
5000.062141
5000.062145
5000.062151
5000.062159
5000.062177
5000.060568
5000.060569
5000.06057
5000.060572
5000.060574
5000.060579
5000.060586
5000.060595
5000.060615
5000.059012
5000.059012
5000.059013
5000.059015
5000.059019
5000.059024
5000.059032
5000.059041
5000.059064
5000.057466
5000.057467
5000.057468
5000.05747
5000.057474
5000.05748
5000.057489
5000.057499
5000.057524
5000.055934
5000.055935
5000.055936
5000.055938
5000.055943
5000.055949
5000.055959
5000.05597
5000.055998
5000.054415
5000.054416
5000.054418
5000.05442
5000.054425
5000.054432
5000.054443
5000.054455
5000.054485
5000.052912
5000.052913
5000.052915
5000.052918
5000.052923
5000.052931
5000.052942
5000.052956
5000.052989
5000.051425
5000.051426
5000.051428
5000.051431
5000.051437
5000.051446
5000.051458
5000.051473
5000.051508
5000.049955
5000.049957
5000.049959
5000.049963
5000.049969
5000.049978
5000.049992
5000.050008
5000.050046
5000.048505
5000.048507
5000.048509
5000.048513
5000.04852
5000.04853
5000.048545
5000.048562
5000.048602
5000.047075
5000.047077
5000.04708
5000.047084
5000.047091
5000.047102
5000.047118
5000.047136
5000.047179
5000.045666
5000.045669
5000.045671
5000.045676
5000.045684
5000.045696
5000.045712
5000.045732
5000.045777
5000.04428
5000.044283
5000.044286
5000.044291
5000.0443
5000.044312
5000.04433
5000.04435
5000.044398
5000.042918
5000.042921
5000.042924
5000.04293
5000.042939
5000.042952
5000.04297
5000.042991
5000.043042
5000.04158
5000.041583
5000.041587
5000.041593
5000.041602
5000.041616
5000.041636
5000.041658
5000.04171
5000.040267
5000.040271
5000.040275
5000.040281
5000.040292
5000.040306
5000.040326
5000.040349
5000.040404
5000.038981
5000.038985
5000.038989
5000.038996
5000.039007
5000.039022
5000.039043
5000.039067
5000.039123
5000.037723
5000.037726
5000.037731
5000.037738
5000.03775
5000.037766
5000.037787
5000.037811
5000.03787
5000.036491
5000.036495
5000.0365
5000.036508
5000.03652
5000.036535
5000.036558
5000.036584
5000.036643
5000.035289
5000.035293
5000.035298
5000.035305
5000.035318
5000.035335
5000.035359
5000.035384
5000.035445
5000.034113
5000.034117
5000.034123
5000.034132
5000.034145
5000.034163
5000.034187
5000.034213
5000.034275
5000.032968
5000.032973
5000.032979
5000.032989
5000.033002
5000.03302
5000.033044
5000.033071
5000.033134
5000.031855
5000.031859
5000.031865
5000.031874
5000.031888
5000.031906
5000.031931
5000.031957
5000.032021
5000.030768
5000.030773
5000.030779
5000.030789
5000.030803
5000.030821
5000.030846
5000.030873
5000.030937
5000.029711
5000.029716
5000.029723
5000.029733
5000.029747
5000.029766
5000.029791
5000.029818
5000.029883
5000.028684
5000.028689
5000.028696
5000.028706
5000.028721
5000.02874
5000.028765
5000.028793
5000.028857
5000.027686
5000.027692
5000.027699
5000.027709
5000.027724
5000.027743
5000.027769
5000.027796
5000.027861
5000.026718
5000.026723
5000.026731
5000.026741
5000.026756
5000.026776
5000.026801
5000.026828
5000.026893
5000.025778
5000.025784
5000.025791
5000.025802
5000.025817
5000.025837
5000.025862
5000.025889
5000.025953
5000.024867
5000.024873
5000.02488
5000.024891
5000.024907
5000.024926
5000.024952
5000.024978
5000.025042
5000.023984
5000.02399
5000.023998
5000.024009
5000.024024
5000.024044
5000.024069
5000.024096
5000.024158
5000.023129
5000.023135
5000.023143
5000.023154
5000.023169
5000.023189
5000.023215
5000.02324
5000.023302
5000.022301
5000.022307
5000.022315
5000.022326
5000.022342
5000.022361
5000.022387
5000.022412
5000.022473
5000.0215
5000.021506
5000.021514
5000.021525
5000.02154
5000.02156
5000.021585
5000.02161
5000.02167
5000.020725
5000.020731
5000.020739
5000.02075
5000.020765
5000.020785
5000.020809
5000.020834
5000.020893
5000.019975
5000.019981
5000.019989
5000.02
5000.020015
5000.020034
5000.020059
5000.020083
5000.020141
5000.01925
5000.019256
5000.019264
5000.019275
5000.01929
5000.019309
5000.019333
5000.019356
5000.019413
5000.018549
5000.018555
5000.018563
5000.018574
5000.018589
5000.018608
5000.018631
5000.018654
5000.018709
5000.017872
5000.017878
5000.017886
5000.017897
5000.017911
5000.017929
5000.017953
5000.017975
5000.018029
5000.017217
5000.017223
5000.01723
5000.017242
5000.017256
5000.017274
5000.017297
5000.017318
5000.017371
5000.016584
5000.01659
5000.016597
5000.016608
5000.016622
5000.01664
5000.016662
5000.016683
5000.016734
5000.015972
5000.015978
5000.015985
5000.015996
5000.01601
5000.016027
5000.016049
5000.016069
5000.016119
5000.015381
5000.015386
5000.015394
5000.015404
5000.015418
5000.015435
5000.015457
5000.015476
5000.015524
5000.014809
5000.014814
5000.014822
5000.014832
5000.014846
5000.014862
5000.014883
5000.014902
5000.014949
5000.014256
5000.014262
5000.014269
5000.014279
5000.014293
5000.014309
5000.014329
5000.014347
5000.014392
5000.013722
5000.013727
5000.013734
5000.013745
5000.013758
5000.013773
5000.013793
5000.01381
5000.013854
5000.013205
5000.01321
5000.013217
5000.013227
5000.01324
5000.013255
5000.013275
5000.013291
5000.013334
5000.012705
5000.01271
5000.012717
5000.012727
5000.012739
5000.012754
5000.012773
5000.012789
5000.01283
5000.012221
5000.012226
5000.012233
5000.012243
5000.012255
5000.012269
5000.012288
5000.012303
5000.012342
5000.011753
5000.011758
5000.011765
5000.011774
5000.011786
5000.0118
5000.011818
5000.011832
5000.01187
5000.011299
5000.011304
5000.011311
5000.01132
5000.011332
5000.011345
5000.011363
5000.011377
5000.011413
5000.01086
5000.010865
5000.010871
5000.01088
5000.010892
5000.010905
5000.010922
5000.010935
5000.01097
5000.010435
5000.010439
5000.010446
5000.010454
5000.010465
5000.010478
5000.010494
5000.010507
5000.010541
5000.010022
5000.010026
5000.010033
5000.010041
5000.010052
5000.010064
5000.01008
5000.010092
5000.010125
5000.009622
5000.009626
5000.009632
5000.009641
5000.009651
5000.009663
5000.009678
5000.00969
5000.009721
5000.009234
5000.009238
5000.009244
5000.009252
5000.009262
5000.009274
5000.009288
5000.009299
5000.009329
5000.008857
5000.008861
5000.008867
5000.008874
5000.008884
5000.008895
5000.00891
5000.00892
5000.008949
5000.00849
5000.008494
5000.0085
5000.008508
5000.008517
5000.008528
5000.008542
5000.008552
5000.00858
5000.008135
5000.008138
5000.008144
5000.008152
5000.008161
5000.008171
5000.008185
5000.008194
5000.008221
5000.007789
5000.007792
5000.007798
5000.007805
5000.007814
5000.007824
5000.007837
5000.007846
5000.007872
5000.007452
5000.007456
5000.007461
5000.007468
5000.007477
5000.007486
5000.007499
5000.007508
5000.007532
5000.007124
5000.007128
5000.007133
5000.00714
5000.007148
5000.007158
5000.00717
5000.007178
5000.007201
5000.006805
5000.006809
5000.006814
5000.00682
5000.006829
5000.006838
5000.006849
5000.006857
5000.006879
5000.006494