/*--------------------------------*- C++ -*----------------------------------*\
| =========                 |                                                 |
| \\      /  F ield         | OpenFOAM: The Open Source CFD Toolbox           |
|  \\    /   O peration     | Version:  2212                                  |
|   \\  /    A nd           | Website:  www.openfoam.com                      |
|    \\/     M anipulation  |                                                 |
\*---------------------------------------------------------------------------*/
FoamFile
{
    version     2.0;
    format      ascii;
    arch        "LSB;label=32;scalar=64";
    class       volScalarField;
    location    "20.00000000";
    object      PC3H4;
}
// * * * * * * * * * * * * * * * * * * * * * * * * * * * * * * * * * * * * * //

dimensions      [0 0 0 0 0 0 0];

internalField   nonuniform List<scalar> 
3000
(
2.820847436e-21
3.168858464e-21
3.694005408e-21
4.39381178e-21
5.261166116e-21
6.27251689e-21
7.366936235e-21
8.411226682e-21
9.149677854e-21
1.059070481e-20
1.194527329e-20
1.398843415e-20
1.671718168e-20
2.012881648e-20
2.42044312e-20
2.887328167e-20
3.389967199e-20
3.835224145e-20
2.372258648e-20
2.69667976e-20
3.190690724e-20
3.861447347e-20
4.721013939e-20
5.781861278e-20
7.039815152e-20
8.424249115e-20
9.60747816e-20
4.518539136e-20
5.190286221e-20
6.228182858e-20
7.667350257e-20
9.55877807e-20
1.195053002e-19
1.482955729e-19
1.796538101e-19
2.049645558e-19
8.023779798e-20
9.329752192e-20
1.137933751e-19
1.427665324e-19
1.815797952e-19
2.313210691e-19
2.911594817e-19
3.547057772e-19
4.034865852e-19
1.379759041e-19
1.624877433e-19
2.015080855e-19
2.575273125e-19
3.335338643e-19
4.314404106e-19
5.483229768e-19
6.694418189e-19
7.590498941e-19
2.342369333e-19
2.792641538e-19
3.517785677e-19
4.570593962e-19
6.009699704e-19
7.86371995e-19
1.005597835e-18
1.228337703e-18
1.389060237e-18
3.964162281e-19
4.779082344e-19
6.103161664e-19
8.04043872e-19
1.069898809e-18
1.411711227e-18
1.812334213e-18
2.213455112e-18
2.498065391e-18
6.719847531e-19
8.179156507e-19
1.056559372e-18
1.407494143e-18
1.889946821e-18
2.508560318e-18
3.228392185e-18
3.941622374e-18
4.442099791e-18
1.143145447e-18
1.402414719e-18
1.828347379e-18
2.456728016e-18
3.321139788e-18
4.426609969e-18
5.705834121e-18
6.964031907e-18
7.840351943e-18
1.952337708e-18
2.410260925e-18
3.164941817e-18
4.280587065e-18
5.815346012e-18
7.773708283e-18
1.003053098e-17
1.223887733e-17
1.376924608e-17
3.346426888e-18
4.151631584e-18
5.481563962e-18
7.450091008e-18
1.015756455e-17
1.360611429e-17
1.756821631e-17
2.143125971e-17
2.409909166e-17
5.753419725e-18
7.164589322e-18
9.498896735e-18
1.295678417e-17
1.771128752e-17
2.375865483e-17
3.069120078e-17
3.743332197e-17
4.207852222e-17
9.915587381e-18
1.238266954e-17
1.646789581e-17
2.25224286e-17
3.084465688e-17
4.141817078e-17
5.351935043e-17
6.526713789e-17
7.334896869e-17
1.712054578e-17
2.142587766e-17
2.856030064e-17
3.913724196e-17
5.367167478e-17
7.212189165e-17
9.321131404e-17
1.13658927e-16
1.277149561e-16
2.960232068e-17
3.710583072e-17
4.954682948e-17
6.799568063e-17
9.334390064e-17
1.255042486e-16
1.622345523e-16
1.978136148e-16
2.222577362e-16
5.123731882e-17
6.430219661e-17
8.597342336e-17
1.181183241e-16
1.622872949e-16
2.183214339e-16
2.823050155e-16
3.442454565e-16
3.867116164e-16
8.875217972e-17
1.114829807e-16
1.491983328e-16
2.051485537e-16
2.820197281e-16
3.795071731e-16
4.907609283e-16
5.983860578e-16
6.721447736e-16
1.538218125e-16
1.933474972e-16
2.589418255e-16
3.562557579e-16
4.899405633e-16
6.594262725e-16
8.527613011e-16
1.039709403e-15
1.167795863e-15
2.667123876e-16
3.35414876e-16
4.494442216e-16
6.186201392e-16
8.510012031e-16
1.145546581e-15
1.481434687e-15
1.806119801e-15
2.028511626e-15
4.626065109e-16
5.819904844e-16
7.801555635e-16
1.074158354e-15
1.477963395e-15
1.989692045e-15
2.573097389e-15
3.136886264e-15
3.522971308e-15
8.025845235e-16
1.009996671e-15
1.354293794e-15
1.865088208e-15
2.566572054e-15
3.455368436e-15
4.468407339e-15
5.44712882e-15
6.117220045e-15
1.392686487e-15
1.752981008e-15
2.351056368e-15
3.238292356e-15
4.456570924e-15
5.999816675e-15
7.758311386e-15
9.456749793e-15
1.061930095e-14
2.416986203e-15
3.04276852e-15
4.081492521e-15
5.622242863e-15
7.737455885e-15
1.041615773e-14
1.346748392e-14
1.641359046e-14
1.842951943e-14
4.194959457e-15
5.281707053e-15
7.085394105e-15
9.760339702e-15
1.343164479e-14
1.807934518e-14
2.337137654e-14
2.847869528e-14
3.197207909e-14
7.280906077e-15
9.167856627e-15
1.229913242e-14
1.694173569e-14
2.331127276e-14
3.13710544e-14
4.054323288e-14
4.939022198e-14
5.543831516e-14
1.263604123e-14
1.591162718e-14
2.134594354e-14
2.940023399e-14
4.044505542e-14
5.441211871e-14
7.029550832e-14
8.560416205e-14
9.606218238e-14
2.192594693e-14
2.761010513e-14
3.703717068e-14
5.100230947e-14
7.014004162e-14
9.432143177e-14
1.217945646e-13
1.482469413e-13
1.663003952e-13
3.80336786e-14
4.789243828e-14
6.423564505e-14
8.843049663e-14
1.215582711e-13
1.633718888e-13
2.108186441e-13
2.564421084e-13
2.875400123e-13
6.594272003e-14
8.302958899e-14
1.113383742e-13
1.532117909e-13
2.104809577e-13
2.826656982e-13
3.644442359e-13
4.429455645e-13
4.963650704e-13
1.142518177e-13
1.438362611e-13
1.928132509e-13
2.651796234e-13
3.640116654e-13
4.883649703e-13
6.289593878e-13
7.636258037e-13
8.550714873e-13
1.977646325e-13
2.489175604e-13
3.335195439e-13
4.583522073e-13
6.285316726e-13
8.421840512e-13
1.083127195e-12
1.3132844e-12
1.469160986e-12
3.418984065e-13
4.301853303e-13
5.760274002e-13
7.908532252e-13
1.083063563e-12
1.448921771e-12
1.860226669e-12
2.251813873e-12
2.516166477e-12
5.901536044e-13
7.421804834e-13
9.929418124e-13
1.361537027e-12
1.861541298e-12
2.485497697e-12
3.184325301e-12
3.847001784e-12
4.292642151e-12
1.016701842e-12
1.27773129e-12
1.707507609e-12
2.337627176e-12
3.189589846e-12
4.248564546e-12
5.429334089e-12
6.543785247e-12
7.289880059e-12
1.747472536e-12
2.194074993e-12
2.927790676e-12
4.000255936e-12
5.444665055e-12
7.23173449e-12
9.214042837e-12
1.107495392e-11
1.231442496e-11
2.995244209e-12
3.756108246e-12
5.002893388e-12
6.81876973e-12
9.253333306e-12
1.224938476e-11
1.555319169e-11
1.863589541e-11
2.067747967e-11
5.117623509e-12
6.407414991e-12
8.514548337e-12
1.157070619e-11
1.564683088e-11
2.06327275e-11
2.609460445e-11
3.115693347e-11
3.448881999e-11
8.712097822e-12
1.088588994e-11
1.442487554e-11
1.953338431e-11
2.630686856e-11
3.453647339e-11
4.348671945e-11
5.172244173e-11
5.710724183e-11
1.47705678e-11
1.841020316e-11
2.431225975e-11
3.278637292e-11
4.394935515e-11
5.741253928e-11
7.194119526e-11
8.520803971e-11
9.382274063e-11
2.492833611e-11
3.097755644e-11
4.074384505e-11
5.468349371e-11
7.291624944e-11
9.47329831e-11
1.180839822e-10
1.392383184e-10
1.528782122e-10
4.186147068e-11
5.183428643e-11
6.785731389e-11
9.058091667e-11
1.200777901e-10
1.550806544e-10
1.922285922e-10
2.2561121e-10
2.469841287e-10
6.991457291e-11
8.621178498e-11
1.122595093e-10
1.489476688e-10
1.961925952e-10
2.517770312e-10
3.102617918e-10
3.623961757e-10
3.955434496e-10
1.160820588e-10
1.424648825e-10
1.843992783e-10
2.430410927e-10
3.179366652e-10
4.052880553e-10
4.964108235e-10
5.769985356e-10
6.278929484e-10
1.915251694e-10
2.338135715e-10
3.006423548e-10
3.934087331e-10
5.109011717e-10
6.467482713e-10
7.872710922e-10
9.106006771e-10
9.879907035e-10
3.138907502e-10
3.809787857e-10
4.863748158e-10
6.315882947e-10
8.139825747e-10
1.023081818e-09
1.237625652e-09
1.424555051e-09
1.541150758e-09
5.108151224e-10
6.161282101e-10
7.805988483e-10
1.005530084e-09
1.285759836e-09
1.60439003e-09
1.928798518e-09
2.209530803e-09
2.383662751e-09
8.251585228e-10
9.887210039e-10
1.242673659e-09
1.587476633e-09
2.01368899e-09
2.494538354e-09
2.980573755e-09
3.398528628e-09
3.656461207e-09
1.322737385e-09
1.57407665e-09
1.962112569e-09
2.485321057e-09
3.127266377e-09
3.846234044e-09
4.568109072e-09
5.185308394e-09
5.564459728e-09
2.103622231e-09
2.485813169e-09
3.072696473e-09
3.858852674e-09
4.816744149e-09
5.88236953e-09
6.945809643e-09
7.85036208e-09
8.403785135e-09
3.318472358e-09
3.89372907e-09
4.772630337e-09
5.942812702e-09
7.359552367e-09
8.926042459e-09
1.048083716e-08
1.179734192e-08
1.259998698e-08
5.191916046e-09
6.049275533e-09
7.353088858e-09
9.079360965e-09
1.115732104e-08
1.344247384e-08
1.569983418e-08
1.760385858e-08
1.876137269e-08
8.055696648e-09
9.321526236e-09
1.123824616e-08
1.376325002e-08
1.678717881e-08
2.009700726e-08
2.335354181e-08
2.609178308e-08
2.775285085e-08
1.239437837e-08
1.424648261e-08
1.704015764e-08
2.07040653e-08
2.507247741e-08
2.983484078e-08
3.450527097e-08
3.842310227e-08
4.079639581e-08
1.890950562e-08
2.15962743e-08
2.563520186e-08
3.091170661e-08
3.717882588e-08
4.398836506e-08
5.064912574e-08
5.622695807e-08
5.96031494e-08
2.860773172e-08
3.247366577e-08
3.826794974e-08
4.581215591e-08
5.474342078e-08
6.44203907e-08
7.386548771e-08
8.176352857e-08
8.654063583e-08
4.292120793e-08
4.844072589e-08
5.669188731e-08
6.74032086e-08
8.004735956e-08
9.371240597e-08
1.070216966e-07
1.18131339e-07
1.248413567e-07
6.387096532e-08
7.169273167e-08
8.335840431e-08
9.846175267e-08
1.162422252e-07
1.354085435e-07
1.540291202e-07
1.695335423e-07
1.788759398e-07
9.428647339e-08
1.052904996e-07
1.216669786e-07
1.428147244e-07
1.676419425e-07
1.943265459e-07
2.20173114e-07
2.416305473e-07
2.545270379e-07
1.38095409e-07
1.534643551e-07
1.762882828e-07
2.056837022e-07
2.400897627e-07
2.769506067e-07
3.125403291e-07
3.420059523e-07
3.596802106e-07
2.00694255e-07
2.219988036e-07
2.535678725e-07
2.941120336e-07
3.414167617e-07
3.91934748e-07
4.405748567e-07
4.807618779e-07
5.048343401e-07
2.894032683e-07
3.187023316e-07
3.620196233e-07
4.174952691e-07
4.820278028e-07
5.507556668e-07
6.1678581e-07
6.71257669e-07
7.038554656e-07
4.14013465e-07
4.539788896e-07
5.12940238e-07
5.88260388e-07
6.756578734e-07
7.685356802e-07
8.576169286e-07
9.310160055e-07
9.749074564e-07
5.874680195e-07
6.415532599e-07
7.212011238e-07
8.227353815e-07
9.403113789e-07
1.065038514e-06
1.184496616e-06
1.282822383e-06
1.341582276e-06
8.267446863e-07
8.994036903e-07
1.006243492e-06
1.142205547e-06
1.29937733e-06
1.465850494e-06
1.625087787e-06
1.756032915e-06
1.834243026e-06
1.153947019e-06
1.250888548e-06
1.393249753e-06
1.574139789e-06
1.782926116e-06
2.003755853e-06
2.214739471e-06
2.388088389e-06
2.491573847e-06
1.597555227e-06
1.726027218e-06
1.91447225e-06
2.153586128e-06
2.429181011e-06
2.720290339e-06
2.998116857e-06
3.226203778e-06
3.362304142e-06
2.193813262e-06
2.362922714e-06
2.610706935e-06
2.924706467e-06
3.286127831e-06
3.667423766e-06
4.030947701e-06
4.329164592e-06
4.507033278e-06
2.988227695e-06
3.209287089e-06
3.532859745e-06
3.942396926e-06
4.413185134e-06
4.909276257e-06
5.38177753e-06
5.76910984e-06
6.000027784e-06
4.037107407e-06
4.324000038e-06
4.743525731e-06
5.2738812e-06
5.882807882e-06
6.523724557e-06
7.133570411e-06
7.633121897e-06
7.930801177e-06
5.409051846e-06
5.778583884e-06
6.31844076e-06
7.000126947e-06
7.781853171e-06
8.603702939e-06
9.384936932e-06
1.002438573e-05
1.040522732e-05
7.18623081e-06
7.658435077e-06
8.3476367e-06
9.216894956e-06
1.021249489e-05
1.125796163e-05
1.225072957e-05
1.306263935e-05
1.354589854e-05
9.465284857e-06
1.006362979e-05
1.09361019e-05
1.20352054e-05
1.329245247e-05
1.461102891e-05
1.586173507e-05
1.688363285e-05
1.749143937e-05
1.235765713e-05
1.310910759e-05
1.420374193e-05
1.558100631e-05
1.715430985e-05
1.880214672e-05
2.036323051e-05
2.163736291e-05
2.239454454e-05
1.598917445e-05
1.692405054e-05
1.828445874e-05
1.999386626e-05
2.194375513e-05
2.398302348e-05
2.591226466e-05
2.748496266e-05
2.841863397e-05
2.049873131e-05
2.165031988e-05
2.33242251e-05
2.542459035e-05
2.781667044e-05
3.03143721e-05
3.267367453e-05
3.459429632e-05
3.573320075e-05
2.603599573e-05
2.74398883e-05
2.947812241e-05
3.203176942e-05
3.493513511e-05
3.796135761e-05
4.081502565e-05
4.313450374e-05
4.450813535e-05
3.275814687e-05
3.445130595e-05
3.690642289e-05
3.997740023e-05
4.346254829e-05
4.708823595e-05
5.050083119e-05
5.326990465e-05
5.490740998e-05
4.082575724e-05
4.284534646e-05
4.576991147e-05
4.942183367e-05
5.355819765e-05
5.785258422e-05
6.188652361e-05
6.51537789e-05
6.708293502e-05
5.039803266e-05
5.278007839e-05
5.622473709e-05
6.051839185e-05
6.537166065e-05
7.039953824e-05
7.511254558e-05
7.892257927e-05
8.116872335e-05
6.162770213e-05
6.440567971e-05
6.841714091e-05
7.340803798e-05
7.903742995e-05
8.485635743e-05
9.029908854e-05
9.469042419e-05
9.727486499e-05
7.465589327e-05
7.785934521e-05
8.247839623e-05
8.82143129e-05
9.467004822e-05
0.0001013279732
0.0001075415818
0.0001125444062
0.0001154835757
8.960730241e-05
9.326046891e-05
9.852024168e-05
0.0001050393148
0.0001123604108
0.0001198932135
0.000126906923
0.0001325419081
0.0001358466406
0.0001065859104
0.0001107068457
0.0001166313568
0.0001239602562
0.0001321723426
0.000140601695
0.000148431735
0.0001547091731
0.0001583842684
0.0001256717359
0.000130271374
0.0001368742295
0.0001450262213
0.0001541400231
0.0001634727047
0.0001721216784
0.0001790411102
0.0001830851799
0.000146917335
0.0001519983907
0.0001592815464
0.000168256093
0.0001782672745
0.0001884949751
0.0001979518297
0.0002055021364
0.0002099077101
0.0001703442858
0.0001759014035
0.00018385547
0.0001936383457
0.0002045277272
0.0002156274318
0.0002258679559
0.0002340278532
0.000238781709
0.0001959430472
0.0002019630418
0.0002105676657
0.000221131535
0.0002328658479
0.0002448007371
0.000255788506
0.0002645273717
0.0002696110474
0.0002236732553
0.0002301356003
0.0002393602071
0.0002506656224
0.0002631987142
0.0002759194908
0.0002876071693
0.0002968861305
0.0003022765722
0.0002534649009
0.0002603424372
0.0002701472797
0.0002821440263
0.0002954184218
0.000308864961
0.0003211958711
0.000330969075
0.0003366393821
0.0002852203235
0.0002924801428
0.0003028175845
0.0003154462872
0.0003293950046
0.0003434982281
0.0003564080877
0.0003666240865
0.0003725443103
0.0003188169165
0.0003264213682
0.0003372373275
0.0003504312268
0.0003649797507
0.0003796636237
0.0003930823696
0.0004036855502
0.0004098235119
0.0003541104115
0.0003620181798
0.0003732536588
0.0003869404691
0.0004020087833
0.0004171923441
0.0004310459583
0.0004419779594
0.0004483000527
0.0003909385849
0.0003991057857
0.0004106984152
0.0004248021807
0.0004403067765
0.0004559061162
0.0004701183868
0.0004813194513
0.0004877914034
0.0004291252204
0.0004375064726
0.0004493920089
0.0004638348886
0.0004796906747
0.0004956207988
0.0005101149599
0.000521525182
0.0005281127502
0.0004684841587
0.000477033591
0.0004891473168
0.0005038512375
0.0005199732932
0.0005361498145
0.0005508500198
0.0005624104565
0.0005690800463
0.0005088232785
0.000517495444
0.0005297734303
0.0005446615674
0.0005609666967
0.0005773073188
0.0005921399225
0.0006037935506
0.0006105127428
0.0005499482728
0.0005586989491
0.0005710791546
0.0005860772085
0.000602485268
0.0006189110409
0.0006338056676
0.0006454981757
0.0006522361609
0.0005916661122
0.0006004529755
0.0006128761652
0.000627913421
0.0006443484091
0.0006607847451
0.0006756751465
0.0006873555609
0.000694083479
0.000633788114
0.0006425712822
0.0006549817631
0.0006699919278
0.0006863828353
0.0007027602906
0.0007175849923
0.0007292061429
0.0007358973336
0.0006761325684
0.0006848750154
0.0006972211911
0.0007121430175
0.0007284244478
0.0007446792807
0.0007593820335
0.0007709008707
0.00077753104
0.0007185268984
0.0007271947459
0.000739429502
0.0007542072115
0.0007703197899
0.0007863943141
0.000800924367
0.0008123021445
0.000818849457
0.0007608093538
0.0007693720516
0.0007814529866
0.0007960365114
0.0008119271043
0.0008277698613
0.0008420820776
0.0008532844178
0.0008597295249
0.0008028302579
0.0008112606661
0.0008231501865
0.0008374952545
0.0008531170234
0.0008686827984
0.0008827376391
0.0008937344997
0.0009000605126
0.0008444528414
0.0008527272267
0.0008643925274
0.0008784606127
0.0008937729307
0.0009090226391
0.0009227860352
0.0009335515945
0.0009397440131
0.0008855537038
0.0008936516673
0.0009050646159
0.00091882278
0.0009337910359
0.0009486915055
0.0009621346435
0.0009726471212
0.0009786937287
0.0009260229525
0.0009339273006
0.0009450642463
0.0009584848938
0.0009730802089
0.0009876038815
0.001000702921
0.001010944352
0.001016835083
0.0009657640671
0.0009734606401
0.0009843021657
0.0009973627351
0.001011561615
0.001025686189
0.001038421934
0.001048377908
0.001054104698
0.00100469354
0.001012171011
0.001022701643
0.001035384252
0.001049168195
0.00106287623
0.001075233768
0.001084893143
0.001090449769
0.001042740342
0.001049989991
0.001060197887
0.001072488949
0.001085844025
0.001099122522
0.001111090844
0.001120445457
0.00112582737
0.001079845246
0.001086860733
0.001096737347
0.001108627175
0.001121543596
0.001134383567
0.001145955186
0.001154999556
0.001160203711
0.00111596007
0.00112273719
0.001132276945
0.001143759349
0.001156231033
0.00116862708
0.001179797649
0.001188528682
0.001193553375
0.00115104684
0.001157583295
0.001166783249
0.001177855145
0.001189879296
0.001201829187
0.001212597134
0.001221013841
0.001225858553
0.001185076937
0.001191372102
0.00120023163
0.001210892659
0.001222469359
0.001233973639
0.001244339811
0.001252443039
0.00125710828
0.00121803022
0.00122408493
0.001232605424
0.001242857591
0.001253989413
0.001265051023
0.001275018356
0.001282810538
0.001287297707
0.001249894169
0.001255710512
0.001263895092
0.00127374243
0.001284434083
0.001295058011
0.001304631223
0.00131211614
0.001316427395
0.00128066305
0.001286244178
0.001294097431
0.001303545687
0.001313803677
0.001323996637
0.001333181947
0.001340364515
0.001344502651
0.001310337109
0.001315687064
0.001323214801
0.001332271152
0.001342103485
0.001351873623
0.001360678491
0.001367564565
0.001371532906
0.001338921822
0.001344045377
0.001351254414
0.001359927208
0.001369343114
0.001378699743
0.001387132639
0.001393728838
0.001397531136
0.001366427185
0.001371329703
0.001378227664
0.001386526188
0.001395535873
0.001404489236
0.001412559434
0.001418872981
0.001422513333
0.00139286706
0.001397554367
0.00140414951
0.001412083783
0.001420698215
0.001429259274
0.001436976667
0.001443015254
0.001446498019
0.001418258579
0.001422736852
0.00142903791
0.001436618502
0.001444849216
0.001453029469
0.001460404408
0.001466176074
0.001469505807
0.001442621593
0.001446897261
0.001452913314
0.001460151186
0.001468010119
0.001475821437
0.001482864592
0.001488377611
0.001491559003
0.001465978184
0.001470057847
0.001475798198
0.001482704566
0.001490203909
0.001497658398
0.001504380636
0.001509643431
0.001512681258
0.001488352226
0.001492242576
0.001497716652
0.001504302869
0.001511454945
0.001518564826
0.001524977107
0.001529998168
0.001532897248
0.001509768985
0.001513476749
0.001518694018
0.001524971471
0.001531788629
0.001538566138
0.001544679425
0.001549467246
0.001552232398
0.001530254781
0.001533786666
0.001538756561
0.001544736589
0.001551231116
0.001557688417
0.001563513605
0.001568076624
0.001570712638
0.001549836678
0.001553199327
0.001557931189
0.001563625012
0.001569809058
0.001575958173
0.001581506026
0.00158585258
0.001588364193
0.00156854222
0.001571742178
0.001576245204
0.001581663866
0.001587549384
0.001593402135
0.001598683238
0.001602821524
0.001605213396
0.001586399204
0.001589442887
0.001593726093
0.001598880414
0.001604479111
0.001610047075
0.001615071789
0.001619009836
0.001621286532
0.00160343548
0.001606329154
0.001610401339
0.001615301879
0.001620625178
0.001625919649
0.001630698083
0.001634443724
0.001636609703
0.001619678785
0.001622428545
0.001626298273
0.001630955303
0.001636014312
0.001641046272
0.001645588257
0.001649149112
0.001651208715
0.001635156601
0.001637768362
0.001641443935
0.001645867417
0.001650672908
0.001655453008
0.001659768078
0.001663151542
0.00166510898
0.001649896038
0.001652375521
0.001655864973
0.001660064543
0.001664626938
0.001669165479
0.00167326286
0.001676476088
0.001678335443
0.001663923736
0.001666276463
0.001669587548
0.001673572508
0.001677901865
0.001682208794
0.001686097394
0.001689147299
0.001690912516
0.001677265783
0.001679497075
0.001682637265
0.001686416574
0.001690522586
0.001694607486
0.001698295892
0.00170118914
0.001702864025
0.001689947657
0.001692062631
0.00169503911
0.001698621389
0.001702513377
0.00170638547
0.001709881944
0.001712624954
0.001714213174
0.001701994175
0.001703997744
0.001706817413
0.001710210939
0.001713897859
0.001717566003
0.001720878488
0.001723477432
0.001724982516
0.001713429453
0.00171532633
0.001717995807
0.001721208521
0.001724698965
0.001728171664
0.001731307784
0.001733768589
0.001735193929
0.001724276885
0.001726071586
0.001728597211
0.001731636724
0.001734938926
0.00173822433
0.001741191397
0.00174351975
0.001744868602
0.001734559122
0.001736255968
0.001738643813
0.001741517408
0.001744639255
0.001747745171
0.001750550192
0.001752751547
0.001754027034
0.001744298063
0.001745901188
0.001748157059
0.001750871707
0.001753820743
0.001756754646
0.001759404329
0.001761483908
0.001762689026
0.001753514852
0.001755028206
0.001757157652
0.001759720017
0.001762503459
0.001765272496
0.001767773262
0.001769736068
0.001770873685
0.001762229877
0.001763657234
0.00176566556
0.001768082009
0.001770706755
0.001773317762
0.001775675751
0.001777526569
0.001778599432
0.001770462781
0.001771807745
0.001773700015
0.001775976631
0.00177844927
0.00178090878
0.001783129865
0.001784873273
0.00178588401
0.001778232469
0.001779498482
0.00178127953
0.001783422121
0.001785748948
0.001788063202
0.001790152995
0.00179179337
0.001792744498
0.001785557125
0.001786747468
0.001788421911
0.001790436022
0.001792623047
0.001794798008
0.001796761871
0.001798303399
0.001799197324
0.001792454223
0.00179357203
0.001795144271
0.001797035195
0.001799088158
0.001801129519
0.001802972575
0.001804419257
0.001805258279
0.001798940549
0.001799988809
0.001801463052
0.001803235839
0.001805160218
0.001807073417
0.00180880056
0.001810156218
0.001810942538
0.001805032219
0.001806013784
0.001807394037
0.00180905351
0.001810854533
0.001812644762
0.001814260668
0.001815528955
0.001816264677
0.001810744701
0.001811662289
0.001812952379
0.001814503137
0.001816185796
0.001817858012
0.001819367147
0.001820551555
0.00182123869
0.001816092831
0.001816949037
0.001818152615
0.001819599047
0.001821168108
0.001822727045
0.001824133674
0.001825237539
0.001825878009
0.001821090839
0.00182188814
0.001823008686
0.001824354984
0.001825814996
0.001827265174
0.001828573372
0.001829599882
0.001830195527
0.00182575237
0.001826493126
0.001827533966
0.001828784129
0.001830139435
0.001831485172
0.001832698832
0.001833651035
0.001834203611
0.001830090502
0.001830776969
0.001831741275
0.001832899122
0.001834153869
0.00183539929
0.001836522132
0.001837402939
0.001837914128
0.001834117773
0.001834752103
0.001835642905
0.001836712081
0.001837870231
0.001839019275
0.001840054854
0.00184086705
0.001841338459
0.0018378462
0.001838430447
0.001839250638
0.001840234625
0.001841299962
0.001842356394
0.001843308108
0.001844054355
0.001844487523
0.001841287299
0.001841823426
0.001842575768
0.001843477894
0.001844454034
0.001845421452
0.001846292549
0.001846975394
0.00184737179
0.001844452107
0.001844941989
0.001845629121
0.001846452565
0.001847342964
0.001848224809
0.001849018395
0.001849640273
0.001850001306
0.001847351202
0.00184779663
0.001848421076
0.001849168876
0.001849976839
0.001850776399
0.001851495446
0.001852058686
0.001852385703
0.001849994724
0.001850397411
0.001850961582
0.001851636643
0.001852365328
0.00185308575
0.001853733101
0.001854239934
0.001854534224
0.001852392391
0.001852753973
0.001853260175
0.001853865276
0.001854517705
0.001855161999
0.001855740375
0.001856192935
0.001856455734
0.001854553519
0.001854875562
0.001855326001
0.001855863799
0.001856442866
0.001857013913
0.001857525917
0.001857926249
0.001858158739
0.001856487039
0.001856771043
0.001857167829
0.001857640869
0.00185814934
0.001858649898
0.001859098025
0.001859448086
0.0018596514
0.001858201518
0.001858448915
0.001858794069
0.001859204785
0.001859645311
0.001860078022
0.00186046466
0.001860766326
0.00186094155
0.001859705168
0.001859917331
0.001860212788
0.001860563512
0.001860938632
0.001861306026
0.001861633463
0.001861888532
0.001862036708
0.001861005869
0.001861184113
0.001861431725
0.001861724691
0.001862036837
0.001862341339
0.00186261177
0.001862821965
0.00186294409
0.001862111179
0.001862256764
0.001862458306
0.001862695656
0.001862947159
0.001863191093
0.001863406621
0.001863573595
0.001863670627
0.001863028353
0.001863142486
0.001863299661
0.001863483446
0.00186367654
0.001863862136
0.001864024778
0.001864150116
0.001864222975
0.001863764352
0.001863848191
0.00186396263
0.001864094819
0.001864231648
0.001864361044
0.001864472736
0.00186455796
0.001864607527
0.001864325861
0.001864380515
0.001864453784
0.001864536265
0.001864618887
0.001864694134
0.001864756735
0.001864803305
0.001864830426
0.001864719297
0.001864745833
0.001864779434
0.00186481402
0.001864844408
0.001864867477
0.001864882769
0.001864892089
0.001864897578
0.001864950827
0.001864950268
0.001864945642
0.001864934072
0.001864914123
0.001864886905
0.001864856603
0.001864830019
0.001864814658
0.001865026374
0.001864999701
0.001864958234
0.00186490218
0.001864833715
0.001864758028
0.001864683778
0.001864622585
0.001864587124
0.001864951632
0.001864899789
0.001864822812
0.001864723879
0.001864608647
0.001864486239
0.001864369623
0.001864275067
0.001864220229
0.001864732073
0.001864655968
0.001864544759
0.001864404491
0.001864244176
0.001864076726
0.001863919266
0.001863792545
0.001863719024
0.001864372962
0.001864273466
0.001864129256
0.001863949138
0.001863745358
0.001863534483
0.001863337644
0.001863179909
0.001863088375
0.001863879363
0.001863757315
0.001863581288
0.001863362748
0.001863117061
0.001862864316
0.001862629508
0.001862441869
0.001862332965
0.001863256149
0.001863112357
0.001862905651
0.001862650066
0.001862363972
0.001862070854
0.001861799435
0.001861582961
0.001861457307
0.001862508013
0.001862343255
0.001862106968
0.001861815662
0.001861490606
0.00186115856
0.001860851837
0.001860607558
0.001860465752
0.001861639474
0.0018614545
0.00186118969
0.001860863941
0.001860501315
0.001860131732
0.001859790968
0.001859519877
0.001859362496
0.001860654889
0.001860450422
0.001860158109
0.001859799149
0.001859400298
0.001858994521
0.001858620934
0.00185832399
0.00185815159
0.001859558459
0.001859335197
0.001859016367
0.001858625385
0.001858191607
0.001857750934
0.001857345699
0.001857023829
0.001856836948
0.001858354239
0.001858112856
0.001857768461
0.001857346608
0.001856879159
0.001856404844
0.0018559691
0.001855623199
0.001855422356
0.001857046148
0.001856787298
0.001856418259
0.001855966649
0.001855466744
0.001854960002
0.001854494852
0.001854125788
0.001853911488
0.001855637979
0.001855362295
0.001854969507
0.00185448922
0.001853958039
0.00185342005
0.001852926564
0.00185253518
0.001852307912
0.001854133412
0.001853841509
0.001853425841
0.001852917929
0.00185235662
0.001851788532
0.001851267752
0.00185085487
0.00185061511
0.001852536025
0.001852228505
0.001851790805
0.001851256294
0.001850665979
0.001850068916
0.001849521861
0.001849088284
0.001848836498
0.001850849317
0.001850526768
0.001850067869
0.001849507766
0.001848889546
0.001848264611
0.001847692285
0.001847238803
0.00184697545
0.001849076725
0.001848739727
0.001848260449
0.001847675749
0.001847030714
0.001846378999
0.001845782396
0.001845309795
0.001845035331
0.001847221648
0.001846870779
0.00184637194
0.001845763635
0.00184509287
0.001844415467
0.001843795583
0.001843304649
0.001843019533
0.001845287488
0.001844923326
0.001844405748
0.001843774835
0.001843079439
0.001842377453
0.001841735296
0.001841226829
0.001840931526
0.00184327768
0.001842900817
0.001842365336
0.001841712835
0.001840993928
0.001840268492
0.001839605101
0.001839079928
0.00183877492
0.001841195751
0.001840806794
0.001840254276
0.001839581242
0.001838839993
0.001838092288
0.00183740875
0.001836867736
0.001836553533
0.001839045371
0.001838644958
0.001838076313
0.001837383859
0.0018366215
0.001835852783
0.001835150256
0.001834594331
0.00183427148
0.001836830426
0.00183641924
0.001835835439
0.00183512476
0.001834342621
0.001833554246
0.001832833989
0.001832264165
0.001831933264
0.0018345551
0.001834133879
0.001833535983
0.001832808382
0.001832007916
0.001831201376
0.001830464778
0.001829882177
0.001829543895
0.001832223962
0.001831793523
0.001831182701
0.001830439623
0.001829622449
0.001828799408
0.001828048026
0.001827453911
0.001827109
0.001829842071
0.001829403327
0.00182878089
0.001828023957
0.001827191897
0.001826354235
0.00182558983
0.001824985636
0.001824634955
0.001827415086
0.001826969067
0.001826336498
0.001825567549
0.001824722671
0.001823872526
0.001823097109
0.001822484475
0.001822129008
0.001824949378
0.001824497254
0.00182385624
0.001823077368
0.001822222031
0.001821361847
0.001820577718
0.001819958523
0.001819599399
0.001822452141
0.001821995248
0.001821347711
0.001820561303
0.001819698199
0.001818830766
0.001818040553
0.001817416946
0.001817055456
0.001819931496
0.001819471352
0.001818819481
0.001818028255
0.001817160448
0.001816288941
0.001815495634
0.001814870056
0.001814507668
0.001817396574
0.001816934899
0.001816281172
0.001815488202
0.001814619158
0.001813747164
0.001812954136
0.001812329341
0.001811967704
0.001814857568
0.001814396296
0.001813743495
0.001812952232
0.001812085832
0.001811217361
0.001810428376
0.001809807428
0.001809448376
0.001812325751
0.00181186703
0.001811218245
0.001810432513
0.001809573048
0.001808712526
0.001807931725
0.001807317982
0.001806963517
0.001809813427
0.001809359615
0.001808718228
0.001807942201
0.001807094345
0.001806246572
0.001805478429
0.001804875507
0.001804527774
0.001807333826
0.001806887464
0.001806257112
0.001805495269
0.001804664016
0.001803834097
0.00180308335
0.001802495054
0.001802156296
0.001804900916
0.001804464689
0.001803849206
0.001803106248
0.001802296814
0.001801490055
0.001800761594
0.001800191825
0.001799864329
0.001802529133
0.001802105813
0.001801509142
0.00180078988
0.001800007575
0.001799229336