/*--------------------------------*- C++ -*----------------------------------*\
| =========                 |                                                 |
| \\      /  F ield         | OpenFOAM: The Open Source CFD Toolbox           |
|  \\    /   O peration     | Version:  2212                                  |
|   \\  /    A nd           | Website:  www.openfoam.com                      |
|    \\/     M anipulation  |                                                 |
\*---------------------------------------------------------------------------*/
FoamFile
{
    version     2.0;
    format      ascii;
    arch        "LSB;label=32;scalar=64";
    class       volScalarField;
    location    "20.00000000";
    object      PC3H4_0;
}
// * * * * * * * * * * * * * * * * * * * * * * * * * * * * * * * * * * * * * //

dimensions      [0 0 0 0 0 0 0];

internalField   nonuniform List<scalar> 
3000
(
2.820847432e-21
3.168858354e-21
3.694005131e-21
4.39381126e-21
5.261165274e-21
6.272515652e-21
7.366934555e-21
8.411224553e-21
9.149675391e-21
1.059070435e-20
1.194527232e-20
1.398843238e-20
1.671717875e-20
2.012881202e-20
2.420442481e-20
2.887327303e-20
3.389966089e-20
3.83522282e-20
2.372258359e-20
2.696679308e-20
3.190690018e-20
3.861446272e-20
4.721012367e-20
5.781859066e-20
7.039812163e-20
8.424245246e-20
9.607473524e-20
4.518538069e-20
5.190284718e-20
6.228180654e-20
7.667347034e-20
9.558773437e-20
1.195052353e-19
1.482954849e-19
1.796536961e-19
2.049644203e-19
8.023776754e-20
9.329748076e-20
1.137933165e-19
1.427664482e-19
1.81579675e-19
2.313209013e-19
2.911592544e-19
3.547054851e-19
4.034862419e-19
1.379758285e-19
1.624876434e-19
2.01507946e-19
2.575271145e-19
3.335335839e-19
4.314400214e-19
5.483224543e-19
6.694411555e-19
7.590491247e-19
2.342367648e-19
2.792639354e-19
3.51778267e-19
4.570589741e-19
6.009693793e-19
7.863711833e-19
1.00559676e-18
1.22833636e-18
1.389058701e-18
3.964158844e-19
4.779077963e-19
6.103155738e-19
8.04043054e-19
1.069897685e-18
1.411709712e-18
1.812332249e-18
2.213452708e-18
2.498062688e-18
6.71984106e-19
8.179148429e-19
1.056558308e-18
1.407492715e-18
1.889944917e-18
2.508557838e-18
3.228389079e-18
3.941618695e-18
4.442095752e-18
1.143144327e-18
1.402413363e-18
1.828345666e-18
2.456725828e-18
3.321137037e-18
4.426606627e-18
5.70583024e-18
6.964027625e-18
7.84034749e-18
1.952335937e-18
2.410258888e-18
3.164939426e-18
4.280584321e-18
5.815343076e-18
7.773705516e-18
1.003052879e-17
1.223887596e-17
1.376924561e-17
3.346424362e-18
4.151628925e-18
5.481561325e-18
7.450088969e-18
1.015756433e-17
1.36061176e-17
1.756822428e-17
2.143127265e-17
2.409910973e-17
5.753416524e-18
7.16458653e-18
9.498895396e-18
1.29567869e-17
1.771129882e-17
2.375867867e-17
3.06912358e-17
3.743336751e-17
4.207858919e-17
9.91558382e-18
1.238266782e-17
1.646789943e-17
2.2522445e-17
3.084469421e-17
4.141821964e-17
5.351936699e-17
6.526711091e-17
7.334902595e-17
1.712054219e-17
2.142587843e-17
2.856031298e-17
3.913727591e-17
5.36717156e-17
7.212181355e-17
9.321081843e-17
1.13657899e-16
1.277143014e-16
2.960231617e-17
3.710583192e-17
4.954684332e-17
6.799570433e-17
9.334384645e-17
1.255037292e-16
1.622326385e-16
1.978096418e-16
2.222552306e-16
5.12373101e-17
6.430219097e-17
8.597342657e-17
1.181183558e-16
1.622874288e-16
2.183219311e-16
2.823065881e-16
3.442488593e-16
3.867139422e-16
8.875216425e-17
1.11482963e-16
1.491983088e-16
2.051485228e-16
2.820197357e-16
3.795074208e-16
4.90761813e-16
5.983876229e-16
6.721456999e-16
1.538217899e-16
1.9334747e-16
2.589417846e-16
3.56255687e-16
4.899404548e-16
6.594261773e-16
8.527613315e-16
1.039709524e-15
1.167795772e-15
2.66712359e-16
3.354148427e-16
4.494441764e-16
6.186200685e-16
8.51001091e-16
1.145546429e-15
1.481434527e-15
1.806119642e-15
2.02851143e-15
4.626064794e-16
5.819904491e-16
7.801555203e-16
1.074158297e-15
1.477963316e-15
1.989691943e-15
2.573097276e-15
3.136886156e-15
3.522971205e-15
8.02584494e-16
1.009996639e-15
1.354293759e-15
1.865088167e-15
2.566572007e-15
3.455368384e-15
4.46840729e-15
5.447128781e-15
6.117220018e-15
1.392686465e-15
1.752980985e-15
2.351056345e-15
3.238292334e-15
4.456570905e-15
5.999816663e-15
7.758311385e-15
9.456749809e-15
1.061930098e-14
2.416986193e-15
3.042768509e-15
4.081492516e-15
5.622242866e-15
7.737455894e-15
1.041615775e-14
1.346748396e-14
1.641359052e-14
1.842951951e-14
4.194959462e-15
5.28170706e-15
7.085394124e-15
9.760339731e-15
1.343164483e-14
1.807934524e-14
2.337137662e-14
2.847869539e-14
3.197207923e-14
7.280906098e-15
9.167856658e-15
1.229913247e-14
1.694173575e-14
2.331127283e-14
3.13710545e-14
4.0543233e-14
4.939022216e-14
5.543831537e-14
1.263604127e-14
1.591162724e-14
2.134594362e-14
2.940023408e-14
4.044505555e-14
5.441211888e-14
7.029550851e-14
8.560416234e-14
9.606218276e-14
2.192594701e-14
2.761010523e-14
3.703717082e-14
5.100230963e-14
7.014004183e-14
9.432143205e-14
1.217945649e-13
1.482469418e-13
1.663003958e-13
3.803367873e-14
4.789243843e-14
6.423564528e-14
8.843049692e-14
1.215582714e-13
1.633718892e-13
2.108186447e-13
2.564421093e-13
2.875400135e-13
6.594272027e-14
8.302958924e-14
1.113383746e-13
1.532117914e-13
2.104809583e-13
2.82665699e-13
3.64444237e-13
4.429455661e-13
4.963650726e-13
1.142518181e-13
1.438362616e-13
1.928132515e-13
2.651796243e-13
3.640116664e-13
4.883649718e-13
6.289593898e-13
7.636258068e-13
8.550714913e-13
1.977646331e-13
2.489175613e-13
3.335195451e-13
4.583522088e-13
6.285316745e-13
8.421840539e-13
1.083127199e-12
1.313284406e-12
1.469160994e-12
3.418984075e-13
4.301853319e-13
5.760274023e-13
7.908532276e-13
1.083063566e-12
1.448921776e-12
1.860226676e-12
2.251813882e-12
2.51616649e-12
5.901536065e-13
7.421804861e-13
9.92941816e-13
1.361537032e-12
1.861541304e-12
2.485497706e-12
3.184325312e-12
3.847001801e-12
4.292642174e-12
1.016701845e-12
1.277731295e-12
1.707507615e-12
2.337627184e-12
3.189589857e-12
4.248564561e-12
5.429334109e-12
6.543785278e-12
7.289880099e-12
1.747472542e-12
2.194075e-12
2.927790686e-12
4.00025595e-12
5.444665073e-12
7.231734514e-12
9.214042871e-12
1.107495398e-11
1.231442503e-11
2.995244219e-12
3.756108257e-12
5.002893405e-12
6.818769754e-12
9.253333336e-12
1.22493848e-11
1.555319175e-11
1.863589551e-11
2.067747979e-11
5.117623526e-12
6.407415011e-12
8.514548367e-12
1.157070623e-11
1.564683094e-11
2.063272756e-11
2.609460455e-11
3.115693363e-11
3.448882019e-11
8.71209785e-12
1.088588998e-11
1.442487559e-11
1.953338438e-11
2.630686865e-11
3.453647351e-11
4.348671962e-11
5.1722442e-11
5.710724217e-11
1.477056784e-11
1.841020322e-11
2.431225983e-11
3.278637303e-11
4.394935529e-11
5.741253947e-11
7.194119555e-11
8.520804019e-11
9.382274122e-11
2.492833618e-11
3.097755654e-11
4.07438452e-11
5.468349389e-11
7.291624966e-11
9.473298344e-11
1.180839827e-10
1.392383192e-10
1.528782132e-10
4.186147081e-11
5.183428661e-11
6.785731413e-11
9.058091699e-11
1.200777905e-10
1.55080655e-10
1.922285931e-10
2.256112114e-10
2.469841303e-10
6.991457315e-11
8.621178527e-11
1.122595097e-10
1.489476694e-10
1.961925959e-10
2.517770322e-10
3.102617932e-10
3.62396178e-10
3.955434522e-10
1.160820591e-10
1.424648829e-10
1.84399279e-10
2.430410936e-10
3.179366664e-10
4.052880569e-10
4.964108259e-10
5.769985395e-10
6.278929527e-10
1.9152517e-10
2.338135724e-10
3.00642356e-10
3.934087346e-10
5.109011737e-10
6.46748274e-10
7.872710963e-10
9.106006837e-10
9.879907106e-10
3.138907513e-10
3.809787873e-10
4.863748178e-10
6.315882972e-10
8.13982578e-10
1.023081822e-09
1.237625658e-09
1.424555062e-09
1.541150769e-09
5.108151244e-10
6.161282128e-10
7.805988518e-10
1.005530088e-09
1.285759841e-09
1.604390037e-09
1.92879853e-09
2.209530821e-09
2.383662768e-09
8.251585261e-10
9.887210082e-10
1.242673665e-09
1.58747664e-09
2.013688999e-09
2.494538367e-09
2.980573773e-09
3.398528656e-09
3.656461234e-09
1.32273739e-09
1.574076657e-09
1.962112579e-09
2.485321069e-09
3.127266392e-09
3.846234063e-09
4.568109102e-09
5.185308438e-09
5.56445977e-09
2.103622239e-09
2.485813181e-09
3.072696488e-09
3.858852693e-09
4.816744172e-09
5.882369562e-09
6.945809691e-09
7.850362147e-09
8.4037852e-09
3.318472373e-09
3.89372909e-09
4.772630362e-09
5.942812732e-09
7.359552405e-09
8.926042508e-09
1.048083723e-08
1.179734203e-08
1.259998708e-08
5.191916068e-09
6.049275564e-09
7.353088895e-09
9.079361012e-09
1.11573211e-08
1.344247391e-08
1.56998343e-08
1.760385874e-08
1.876137283e-08
8.055696682e-09
9.321526283e-09
1.123824622e-08
1.376325009e-08
1.678717889e-08
2.009700737e-08
2.335354198e-08
2.609178331e-08
2.775285107e-08
1.239437842e-08
1.424648268e-08
1.704015773e-08
2.070406541e-08
2.507247754e-08
2.983484095e-08
3.450527123e-08
3.842310262e-08
4.079639613e-08
1.89095057e-08
2.159627441e-08
2.563520199e-08
3.091170676e-08
3.717882606e-08
4.398836532e-08
5.064912613e-08
5.622695859e-08
5.960314986e-08
2.860773184e-08
3.247366594e-08
3.826794994e-08
4.581215614e-08
5.474342106e-08
6.442039109e-08
7.386548829e-08
8.176352932e-08
8.654063648e-08
4.292120811e-08
4.844072614e-08
5.66918876e-08
6.740320895e-08
8.004735998e-08
9.371240655e-08
1.070216975e-07
1.181313401e-07
1.248413576e-07
6.387096559e-08
7.169273205e-08
8.335840474e-08
9.846175318e-08
1.162422259e-07
1.354085444e-07
1.540291214e-07
1.695335439e-07
1.788759412e-07
9.428647378e-08
1.052905002e-07
1.216669793e-07
1.428147252e-07
1.676419434e-07
1.943265471e-07
2.201731159e-07
2.416305497e-07
2.545270399e-07
1.380954096e-07
1.534643559e-07
1.762882838e-07
2.056837034e-07
2.40089764e-07
2.769506085e-07
3.125403319e-07
3.420059556e-07
3.596802133e-07
2.006942559e-07
2.219988049e-07
2.535678739e-07
2.941120352e-07
3.414167637e-07
3.919347507e-07
4.405748606e-07
4.807618826e-07
5.04834344e-07
2.894032695e-07
3.187023334e-07
3.620196254e-07
4.174952714e-07
4.820278056e-07
5.507556707e-07
6.167858155e-07
6.712576756e-07
7.03855471e-07
4.140134668e-07
4.539788923e-07
5.12940241e-07
5.882603913e-07
6.756578774e-07
7.685356857e-07
8.576169364e-07
9.310160148e-07
9.74907464e-07
5.874680221e-07
6.415532636e-07
7.21201128e-07
8.227353863e-07
9.403113847e-07
1.065038522e-06
1.184496627e-06
1.282822396e-06
1.341582286e-06
8.267446899e-07
8.994036956e-07
1.006243498e-06
1.142205553e-06
1.299377339e-06
1.465850505e-06
1.625087803e-06
1.756032933e-06
1.834243041e-06
1.153947024e-06
1.250888556e-06
1.393249762e-06
1.574139798e-06
1.782926128e-06
2.003755868e-06
2.214739492e-06
2.388088413e-06
2.491573867e-06
1.597555234e-06
1.726027228e-06
1.914472262e-06
2.153586141e-06
2.429181027e-06
2.72029036e-06
2.998116885e-06
3.226203811e-06
3.362304169e-06
2.193813271e-06
2.362922728e-06
2.610706951e-06
2.924706484e-06
3.286127852e-06
3.667423794e-06
4.03094774e-06
4.329164636e-06
4.507033313e-06
2.988227708e-06
3.209287108e-06
3.532859767e-06
3.94239695e-06
4.413185163e-06
4.909276295e-06
5.381777582e-06
5.769109899e-06
6.000027831e-06
4.037107424e-06
4.324000063e-06
4.74352576e-06
5.273881232e-06
5.882807921e-06
6.523724608e-06
7.133570479e-06
7.633121973e-06
7.930801239e-06
5.409051869e-06
5.778583918e-06
6.318440799e-06
7.00012699e-06
7.781853222e-06
8.603703006e-06
9.384937021e-06
1.002438583e-05
1.04052274e-05
7.18623084e-06
7.658435122e-06
8.347636751e-06
9.216895012e-06
1.021249496e-05
1.125796171e-05
1.225072969e-05
1.306263948e-05
1.354589865e-05
9.465284896e-06
1.006362985e-05
1.093610197e-05
1.203520547e-05
1.329245255e-05
1.461102903e-05
1.586173522e-05
1.688363301e-05
1.74914395e-05
1.235765718e-05
1.310910766e-05
1.420374201e-05
1.55810064e-05
1.715430996e-05
1.880214687e-05
2.03632307e-05
2.163736311e-05
2.239454471e-05
1.598917452e-05
1.692405064e-05
1.828445885e-05
1.999386638e-05
2.194375527e-05
2.398302366e-05
2.59122649e-05
2.748496292e-05
2.841863417e-05
2.049873139e-05
2.165032e-05
2.332422523e-05
2.54245905e-05
2.781667062e-05
3.031437233e-05
3.267367483e-05
3.459429664e-05
3.5733201e-05
2.603599583e-05
2.743988845e-05
2.947812258e-05
3.20317696e-05
3.493513532e-05
3.796135789e-05
4.081502601e-05
4.313450413e-05
4.450813566e-05
3.275814699e-05
3.445130613e-05
3.690642309e-05
3.997740045e-05
4.346254855e-05
4.708823629e-05
5.050083162e-05
5.326990512e-05
5.490741036e-05
4.082575739e-05
4.284534668e-05
4.576991172e-05
4.942183394e-05
5.355819796e-05
5.785258462e-05
6.188652412e-05
6.515377945e-05
6.708293547e-05
5.039803283e-05
5.278007866e-05
5.622473739e-05
6.051839217e-05
6.537166102e-05
7.039953871e-05
7.511254619e-05
7.892257992e-05
8.116872387e-05
6.162770233e-05
6.440568002e-05
6.841714126e-05
7.340803835e-05
7.903743038e-05
8.485635797e-05
9.029908923e-05
9.469042494e-05
9.727486559e-05
7.465589351e-05
7.785934557e-05
8.247839664e-05
8.821431333e-05
9.467004871e-05
0.0001013279738
0.0001075415826
0.0001125444071
0.0001154835764
8.960730269e-05
9.326046933e-05
9.852024214e-05
0.0001050393153
0.0001123604113
0.0001198932143
0.0001269069239
0.000132541909
0.0001358466413
0.0001065859107
0.0001107068462
0.0001166313574
0.0001239602568
0.0001321723433
0.0001406016958
0.000148431736
0.0001547091741
0.0001583842692
0.0001256717363
0.0001302713746
0.0001368742301
0.000145026222
0.0001541400238
0.0001634727055
0.0001721216795
0.0001790411114
0.0001830851808
0.0001469173354
0.0001519983913
0.000159281547
0.0001682560937
0.0001782672752
0.0001884949761
0.0001979518309
0.0002055021377
0.0002099077111
0.0001703442862
0.0001759014042
0.0001838554707
0.0001936383465
0.0002045277281
0.0002156274329
0.0002258679572
0.0002340278546
0.0002387817101
0.0001959430476
0.0002019630425
0.0002105676665
0.0002211315358
0.0002328658488
0.0002448007383
0.0002557885074
0.0002645273732
0.0002696110486
0.0002236732558
0.000230135601
0.0002393602079
0.0002506656233
0.0002631987152
0.000275919492
0.0002876071708
0.000296886132
0.0003022765735
0.0002534649014
0.000260342438
0.0002701472805
0.0002821440272
0.0002954184228
0.0003088649623
0.0003211958726
0.0003309690767
0.0003366393834
0.000285220324
0.0002924801437
0.0003028175854
0.0003154462882
0.0003293950057
0.0003434982294
0.0003564080893
0.0003666240882
0.0003725443116
0.0003188169171
0.0003264213691
0.0003372373284
0.0003504312278
0.0003649797518
0.0003796636251
0.0003930823713
0.000403685552
0.0004098235133
0.0003541104121
0.0003620181807
0.0003732536599
0.0003869404702
0.0004020087844
0.0004171923456
0.00043104596
0.0004419779612
0.0004483000542
0.0003909385855
0.0003991057867
0.0004106984162
0.0004248021818
0.0004403067777
0.0004559061176
0.0004701183886
0.0004813194532
0.0004877914049
0.000429125221
0.0004375064735
0.00044939201
0.0004638348896
0.0004796906759
0.0004956208003
0.0005101149617
0.0005215251839
0.0005281127517
0.0004684841594
0.000477033592
0.0004891473178
0.0005038512386
0.0005199732945
0.000536149816
0.0005508500217
0.0005624104585
0.0005690800478
0.0005088232791
0.000517495445
0.0005297734314
0.0005446615685
0.0005609666979
0.0005773073204
0.0005921399244
0.0006037935526
0.0006105127444
0.0005499482735
0.0005586989502
0.0005710791557
0.0005860772097
0.0006024852693
0.0006189110424
0.0006338056695
0.0006454981777
0.0006522361625
0.0005916661129
0.0006004529766
0.0006128761663
0.0006279134221
0.0006443484104
0.0006607847466
0.0006756751484
0.0006873555628
0.0006940834806
0.0006337881146
0.0006425712832
0.0006549817642
0.000669991929
0.0006863828365
0.0007027602921
0.0007175849942
0.0007292061449
0.0007358973352
0.000676132569
0.0006848750164
0.0006972211922
0.0007121430187
0.000728424449
0.0007446792822
0.0007593820354
0.0007709008727
0.0007775310415
0.000718526899
0.0007271947469
0.0007394295031
0.0007542072126
0.0007703197912
0.0007863943157
0.0008009243689
0.0008123021464
0.0008188494585
0.0007608093544
0.0007693720527
0.0007814529877
0.0007960365126
0.0008119271056
0.0008277698628
0.0008420820795
0.0008532844198
0.0008597295265
0.0008028302585
0.0008112606671
0.0008231501876
0.0008374952557
0.0008531170247
0.0008686827999
0.0008827376409
0.0008937345016
0.0009000605141
0.000844452842
0.0008527272277
0.0008643925285
0.0008784606138
0.0008937729319
0.0009090226406
0.000922786037
0.0009335515963
0.0009397440146
0.0008855537044
0.0008936516683
0.000905064617
0.0009188227811
0.0009337910371
0.000948691507
0.0009621346452
0.000972647123
0.0009786937301
0.0009260229531
0.0009339273015
0.0009450642473
0.0009584848949
0.00097308021
0.0009876038829
0.001000702923
0.001010944354
0.001016835084
0.0009657640676
0.000973460641
0.0009843021667
0.0009973627361
0.001011561616
0.001025686191
0.001038421936
0.001048377909
0.001054104699
0.001004693541
0.001012171011
0.001022701644
0.001035384253
0.001049168196
0.001062876232
0.001075233769
0.001084893144
0.00109044977
0.001042740342
0.001049989992
0.001060197888
0.00107248895
0.001085844026
0.001099122523
0.001111090845
0.001120445459
0.001125827371
0.001079845247
0.001086860734
0.001096737348
0.001108627176
0.001121543597
0.001134383569
0.001145955188
0.001154999558
0.001160203712
0.00111596007
0.001122737191
0.001132276946
0.00114375935
0.001156231034
0.001168627081
0.001179797651
0.001188528684
0.001193553377
0.001151046841
0.001157583296
0.001166783249
0.001177855146
0.001189879297
0.001201829189
0.001212597136
0.001221013843
0.001225858554
0.001185076937
0.001191372103
0.001200231631
0.00121089266
0.00122246936
0.001233973641
0.001244339812
0.001252443041
0.001257108281
0.00121803022
0.001224084931
0.001232605425
0.001242857591
0.001253989414
0.001265051024
0.001275018357
0.001282810539
0.001287297708
0.00124989417
0.001255710513
0.001263895093
0.001273742431
0.001284434084
0.001295058012
0.001304631224
0.001312116142
0.001316427396
0.00128066305
0.001286244179
0.001294097432
0.001303545688
0.001313803678
0.001323996638
0.001333181948
0.001340364517
0.001344502652
0.001310337109
0.001315687064
0.001323214801
0.001332271153
0.001342103486
0.001351873624
0.001360678493
0.001367564567
0.001371532907
0.001338921822
0.001344045378
0.001351254415
0.001359927209
0.001369343115
0.001378699744
0.00138713264
0.001393728839
0.001397531137
0.001366427185
0.001371329704
0.001378227665
0.001386526189
0.001395535874
0.001404489237
0.001412559435
0.001418872983
0.001422513334
0.001392867061
0.001397554368
0.001404149511
0.001412083784
0.001420698216
0.001429259275
0.001436976668
0.001443015256
0.00144649802
0.001418258579
0.001422736852
0.001429037911
0.001436618503
0.001444849217
0.00145302947
0.00146040441
0.001466176075
0.001469505808
0.001442621593
0.001446897262
0.001452913315
0.001460151187
0.001468010119
0.001475821438
0.001482864593
0.001488377612
0.001491559004
0.001465978185
0.001470057848
0.001475798198
0.001482704567
0.001490203909
0.001497658398
0.001504380637
0.001509643432
0.001512681259
0.001488352226
0.001492242577
0.001497716653
0.001504302869
0.001511454945
0.001518564827
0.001524977108
0.001529998169
0.001532897249
0.001509768986
0.00151347675
0.001518694018
0.001524971471
0.00153178863
0.001538566139
0.001544679426
0.001549467247
0.001552232398
0.001530254782
0.001533786666
0.001538756561
0.001544736589
0.001551231117
0.001557688418
0.001563513606
0.001568076625
0.001570712639
0.001549836678
0.001553199327
0.001557931189
0.001563625012
0.001569809059
0.001575958173
0.001581506027
0.001585852581
0.001588364194
0.00156854222
0.001571742178
0.001576245205
0.001581663867
0.001587549385
0.001593402136
0.001598683238
0.001602821525
0.001605213397
0.001586399204
0.001589442887
0.001593726093
0.001598880414
0.001604479111
0.001610047075
0.001615071789
0.001619009837
0.001621286533
0.00160343548
0.001606329154
0.00161040134
0.00161530188
0.001620625178
0.001625919649
0.001630698083
0.001634443725
0.001636609704
0.001619678785
0.001622428546
0.001626298273
0.001630955303
0.001636014312
0.001641046272
0.001645588257
0.001649149113
0.001651208715
0.001635156601
0.001637768363
0.001641443936
0.001645867418
0.001650672909
0.001655453008
0.001659768079
0.001663151542
0.00166510898
0.001649896039
0.001652375522
0.001655864974
0.001660064544
0.001664626939
0.00166916548
0.001673262861
0.001676476089
0.001678335444
0.001663923736
0.001666276463
0.001669587549
0.001673572508
0.001677901866
0.001682208794
0.001686097395
0.0016891473
0.001690912516
0.001677265783
0.001679497075
0.001682637265
0.001686416575
0.001690522586
0.001694607486
0.001698295892
0.001701189141
0.001702864025
0.001689947658
0.001692062631
0.00169503911
0.001698621389
0.001702513378
0.00170638547
0.001709881945
0.001712624955
0.001714213175
0.001701994175
0.001703997744
0.001706817413
0.001710210939
0.001713897859
0.001717566004
0.001720878489
0.001723477433
0.001724982517
0.001713429453
0.001715326331
0.001717995807
0.001721208522
0.001724698966
0.001728171664
0.001731307784
0.001733768589
0.001735193929
0.001724276885
0.001726071586
0.001728597212
0.001731636724
0.001734938926
0.00173822433
0.001741191397
0.001743519751
0.001744868603
0.001734559122
0.001736255968
0.001738643813
0.001741517409
0.001744639255
0.001747745172
0.001750550193
0.001752751547
0.001754027035
0.001744298063
0.001745901188
0.001748157059
0.001750871707
0.001753820743
0.001756754646
0.001759404329
0.001761483908
0.001762689026
0.001753514852
0.001755028206
0.001757157653
0.001759720017
0.00176250346
0.001765272497
0.001767773263
0.001769736068
0.001770873685
0.001762229877
0.001763657234
0.00176566556
0.001768082009
0.001770706755
0.001773317762
0.001775675752
0.001777526569
0.001778599432
0.001770462781
0.001771807745
0.001773700015
0.001775976631
0.00177844927
0.00178090878
0.001783129865
0.001784873273
0.00178588401
0.00177823247
0.001779498482
0.00178127953
0.001783422121
0.001785748948
0.001788063203
0.001790152995
0.001791793371
0.001792744499
0.001785557125
0.001786747469
0.001788421911
0.001790436022
0.001792623048
0.001794798009
0.001796761871
0.0017983034
0.001799197324
0.001792454223
0.001793572031
0.001795144271
0.001797035195
0.001799088158
0.001801129519
0.001802972575
0.001804419257
0.001805258279
0.001798940549
0.001799988809
0.001801463052
0.00180323584
0.001805160218
0.001807073417
0.001808800561
0.001810156219
0.001810942539
0.001805032219
0.001806013784
0.001807394037
0.00180905351
0.001810854533
0.001812644762
0.001814260668
0.001815528956
0.001816264677
0.001810744701
0.001811662289
0.00181295238
0.001814503137
0.001816185797
0.001817858012
0.001819367147
0.001820551556
0.00182123869
0.001816092831
0.001816949038
0.001818152615
0.001819599047
0.001821168108
0.001822727045
0.001824133674
0.001825237539
0.00182587801
0.001821090839
0.00182188814
0.001823008687
0.001824354985
0.001825814996
0.001827265174
0.001828573372
0.001829599883
0.001830195527
0.00182575237
0.001826493126
0.001827533966
0.00182878413
0.001830139435
0.001831485172
0.001832698833
0.001833651035
0.001834203611
0.001830090502
0.001830776969
0.001831741276
0.001832899122
0.001834153869
0.00183539929
0.001836522132
0.001837402939
0.001837914128
0.001834117773
0.001834752103
0.001835642905
0.001836712081
0.001837870231
0.001839019275
0.001840054854
0.00184086705
0.001841338459
0.0018378462
0.001838430447
0.001839250638
0.001840234626
0.001841299962
0.001842356394
0.001843308108
0.001844054356
0.001844487523
0.001841287299
0.001841823426
0.001842575768
0.001843477894
0.001844454034
0.001845421452
0.001846292549
0.001846975394
0.00184737179
0.001844452107
0.001844941989
0.001845629121
0.001846452565
0.001847342964
0.001848224809
0.001849018396
0.001849640273
0.001850001306
0.001847351202
0.00184779663
0.001848421077
0.001849168876
0.001849976839
0.001850776399
0.001851495446
0.001852058687
0.001852385703
0.001849994724
0.001850397411
0.001850961582
0.001851636643
0.001852365328
0.00185308575
0.001853733101
0.001854239934
0.001854534224
0.001852392391
0.001852753973
0.001853260175
0.001853865276
0.001854517706
0.001855162
0.001855740375
0.001856192936
0.001856455734
0.001854553519
0.001854875562
0.001855326001
0.001855863799
0.001856442866
0.001857013913
0.001857525917
0.001857926249
0.001858158739
0.001856487039
0.001856771043
0.001857167829
0.001857640869
0.00185814934
0.001858649898
0.001859098025
0.001859448086
0.0018596514
0.001858201518
0.001858448915
0.001858794069
0.001859204785
0.001859645311
0.001860078022
0.00186046466
0.001860766326
0.00186094155
0.001859705168
0.001859917331
0.001860212788
0.001860563512
0.001860938632
0.001861306026
0.001861633463
0.001861888532
0.001862036708
0.001861005869
0.001861184113
0.001861431725
0.001861724691
0.001862036837
0.001862341339
0.00186261177
0.001862821965
0.00186294409
0.001862111179
0.001862256764
0.001862458306
0.001862695656
0.001862947159
0.001863191093
0.001863406621
0.001863573595
0.001863670627
0.001863028353
0.001863142486
0.001863299661
0.001863483446
0.00186367654
0.001863862136
0.001864024778
0.001864150116
0.001864222975
0.001863764352
0.001863848191
0.00186396263
0.001864094819
0.001864231648
0.001864361044
0.001864472736
0.00186455796
0.001864607527
0.001864325861
0.001864380515
0.001864453784
0.001864536265
0.001864618887
0.001864694134
0.001864756735
0.001864803305
0.001864830426
0.001864719297
0.001864745833
0.001864779434
0.00186481402
0.001864844408
0.001864867477
0.001864882769
0.001864892089
0.001864897578
0.001864950827
0.001864950268
0.001864945642
0.001864934072
0.001864914123
0.001864886905
0.001864856603
0.001864830019
0.001864814658
0.001865026374
0.001864999701
0.001864958234
0.00186490218
0.001864833715
0.001864758028
0.001864683778
0.001864622585
0.001864587124
0.001864951632
0.001864899789
0.001864822812
0.001864723879
0.001864608647
0.001864486239
0.001864369623
0.001864275067
0.001864220229
0.001864732073
0.001864655968
0.001864544759
0.001864404491
0.001864244176
0.001864076726
0.001863919266
0.001863792545
0.001863719024
0.001864372962
0.001864273466
0.001864129256
0.001863949138
0.001863745358
0.001863534483
0.001863337644
0.001863179909
0.001863088375
0.001863879363
0.001863757315
0.001863581288
0.001863362748
0.001863117061
0.001862864316
0.001862629508
0.001862441869
0.001862332965
0.001863256149
0.001863112357
0.001862905651
0.001862650066
0.001862363972
0.001862070854
0.001861799435
0.001861582961
0.001861457307
0.001862508013
0.001862343255
0.001862106968
0.001861815662
0.001861490606
0.001861158559
0.001860851837
0.001860607558
0.001860465752
0.001861639474
0.0018614545
0.00186118969
0.001860863941
0.001860501315
0.001860131732
0.001859790968
0.001859519877
0.001859362496
0.001860654889
0.001860450422
0.001860158109
0.001859799149
0.001859400298
0.001858994521
0.001858620934
0.00185832399
0.00185815159
0.001859558459
0.001859335197
0.001859016367
0.001858625385
0.001858191607
0.001857750934
0.001857345699
0.001857023829
0.001856836948
0.001858354239
0.001858112856
0.001857768461
0.001857346608
0.001856879159
0.001856404844
0.0018559691
0.001855623199
0.001855422356
0.001857046148
0.001856787298
0.001856418259
0.001855966649
0.001855466744
0.001854960002
0.001854494852
0.001854125788
0.001853911488
0.001855637979
0.001855362295
0.001854969507
0.00185448922
0.001853958039
0.00185342005
0.001852926563
0.00185253518
0.001852307911
0.001854133411
0.001853841509
0.001853425841
0.001852917929
0.00185235662
0.001851788532
0.001851267752
0.00185085487
0.001850615109
0.001852536025
0.001852228505
0.001851790805
0.001851256294
0.001850665979
0.001850068916
0.001849521861
0.001849088284
0.001848836498
0.001850849317
0.001850526768
0.001850067869
0.001849507766
0.001848889546
0.001848264611
0.001847692285
0.001847238803
0.00184697545
0.001849076725
0.001848739727
0.001848260449
0.001847675749
0.001847030714
0.001846378999
0.001845782396
0.001845309795
0.001845035331
0.001847221648
0.001846870779
0.00184637194
0.001845763634
0.00184509287
0.001844415467
0.001843795583
0.001843304649
0.001843019532
0.001845287488
0.001844923326
0.001844405748
0.001843774835
0.001843079439
0.001842377453
0.001841735296
0.001841226829
0.001840931526
0.00184327768
0.001842900817
0.001842365336
0.001841712835
0.001840993928
0.001840268492
0.001839605101
0.001839079927
0.00183877492
0.001841195751
0.001840806794
0.001840254276
0.001839581242
0.001838839992
0.001838092288
0.00183740875
0.001836867736
0.001836553533
0.00183904537
0.001838644958
0.001838076313
0.001837383859
0.0018366215
0.001835852783
0.001835150256
0.001834594331
0.001834271479
0.001836830426
0.00183641924
0.001835835439
0.00183512476
0.00183434262
0.001833554246
0.001832833989
0.001832264165
0.001831933264
0.0018345551
0.001834133879
0.001833535983
0.001832808382
0.001832007916
0.001831201376
0.001830464778
0.001829882177
0.001829543895
0.001832223962
0.001831793523
0.001831182701
0.001830439623
0.001829622449
0.001828799408
0.001828048025
0.001827453911
0.001827109
0.001829842071
0.001829403327
0.00182878089
0.001828023957
0.001827191897
0.001826354235
0.00182558983
0.001824985636
0.001824634955
0.001827415086
0.001826969067
0.001826336498
0.001825567549
0.001824722671
0.001823872526
0.001823097109
0.001822484475
0.001822129008
0.001824949378
0.001824497254
0.00182385624
0.001823077368
0.001822222031
0.001821361847
0.001820577717
0.001819958523
0.001819599399
0.001822452141
0.001821995248
0.001821347711
0.001820561303
0.001819698199
0.001818830766
0.001818040553
0.001817416946
0.001817055456
0.001819931496
0.001819471352
0.001818819481
0.001818028255
0.001817160448
0.001816288941
0.001815495633
0.001814870056
0.001814507668
0.001817396574
0.001816934898
0.001816281172
0.001815488202
0.001814619158
0.001813747164
0.001812954136
0.001812329341
0.001811967704
0.001814857568
0.001814396296
0.001813743495
0.001812952232
0.001812085832
0.001811217361
0.001810428376
0.001809807428
0.001809448376
0.001812325751
0.00181186703
0.001811218245
0.001810432513
0.001809573048
0.001808712526
0.001807931725
0.001807317982
0.001806963517
0.001809813427
0.001809359615
0.001808718228
0.001807942201
0.001807094345
0.001806246571
0.001805478429
0.001804875507
0.001804527774
0.001807333826
0.001806887464
0.001806257112
0.001805495269
0.001804664016
0.001803834097
0.00180308335
0.001802495053
0.001802156296
0.001804900916
0.001804464689
0.001803849206
0.001803106248
0.001802296814
0.001801490055
0.001800761593
0.001800191825
0.001799864329
0.001802529133
0.001802105813
0.001801509142
0.00180078988
0.001800007575
0.001799229336
0.001798528062
0.0017979807