/*--------------------------------*- C++ -*----------------------------------*\
| =========                 |                                                 |
| \\      /  F ield         | OpenFOAM: The Open Source CFD Toolbox           |
|  \\    /   O peration     | Version:  2212                                  |
|   \\  /    A nd           | Website:  www.openfoam.com                      |
|    \\/     M anipulation  |                                                 |
\*---------------------------------------------------------------------------*/
FoamFile
{
    version     2.0;
    format      ascii;
    arch        "LSB;label=32;scalar=64";
    class       volVectorField;
    location    "20.00000000";
    object      U_0;
}
// * * * * * * * * * * * * * * * * * * * * * * * * * * * * * * * * * * * * * //

dimensions      [0 1 -1 0 0 0 0];

internalField   nonuniform List<vector> 
3000
(
(0.1354898047 -0.003721190949 6.773554974e-12)
(0.1358116509 -0.006349916815 1.347796241e-11)
(0.1365098738 -0.009885839646 2.688566872e-11)
(0.1376958032 -0.014498804 5.737423062e-11)
(0.1394425409 -0.02032627488 1.322204828e-10)
(0.1415466182 -0.02801362798 4.406743871e-11)
(0.1421321299 -0.03444029336 1.634379452e-11)
(0.1343044344 -0.04160197025 7.328680249e-12)
(0.09184426925 -0.02019577341 1.800934251e-12)
(0.1464967972 -0.008039905677 3.034222673e-11)
(0.1484091243 -0.01316832311 5.803631814e-11)
(0.1510285974 -0.01900819973 9.960676902e-11)
(0.1543700027 -0.02501769551 1.642235651e-10)
(0.1577477114 -0.0306073591 2.715196775e-10)
(0.1589046731 -0.03489492571 1.279869828e-10)
(0.1535932358 -0.03398101743 6.167540902e-11)
(0.1315480262 -0.02860858392 2.591508808e-11)
(0.07480532388 -0.007902715535 7.112800902e-12)
(0.1640526226 -0.01075769986 5.613448353e-11)
(0.166003213 -0.01699599651 1.030763277e-10)
(0.1683014914 -0.02338303096 1.670082735e-10)
(0.170059193 -0.02884275014 2.521564516e-10)
(0.1694297105 -0.03247247904 3.65617648e-10)
(0.1631432539 -0.03292193414 1.904327705e-10)
(0.1463942877 -0.02833510872 9.548160522e-11)
(0.109667575 -0.01868435468 4.528976655e-11)
(0.0472536704 -0.003427020817 1.281419884e-11)
(0.1832713386 -0.0106713742 6.204513262e-11)
(0.1845064979 -0.01643403389 1.15712676e-10)
(0.1853014323 -0.02175373813 2.012316079e-10)
(0.1841363972 -0.02539880346 3.000169031e-10)
(0.178661025 -0.02658705517 4.032519092e-10)
(0.1654960498 -0.02466191722 2.313871846e-10)
(0.1405654205 -0.01849631267 1.2691034e-10)
(0.09878905058 -0.009805897399 6.283384364e-11)
(0.0391443611 -0.001315406251 1.789773991e-11)
(0.200233501 -0.009573360122 -6.667721691e-11)
(0.1998384359 -0.01443744188 -1.778652991e-10)
(0.1979235947 -0.01850740722 9.747081179e-11)
(0.1926918721 -0.02063326595 2.279265159e-10)
(0.1818297499 -0.0203920544 2.7474884e-10)
(0.1624560229 -0.0174741626 2.047692448e-10)
(0.1319996635 -0.01198174696 1.295566915e-10)
(0.08841213525 -0.005514355581 6.910973086e-11)
(0.03256092288 -0.0005023411916 2.020968378e-11)
(0.2147811685 -0.007871771828 -3.255351603e-11)
(0.2125663885 -0.011641329 -2.352873656e-11)
(0.2078499189 -0.01451527203 1.139402097e-10)
(0.1988779912 -0.01555979894 2.415229647e-10)
(0.1836662357 -0.01464716376 3.706633014e-10)
(0.1601280051 -0.01178973896 2.254206943e-10)
(0.1267902994 -0.007540545532 1.382581457e-10)
(0.08304094373 -0.003131923223 7.447331346e-11)
(0.02999786934 -0.0002320459521 2.198536243e-11)
(0.2259157692 -0.006204882762 -1.29236326e-10)
(0.2218812187 -0.009037176283 -2.967702036e-10)
(0.2145142248 -0.01101629188 2.13715285e-11)
(0.2022895463 -0.01144242777 1.6931858e-10)
(0.1836619682 -0.01037029134 2.362324283e-10)
(0.1572338374 -0.00796891735 1.930677957e-10)
(0.1222748095 -0.004842139993 1.350382528e-10)
(0.07885354821 -0.001872900993 7.861216862e-11)
(0.02804266074 -9.437784089e-05 2.411795324e-11)
(0.2345587174 -0.004729239453 -7.462951241e-11)
(0.2289425293 -0.006792985119 -8.462091326e-11)
(0.2193690648 -0.008124382822 4.326773818e-11)
(0.2046110348 -0.008222883284 1.775376747e-10)
(0.1835381146 -0.00723123285 3.161155348e-10)
(0.1552634142 -0.005366520503 2.237008084e-10)
(0.1194791021 -0.003148525271 1.663387285e-10)
(0.07647716974 -0.00117060943 1.067776707e-10)
(0.02709453723 -5.667657946e-05 3.354419721e-11)
(0.240854617 -0.003539021072 -8.687661598e-11)
(0.2339250489 -0.005029957919 -1.482675193e-10)
(0.2225788128 -0.005925243273 -2.667402062e-10)
(0.2058860071 -0.005877001609 -1.096658941e-10)
(0.1830607129 -0.005051699257 1.387399129e-10)
(0.1535693478 -0.003655579207 2.205324416e-10)
(0.1173378144 -0.002091493912 3.079227236e-10)
(0.07471800877 -0.000754924725 2.380877447e-10)
(0.02637329862 -2.820937968e-05 6.158890674e-11)
(0.2455306319 -0.002616203534 -6.722939643e-11)
(0.2375652299 -0.003684398072 -9.989753337e-11)
(0.2248591287 -0.004287396746 -1.097646423e-10)
(0.2067435508 -0.004185869975 -2.284029862e-11)
(0.1826963747 -0.00353733391 1.041493537e-10)
(0.1524165879 -0.00251516884 1.655452219e-10)
(0.115948578 -0.001417627047 1.798606011e-10)
(0.073626492 -0.0005063380324 1.287215677e-10)
(0.02596019618 -2.053173496e-05 3.999425446e-11)
(0.2488861017 -0.001922000032 1.027693452e-10)
(0.2401215433 -0.002688624111 2.980883365e-10)
(0.226388487 -0.00309958774 9.770470282e-11)
(0.2072322832 -0.00299084664 1.214725679e-10)
(0.1823259158 -0.00249673361 2.496831909e-10)
(0.1515204907 -0.001753970943 1.857243658e-10)
(0.1149202318 -0.0009784510093 1.473306515e-10)
(0.07282643124 -0.0003462192413 9.53839614e-11)
(0.02564753905 -1.255282291e-05 3.017128452e-11)
(0.2513342937 -0.001408703366 9.493846327e-11)
(0.2419662128 -0.001959796524 1.528408557e-10)
(0.2274711335 -0.002243401729 1.152557173e-10)
(0.2075624897 -0.002146248991 1.275812635e-10)
(0.1820540649 -0.00177670088 1.716118473e-10)
(0.1508958664 -0.001238873382 1.651983686e-10)
(0.1142203564 -0.0006878863722 1.473678631e-10)
(0.07229328404 -0.0002435767031 1.027005187e-10)
(0.02544681048 -9.760527002e-06 3.300453382e-11)
(0.2530893244 -0.001032559371 9.902480757e-12)
(0.2432700161 -0.001431129125 -3.907078582e-11)
(0.2282127554 -0.001629981137 -2.20822374e-10)
(0.2077594702 -0.001550230478 -1.400432474e-10)
(0.181824919 -0.001276274342 6.497182769e-11)
(0.1504244952 -0.0008859130102 1.689558659e-10)
(0.1137040453 -0.0004905744882 2.769987662e-10)
(0.07190050235 -0.0001736062529 2.162095553e-10)
(0.02529530971 -6.753758551e-06 5.70258321e-11)
(0.254362919 -0.0007585724812 -2.317331352e-11)
(0.2442090731 -0.001048419165 -5.977681842e-11)
(0.2287394023 -0.001189920272 -1.042998771e-10)
(0.2078924004 -0.001127375499 -5.29850811e-11)
(0.181655008 -0.0009251661226 5.286940334e-11)
(0.1500863809 -0.0006408706125 1.150068172e-10)
(0.1133382889 -0.0003549113506 1.356310033e-10)
(0.07162480956 -0.000126089728 9.087579746e-11)
(0.02519064391 -5.266129517e-06 2.711720942e-11)
(0.2552792317 -0.0005590614491 -1.997197389e-11)
(0.2448782685 -0.0007713668486 -3.072303424e-11)
(0.2291063111 -0.0008735509642 -1.894240224e-11)
(0.2079737272 -0.0008257739523 5.648682802e-11)
(0.1815192745 -0.0006765286915 1.999837704e-10)
(0.1498320271 -0.0004682929518 1.177794568e-10)
(0.113066453 -0.0002594959741 5.502087776e-11)
(0.07141969946 -9.235895504e-05 -5.0584476e-11)
(0.02511161419 -3.813552242e-06 -7.114980996e-12)
(0.2559438724 -0.0004138480692 -7.915101453e-12)
(0.2453608134 -0.0005703880739 -4.853337566e-12)
(0.2293674316 -0.0006451379921 1.65026371e-11)
(0.208027305 -0.0006091735071 6.206830016e-11)
(0.1814164956 -0.0004988323923 1.071307984e-10)
(0.1496449157 -0.0003454213486 8.226184813e-11)
(0.1128681663 -0.0001918762186 4.424167149e-11)
(0.07127089243 -6.846164562e-05 7.643102172e-12)
(0.0250546272 -2.770267717e-06 1.417621043e-12)
(0.2564242248 -0.0003079131037 1.745386027e-12)
(0.2457070553 -0.0004241780352 9.627418356e-12)
(0.2295513155 -0.0004794835937 2.747680942e-11)
(0.2080598619 -0.0004525808516 5.195090086e-11)
(0.1813357947 -0.0003706340117 6.765498498e-11)
(0.149503843 -0.0002567692368 5.720524126e-11)
(0.1127199565 -0.0001428053049 3.634971279e-11)
(0.07116028543 -5.086656158e-05 1.644724728e-11)
(0.02501185142 -1.890090156e-06 4.393938369e-12)
(0.2567736154 -0.0002305456677 7.227306406e-12)
(0.245957639 -0.0003175317073 1.586925065e-11)
(0.229682675 -0.0003588452961 2.876327804e-11)
(0.2080805417 -0.0003386811555 4.192470979e-11)
(0.1812740949 -0.0002773131936 4.76728387e-11)
(0.149398685 -0.0001920009177 4.133988836e-11)
(0.1126103798 -0.0001062943387 2.855884276e-11)
(0.07107874625 -3.760913388e-05 1.525461643e-11)
(0.02498040468 -1.456437708e-06 4.371870674e-12)
(0.2570286151 -0.0001740893928 9.539801853e-12)
(0.246139736 -0.0002398127271 1.744700092e-11)
(0.2297770008 -0.0002710498712 2.63831555e-11)
(0.2080936333 -0.000255858602 3.342130438e-11)
(0.1812270137 -0.0002094224772 3.490136252e-11)
(0.1493201421 -0.0001447488735 2.971211282e-11)
(0.1125292917 -7.960263455e-05 2.072421809e-11)
(0.0710182926 -2.75682305e-05 1.129305968e-11)
(0.0249570623 -7.831510845e-07 3.227049421e-12)
(0.2572178036 -0.0001332068676 9.650666744e-12)
(0.246275025 -0.000183582689 1.602835239e-11)
(0.2298475055 -0.0002076370166 2.13787057e-11)
(0.2081043832 -0.0001961284596 2.349202642e-11)
(0.181193728 -0.0001605703537 2.113021549e-11)
(0.1492640817 -0.000110757959 1.536620479e-11)
(0.1124717041 -6.061866914e-05 9.008826279e-12)
(0.07097608573 -2.010481433e-05 3.914789269e-12)
(0.02494052642 -3.656187232e-08 8.602144861e-13)
(0.2573629304 -0.000104198781 7.619351493e-12)
(0.2463802127 -0.0001437825078 1.097550409e-11)
(0.229904758 -0.0001628859374 9.520216457e-12)
(0.2081175604 -0.0001541162145 -6.189667441e-12)
(0.181174568 -0.0001263858405 -2.129454646e-11)
(0.1492281645 -8.717418053e-05 -2.752873751e-11)
(0.112434507 -4.788801161e-05 -2.15356177e-11)
(0.07094967625 -1.53952507e-05 -1.344744826e-11)
(0.02492998273 -6.228140302e-07 -4.384600492e-12)
(0.2574817818 -8.446895577e-05 2.461940258e-11)
(0.2464692449 -0.0001168506099 5.370857806e-11)
(0.2299580108 -0.0001328318823 1.171819463e-10)
(0.2081380031 -0.0001261578543 -2.389534971e-10)
(0.1811711512 -0.0001040097476 -2.927118711e-10)
(0.149212694 -7.180160773e-05 -2.456646086e-10)
(0.1124174295 -4.006428474e-05 -1.103349564e-10)
(0.07093813951 -1.251316637e-05 -4.98084232e-11)
(0.02492694943 -1.817327e-06 -1.372104942e-11)
(0.2575904234 -7.280249934e-05 1.131078133e-11)
(0.2465555599 -0.0001013146956 1.033376683e-11)
(0.230017564 -0.0001161698743 -2.054381945e-11)
(0.2081730785 -0.0001116655927 -1.504435818e-10)
(0.1811883989 -9.330751824e-05 -1.987161414e-10)
(0.1492200049 -6.505025333e-05 -1.752581567e-10)
(0.1124218572 -3.654140575e-05 -1.081719835e-10)
(0.07094245166 -1.043383969e-05 -5.594775632e-11)
(0.02493062686 -2.535964269e-06 -1.608841394e-11)
(0.2577049792 -6.786279444e-05 -5.279412856e-12)
(0.2466532536 -9.514051129e-05 -2.031415255e-11)
(0.2300948912 -0.000110267511 -5.645866134e-11)
(0.2082312334 -0.0001074233226 -1.155488735e-10)
(0.1812308043 -9.129993172e-05 -1.424508097e-10)
(0.1492520351 -6.442443544e-05 -1.294671644e-10)
(0.1124481634 -3.70949044e-05 -9.071422727e-11)
(0.0709633153 -9.727835934e-06 -5.044749789e-11)
(0.02494151833 -3.771286868e-06 -1.484873407e-11)
(0.2578405021 -6.908406183e-05 -1.606520398e-11)
(0.246775587 -9.759917028e-05 -3.434796072e-11)
(0.2302010883 -0.0001143713428 -6.231412261e-11)
(0.2083220502 -0.0001129149319 -9.291309497e-11)
(0.181309116 -9.771353284e-05 -1.057042218e-10)
(0.1493199255 -7.034529754e-05 -9.592525659e-11)
(0.112505994 -4.222429968e-05 -7.056518436e-11)
(0.07100656209 -1.076926474e-05 -4.071981577e-11)
(0.02496132624 -5.743428406e-06 -1.216662361e-11)
(0.2580150095 -7.672508484e-05 -2.111390093e-11)
(0.2469394017 -0.000109300936 -3.857365343e-11)
(0.2303514728 -0.0001296206675 -5.8849894e-11)
(0.2084589503 -0.0001299884941 -7.602172467e-11)
(0.181433424 -0.000114628921 -8.135886478e-11)
(0.1494316089 -8.407383342e-05 -7.272481283e-11)
(0.1126015428 -5.212736271e-05 -5.416678646e-11)
(0.07107649353 -1.309795837e-05 -3.172828755e-11)
(0.02499199149 -8.390896261e-06 -9.546369546e-12)
(0.2582495529 -9.097440865e-05 -2.232159636e-11)
(0.2471649168 -0.0001305374171 -3.777394356e-11)
(0.2305652009 -0.0001564042763 -5.25464468e-11)
(0.208659898 -0.0001589566441 -6.270686459e-11)
(0.1816205081 -0.0001425218083 -6.420578198e-11)
(0.1496014163 -0.0001063481262 -5.64079264e-11)
(0.1127464364 -6.763628424e-05 -4.197896957e-11)
(0.07118152092 -1.725776472e-05 -2.469215738e-11)
(0.02503690583 -1.207284687e-05 -7.450821447e-12)
(0.2585687626 -0.0001123056111 -2.136845913e-11)
(0.2474759544 -0.0001620314775 -3.464892651e-11)
(0.2308649282 -0.0001956399776 -4.573274324e-11)
(0.2089460254 -0.000200842283 -5.226823539e-11)
(0.1818895076 -0.0001823100989 -5.202139665e-11)
(0.1498461834 -0.0001379276513 -4.507061382e-11)
(0.1129542046 -8.944340834e-05 -3.341938117e-11)
(0.07133058088 -2.350618632e-05 -1.968357941e-11)
(0.02509929598 -1.694820286e-05 -5.953264517e-12)
(0.2590020264 -0.0001411430582 -1.856128927e-11)
(0.2479012525 -0.0002044167389 -2.888123905e-11)
(0.2312783956 -0.0002481200342 -3.685322544e-11)
(0.209343648 -0.0002564981184 -4.794538438e-11)
(0.1822647246 -0.0002348243666 -4.690469174e-11)
(0.150187264 -0.0001795011362 -3.955361232e-11)
(0.1132420231 -0.0001180384621 -2.882920473e-11)
(0.07153522293 -3.199365328e-05 -1.68553494e-11)
(0.02518345532 -2.321055422e-05 -5.093042592e-12)
(0.2595836574 -0.000177860008 1.440270762e-11)
(0.2484744823 -0.0002582236714 4.903724122e-11)
(0.2318382309 -0.0003144723488 1.368282743e-10)
(0.2098837939 -0.0003265554837 -1.430850638e-10)
(0.1827747622 -0.0003006037878 -7.489037012e-11)
(0.1506497013 -0.0002314355913 -4.696639443e-11)
(0.1136298565 -0.0001536326959 -2.977136939e-11)
(0.07180865899 -4.273186774e-05 -1.635668033e-11)
(0.02529414423 -3.099493776e-05 -4.833298261e-12)
(0.2603535477 -0.0002226379947 1.623566645e-11)
(0.2492349026 -0.000323659293 2.921415091e-11)
(0.232582591 -0.0003948722248 3.013588886e-11)
(0.2106028081 -0.0004111156647 -5.180010139e-11)
(0.1834531195 -0.0003796392974 -5.285448795e-11)
(0.1512627291 -0.0002936190629 -4.017130116e-11)
(0.1141408876 -0.000196077101 -2.683875974e-11)
(0.07216615031 -5.558943755e-05 -1.490763457e-11)
(0.02543683838 -4.040239858e-05 -4.408830193e-12)
(0.2613571736 -0.0002753228354 9.555735743e-12)
(0.2502273192 -0.0004004541951 1.120755708e-11)
(0.2335550335 -0.0004888760601 5.817015052e-13)
(0.2115421168 -0.0005095572603 -2.883954955e-11)
(0.1843378398 -0.0004711705415 -3.573646174e-11)
(0.1520593463 -0.0003653033642 -3.085528512e-11)
(0.114801066 -0.0002447628561 -2.214024201e-11)
(0.07262460045 -7.024600438e-05 -1.27911947e-11)
(0.02561750308 -5.146530362e-05 -3.850373499e-12)
(0.2626456777 -0.0003353180531 3.55695227e-12)
(0.2515021088 -0.0004876953241 1.460623743e-12)
(0.2348044954 -0.0005952311835 -7.419427328e-12)
(0.2127481541 -0.0006203571944 -2.071062673e-11)
(0.1854713585 -0.0005735377538 -2.602781649e-11)
(0.1530761052 -0.0004449905769 -2.439044058e-11)
(0.1156388988 -0.000298550186 -1.903377358e-11)
(0.07320241255 -8.618791995e-05 -1.180908071e-11)
(0.02584257091 -6.415510339e-05 -3.681590056e-12)
(0.2642755749 -0.0004015527586 -5.154283873e-13)
(0.2531148689 -0.0005837190138 -3.814414353e-12)
(0.2363848695 -0.0007117264327 -1.059047596e-11)
(0.2142718586 -0.000740969825 -1.858381658e-11)
(0.1868999324 -0.0006841056468 -2.343998619e-11)
(0.1543525022 -0.0005303839 -2.468137972e-11)
(0.1166848651 -0.0003557433869 -2.263308487e-11)
(0.0739190301 -0.000102705012 -1.595054602e-11)
(0.02611875468 -7.837178495e-05 -4.924424309e-12)
(0.2663083208 -0.0004724221239 -6.742163789e-12)
(0.2551259654 -0.0006860473514 -1.126008056e-11)
(0.2383544712 -0.0008351243755 -1.726620066e-11)
(0.2161680424 -0.0008677760646 -2.488072369e-11)
(0.1886729543 -0.000799254482 -3.345039512e-11)
(0.1559302796 -0.0006184262559 -4.303033112e-11)
(0.1179707877 -0.0004141517242 -5.09013686e-11)
(0.07479448428 -0.0001189215024 -3.920132212e-11)
(0.02645288652 -9.394216055e-05 -8.078736769e-12)
(0.2688096279 -0.0005457192641 -4.403496336e-10)
(0.2575997973 -0.0007913689061 -1.538106918e-10)
(0.24077522 -0.0009611915108 -7.161674286e-11)
(0.2184944807 -0.0009961358599 -5.67722079e-11)
(0.1908419759 -0.0009144658564 -7.025644358e-11)
(0.1578524618 -0.000705420536 -1.086486146e-10)
(0.1195290061 -0.0004712125686 -1.895137658e-10)
(0.07584881875 -0.0001338580657 -1.475878027e-10)
(0.02685170164 -0.0001106260724 1.273320561e-11)
(0.2718486146 -0.0006186747513 -1.856456794e-10)
(0.2606038485 -0.0008955946613 -1.285167816e-10)
(0.2437116008 -0.001084808603 -8.643599017e-11)
(0.2213107866 -0.001120548533 -7.37573513e-11)
(0.1934595256 -0.001024517198 -7.976556887e-11)
(0.1601622235 -0.000787219234 -9.427459977e-11)
(0.1213914405 -0.000524154538 -1.032480515e-10)
(0.07710147751 -0.0001465193964 -7.128702169e-11)
(0.02732163303 -0.0001281378032 -1.588396953e-11)
(0.2754967262 -0.0006880805827 -9.472367178e-11)
(0.2642075116 -0.0009940080451 -9.467139196e-11)
(0.2472293734 -0.001200168607 -8.191091378e-11)
(0.2246770313 -0.001234918532 -7.542889173e-11)
(0.1965777063 -0.00112378148 -7.517485761e-11)
(0.1629015865 -0.0008594814463 -7.483130406e-11)
(0.123588537 -0.0005701809871 -6.618883934e-11)
(0.07857062754 -0.0001559666633 -4.285731717e-11)
(0.02786858908 -0.0001461610347 -1.260518595e-11)
(0.2798264371 -0.0007504216079 -5.826483227e-11)
(0.2684807085 -0.001081488676 -7.132901072e-11)
(0.2513940637 -0.001301076352 -7.165626931e-11)
(0.2286521508 -0.001332912547 -6.919356323e-11)
(0.2002466371 -0.001206603098 -6.589230164e-11)
(0.1661100353 -0.0009179884513 -5.949043211e-11)
(0.1261481913 -0.0006066781184 -4.731911675e-11)
(0.08027248852 -0.0001613758971 -2.918674828e-11)
(0.02849772941 -0.000164355973 -8.861295833e-12)
(0.2849097274 -0.0008020332446 -4.112338047e-11)
(0.2734922604 -0.001152801764 -5.585484472e-11)
(0.2562692157 -0.00138134349 -6.085245977e-11)
(0.2332921541 -0.001408381213 -6.039563539e-11)
(0.204512761 -0.001267702543 -5.628208582e-11)
(0.1698230909 -0.0009589728241 -4.84469204e-11)
(0.1290947076 -0.0006314308856 -3.668196436e-11)
(0.08222071992 -0.0001621016982 -2.203903642e-11)
(0.02921326083 -0.0001823710499 -6.691751807e-12)
(0.2908163084 -0.0008393458297 -3.165667695e-11)
(0.2793079853 -0.001202954168 -4.539084818e-11)
(0.2619144236 -0.001435236067 -5.196636397e-11)
(0.2386481878 -0.001455816747 -5.298972809e-11)
(0.2094170886 -0.001302575567 -4.948758824e-11)
(0.174070904 -0.000979403746 -4.284164347e-11)
(0.1324478353 -0.0006427952242 -3.22921234e-11)
(0.08442590325 -0.000157735234 -1.936274246e-11)
(0.03001828479 -0.0001998631449 -5.904610121e-12)
(0.2976115653 -0.0008591772338 -2.736154185e-11)
(0.2859885674 -0.001227580349 -4.160024427e-11)
(0.2683832072 -0.001457917414 -5.184445068e-11)
(0.2447645463 -0.001470801474 -5.762339635e-11)
(0.2149935003 -0.001307854184 -4.999723341e-11)
(0.178876975 -0.0009772009781 -5.197517565e-11)
(0.1362219416 -0.0006397897345 -3.888710551e-11)
(0.08689512699 -0.0001481200727 -2.263656683e-11)
(0.03091469192 -0.0002165114186 -6.80536622e-12)
(0.3053542361 -0.0008589982576 -3.551313155e-11)
(0.293587261 -0.001223305192 -6.348190867e-11)
(0.2757208049 -0.001445853226 -1.064436247e-10)
(0.2516767276 -0.001450385736 -1.869839567e-10)
(0.2212672222 -0.00128158356 6.966055368e-13)
(0.184257104 -0.0009513773053 -1.383554855e-10)
(0.1404253861 -0.0006221271234 -7.083644904e-11)
(0.08963168916 -0.0001333281604 -3.401507631e-11)
(0.0319030867 -0.0002320171247 -9.398233658e-12)
(0.3140939085 -0.0008371460729 -3.848051869e-11)
(0.3021474953 -0.001188054984 -6.492170543e-11)
(0.2839620087 -0.001397142161 -9.141319506e-11)
(0.259409667 -0.001393333912 -1.077233466e-10)
(0.2282535709 -0.00122336123 -6.98250477e-11)
(0.190218637 -0.0009020913437 -7.975297181e-11)
(0.1450601471 -0.000590208258 -5.511524641e-11)
(0.09263495254 -0.0001136282811 -2.967236515e-11)
(0.03298274829 -0.000246099355 -8.521693128e-12)
(0.3238683814 -0.0007929933474 -3.587934237e-11)
(0.3117004463 -0.001121282844 -5.73428201e-11)
(0.2931291468 -0.001311715116 -7.346101722e-11)
(0.2679762442 -0.001300220063 -7.814288681e-11)
(0.2359570132 -0.001134329501 -6.643649435e-11)
(0.1967600033 -0.0008305940308 -5.769543205e-11)
(0.1501216783 -0.0005450723752 -4.1111024e-11)
(0.0959003509 -8.946919439e-05 -2.316935056e-11)
(0.03415164225 -0.0002585015157 -6.798023525e-12)
(0.3347011084 -0.0007270465108 -3.072706766e-11)
(0.3222628354 -0.00102404917 -4.749582337e-11)
(0.3032304338 -0.001191348109 -5.818048068e-11)
(0.2773762418 -0.001173366716 -6.019420002e-11)
(0.2443706715 -0.00101703548 -5.378459123e-11)
(0.2038706132 -0.0007390673989 -4.412433212e-11)
(0.155599011 -0.0004882733493 -3.139979705e-11)
(0.09941955124 -6.144944399e-05 -1.794466284e-11)
(0.03540646363 -0.0002690022264 -5.313169049e-12)
(0.3465988712 -0.0006409404545 -2.521148213e-11)
(0.3338350918 -0.0008989410022 -3.826514774e-11)
(0.3142587429 -0.00103950031 -4.591345679e-11)
(0.287595746 -0.001016636111 -4.710580132e-11)
(0.2534762213 -0.0008751987494 -4.26479857e-11)
(0.211531037 -0.0006304279357 -3.480415297e-11)
(0.1614750141 -0.0004217397475 -2.496167583e-11)
(0.103180731 -3.035969063e-05 -1.447742295e-11)
(0.03674270274 -0.0002774709137 -4.333412761e-12)
(0.3595501176 -0.000537309404 -2.046091916e-11)
(0.3464002292 -0.0007498650559 -3.083893609e-11)
(0.326191106 -0.0008610277688 -3.684095378e-11)
(0.2986072262 -0.0008351014839 -3.805907007e-11)
(0.2632443752 -0.0007134090098 -3.52338262e-11)
(0.2197136539 -0.0005081086941 -2.964172438e-11)
(0.1677270203 -0.0003475486716 -2.218787572e-11)
(0.1071692756 2.781558053e-06 -1.343441568e-11)
(0.03815422247 -0.0002841132077 -4.113413183e-12)
(0.3735238977 -0.0004195500238 -1.790542593e-11)
(0.3599232839 -0.0005817120274 -2.67688084e-11)
(0.3389887166 -0.0006617552306 -3.219118835e-11)
(0.3103699566 -0.0006345783631 -3.431530575e-11)
(0.2736354993 -0.0005367065141 -3.383903814e-11)
(0.2283831826 -0.0003757565175 -3.132536791e-11)
(0.1743272675 -0.0002674187754 -2.634309235e-11)
(0.1113665573 3.535985393e-05 -1.736120614e-11)
(0.03963529121 -0.0002907810821 -5.28694322e-12)
(0.3884700289 -0.000291551908 -3.33604611e-11)
(0.3743518879 -0.0003999820858 -3.68607238e-11)
(0.3525979222 -0.0004480572475 -3.838555404e-11)
(0.3228312681 -0.0004212510768 -4.049126555e-11)
(0.2846009267 -0.0003503678138 -4.362443701e-11)
(0.2374979518 -0.0002368881034 -4.747595625e-11)
(0.1812440084 -0.0001841721952 -4.880343047e-11)
(0.1157511868 6.78463381e-05 -3.45363921e-11)
(0.04117927964 -0.0002957773711 -7.866521405e-12)
(0.4043199064 -0.0001574098555 -3.830685061e-10)
(0.3896173355 -0.000210344048 -1.47042217e-10)
(0.3669514724 -0.000226337459 -7.943553409e-11)
(0.3359278035 -0.0002011504133 -6.35911082e-11)
(0.296083924 -0.0001593547646 -6.830474355e-11)
(0.247010606 -9.442747222e-05 -8.834784036e-11)
(0.1884401058 -0.0001007730353 -1.357643447e-10)
(0.1203032375 9.885765885e-05 -1.055161359e-10)
(0.04277814936 -0.0002987390484 9.960286749e-12)
(0.4209891784 -2.120628869e-05 -1.468862689e-10)
(0.4056372923 -1.834555933e-05 -1.107182058e-10)
(0.3819710656 -2.792823232e-06 -8.110991852e-11)
(0.349587798 1.976930719e-05 -6.93704194e-11)
(0.3080217419 3.145260644e-05 -6.884804293e-11)
(0.25687025 4.661066619e-05 -7.275057205e-11)
(0.1958761296 -1.524547694e-05 -7.233310276e-11)
(0.1249993579 0.0001308694981 -4.830338833e-11)
(0.04442376673 -0.0003009555268 -1.127061168e-11)
(0.4383801133 0.0001132912969 -7.065047736e-11)
(0.4223179803 0.0001707959657 -7.510260423e-11)
(0.3975693078 0.0002167618744 -6.812888631e-11)
(0.3637327325 0.0002360051787 -6.238210903e-11)
(0.3203472549 0.0002183807872 -5.884754703e-11)
(0.2670222602 0.0001819078344 -5.457766839e-11)
(0.2035155508 7.010455816e-05 -4.554420616e-11)
(0.1298118821 0.0001640957914 -2.875248782e-11)
(0.04610749552 -0.0003025480881 -8.48445891e-12)
(0.4563832383 0.0002426412934 -4.094962604e-11)
(0.4395557078 0.0003523366808 -5.193053416e-11)
(0.4136511982 0.0004270080353 -5.330954421e-11)
(0.3782787516 0.0004428293862 -5.092034485e-11)
(0.3329897403 0.0003968516337 -4.665113139e-11)
(0.2774098955 0.0003119089258 -4.015018138e-11)
(0.2113179537 0.0001518870936 -3.068593998e-11)
(0.1347156349 0.0001949363247 -1.850596537e-11)
(0.04782091826 -0.0003024880354 -5.573140457e-12)
(0.4748819914 0.0003641233562 -2.671325762e-11)
(0.457241145 0.0005226642451 -3.680438488e-11)
(0.4301177753 0.0006240945909 -4.01913301e-11)
(0.3931395787 0.0006367505777 -3.910531485e-11)
(0.3458770088 0.000564141333 -3.50382351e-11)
(0.2879767022 0.0004343398454 -2.871374441e-11)
(0.2192400488 0.0002283138959 -2.072615619e-11)
(0.139687002 0.0002229868683 -1.198040808e-11)
(0.0495555955 -0.000300786568 -3.55024434e-12)
(0.4937569729 0.0004757154291 -1.819488913e-11)
(0.475262986 0.00067909811 -2.586512616e-11)
(0.446868947 0.0008051193586 -2.876663122e-11)
(0.4082284575 0.000815076988 -2.770388792e-11)
(0.3589369516 0.0007181104336 -2.382281387e-11)
(0.2986659375 0.0005474600914 -1.823675152e-11)
(0.2272410149 0.0002987780009 -1.196240326e-11)
(0.1447015426 0.0002482039474 -6.216660847e-12)
(0.05130318864 -0.0002977039283 -1.708719118e-12)
(0.5128889956 0.0005760578834 -1.167753822e-11)
(0.4935105524 0.0008198474316 -1.637058394e-11)
(0.4638056748 0.0009681381349 -1.734712234e-11)
(0.4234600192 0.0009759794609 -1.495284477e-11)
(0.3720990113 0.0008572901515 -1.039662999e-11)
(0.3094223873 0.0006500777041 -5.424419332e-12)
(0.2352813178 0.0003628327557 -1.98764187e-13)
(0.1497353666 0.0002705138458 2.296457797e-12)
(0.05305540709 -0.0002934943358 1.109569605e-12)
(0.5321620132 0.0006643705249 -5.030017768e-12)
(0.5118763327 0.0009438763003 -5.60237454e-12)
(0.4808320324 0.00111202026 -2.373332854e-12)
(0.4387518334 0.001118378622 4.691252441e-12)
(0.3852952626 0.0009808102613 1.342752937e-11)
(0.320193021 0.0007415054407 1.409180573e-11)
(0.2433230125 0.0004203791106 2.372857073e-11)
(0.1547653075 0.00028929711 2.261826189e-11)
(0.05480479192 -0.0002889718752 7.569180116e-12)
(0.5514654818 0.0007403702954 2.707185956e-12)
(0.5302580347 0.001050786621 8.076761894e-12)
(0.4978568966 0.001236321182 1.996057411e-11)
(0.4540257364 0.001241822458 4.351719316e-11)
(0.398461411 0.001088274488 1.043249495e-10)
(0.3309277246 0.0008213958818 2.331025991e-11)
(0.2513302484 0.00047105759 8.711753308e-11)
(0.1597694504 0.0003051129565 8.262372803e-11)
(0.05654441073 -0.0002836358081 2.21020959e-11)
(0.570696226 0.0008041633972 7.396941844e-12)
(0.548560212 0.001140707752 1.456068953e-11)
(0.5147952836 0.001341173158 2.490641573e-11)
(0.4692088772 0.001346397419 3.778557498e-11)
(0.4115375823 0.00117972357 4.860014372e-11)
(0.3415798979 0.0008897294642 3.942172376e-11)
(0.2592697474 0.0005147458772 4.569796629e-11)
(0.1647279082 0.0003182929168 3.632094585e-11)
(0.05826731818 -0.000277274488 1.135884407e-11)
(0.5897597556 0.0008561460752 8.863609271e-12)
(0.5666954188 0.001214175577 1.553665547e-11)
(0.5315692999 0.001427154014 2.289867651e-11)
(0.4842344605 0.001432605353 2.954378783e-11)
(0.4244688673 0.001255538533 3.288904016e-11)
(0.3521068053 0.0009467317382 3.040674669e-11)
(0.2671109858 0.0005515713693 2.693812965e-11)
(0.169622427 0.0003289037726 1.839739634e-11)
(0.05996725202 -0.0002700418932 5.820990827e-12)
(0.6085711048 0.0008969344853 8.392838695e-12)
(0.5845849612 0.001272027443 1.386255954e-11)
(0.5481087788 0.001495178928 1.885335957e-11)
(0.4990422653 0.001501266719 2.2374775e-11)
(0.4372057283 0.00131636282 2.331173098e-11)
(0.3624698743 0.0009928162753 2.121844954e-11)
(0.2748264008 0.0005817764859 1.703903949e-11)
(0.1744364377 0.0003370202155 1.075428438e-11)
(0.06163865348 -0.0002621052608 3.337415054e-12)
(0.6270552524 0.0009273075226 7.114759565e-12)
(0.6021592802 0.001315318419 1.135017527e-11)
(0.5643516107 0.001546411805 1.471586627e-11)
(0.5135789145 0.001553445178 1.662157772e-11)
(0.4497042091 0.001363044444 1.661727391e-11)
(0.372634849 0.001028545755 1.468311482e-11)
(0.2823914949 0.0006056864726 1.126588899e-11)
(0.1791551914 0.0003427429211 6.845224407e-12)
(0.06327657752 -0.0002536181338 2.09345953e-12)
(0.6451471984 0.0009481481743 5.697604951e-12)
(0.6193580253 0.001345245755 8.898877169e-12)
(0.5802438143 0.001582181723 1.120310321e-11)
(0.527797935 0.001590375502 1.226970366e-11)
(0.4619259816 0.001396580495 1.193827645e-11)
(0.3825718234 0.001054592509 1.031509454e-11)
(0.2897848616 0.0006236861322 7.735391254e-12)
(0.1837657857 0.0003462039533 4.61897229e-12)
(0.06487669637 -0.0002447153988 1.402726353e-12)
(0.6627917541 0.0009603901616 4.466870822e-12)
(0.6361298737 0.001363082494 6.893448644e-12)
(0.5957393984 0.001603911273 8.537691403e-12)
(0.5416596547 0.001613396927 9.197166939e-12)
(0.4738382697 0.001418067472 8.827326496e-12)
(0.392255189 0.001071710664 7.552928523e-12)
(0.2969881561 0.0006362087528 5.625735483e-12)
(0.1882571579 0.0003475620394 3.349454419e-12)
(0.06643529561 -0.0002355144523 1.018042909e-12)
(0.6799431208 0.0009649775884 3.584978376e-12)
(0.6524321675 0.001370127739 5.518842968e-12)
(0.610800063 0.001613063383 6.823881619e-12)
(0.5551309719 0.001623899964 7.362979342e-12)
(0.4854136783 0.001428659226 7.11297546e-12)
(0.4016635126 0.001080711629 6.154951771e-12)
(0.3039860103 0.0006437263492 4.650530104e-12)
(0.1926200346 0.0003469943504 2.810422852e-12)
(0.06794925776 -0.0002261186689 8.641507567e-13)
(0.6965643259 0.000962840846 3.221850735e-12)
(0.6682304188 0.001367670825 5.023956088e-12)
(0.6253947813 0.001611100128 6.353236449e-12)
(0.5681850212 0.001623286357 7.077601822e-12)
(0.496629936 0.001429529051 7.109343094e-12)
(0.4107793448 0.001082432097 6.408718743e-12)
(0.3107658963 0.0006467299316 5.027240976e-12)
(0.1968468484 0.0003446866025 3.132309626e-12)
(0.06941603423 -0.0002166197406 9.823146206e-13)
(0.7126265605 0.0009548792779 3.742212911e-12)
(0.6834977114 0.0013569615 6.031693461e-12)
(0.6394992903 0.001599446462 8.035626598e-12)
(0.5808007533 0.001612933 9.54513049e-12)
(0.5074695644 0.001421834502 1.022606424e-11)