/*--------------------------------*- C++ -*----------------------------------*\
| =========                 |                                                 |
| \\      /  F ield         | OpenFOAM: The Open Source CFD Toolbox           |
|  \\    /   O peration     | Version:  2106                                  |
|   \\  /    A nd           | Website:  www.openfoam.com                      |
|    \\/     M anipulation  |                                                 |
\*---------------------------------------------------------------------------*/
FoamFile
{
    version     2.0;
    format      ascii;
    arch        "LSB;label=32;scalar=64";
    class       volScalarField;
    location    "149.99958";
    object      AC3H4_0;
}
// * * * * * * * * * * * * * * * * * * * * * * * * * * * * * * * * * * * * * //

dimensions      [0 0 0 0 0 0 0];

internalField   nonuniform List<scalar> 
3360
(
3.32022e-18
3.42706e-18
3.57574e-18
3.7576e-18
3.96507e-18
4.19134e-18
4.43025e-18
4.67627e-18
4.92444e-18
5.17042e-18
5.41042e-18
5.64122e-18
5.86019e-18
6.0652e-18
6.25465e-18
6.42743e-18
6.58283e-18
6.72057e-18
6.8407e-18
6.94358e-18
7.02982e-18
7.10026e-18
7.1559e-18
7.19787e-18
7.22739e-18
7.24576e-18
7.25429e-18
1.4565e-17
1.51003e-17
1.58557e-17
1.67965e-17
1.78937e-17
1.91223e-17
2.04599e-17
2.18858e-17
2.3381e-17
2.49274e-17
2.65075e-17
2.81047e-17
2.97021e-17
3.12834e-17
3.28325e-17
3.43334e-17
3.57706e-17
3.7129e-17
3.83941e-17
3.95524e-17
4.05915e-17
4.15004e-17
4.22696e-17
4.28917e-17
4.33612e-17
4.36748e-17
4.38311e-17
4.56997e-17
4.77053e-17
5.05552e-17
5.41363e-17
5.83548e-17
6.31264e-17
6.83708e-17
7.4009e-17
7.99612e-17
8.61456e-17
9.24789e-17
9.88782e-17
1.05261e-16
1.11548e-16
1.17658e-16
1.23519e-16
1.29062e-16
1.34224e-16
1.38952e-16
1.43202e-16
1.46939e-16
1.50139e-16
1.52788e-16
1.54882e-16
1.56426e-16
1.57433e-16
1.57923e-16
1.33091e-16
1.39701e-16
1.49157e-16
1.61121e-16
1.75309e-16
1.91458e-16
2.09301e-16
2.28566e-16
2.48962e-16
2.70189e-16
2.91934e-16
3.13877e-16
3.35704e-16
3.57107e-16
3.77793e-16
3.97496e-16
4.15976e-16
4.33032e-16
4.48503e-16
4.62266e-16
4.7424e-16
4.84384e-16
4.92693e-16
4.99191e-16
5.03933e-16
5.06995e-16
5.08472e-16
3.88838e-16
4.09691e-16
4.39579e-16
4.7748e-16
5.22528e-16
5.73889e-16
6.3071e-16
6.92081e-16
7.57036e-16
8.24556e-16
8.93586e-16
9.63065e-16
1.03195e-15
1.09924e-15
1.16402e-15
1.22547e-15
1.28286e-15
1.33562e-15
1.38328e-15
1.42552e-15
1.46214e-15
1.49307e-15
1.51832e-15
1.53801e-15
1.55234e-15
1.56158e-15
1.56602e-15
1.14647e-15
1.21051e-15
1.30241e-15
1.41905e-15
1.55776e-15
1.71596e-15
1.89096e-15
2.07994e-15
2.27983e-15
2.48744e-15
2.69948e-15
2.91261e-15
3.12361e-15
3.3294e-15
3.52717e-15
3.71441e-15
3.88898e-15
4.04916e-15
4.1936e-15
4.3214e-15
4.43201e-15
4.52526e-15
4.60129e-15
4.6605e-15
4.70354e-15
4.73124e-15
4.74456e-15
3.40557e-15
3.60016e-15
3.87939e-15
4.23381e-15
4.65526e-15
5.13581e-15
5.66721e-15
6.24068e-15
6.84685e-15
7.47591e-15
8.11777e-15
8.76234e-15
9.39983e-15
1.0021e-14
1.06174e-14
1.11815e-14
1.1707e-14
1.21889e-14
1.26231e-14
1.30071e-14
1.33393e-14
1.36192e-14
1.38473e-14
1.4025e-14
1.41541e-14
1.42371e-14
1.42771e-14
1.01496e-14
1.07351e-14
1.15757e-14
1.2643e-14
1.39126e-14
1.53604e-14
1.69614e-14
1.86891e-14
2.05151e-14
2.24095e-14
2.43419e-14
2.62818e-14
2.81996e-14
3.00676e-14
3.18602e-14
3.35552e-14
3.51335e-14
3.65799e-14
3.78829e-14
3.90344e-14
4.00303e-14
4.08691e-14
4.15524e-14
4.20843e-14
4.24707e-14
4.27192e-14
4.28386e-14
3.03286e-14
3.20882e-14
3.4614e-14
3.78205e-14
4.16341e-14
4.59822e-14
5.07896e-14
5.59757e-14
6.1455e-14
6.71378e-14
7.29324e-14
7.87474e-14
8.44943e-14
9.00899e-14
9.54582e-14
1.00533e-13
1.05257e-13
1.09585e-13
1.13484e-13
1.16929e-13
1.19908e-13
1.22417e-13
1.24461e-13
1.26052e-13
1.27208e-13
1.27951e-13
1.28308e-13
9.06283e-14
9.5898e-14
1.03464e-13
1.13069e-13
1.24493e-13
1.37519e-13
1.51919e-13
1.67452e-13
1.83861e-13
2.00878e-13
2.18227e-13
2.35633e-13
2.52832e-13
2.69575e-13
2.85634e-13
3.00811e-13
3.14936e-13
3.27876e-13
3.39527e-13
3.4982e-13
3.58719e-13
3.66212e-13
3.72314e-13
3.77063e-13
3.80512e-13
3.8273e-13
3.83795e-13
2.70937e-13
2.86711e-13
3.09352e-13
3.38091e-13
3.72265e-13
4.11218e-13
4.54271e-13
5.00697e-13
5.49726e-13
6.00553e-13
6.52353e-13
7.04309e-13
7.5563e-13
8.05573e-13
8.53463e-13
8.98708e-13
9.40809e-13
9.79366e-13
1.01408e-12
1.04474e-12
1.07124e-12
1.09355e-12
1.11172e-12
1.12586e-12
1.13613e-12
1.14273e-12
1.1459e-12
8.0915e-13
8.56236e-13
9.23816e-13
1.00959e-12
1.11155e-12
1.22775e-12
1.35614e-12
1.49455e-12
1.64066e-12
1.79207e-12
1.94633e-12
2.10099e-12
2.2537e-12
2.40225e-12
2.54463e-12
2.67911e-12
2.80418e-12
2.91869e-12
3.02174e-12
3.11273e-12
3.19135e-12
3.25753e-12
3.3114e-12
3.3533e-12
3.38373e-12
3.40329e-12
3.41268e-12
2.41365e-12
2.55394e-12
2.75522e-12
3.01057e-12
3.31398e-12
3.65954e-12
4.04112e-12
4.4522e-12
4.88588e-12
5.33498e-12
5.79221e-12
6.25031e-12
6.70233e-12
7.14175e-12
7.56269e-12
7.95998e-12
8.32933e-12
8.66728e-12
8.97126e-12
9.23957e-12
9.47131e-12
9.66628e-12
9.82496e-12
9.94836e-12
1.00379e-11
1.00955e-11
1.01231e-11
7.17777e-12
7.59379e-12
8.19044e-12
8.94698e-12
9.84533e-12
1.08678e-11
1.19959e-11
1.32102e-11
1.44901e-11
1.58144e-11
1.71613e-11
1.85095e-11
1.98385e-11
2.11293e-11
2.23646e-11
2.35295e-11
2.46116e-11
2.56008e-11
2.64899e-11
2.72741e-11
2.79509e-11
2.852e-11
2.89829e-11
2.93427e-11
2.96037e-11
2.97714e-11
2.98519e-11
2.12646e-11
2.24911e-11
2.42489e-11
2.64759e-11
2.91176e-11
3.21208e-11
3.54302e-11
3.89876e-11
4.27321e-11
4.66006e-11
5.05295e-11
5.44566e-11
5.83223e-11
6.20715e-11
6.56548e-11
6.90295e-11
7.21602e-11
7.50191e-11
7.7586e-11
7.98477e-11
8.17979e-11
8.34364e-11
8.47681e-11
8.58024e-11
8.65523e-11
8.70339e-11
8.72649e-11
6.26168e-11
6.61973e-11
7.13243e-11
7.78121e-11
8.54975e-11
9.42207e-11
1.03817e-10
1.14114e-10
1.24932e-10
1.36086e-10
1.47393e-10
1.58673e-10
1.69754e-10
1.80482e-10
1.90717e-10
2.00338e-10
2.0925e-10
2.17374e-10
2.24658e-10
2.31066e-10
2.36585e-10
2.41216e-10
2.44976e-10
2.47893e-10
2.50007e-10
2.51362e-10
2.52012e-10
1.82922e-10
1.93237e-10
2.07987e-10
2.26622e-10
2.48652e-10
2.73602e-10
3.00983e-10
3.30289e-10
3.60997e-10
3.92577e-10
4.24503e-10
4.56268e-10
4.87395e-10
5.17452e-10
5.46057e-10
5.72888e-10
5.97682e-10
6.20242e-10
6.40427e-10
6.58156e-10
6.73399e-10
6.8617e-10
6.96523e-10
7.04547e-10
7.10353e-10
7.14074e-10
7.15856e-10
5.28625e-10
5.57788e-10
5.99422e-10
6.51901e-10
7.13782e-10
7.83658e-10
8.601e-10
9.41644e-10
1.0268e-09
1.11407e-09
1.20199e-09
1.28917e-09
1.37431e-09
1.45627e-09
1.53404e-09
1.60677e-09
1.67379e-09
1.73462e-09
1.78892e-09
1.83651e-09
1.87734e-09
1.91148e-09
1.93912e-09
1.9605e-09
1.97595e-09
1.98585e-09
1.99058e-09
1.50627e-09
1.58672e-09
1.70131e-09
1.84533e-09
2.01457e-09
2.20496e-09
2.4124e-09
2.63275e-09
2.86187e-09
3.09568e-09
3.33025e-09
3.56188e-09
3.78721e-09
4.00328e-09
4.20754e-09
4.39793e-09
4.57283e-09
4.73109e-09
4.87198e-09
4.99513e-09
5.10056e-09
5.18855e-09
5.25962e-09
5.31453e-09
5.35414e-09
5.37947e-09
5.39157e-09
4.21409e-09
4.42903e-09
4.73437e-09
5.11678e-09
5.56431e-09
6.06546e-09
6.60887e-09
7.18325e-09
7.7775e-09
8.38088e-09
8.98327e-09
9.57531e-09
1.01487e-08
1.06961e-08
1.12115e-08
1.16901e-08
1.21282e-08
1.25234e-08
1.28741e-08
1.31799e-08
1.34409e-08
1.36584e-08
1.38336e-08
1.39688e-08
1.40661e-08
1.41283e-08
1.41579e-08
1.15201e-08
1.20724e-08
1.28546e-08
1.38302e-08
1.49665e-08
1.62325e-08
1.75978e-08
1.9033e-08
2.05096e-08
2.20008e-08
2.34816e-08
2.49297e-08
2.63254e-08
2.76519e-08
2.88957e-08
3.00461e-08
3.10954e-08
3.20386e-08
3.28732e-08
3.35988e-08
3.42168e-08
3.47303e-08
3.51434e-08
3.54614e-08
3.56901e-08
3.58359e-08
3.59054e-08
3.06046e-08
3.19609e-08
3.38748e-08
3.62518e-08
3.90068e-08
4.20595e-08
4.53332e-08
4.87549e-08
5.22555e-08
5.57712e-08
5.92442e-08
6.26233e-08
6.58647e-08
6.89318e-08
7.17957e-08
7.44345e-08
7.6833e-08
7.89822e-08
8.08784e-08
8.25226e-08
8.39198e-08
8.50781e-08
8.60083e-08
8.67231e-08
8.72364e-08
8.75631e-08
8.77188e-08
7.85951e-08
8.17631e-08
8.62189e-08
9.17294e-08
9.80852e-08
1.05091e-07
1.12564e-07
1.20332e-07
1.28237e-07
1.36135e-07
1.43898e-07
1.51417e-07
1.58598e-07
1.65365e-07
1.7166e-07
1.7744e-07
1.82677e-07
1.87357e-07
1.91475e-07
1.95037e-07
1.98058e-07
2.00557e-07
2.02561e-07
2.04099e-07
2.05201e-07
2.05903e-07
2.06236e-07
1.94243e-07
2.01274e-07
2.11135e-07
2.23284e-07
2.37235e-07
2.52542e-07
2.68792e-07
2.85603e-07
3.0263e-07
3.19567e-07
3.36144e-07
3.52133e-07
3.67347e-07
3.81635e-07
3.94883e-07
4.07013e-07
4.17974e-07
4.27744e-07
4.36323e-07
4.43729e-07
4.49998e-07
4.55177e-07
4.59323e-07
4.625e-07
4.64776e-07
4.66222e-07
4.6691e-07
4.60757e-07
4.75626e-07
4.96427e-07
5.21973e-07
5.51207e-07
5.83161e-07
6.1695e-07
6.51772e-07
6.8691e-07
7.21733e-07
7.55701e-07
7.88361e-07
8.19342e-07
8.48359e-07
8.75196e-07
8.9971e-07
9.21815e-07
9.4148e-07
9.58717e-07
9.73574e-07
9.86133e-07
9.96496e-07
1.00478e-06
1.01112e-06
1.01566e-06
1.01855e-06
1.01992e-06
1.04831e-06
1.07845e-06
1.12052e-06
1.17208e-06
1.23092e-06
1.29506e-06
1.36269e-06
1.43219e-06
1.50213e-06
1.57125e-06
1.63852e-06
1.70304e-06
1.76411e-06
1.8212e-06
1.8739e-06
1.92196e-06
1.96523e-06
2.00366e-06
2.03731e-06
2.06628e-06
2.09074e-06
2.11091e-06
2.12702e-06
2.13934e-06
2.14816e-06
2.15375e-06
2.15641e-06
2.28994e-06
2.34896e-06
2.43128e-06
2.53199e-06
2.64675e-06
2.77161e-06
2.90304e-06
3.03787e-06
3.17332e-06
3.307e-06
3.43687e-06
3.56128e-06
3.67889e-06
3.78868e-06
3.88994e-06
3.98218e-06
4.06515e-06
4.13879e-06
4.20321e-06
4.25863e-06
4.3054e-06
4.34393e-06
4.37469e-06
4.39821e-06
4.41503e-06
4.42569e-06
4.43075e-06
4.80948e-06
4.92226e-06
5.07948e-06
5.27175e-06
5.49071e-06
5.72885e-06
5.97939e-06
6.2363e-06
6.49432e-06
6.74889e-06
6.99617e-06
7.23301e-06
7.45689e-06
7.6659e-06
7.85864e-06
8.03422e-06
8.19216e-06
8.33236e-06
8.45499e-06
8.5605e-06
8.64953e-06
8.72288e-06
8.78144e-06
8.82621e-06
8.85822e-06
8.87851e-06
8.88814e-06
9.71462e-06
9.9264e-06
1.02218e-05
1.05833e-05
1.09954e-05
1.1444e-05
1.19167e-05
1.24021e-05
1.28905e-05
1.33732e-05
1.38431e-05
1.42941e-05
1.47213e-05
1.5121e-05
1.54904e-05
1.58277e-05
1.61318e-05
1.64024e-05
1.66396e-05
1.6844e-05
1.70169e-05
1.71597e-05
1.72738e-05
1.73613e-05
1.74239e-05
1.74636e-05
1.74825e-05
1.88219e-05
1.9212e-05
1.97571e-05
2.04254e-05
2.11893e-05
2.20234e-05
2.29053e-05
2.38144e-05
2.4733e-05
2.5645e-05
2.65371e-05
2.73977e-05
2.82173e-05
2.89884e-05
2.97051e-05
3.03632e-05
3.09601e-05
3.14941e-05
3.1965e-05
3.23733e-05
3.27206e-05
3.30089e-05
3.32407e-05
3.34192e-05
3.35477e-05
3.36296e-05
3.36687e-05
3.47675e-05
3.546e-05
3.6429e-05
3.76201e-05
3.89855e-05
4.04818e-05
4.20699e-05
4.37145e-05
4.5384e-05
4.70502e-05
4.86887e-05
5.02783e-05
5.18011e-05
5.32423e-05
5.459e-05
5.58351e-05
5.69711e-05
5.79936e-05
5.89006e-05
5.96917e-05
6.03683e-05
6.0933e-05
6.13897e-05
6.17431e-05
6.19988e-05
6.21627e-05
6.22413e-05
6.07335e-05
6.18774e-05
6.34792e-05
6.54497e-05
6.77106e-05
7.01911e-05
7.28267e-05
7.55595e-05
7.8337e-05
8.11127e-05
8.38454e-05
8.64996e-05
8.9045e-05
9.14564e-05
9.37134e-05
9.58003e-05
9.77056e-05
9.94219e-05
0.000100945
0.000102275
0.000103412
0.000104362
0.00010513
0.000105726
0.000106156
0.000106432
0.000106565
9.95076e-05
0.000101203
0.000103573
0.000106482
0.000109811
0.000113452
0.000117307
0.00012129
0.000125321
0.000129332
0.000133263
0.000137063
0.00014069
0.00014411
0.000147295
0.000150226
0.000152889
0.000155276
0.000157386
0.000159219
0.00016078
0.000162079
0.000163126
0.000163934
0.000164516
0.000164889
0.000165067
0.000151909
0.00015411
0.000157177
0.000160925
0.000165189
0.000169825
0.000174699
0.000179698
0.000184718
0.000189675
0.000194494
0.000199115
0.00020349
0.000207582
0.000211363
0.000214816
0.000217931
0.000220703
0.000223136
0.000225237
0.000227015
0.000228486
0.000229665
0.00023057
0.00023122
0.000231633
0.000231831
0.000215579
0.000218078
0.000221545
0.000225758
0.000230522
0.000235662
0.000241026
0.000246481
0.000251914
0.000257231
0.000262356
0.000267229
0.000271803
0.000276046
0.000279937
0.000283464
0.000286621
0.000289413
0.000291847
0.000293935
0.000295693
0.00029714
0.000298293
0.000299175
0.000299805
0.000300205
0.000300394
0.000285423
0.000287939
0.000291417
0.000295623
0.000300351
0.000305419
0.000310671
0.000315974
0.000321217
0.00032631
0.000331184
0.000335785
0.000340075
0.000344029
0.000347631
0.000350877
0.000353767
0.000356309
0.000358514
0.000360397
0.000361977
0.000363271
0.0003643
0.000365083
0.000365641
0.000365995
0.000366162
0.000355533
0.000357835
0.000361006
0.000364826
0.000369102
0.000373663
0.000378365
0.000383088
0.000387733
0.000392222
0.000396496
0.000400511
0.000404238
0.000407656
0.000410759
0.000413543
0.000416014
0.00041818
0.000420054
0.00042165
0.000422985
0.000424077
0.000424943
0.000425601
0.000426069
0.000426365
0.000426505
0.000421083
0.000423042
0.000425736
0.000428973
0.000432587
0.00043643
0.000440379
0.000444333
0.00044821
0.000451945
0.00045549
0.000458812
0.000461887
0.000464702
0.000467251
0.000469534
0.000471556
0.000473326
0.000474856
0.000476157
0.000477244
0.000478132
0.000478836
0.000479371
0.000479751
0.000479991
0.000480105
0.000479147
0.000480733
0.000482912
0.000485528
0.000488443
0.000491539
0.000494715
0.00049789
0.000500999
0.00050399
0.000506826
0.00050948
0.000511935
0.00051418
0.000516211
0.000518029
0.000519639
0.000521048
0.000522265
0.0005233
0.000524164
0.00052487
0.00052543
0.000525855
0.000526158
0.000526349
0.000526439
0.000528557
0.000529799
0.000531504
0.000533551
0.000535831
0.000538251
0.000540733
0.000543214
0.000545641
0.000547977
0.000550191
0.000552262
0.000554178
0.00055593
0.000557516
0.000558935
0.000560193
0.000561293
0.000562243
0.000563052
0.000563728
0.00056428
0.000564717
0.00056505
0.000565286
0.000565436
0.000565506
0.000569332
0.000570282
0.000571587
0.000573153
0.000574898
0.000576751
0.000578651
0.000580551
0.00058241
0.000584199
0.000585896
0.000587484
0.000588954
0.000590298
0.000591515
0.000592605
0.00059357
0.000594416
0.000595146
0.000595767
0.000596287
0.000596711
0.000597048
0.000597303
0.000597485
0.0005976
0.000597655
0.000602145
0.000602857
0.000603836
0.000605011
0.000606321
0.000607712
0.00060914
0.000610568
0.000611966
0.000613312
0.000614589
0.000615785
0.000616891
0.000617904
0.000618821
0.000619642
0.000620369
0.000621006
0.000621557
0.000622025
0.000622417
0.000622736
0.00062299
0.000623183
0.00062332
0.000623406
0.000623447
0.000627916
0.000628439
0.000629157
0.000630019
0.00063098
0.000632002
0.00063305
0.000634099
0.000635126
0.000636115
0.000637053
0.000637932
0.000638745
0.000639488
0.000640161
0.000640764
0.000641298
0.000641765
0.000642168
0.000642511
0.000642798
0.000643032
0.000643217
0.000643358
0.000643458
0.000643521
0.000643551
0.000647605
0.000647977
0.000648487
0.0006491
0.000649783
0.000650508
0.000651253
0.000651997
0.000652725
0.000653426
0.00065409
0.000654712
0.000655286
0.000655811
0.000656285
0.00065671
0.000657085
0.000657413
0.000657696
0.000657936
0.000658136
0.0006583
0.000658429
0.000658527
0.000658596
0.00065864
0.000658661
0.000662114
0.000662365
0.000662709
0.000663122
0.000663581
0.000664068
0.000664567
0.000665064
0.000665551
0.000666018
0.000666459
0.000666871
0.00066725
0.000667596
0.000667908
0.000668186
0.00066843
0.000668644
0.000668827
0.000668982
0.000669111
0.000669216
0.000669299
0.000669361
0.000669405
0.000669433
0.000669446
0.000672248
0.0006724
0.00067261
0.00067286
0.000673138
0.00067343
0.000673729
0.000674026
0.000674314
0.00067459
0.000674848
0.000675087
0.000675306
0.000675505
0.000675682
0.000675838
0.000675976
0.000676094
0.000676195
0.000676279
0.000676349
0.000676406
0.000676449
0.000676482
0.000676506
0.00067652
0.000676527
0.000678699
0.000678772
0.000678871
0.000678988
0.000679117
0.000679251
0.000679385
0.000679516
0.000679642
0.000679758
0.000679866
0.000679962
0.000680049
0.000680124
0.00068019
0.000680246
0.000680293
0.000680333
0.000680365
0.000680391
0.000680411
0.000680427
0.000680439
0.000680447
0.000680453
0.000680456
0.000680457
0.000682063
0.00068207
0.000682078
0.000682085
0.00068209
0.000682092
0.000682091
0.000682085
0.000682074
0.00068206
0.000682041
0.000682019
0.000681995
0.000681968
0.000681941
0.000681913
0.000681885
0.000681859
0.000681834
0.000681811
0.00068179
0.000681772
0.000681757
0.000681744
0.000681735
0.000681729
0.000681726
0.000682842
0.000682794
0.000682726
0.000682642
0.000682545
0.000682437
0.000682322
0.000682202
0.000682079
0.000681954
0.000681831
0.00068171
0.000681593
0.000681481
0.000681376
0.000681278
0.000681188
0.000681106
0.000681033
0.000680969
0.000680914
0.000680868
0.00068083
0.000680801
0.000680779
0.000680765
0.000680759
0.000681462
0.000681368
0.000681237
0.000681077
0.000680894
0.000680696
0.000680486
0.00068027
0.000680053
0.000679837
0.000679626
0.000679422
0.000679228
0.000679045
0.000678875
0.000678718
0.000678576
0.000678448
0.000678336
0.000678237
0.000678153
0.000678084
0.000678027
0.000677983
0.000677952
0.000677931
0.000677922
0.000678284
0.000678152
0.000677968
0.000677745
0.000677491
0.000677216
0.000676928
0.000676633
0.000676337
0.000676044
0.00067576
0.000675487
0.000675229
0.000674987
0.000674762
0.000674557
0.000674371
0.000674205
0.000674059
0.000673932
0.000673825
0.000673735
0.000673663
0.000673607
0.000673567
0.000673542
0.000673529
0.000673615
0.000673451
0.000673224
0.000672948
0.000672635
0.000672297
0.000671943
0.000671581
0.000671219
0.000670864
0.000670519
0.000670189
0.000669877
0.000669585
0.000669316
0.00066907
0.000668849
0.000668651
0.000668477
0.000668327
0.000668199
0.000668094
0.000668009
0.000667943
0.000667896
0.000667866
0.000667851
0.000667715
0.000667525
0.000667262
0.000666942
0.00066658
0.000666189
0.000665781
0.000665365
0.000664949
0.00066454
0.000664145
0.000663768
0.000663412
0.00066308
0.000662774
0.000662495
0.000662243
0.000662019
0.000661823
0.000661653
0.00066151
0.00066139
0.000661295
0.000661221
0.000661168
0.000661135
0.000661118
0.000660807
0.000660596
0.000660303
0.000659947
0.000659544
0.00065911
0.000658657
0.000658195
0.000657735
0.000657284
0.000656847
0.000656431
0.000656039
0.000655674
0.000655338
0.000655031
0.000654756
0.000654511
0.000654296
0.00065411
0.000653953
0.000653823
0.000653719
0.000653639
0.000653582
0.000653545
0.000653527
0.000653079
0.00065285
0.000652532
0.000652147
0.000651712
0.000651242
0.000650753
0.000650254
0.000649758
0.000649272
0.000648802
0.000648355
0.000647934
0.000647542
0.000647181
0.000646853
0.000646557
0.000646295
0.000646065
0.000645867
0.0006457
0.000645561
0.00064545
0.000645365
0.000645303
0.000645264
0.000645246
0.000644692
0.000644449
0.000644112
0.000643703
0.000643241
0.000642743
0.000642224
0.000641697
0.000641172
0.000640657
0.000640161
0.000639689
0.000639244
0.000638831
0.000638451
0.000638105
0.000637795
0.000637519
0.000637277
0.000637069
0.000636893
0.000636748
0.000636631
0.000636542
0.000636478
0.000636437
0.000636417
0.000635784
0.000635529
0.000635177
0.000634749
0.000634266
0.000633746
0.000633205
0.000632654
0.000632106
0.00063157
0.000631053
0.000630561
0.000630099
0.000629669
0.000629274
0.000628915
0.000628592
0.000628306
0.000628056
0.00062784
0.000627657
0.000627507
0.000627386
0.000627293
0.000627227
0.000627185
0.000627164
0.000626472
0.000626209
0.000625844
0.000625402
0.000624904
0.000624367
0.000623807
0.000623239
0.000622674
0.000622122
0.000621589
0.000621082
0.000620606
0.000620164
0.000619757
0.000619388
0.000619057
0.000618763
0.000618506
0.000618284
0.000618097
0.000617942
0.000617819
0.000617724
0.000617656
0.000617612
0.000617591
0.000616857
0.000616588
0.000616214
0.000615762
0.000615251
0.000614702
0.000614129
0.000613549
0.000612971
0.000612407
0.000611863
0.000611345
0.000610859
0.000610408
0.000609993
0.000609617
0.000609279
0.00060898
0.000608718
0.000608492
0.000608302
0.000608144
0.000608019
0.000607922
0.000607853
0.000607809
0.000607788
0.000607025
0.000606751
0.000606372
0.000605912
0.000605393
0.000604835
0.000604254
0.000603665
0.000603079
0.000602506
0.000601954
0.00060143
0.000600937
0.00060048
0.00060006
0.000599679
0.000599337
0.000599034
0.000598769
0.000598541
0.000598348
0.000598189
0.000598062
0.000597965
0.000597895
0.00059785
0.000597829
0.00059705
0.000596773
0.000596389
0.000595925
0.000595401
0.000594838
0.000594252
0.000593657
0.000593066
0.000592488
0.000591932
0.000591404
0.000590908
0.000590447
0.000590025
0.000589641
0.000589297
0.000588992
0.000588725
0.000588496
0.000588302
0.000588142
0.000588015
0.000587917
0.000587846
0.000587802
0.00058778
0.000586993
0.000586715
0.00058633
0.000585863
0.000585337
0.000584771
0.000584183
0.000583586
0.000582993
0.000582414
0.000581856
0.000581326
0.000580829
0.000580367
0.000579943
0.000579559
0.000579214
0.000578909
0.000578642
0.000578413
0.000578219
0.000578059
0.000577931
0.000577833
0.000577763
0.000577718
0.000577697
0.000576909
0.000576631
0.000576246
0.000575779
0.000575253
0.000574687
0.000574099
0.000573503
0.00057291
0.000572331
0.000571774
0.000571245
0.000570749
0.000570288
0.000569866
0.000569482
0.000569138
0.000568834
0.000568568
0.000568339
0.000568146
0.000567986
0.000567859
0.000567761
0.000567691
0.000567647
0.000567625
0.000566843
0.000566566
0.000566182
0.000565717
0.000565194
0.00056463
0.000564045
0.000563451
0.000562861
0.000562285
0.000561731
0.000561204
0.000560711
0.000560253
0.000559832
0.000559451
0.000559109
0.000558807
0.000558543
0.000558315
0.000558123
0.000557965
0.000557839
0.000557742
0.000557672
0.000557628
0.000557607
0.000556835
0.000556559
0.000556178
0.000555717
0.000555197
0.000554638
0.000554056
0.000553467
0.000552882
0.000552311
0.000551761
0.000551239
0.00055075
0.000550295
0.000549879
0.000549501
0.000549163
0.000548863
0.000548601
0.000548376
0.000548186
0.000548029
0.000547904
0.000547808
0.000547739
0.000547695
0.000547674
0.000546916
0.000546644
0.000546267
0.00054581
0.000545295
0.000544742
0.000544167
0.000543584
0.000543005
0.00054244
0.000541896
0.00054138
0.000540896
0.000540447
0.000540036
0.000539662
0.000539328
0.000539032
0.000538773
0.000538551
0.000538363
0.000538208
0.000538085
0.00053799
0.000537922
0.000537879
0.000537858
0.000537117
0.000536848
0.000536476
0.000536025
0.000535517
0.000534971
0.000534403
0.000533828
0.000533257
0.000532699
0.000532163
0.000531654
0.000531177
0.000530734
0.000530328
0.00052996
0.000529631
0.000529339
0.000529084
0.000528865
0.00052868
0.000528527
0.000528406
0.000528312
0.000528245
0.000528203
0.000528183
0.000527462
0.000527197
0.00052683
0.000526386
0.000525885
0.000525348
0.000524789
0.000524222
0.00052366
0.000523112
0.000522584
0.000522083
0.000521613
0.000521178
0.000520779
0.000520417
0.000520093
0.000519806
0.000519555
0.00051934
0.000519158
0.000519009
0.000518889
0.000518797
0.000518731
0.000518689
0.00051867
0.000517971
0.00051771
0.00051735
0.000516914
0.000516422
0.000515894
0.000515345
0.000514788
0.000514236
0.000513697
0.000513179
0.000512687
0.000512226
0.000511799
0.000511407
0.000511052
0.000510734
0.000510453
0.000510207
0.000509995
0.000509817
0.00050967
0.000509553
0.000509463
0.000509398
0.000509357
0.000509338
0.000508663
0.000508408
0.000508054
0.000507626
0.000507144
0.000506626
0.000506088
0.000505543
0.000505002
0.000504474
0.000503966
0.000503484
0.000503033
0.000502614
0.00050223
0.000501883
0.000501571
0.000501296
0.000501055
0.000500848
0.000500674
0.00050053
0.000500415
0.000500327
0.000500264
0.000500224
0.000500204
0.000499556
0.000499306
0.00049896
0.000498541
0.000498069
0.000497562
0.000497036
0.000496503
0.000495973
0.000495457
0.00049496
0.000494489
0.000494048
0.000493639
0.000493264
0.000492924
0.00049262
0.00049235
0.000492115
0.000491913
0.000491743
0.000491602
0.00049149
0.000491404
0.000491342
0.000491303
0.000491284
0.000490663
0.000490418
0.000490081
0.000489672
0.000489211
0.000488716
0.000488202
0.000487682
0.000487165
0.000486661
0.000486177
0.000485717
0.000485287
0.000484888
0.000484522
0.00048419
0.000483894
0.000483631
0.000483402
0.000483205
0.000483038
0.000482901
0.000482792
0.000482708
0.000482648
0.00048261
0.000482592
0.000481998
0.00048176
0.000481431
0.000481033
0.000480584
0.000480102
0.000479602
0.000479095
0.000478592
0.000478101
0.000477629
0.000477182
0.000476763
0.000476374
0.000476018
0.000475696
0.000475407
0.000475151
0.000474928
0.000474736
0.000474575
0.000474441
0.000474335
0.000474253
0.000474195
0.000474158
0.00047414
0.000473577
0.000473346
0.000473026
0.000472638
0.000472202
0.000471734
0.000471247
0.000470755
0.000470266
0.000469789
0.000469331
0.000468897
0.00046849
0.000468112
0.000467767
0.000467453
0.000467173
0.000466924
0.000466708
0.000466522
0.000466365
0.000466235
0.000466132
0.000466053
0.000465996
0.00046596
0.000465943
0.000465412
0.000465187
0.000464877
0.000464502
0.000464079
0.000463625
0.000463153
0.000462676
0.000462202
0.00046174
0.000461297
0.000460875
0.000460481
0.000460115
0.00045978
0.000459477
0.000459205
0.000458965
0.000458755
0.000458574
0.000458422
0.000458297
0.000458197
0.00045812
0.000458065
0.00045803
0.000458014
0.000457517
0.0004573
0.000457001
0.000456638
0.000456229
0.00045579
0.000455334
0.000454873
0.000454415
0.000453968
0.000453539
0.000453132
0.000452751
0.000452398
0.000452074
0.000451781
0.000451518
0.000451286
0.000451083
0.000450909
0.000450762
0.000450641
0.000450544
0.00045047
0.000450417
0.000450384
0.000450367
0.000449909
0.0004497
0.000449411
0.000449061
0.000448667
0.000448244
0.000447805
0.00044736
0.000446918
0.000446488
0.000446075
0.000445683
0.000445315
0.000444975
0.000444663
0.000444381
0.000444128
0.000443904
0.000443708
0.000443541
0.000443399
0.000443283
0.000443189
0.000443118
0.000443067
0.000443034
0.000443019
0.000442602
0.000442401
0.000442123
0.000441787
0.000441408
0.000441002
0.00044058
0.000440152
0.000439729
0.000439315
0.000438918
0.000438542
0.000438189
0.000437862
0.000437563
0.000437291
0.000437049
0.000436834
0.000436646
0.000436485
0.000436349
0.000436238
0.000436148
0.00043608
0.000436031
0.000435999
0.000435985
0.000435612
0.00043542
0.000435154
0.000434832
0.00043447
0.00043408
0.000433676
0.000433268
0.000432862
0.000432467
0.000432087
0.000431727
0.000431389
0.000431077
0.00043079
0.000430531
0.000430299
0.000430093
0.000429914
0.00042976
0.00042963
0.000429523
0.000429438
0.000429372
0.000429326
0.000429296
0.000429282
0.000428957
0.000428773
0.00042852
0.000428213
0.000427868
0.000427497
0.000427112
0.000426723
0.000426336
0.00042596
0.000425598
0.000425255
0.000424934
0.000424636
0.000424364
0.000424117
0.000423896
0.000423701
0.00042353
0.000423384
0.00042326
0.000423158
0.000423077
0.000423015
0.00042297
0.000422942
0.000422928
0.000422653
0.00042248
0.000422239
0.000421948
0.000421621
0.00042127
0.000420905
0.000420536
0.00042017
0.000419813
0.000419471
0.000419146
0.000418842
0.00041856
0.000418302
0.000418068
0.000417859
0.000417674
0.000417513
0.000417374
0.000417257
0.000417161
0.000417084
0.000417025
0.000416982
0.000416955
0.000416943
0.00041672
0.000416557
0.00041633
0.000416056
0.000415747
0.000415416
0.000415073
0.000414725
0.000414381
0.000414045
0.000413722
0.000413417
0.000413131
0.000412865
0.000412623
0.000412403
0.000412206
0.000412032
0.00041188
0.00041175
0.00041164
0.000411549
0.000411477
0.000411421
0.000411381
0.000411356
0.000411344
0.000411176
0.000411022
0.00041081
0.000410554
0.000410265
0.000409955
0.000409634
0.000409309
0.000408987
0.000408673
0.000408371
0.000408086
0.000407818
0.00040757
0.000407344
0.000407138
0.000406954
0.000406792
0.00040665
0.000406528
0.000406425
0.00040634
0.000406273
0.000406221
0.000406184
0.00040616
0.000406149
0.000406035
0.000405892
0.000405695
0.000405457
0.000405189
0.000404902
0.000404603
0.000404302
0.000404003
0.000403711
0.000403432
0.000403167
0.000402919
0.000402689
0.000402479
0.000402289
0.000402118
0.000401967
0.000401836
0.000401723
0.000401628
0.000401549
0.000401487
0.000401439
0.000401404
0.000401382
0.000401372
0.00040131
0.000401179
0.000400998
0.000400779
0.000400532
0.000400267
0.000399993
0.000399715
0.000399441
0.000399173
0.000398916
0.000398672
0.000398444
0.000398233
0.00039804
0.000397865
0.000397709
0.00039757
0.000397449
0.000397346
0.000397258
0.000397186
0.000397129
0.000397085
0.000397053
0.000397033
0.000397023
0.000397012
0.000396892
0.000396727
0.000396527
0.000396302
0.000396061
0.00039581
0.000395558
0.000395307
0.000395063
0.00039483
0.000394608
0.0003944
0.000394208
0.000394033
0.000393874
0.000393731
0.000393605
0.000393496
0.000393401
0.000393322
0.000393256
0.000393204
0.000393164
0.000393135
0.000393117
0.000393108
0.000393142
0.000393033
0.000392884
0.000392704
0.000392501
0.000392284
0.000392058
0.00039183
0.000391605
0.000391385
0.000391174
0.000390975
0.000390788
0.000390616
0.000390458
0.000390314
0.000390186
0.000390073
0.000389975
0.00038989
0.000389818
0.000389759
0.000389712
0.000389676
0.00038965
0.000389634
0.000389626
0.000389698
0.000389602
0.000389469
0.000389308
0.000389127
0.000388933
0.000388733
0.00038853
0.000388329
0.000388134
0.000387947
0.000387769
0.000387603
0.00038745
0.00038731
0.000387183
0.000387069
0.000386969
0.000386881
0.000386806
0.000386743
0.00038669
0.000386649
0.000386617
0.000386594
0.000386579
0.000386572
0.000386675
0.00038659
0.000386473
0.000386332
0.000386173
0.000386003
0.000385827
0.000385649
0.000385473
0.000385302
0.000385138
0.000384983
0.000384837
0.000384703
0.000384581
0.00038447
0.00038437
0.000384283
0.000384206
0.000384141
0.000384085
0.00038404
0.000384003
0.000383975
0.000383955
0.000383943
0.000383936
0.000384062
0.000383988
0.000383887
0.000383765
0.000383628
0.000383481
0.000383329
0.000383176
0.000383024
0.000382877
0.000382736
0.000382602
0.000382478
0.000382362
0.000382257
0.000382162
0.000382077
0.000382002
0.000381936
0.00038188
0.000381833
0.000381794
0.000381762
0.000381738
0.000381721
0.000381711
0.000381705
0.000381843
0.000381781
0.000381696
0.000381592
0.000381476
0.000381352
0.000381223
0.000381094
0.000380966
0.000380842
0.000380723
0.000380611
0.000380506
0.000380409
0.000380321