/*--------------------------------*- C++ -*----------------------------------*\
| =========                 |                                                 |
| \\      /  F ield         | OpenFOAM: The Open Source CFD Toolbox           |
|  \\    /   O peration     | Version:  2106                                  |
|   \\  /    A nd           | Website:  www.openfoam.com                      |
|    \\/     M anipulation  |                                                 |
\*---------------------------------------------------------------------------*/
FoamFile
{
    version     2.0;
    format      ascii;
    arch        "LSB;label=32;scalar=64";
    class       volScalarField;
    location    "149.99958";
    object      C2H2;
}
// * * * * * * * * * * * * * * * * * * * * * * * * * * * * * * * * * * * * * //

dimensions      [0 0 0 0 0 0 0];

internalField   nonuniform List<scalar> 
3360
(
0.334007
0.334007
0.334007
0.334007
0.334007
0.334007
0.334007
0.334007
0.334007
0.334007
0.334007
0.334007
0.334007
0.334007
0.334007
0.334007
0.334007
0.334007
0.334007
0.334007
0.334007
0.334007
0.334007
0.334007
0.334007
0.334007
0.334007
0.334007
0.334007
0.334007
0.334007
0.334007
0.334007
0.334007
0.334007
0.334007
0.334007
0.334007
0.334007
0.334007
0.334007
0.334007
0.334007
0.334007
0.334007
0.334007
0.334007
0.334007
0.334007
0.334007
0.334007
0.334007
0.334007
0.334007
0.334007
0.334007
0.334007
0.334007
0.334007
0.334007
0.334007
0.334007
0.334007
0.334007
0.334007
0.334007
0.334007
0.334007
0.334007
0.334007
0.334007
0.334007
0.334007
0.334007
0.334007
0.334007
0.334007
0.334007
0.334007
0.334007
0.334007
0.334007
0.334007
0.334007
0.334007
0.334007
0.334007
0.334007
0.334007
0.334007
0.334007
0.334007
0.334007
0.334007
0.334007
0.334007
0.334007
0.334007
0.334007
0.334007
0.334007
0.334007
0.334007
0.334007
0.334007
0.334007
0.334007
0.334007
0.334007
0.334007
0.334007
0.334007
0.334007
0.334007
0.334007
0.334007
0.334007
0.334007
0.334007
0.334007
0.334007
0.334007
0.334007
0.334007
0.334007
0.334007
0.334007
0.334007
0.334007
0.334007
0.334007
0.334007
0.334007
0.334007
0.334007
0.334007
0.334007
0.334007
0.334007
0.334007
0.334007
0.334007
0.334007
0.334007
0.334007
0.334007
0.334007
0.334007
0.334007
0.334007
0.334007
0.334007
0.334007
0.334007
0.334007
0.334007
0.334007
0.334007
0.334007
0.334007
0.334007
0.334007
0.334007
0.334007
0.334007
0.334007
0.334007
0.334007
0.334007
0.334007
0.334007
0.334007
0.334007
0.334007
0.334007
0.334007
0.334007
0.334007
0.334007
0.334007
0.334007
0.334007
0.334007
0.334007
0.334007
0.334007
0.334007
0.334007
0.334007
0.334007
0.334007
0.334007
0.334007
0.334007
0.334007
0.334007
0.334007
0.334007
0.334007
0.334007
0.334007
0.334007
0.334007
0.334007
0.334007
0.334007
0.334007
0.334007
0.334007
0.334007
0.334007
0.334007
0.334007
0.334007
0.334007
0.334007
0.334007
0.334007
0.334007
0.334007
0.334007
0.334007
0.334007
0.334007
0.334007
0.334007
0.334007
0.334007
0.334007
0.334007
0.334007
0.334007
0.334007
0.334007
0.334007
0.334007
0.334007
0.334007
0.334007
0.334007
0.334007
0.334007
0.334007
0.334007
0.334007
0.334007
0.334007
0.334007
0.334007
0.334007
0.334007
0.334007
0.334007
0.334007
0.334007
0.334007
0.334007
0.334007
0.334007
0.334007
0.334007
0.334007
0.334007
0.334007
0.334007
0.334007
0.334007
0.334007
0.334007
0.334007
0.334007
0.334007
0.334007
0.334007
0.334007
0.334007
0.334007
0.334007
0.334007
0.334007
0.334007
0.334007
0.334007
0.334007
0.334007
0.334007
0.334007
0.334007
0.334007
0.334007
0.334007
0.334007
0.334007
0.334007
0.334007
0.334007
0.334007
0.334007
0.334007
0.334007
0.334007
0.334007
0.334007
0.334007
0.334007
0.334007
0.334007
0.334007
0.334007
0.334007
0.334007
0.334007
0.334007
0.334007
0.334007
0.334007
0.334007
0.334007
0.334007
0.334007
0.334007
0.334007
0.334007
0.334007
0.334007
0.334007
0.334007
0.334007
0.334007
0.334007
0.334007
0.334007
0.334007
0.334007
0.334007
0.334007
0.334007
0.334007
0.334007
0.334007
0.334007
0.334007
0.334007
0.334007
0.334007
0.334007
0.334007
0.334007
0.334007
0.334007
0.334007
0.334007
0.334007
0.334007
0.334007
0.334007
0.334007
0.334007
0.334007
0.334007
0.334007
0.334007
0.334007
0.334007
0.334007
0.334007
0.334007
0.334007
0.334007
0.334007
0.334007
0.334007
0.334007
0.334007
0.334007
0.334007
0.334007
0.334007
0.334007
0.334007
0.334007
0.334007
0.334007
0.334007
0.334007
0.334007
0.334007
0.334007
0.334007
0.334007
0.334007
0.334007
0.334007
0.334007
0.334007
0.334007
0.334007
0.334007
0.334007
0.334007
0.334007
0.334007
0.334007
0.334007
0.334007
0.334007
0.334007
0.334007
0.334007
0.334007
0.334007
0.334007
0.334007
0.334007
0.334007
0.334007
0.334007
0.334007
0.334007
0.334007
0.334007
0.334007
0.334007
0.334007
0.334007
0.334007
0.334007
0.334007
0.334007
0.334007
0.334007
0.334007
0.334007
0.334007
0.334007
0.334007
0.334007
0.334007
0.334007
0.334007
0.334007
0.334007
0.334007
0.334007
0.334007
0.334007
0.334007
0.334007
0.334007
0.334007
0.334007
0.334007
0.334007
0.334007
0.334007
0.334007
0.334007
0.334007
0.334007
0.334007
0.334007
0.334007
0.334007
0.334007
0.334007
0.334007
0.334007
0.334007
0.334007
0.334007
0.334007
0.334007
0.334007
0.334007
0.334007
0.334007
0.334007
0.334007
0.334007
0.334007
0.334007
0.334007
0.334007
0.334007
0.334007
0.334007
0.334007
0.334007
0.334007
0.334007
0.334007
0.334007
0.334007
0.334007
0.334007
0.334007
0.334007
0.334007
0.334007
0.334006
0.334006
0.334006
0.334006
0.334006
0.334006
0.334006
0.334006
0.334006
0.334006
0.334006
0.334006
0.334006
0.334006
0.334006
0.334006
0.334006
0.334006
0.334006
0.334006
0.334006
0.334006
0.334006
0.334006
0.334006
0.334006
0.334006
0.334006
0.334006
0.334005
0.334005
0.334005
0.334005
0.334005
0.334005
0.334005
0.334005
0.334005
0.334005
0.334005
0.334005
0.334006
0.334005
0.334005
0.334005
0.334005
0.334005
0.334005
0.334005
0.334004
0.334004
0.334004
0.334004
0.334004
0.334003
0.334003
0.334003
0.334003
0.334003
0.334003
0.334003
0.334003
0.334003
0.334002
0.334002
0.334002
0.334002
0.334002
0.334003
0.334003
0.334003
0.334002
0.334002
0.334002
0.334001
0.334001
0.334
0.334
0.333999
0.333999
0.333999
0.333998
0.333998
0.333997
0.333997
0.333997
0.333997
0.333996
0.333996
0.333996
0.333996
0.333996
0.333996
0.333996
0.333996
0.333997
0.333997
0.333996
0.333995
0.333994
0.333994
0.333993
0.333992
0.333991
0.33399
0.333989
0.333988
0.333987
0.333986
0.333985
0.333984
0.333984
0.333983
0.333982
0.333982
0.333982
0.333981
0.333981
0.333981
0.333981
0.333981
0.33398
0.333982
0.333981
0.33398
0.333978
0.333977
0.333975
0.333973
0.33397
0.333968
0.333966
0.333964
0.333962
0.33396
0.333958
0.333956
0.333955
0.333953
0.333952
0.333951
0.33395
0.333949
0.333949
0.333948
0.333948
0.333947
0.333947
0.333947
0.333948
0.333946
0.333944
0.33394
0.333937
0.333933
0.333928
0.333924
0.333919
0.333915
0.33391
0.333906
0.333902
0.333898
0.333895
0.333892
0.333889
0.333886
0.333884
0.333882
0.333881
0.333879
0.333878
0.333877
0.333877
0.333876
0.333876
0.333875
0.333871
0.333865
0.333859
0.333851
0.333843
0.333834
0.333826
0.333817
0.333808
0.333799
0.333791
0.333783
0.333775
0.333769
0.333762
0.333757
0.333752
0.333748
0.333744
0.333741
0.333738
0.333736
0.333734
0.333733
0.333733
0.333732
0.333723
0.333715
0.333705
0.333692
0.333678
0.333662
0.333645
0.333628
0.333611
0.333594
0.333577
0.333561
0.333546
0.333532
0.333519
0.333508
0.333497
0.333487
0.333479
0.333472
0.333466
0.333461
0.333457
0.333454
0.333452
0.33345
0.33345
0.333427
0.333413
0.333393
0.33337
0.333343
0.333313
0.333282
0.333251
0.333219
0.333187
0.333156
0.333126
0.333098
0.333072
0.333048
0.333026
0.333006
0.332988
0.332972
0.332959
0.332947
0.332938
0.33293
0.332924
0.33292
0.332918
0.332916
0.332884
0.332859
0.332825
0.332783
0.332734
0.332682
0.332626
0.332569
0.332512
0.332455
0.332399
0.332346
0.332295
0.332247
0.332203
0.332163
0.332126
0.332094
0.332065
0.33204
0.332019
0.332002
0.331988
0.331977
0.33197
0.331965
0.331963
0.331954
0.331912
0.331854
0.331783
0.331702
0.331613
0.33152
0.331423
0.331326
0.33123
0.331136
0.331045
0.330959
0.330878
0.330803
0.330734
0.330672
0.330616
0.330567
0.330524
0.330488
0.330458
0.330434
0.330416
0.330402
0.330394
0.33039
0.330477
0.330413
0.330323
0.330212
0.330086
0.329949
0.329804
0.329655
0.329505
0.329356
0.329211
0.329071
0.328938
0.328813
0.328697
0.32859
0.328494
0.328408
0.328332
0.328267
0.328211
0.328165
0.328128
0.328099
0.328079
0.328066
0.328059
0.328324
0.328232
0.328105
0.327949
0.327772
0.32758
0.327377
0.32717
0.326961
0.326755
0.326554
0.326361
0.326178
0.326007
0.325849
0.325704
0.325574
0.325457
0.325355
0.325267
0.325192
0.32513
0.32508
0.325041
0.325014
0.324996
0.324988
0.325442
0.325326
0.325163
0.324966
0.324742
0.324499
0.324245
0.323986
0.323726
0.323471
0.323224
0.322988
0.322765
0.322557
0.322366
0.322191
0.322035
0.321896
0.321774
0.321669
0.321581
0.321507
0.321449
0.321404
0.321372
0.321352
0.321342
0.321899
0.321764
0.321577
0.32135
0.321093
0.320816
0.320528
0.320234
0.319943
0.319657
0.319382
0.31912
0.318875
0.318647
0.318439
0.318249
0.31808
0.31793
0.3178
0.317687
0.317593
0.317515
0.317453
0.317406
0.317372
0.317351
0.317341
0.317858
0.317715
0.317516
0.317276
0.317005
0.316715
0.316413
0.316108
0.315805
0.31551
0.315228
0.31496
0.31471
0.314479
0.314268
0.314078
0.313908
0.313758
0.313627
0.313516
0.313422
0.313345
0.313284
0.313237
0.313204
0.313183
0.313173
0.313529
0.313386
0.313188
0.31295
0.312682
0.312395
0.312098
0.311799
0.311503
0.311216
0.310941
0.310682
0.31044
0.310218
0.310015
0.309832
0.309669
0.309525
0.309401
0.309294
0.309205
0.309132
0.309074
0.309029
0.308998
0.308977
0.308968
0.309105
0.308969
0.308781
0.308554
0.3083
0.308028
0.307748
0.307465
0.307186
0.306915
0.306657
0.306414
0.306187
0.305978
0.305788
0.305617
0.305465
0.30533
0.305214
0.305115
0.305031
0.304963
0.304908
0.304867
0.304837
0.304819
0.30481
0.304732
0.304606
0.304431
0.304221
0.303985
0.303734
0.303474
0.303212
0.302953
0.302703
0.302464
0.302239
0.302029
0.301836
0.30166
0.301501
0.30136
0.301236
0.301128
0.301035
0.300958
0.300895
0.300844
0.300805
0.300778
0.300761
0.300752
0.300501
0.300385
0.300225
0.300032
0.299815
0.299584
0.299345
0.299104
0.298866
0.298636
0.298415
0.298207
0.298014
0.297835
0.297672
0.297525
0.297395
0.297279
0.297179
0.297094
0.297022
0.296963
0.296916
0.29688
0.296854
0.296838
0.29683
0.296459
0.296353
0.296205
0.296028
0.295829
0.295616
0.295396
0.295173
0.294954
0.294741
0.294537
0.294345
0.294165
0.294
0.293849
0.293712
0.293591
0.293483
0.29339
0.29331
0.293243
0.293188
0.293144
0.29311
0.293086
0.293071
0.293064
0.292622
0.292523
0.292387
0.292223
0.292039
0.291842
0.291638
0.291432
0.291228
0.29103
0.290841
0.290661
0.290494
0.29034
0.290198
0.290071
0.289957
0.289857
0.289769
0.289694
0.289631
0.28958
0.289538
0.289507
0.289484
0.28947
0.289463
0.288987
0.288896
0.288769
0.288616
0.288445
0.288261
0.28807
0.287877
0.287687
0.287502
0.287324
0.287156
0.286999
0.286854
0.286721
0.286602
0.286494
0.2864
0.286318
0.286247
0.286188
0.286139
0.2861
0.28607
0.286049
0.286035
0.286029
0.285545
0.285459
0.285341
0.285197
0.285036
0.284863
0.284684
0.284503
0.284323
0.284149
0.283981
0.283823
0.283675
0.283538
0.283412
0.283299
0.283198
0.283108
0.28303
0.282963
0.282907
0.282861
0.282824
0.282795
0.282775
0.282762
0.282756
0.282282
0.282201
0.282088
0.281953
0.2818
0.281637
0.281467
0.281296
0.281126
0.28096
0.280802
0.280651
0.280511
0.280381
0.280262
0.280154
0.280058
0.279973
0.279899
0.279835
0.279781
0.279737
0.279702
0.279675
0.279656
0.279644
0.279638
0.279182
0.279105
0.278998
0.278869
0.278724
0.278569
0.278407
0.278244
0.278083
0.277925
0.277774
0.277631
0.277497
0.277373
0.27726
0.277157
0.277065
0.276984
0.276913
0.276853
0.276801
0.276759
0.276726
0.2767
0.276682
0.27667
0.276665
0.276231
0.276157
0.276056
0.275933
0.275794
0.275646
0.275492
0.275336
0.275182
0.275031
0.274887
0.27475
0.274622
0.274503
0.274395
0.274297
0.274209
0.274131
0.274064
0.274006
0.273957
0.273917
0.273884
0.27386
0.273842
0.273831
0.273826
0.273416
0.273346
0.273249
0.273131
0.272999
0.272856
0.272709
0.27256
0.272412
0.272268
0.272129
0.271998
0.271875
0.271762
0.271658
0.271563
0.271479
0.271405
0.27134
0.271284
0.271237
0.271199
0.271168
0.271144
0.271127
0.271117
0.271112
0.270727
0.270659
0.270566
0.270453
0.270326
0.270189
0.270047
0.269904
0.269762
0.269623
0.26949
0.269364
0.269246
0.269137
0.269037
0.268947
0.268866
0.268794
0.268732
0.268678
0.268633
0.268596
0.268567
0.268544
0.268528
0.268517
0.268513
0.268151
0.268086
0.267996
0.267888
0.267765
0.267634
0.267497
0.267359
0.267223
0.267089
0.266961
0.26684
0.266726
0.266621
0.266525
0.266438
0.26636
0.266291
0.266231
0.26618
0.266136
0.2661
0.266072
0.26605
0.266035
0.266025
0.26602
0.265681
0.265618
0.265531
0.265426
0.265308
0.265182
0.26505
0.264917
0.264785
0.264657
0.264533
0.264416
0.264307
0.264205
0.264113
0.264029
0.263954
0.263887
0.263829
0.263779
0.263738
0.263703
0.263676
0.263655
0.26364
0.26363
0.263625
0.263307
0.263246
0.263162
0.263061
0.262947
0.262825
0.262698
0.262569
0.262442
0.262318
0.262199
0.262086
0.26198
0.261882
0.261792
0.261711
0.261639
0.261575
0.261519
0.261471
0.26143
0.261397
0.26137
0.26135
0.261336
0.261326
0.261322
0.261022
0.260963
0.260882
0.260784
0.260674
0.260556
0.260433
0.260309
0.260186
0.260066
0.25995
0.259841
0.259739
0.259644
0.259558
0.259479
0.259409
0.259347
0.259293
0.259246
0.259207
0.259175
0.259149
0.25913
0.259116
0.259107
0.259103
0.25882
0.258763
0.258685
0.25859
0.258483
0.258369
0.25825
0.25813
0.25801
0.257894
0.257782
0.257677
0.257578
0.257486
0.257402
0.257326
0.257258
0.257198
0.257146
0.257101
0.257063
0.257032
0.257007
0.256988
0.256974
0.256966
0.256962
0.256694
0.256639
0.256563
0.256471
0.256368
0.256257
0.256142
0.256025
0.25591
0.255797
0.255689
0.255586
0.25549
0.255401
0.25532
0.255247
0.255181
0.255122
0.255072
0.255028
0.254991
0.254961
0.254937
0.254919
0.254906
0.254897
0.254893
0.25464
0.254587
0.254513
0.254424
0.254324
0.254216
0.254104
0.253991
0.253879
0.25377
0.253665
0.253565
0.253472
0.253386
0.253307
0.253236
0.253172
0.253115
0.253066
0.253024
0.252988
0.252959
0.252935
0.252918
0.252905
0.252897
0.252893
0.252653
0.252601
0.25253
0.252443
0.252346
0.252241
0.252132
0.252023
0.251914
0.251807
0.251705
0.251609
0.251518
0.251435
0.251358
0.251289
0.251227
0.251172
0.251124
0.251083
0.251048
0.25102
0.250997
0.25098
0.250967
0.25096
0.250956
0.250728
0.250678
0.250608
0.250524
0.250429
0.250327
0.250222
0.250115
0.250009
0.249906
0.249807
0.249713
0.249625
0.249544
0.249469
0.249402
0.249341
0.249288
0.249242
0.249202
0.249168
0.24914
0.249118
0.249102
0.249089
0.249082
0.249078
0.248861
0.248812
0.248745
0.248663
0.248571
0.248472
0.248369
0.248265
0.248162
0.248062
0.247965
0.247874
0.247788
0.247709
0.247637
0.247571
0.247512
0.24746
0.247415
0.247376
0.247344
0.247317
0.247295
0.247279
0.247267
0.24726
0.247256
0.247049
0.247002
0.246936
0.246856
0.246766
0.24667
0.24657
0.246469
0.246369
0.246271
0.246177
0.246088
0.246005
0.245928
0.245857
0.245793
0.245736
0.245686
0.245641
0.245604
0.245572
0.245546
0.245525
0.245509
0.245497
0.24549
0.245487
0.245289
0.245243
0.245178
0.245101
0.245013
0.244919
0.244822
0.244723
0.244626
0.24453
0.244439
0.244352
0.244271
0.244196
0.244127
0.244065
0.244009
0.24396
0.243917
0.243881
0.24385
0.243824
0.243804
0.243788
0.243777
0.24377
0.243767
0.243577
0.243532
0.24347
0.243394
0.243309
0.243217
0.243122
0.243026
0.242931
0.242838
0.242749
0.242664
0.242585
0.242512
0.242445
0.242384
0.24233
0.242282
0.24224
0.242204
0.242174
0.242149
0.242129
0.242114
0.242103
0.242096
0.242093
0.241912
0.241867
0.241806
0.241733
0.241649
0.24156
0.241467
0.241374
0.241281
0.24119
0.241103
0.241021
0.240943
0.240872
0.240806
0.240747
0.240694
0.240648
0.240607
0.240572
0.240542
0.240518
0.240499
0.240484
0.240473
0.240467
0.240463
0.240289
0.240246
0.240187
0.240115
0.240033
0.239946
0.239856
0.239764
0.239673
0.239585
0.2395
0.239419
0.239344
0.239274
0.23921
0.239153
0.239101
0.239055
0.239015
0.238981
0.238953
0.238929
0.23891
0.238895
0.238885
0.238879
0.238875
0.238708
0.238666
0.238608
0.238538
0.238458
0.238373
0.238285
0.238195
0.238107
0.23802
0.237937
0.237859
0.237785
0.237717
0.237654
0.237598
0.237548
0.237503
0.237464
0.237431
0.237403
0.237379
0.237361
0.237347
0.237337
0.23733
0.237327
0.237167
0.237125
0.237068
0.237
0.236922
0.236839
0.236752
0.236665
0.236578
0.236494
0.236413
0.236336
0.236264
0.236197
0.236136
0.236081
0.236032
0.235988
0.23595
0.235918
0.23589
0.235868
0.23585
0.235836
0.235826
0.23582
0.235817
0.235662
0.235622
0.235566
0.235499
0.235423
0.235342
0.235257
0.235172
0.235087
0.235004
0.234925
0.23485
0.23478
0.234714
0.234655
0.234601
0.234553
0.23451
0.234473
0.234441
0.234414
0.234392
0.234374
0.234361
0.234351
0.234345
0.234342
0.234193
0.234154
0.234099
0.234033
0.233959
0.23388
0.233797
0.233713
0.233631
0.23355
0.233472
0.233399
0.23333
0.233266
0.233208
0.233155
0.233108
0.233066
0.23303
0.232999
0.232972
0.232951
0.232934
0.23292
0.232911
0.232905
0.232902
0.232758
0.23272
0.232666
0.232602
0.232529
0.232452
0.232371
0.232289
0.232208
0.232129
0.232053
0.231981
0.231914
0.231851
0.231794
0.231743
0.231696
0.231656
0.23162
0.23159
0.231564
0.231543
0.231526
0.231513
0.231504
0.231498
0.231495
0.231356
0.231318
0.231266
0.231203
0.231132
0.231056
0.230977
0.230897
0.230817
0.23074
0.230666
0.230595
0.230529
0.230468
0.230413
0.230362
0.230317
0.230277
0.230242
0.230212
0.230187
0.230166
0.23015
0.230137
0.230128
0.230123
0.23012
0.229986
0.229949
0.229898
0.229836
0.229766
0.229692
0.229614
0.229536
0.229458
0.229383
0.22931
0.229241
0.229176
0.229117
0.229062
0.229013
0.228968
0.228929
0.228895
0.228866
0.228841
0.228821
0.228805
0.228792
0.228784
0.228778
0.228775
0.228646
0.22861
0.22856
0.228499
0.228431
0.228358
0.228282
0.228205
0.228129
0.228055
0.227984
0.227917
0.227853
0.227795
0.227741
0.227693
0.22765
0.227611
0.227578
0.227549
0.227525
0.227506
0.22749
0.227478
0.227469
0.227463
0.227461
0.227336
0.2273
0.227251
0.227192
0.227125
0.227054
0.22698
0.226904
0.22683
0.226757
0.226688
0.226622
0.22656
0.226503
0.22645
0.226403
0.22636
0.226323
0.22629
0.226262
0.226239
0.226219
0.226204
0.226192
0.226183
0.226178
0.226175
0.226054
0.22602
0.225972
0.225914
0.225849
0.225779
0.225706
0.225632
0.225559
0.225488
0.22542
0.225356
0.225295
0.225239
0.225188
0.225141
0.2251
0.225063
0.225031
0.225004
0.224981
0.224962
0.224947
0.224935
0.224927
0.224921
0.224919
0.224802
0.224768
0.224721
0.224664
0.224601
0.224532
0.224461
0.224389
0.224318
0.224248
0.224181
0.224118
0.224059
0.224004
0.223954
0.223908
0.223868
0.223832
0.223801
0.223774
0.223751
0.223733
0.223718
0.223707
0.223698
0.223693
0.223691
0.223578
0.223545
0.223499
0.223443
0.223381
0.223314
0.223244
0.223174
0.223104
0.223036
0.222971
0.222909
0.222851
0.222798
0.222749
0.222704
0.222664
0.222629
0.222599
0.222573
0.22255
0.222532
0.222518
0.222507
0.222499
0.222494
0.222491
0.222383
0.22235
0.222305
0.222251
0.22219
0.222125
0.222057
0.221988
0.22192
0.221853
0.221789
0.221729
0.221672
0.22162
0.221572
0.221529
0.22149
0.221456
0.221426
0.2214
0.221379
0.221361
0.221347
0.221336
0.221328
0.221323
0.221321
0.221216
0.221185
0.221141
0.221088
0.221028
0.220964
0.220898
0.220831
0.220764
0.220699
0.220637
0.220578
0.220523
0.220472
0.220425
0.220383
0.220345
0.220312
0.220282
0.220257
0.220236
0.220219
0.220205
0.220195
0.220187
0.220182
0.22018
0.22008
0.220049
0.220006
0.219955
0.219897
0.219834
0.21977
0.219704
0.219639
0.219576
0.219516
0.219458
0.219404
0.219354
0.219309
0.219268
0.219231
0.219198
0.21917
0.219146
0.219125
0.219108
0.219095
0.219084
0.219077
0.219072
0.21907
0.218975
0.218945
0.218903
0.218853
0.218797
0.218736
0.218673
0.218609
0.218546
0.218485
0.218426
0.21837
0.218318
0.218269
0.218225
0.218185
0.218149
0.218118
0.21809
0.218066
0.218047
0.21803
0.218017
0.218007
0.218
0.217995
0.217993
0.217903
0.217874
0.217834
0.217785
0.21773
0.217671
0.21761
0.217549
0.217488
0.217428
0.217371
0.217317
0.217266
0.217219
0.217176
0.217138
0.217103
0.217072
0.217046
0.217023
0.217003
0.216988
0.216975
0.216965
0.216958
0.216954
0.216952
0.216867
0.216839
0.2168
0.216753
0.2167
0.216644
0.216585
0.216525
0.216466
0.216409
0.216354
0.216301
0.216253
0.216207
0.216166
0.216129
0.216095
0.216066
0.21604
0.216018
0.215999
0.215984
0.215972
0.215962
0.215956
0.215952
0.21595
0.215871
0.215844
0.215807
0.215761
0.215711
0.215656
0.2156
0.215543
0.215486
0.215431
0.215378
0.215328
0.215281
0.215238
0.215198
0.215162
0.21513
0.215102
0.215077
0.215056
0.215038
0.215024
0.215012
0.215003
0.214997
0.214993
0.214991
0.214919
0.214893
0.214858
0.214815
0.214766
0.214714
0.214661
0.214606
0.214552
0.2145
0.214449
0.214402
0.214357
0.214316
0.214278
0.214244
0.214214
0.214187
0.214164
0.214143
0.214127
0.214113
0.214102
0.214093
0.214087
0.214083
0.214081
0.214017
0.213993
0.213959
0.213919
0.213873
0.213824
0.213773
0.213722
0.213671
0.213621
0.213574
0.213529
0.213487
0.213448
0.213413
0.213381
0.213352
0.213327
0.213305
0.213286
0.21327
0.213257
0.213247
0.213239
0.213233
0.21323
0.213228
0.213172
0.21315
0.213118
0.21308
0.213038
0.212992
0.212945
0.212897
0.212849
0.212803
0.212759
0.212718
0.212679
0.212643
0.21261
0.21258
0.212553
0.21253
0.21251
0.212492
0.212477
0.212465
0.212456
0.212448
0.212443
0.21244
0.212438
0.212392
0.212371
0.212342
0.212307
0.212268
0.212226
0.212183
0.212139
0.212096
0.212054
0.212013
0.211975
0.21194
0.211907
0.211877
0.21185
0.211825
0.211804
0.211785
0.21177
0.211756
0.211745
0.211736
0.21173
0.211725
0.211722
0.21172
0.211684
0.211665
0.211639
0.211608
0.211572
0.211535
0.211496
0.211456
0.211418
0.21138
0.211344
0.21131
0.211278
0.211249
0.211222
0.211198
0.211176
0.211157
0.211141
0.211126
0.211115
0.211105
0.211097
0.211091
0.211087
0.211084
0.211083
0.211056
0.211039
0.211016
0.210989
0.210958
0.210925
0.210891
0.210856
0.210823
0.21079
0.210758
0.210729
0.210701
0.210675
0.210652
0.210631
0.210613
0.210596
0.210582
0.21057
0.210559
0.210551
0.210544
0.210539
0.210536
0.210533
0.210532
0.210514
0.2105
0.21048
0.210457
0.210431
0.210403
0.210374
0.210345
0.210316
0.210288
0.210262
0.210237
0.210214
0.210192
0.210173
0.210155
0.21014
0.210126
0.210114
0.210104
0.210096
0.210089
0.210083
0.210079
0.210076
0.210074
0.210073
0.210062
0.21005
0.210034
0.210015
0.209994
0.209971
0.209947
0.209924
0.209901
0.209878
0.209857
0.209837
0.209818
0.209801
0.209785
0.209771
0.209759
0.209748
0.209738
0.20973
0.209723
0.209718
0.209713
0.20971
0.209708
0.209706
0.209705
0.2097
0.209691
0.209678
0.209663
0.209647
0.209629
0.209611
0.209593
0.209575
0.209557
0.209541
0.209526
0.209511
0.209498
0.209486
0.209476
0.209466
0.209458
0.209451
0.209445
0.20944
0.209435
0.209432
0.209429
0.209428
0.209427
0.209426
0.209423
0.209416
0.209407
0.209396
0.209384
0.209371
0.209358
0.209345
0.209332
0.209319
0.209307
0.209296
0.209286
0.209277
0.209268
0.209261
0.209254
0.209248
0.209243
0.209239
0.209235
0.209232
0.20923
0.209228
0.209227
0.209226
0.209226
0.209223
0.209219
0.209213
0.209205
0.209197
0.209188
0.209179
0.20917
0.209161
0.209153
0.209145
0.209138
0.209131
0.209125
0.209119
0.209114
0.20911
0.209106
0.209103
0.2091
0.209098
0.209096
0.209094
0.209093
0.209092
0.209092
0.209092
0.209089
0.209086
0.209082
0.209077
0.209072
0.209067
0.209061
0.209056
0.20905
0.209045
0.20904
0.209036
0.209032
0.209028
0.209025
0.209022
0.209019
0.209017
0.209015
0.209014
0.209012
0.209011
0.20901
0.20901
0.209009
0.209009
0.209009
0.209004
0.209003
0.209
0.208998
0.208995
0.208992
0.208989
0.208986
0.208984
0.208981
0.208978
0.208976
0.208974
0.208972
0.208971
0.208969
0.208968
0.208967
0.208966
0.208965
0.208965
0.208964
0.208964
0.208963
0.208963
0.208963
0.208963
0.208956
0.208956
0.208955
0.208954
0.208952
0.208951
0.20895
0.208949
0.208948
0.208947
0.208946
0.208945
0.208944
0.208943
0.208943
0.208942
0.208942
0.208942
0.208941
0.208941
0.208941
0.208941
0.208941
0.208941
0.208941
0.208941
0.208941
0.208933
0.208932
0.208932
0.208932
0.208932
0.208932
0.208931
0.208931
0.208931
0.208931
0.208931
0.208931
0.208931
0.208931
0.208931
0.208932
0.208932
0.208932
0.208932
0.208932
0.208932
0.208932
0.208932
0.208932
0.208932
0.208932
0.208932
0.208923
0.208924
0.208924
0.208924
0.208925
0.208925
0.208925
0.208926
0.208926
0.208927
0.208927
0.208928
0.208928
0.208929
0.208929
0.20893
0.20893
0.20893
0.208931
0.208931
0.208931
0.208931
0.208932
0.208932
0.208932
0.208932
0.208932
0.208923
0.208923
0.208923
0.208924
0.208924
0.208925
0.208926
0.208927
0.208927
0.208928
0.208929
0.20893
0.20893
0.208931
0.208932
0.208932
0.208933
0.208933
0.208934
0.208934
0.208934
0.208935
0.208935
0.208935
0.208935
0.208935
0.208935
0.208926
0.208926
0.208927
0.208927
0.208928
0.208929
0.20893
0.208931
0.208932
0.208933
0.208934
0.208934
0.208935
0.208936
0.208937
0.208938
0.208938
0.208939
0.208939
0.20894
0.20894
0.20894
0.208941
0.208941
0.208941
0.208941
0.208941
0.208931
0.208932
0.208932
0.208933
0.208934
0.208935
0.208936
0.208937
0.208938
0.208939
0.20894
0.208941
0.208942
0.208943
0.208944
0.208944
0.208945
0.208946
0.208946
0.208947
0.208947
0.208948
0.208948
0.208948
0.208948
0.208948
0.208948
0.208938
0.208938
0.208939
0.20894
0.208941
0.208942
0.208943
0.208944
0.208945
0.208946
0.208947
0.208948
0.208949
0.20895
0.208951
0.208952
0.208953
0.208954
0.208954
0.208955
0.208955
0.208956
0.208956
0.208956
0.208956
0.208957
0.208957
0.208945
0.208946
0.208946
0.208947
0.208948
0.208949
0.208951
0.208952
0.208953
0.208954
0.208955
0.208957
0.208958
0.208959
0.20896
0.208961
0.208962
0.208962
0.208963
0.208964
0.208964
0.208965
0.208965
0.208965
0.208966
0.208966
0.208966
0.208953
0.208954
0.208955
0.208956
0.208957
0.208958
0.208959
0.20896
0.208962
0.208963
0.208964
0.208966
0.208967
0.208968
0.208969
0.20897
0.208971
0.208972
0.208973
0.208973
0.208974
0.208974
0.208975
0.208975
0.208975
0.208976
0.208976
0.208962
0.208963
0.208963
0.208964
0.208966
0.208967
0.208968
0.20897
0.208971
0.208972
0.208974
0.208975
0.208977
0.208978
0.208979
0.20898
0.208981
0.208982
0.208983
0.208984
0.208984
0.208985
0.208985
0.208986
0.208986
0.208986
0.208986
0.208971
0.208972
0.208973
0.208974
0.208975
0.208976
0.208978
0.208979
0.208981
0.208982
0.208984
0.208985
0.208987
0.208988
0.20899
0.208991
0.208992
0.208993
0.208994
0.208995
0.208995
0.208996
0.208996
0.208997
0.208997
0.208997
0.208997
0.208981
0.208981
0.208982
0.208984
0.208985
0.208986
0.208988
0.20899
0.208991
0.208993
0.208995
0.208996
0.208998
0.208999
0.209001
0.209002
0.209003
0.209004
0.209005
0.209006
0.209007
0.209008
0.209008
0.209009
0.209009
0.209009
0.209009
0.208991
0.208992
0.208993
0.208994
0.208996
0.208997
0.208999
0.209001
0.209003
0.209004
0.209006
0.209008
0.20901
0.209011
0.209013
0.209014
0.209016
0.209017
0.209018
0.209019
0.20902
0.20902
0.209021
0.209021
0.209022
0.209022
0.209022
0.209002
0.209003
0.209004
0.209005
0.209007
0.209009
0.20901
0.209012
0.209014
0.209016
0.209018
0.20902
0.209022
0.209024
0.209026
0.209027
0.209029
0.20903
0.209031
0.209032
0.209033
0.209034
0.209035
0.209035
0.209035
0.209036
0.209036
0.209013
0.209014
0.209016
0.209017
0.209019
0.209021
0.209023
0.209025
0.209027
0.209029
0.209032
0.209034
0.209036
0.209038
0.209039
0.209041
0.209043
0.209044
0.209045
0.209047
0.209048
0.209048
0.209049
0.20905
0.20905
0.20905
0.20905
0.209026
0.209027
0.209028
0.20903
0.209032
0.209034
0.209036
0.209038
0.209041
0.209043
0.209046
0.209048
0.20905
0.209052
0.209054
0.209056
0.209058
0.209059
0.209061
0.209062
0.209063
0.209064
0.209065
0.209065
0.209066
0.209066
0.209066
0.209039
0.20904
0.209041
0.209043
0.209045
0.209048
0.20905
0.209053
0.209055
0.209058
0.20906
0.209063
0.209065
0.209068
0.20907
0.209072
0.209074
0.209076
0.209077
0.209078
0.209079
0.20908
0.209081
0.209082
0.209082
0.209082
0.209083
0.209053
0.209054
0.209055
0.209057
0.20906
0.209062
0.209065
0.209068
0.209071
0.209074
0.209076
0.209079
0.209082
0.209084
0.209087
0.209089
0.209091
0.209093
0.209094
0.209096
0.209097
0.209098
0.209099
0.2091
0.2091
0.2091
0.2091
0.209067
0.209069
0.209071
0.209073
0.209075
0.209078
0.209081
0.209084
0.209087
0.20909
0.209094
0.209097
0.209099
0.209102
0.209105
0.209107
0.209109
0.209111
0.209113
0.209114
0.209116
0.209117
0.209118
0.209118
0.209119
0.209119
0.209119
0.209083
0.209085
0.209087
0.209089
0.209092
0.209095
0.209098
0.209102
0.209105
0.209108
0.209112
0.209115
0.209118
0.209121
0.209124
0.209126
0.209129
0.209131
0.209133
0.209134
0.209136
0.209137
0.209138
0.209138
0.209139
0.209139
0.209139
0.2091
0.209102
0.209104
0.209107
0.20911
0.209113
0.209116
0.20912
0.209124
0.209127
0.209131
0.209134
0.209138
0.209141
0.209144
0.209147
0.209149
0.209151
0.209153
0.209155
0.209157
0.209158
0.209159
0.20916
0.20916
0.20916
0.209161
0.209118
0.20912
0.209122
0.209125
0.209128
0.209132
0.209136
0.209139
0.209143
0.209147
0.209151
0.209155
0.209158
0.209162
0.209165
0.209168
0.20917
0.209173
0.209175
0.209177
0.209178
0.20918
0.209181
0.209182
0.209182
0.209183
0.209183
0.209137
0.209139
0.209141
0.209144
0.209148
0.209151
0.209155
0.20916
0.209164
0.209168
0.209172
0.209176
0.209179
0.209183
0.209186
0.209189
0.209192
0.209195
0.209197
0.209199
0.2092
0.209202
0.209203
0.209204
0.209204
0.209205
0.209205
0.209156
0.209158
0.20916
0.209163
0.209167
0.209171
0.209175
0.209179
0.209183
0.209188
0.209192
0.209196
0.2092
0.209203
0.209206
0.20921
0.209212
0.209215
0.209217
0.209219
0.209221
0.209222
0.209223
0.209224
0.209225
0.209225
0.209225
0.209172
0.209173
0.209176
0.209179
0.209183
0.209187
0.209191
0.209195
0.209199
0.209203
0.209207
0.209211
0.209215
0.209219
0.209222
0.209225
0.209228
0.20923
0.209232
0.209234
0.209236
0.209237
0.209238
0.209239
0.209239
0.20924
0.20924
0.334007
0.334007
0.334007
0.334007
0.334007
0.334007
0.334007
0.334007
0.334007
0.334007
0.334007
0.334007
0.334007
0.334007
0.334007
0.334007
0.334007
0.334007
0.334007
0.334006
0.334006
0.334003
0.333997
0.333983
0.333949
0.333877