/*--------------------------------*- C++ -*----------------------------------*\
| =========                 |                                                 |
| \\      /  F ield         | OpenFOAM: The Open Source CFD Toolbox           |
|  \\    /   O peration     | Version:  2106                                  |
|   \\  /    A nd           | Website:  www.openfoam.com                      |
|    \\/     M anipulation  |                                                 |
\*---------------------------------------------------------------------------*/
FoamFile
{
    version     2.0;
    format      ascii;
    arch        "LSB;label=32;scalar=64";
    class       volScalarField;
    location    "149.99958";
    object      C2H3;
}
// * * * * * * * * * * * * * * * * * * * * * * * * * * * * * * * * * * * * * //

dimensions      [0 0 0 0 0 0 0];

internalField   nonuniform List<scalar> 
3360
(
1.0361e-21
1.06945e-21
1.11586e-21
1.17263e-21
1.23739e-21
1.30802e-21
1.38259e-21
1.45939e-21
1.53686e-21
1.61364e-21
1.68856e-21
1.7606e-21
1.82896e-21
1.89295e-21
1.95209e-21
2.00603e-21
2.05454e-21
2.09753e-21
2.13503e-21
2.16715e-21
2.19407e-21
2.21606e-21
2.23343e-21
2.24653e-21
2.25575e-21
2.26148e-21
2.26414e-21
4.54591e-21
4.71304e-21
4.94888e-21
5.24258e-21
5.58515e-21
5.96873e-21
6.38632e-21
6.8315e-21
7.2983e-21
7.78107e-21
8.27441e-21
8.77304e-21
9.27176e-21
9.76546e-21
1.02491e-20
1.07177e-20
1.11663e-20
1.15904e-20
1.19854e-20
1.2347e-20
1.26714e-20
1.29552e-20
1.31953e-20
1.33895e-20
1.35361e-20
1.3634e-20
1.36828e-20
1.42675e-20
1.48939e-20
1.57839e-20
1.69022e-20
1.82197e-20
1.97098e-20
2.13476e-20
2.31084e-20
2.49673e-20
2.68987e-20
2.88766e-20
3.08752e-20
3.28687e-20
3.4832e-20
3.67404e-20
3.85709e-20
4.03018e-20
4.1914e-20
4.33907e-20
4.47179e-20
4.58851e-20
4.68846e-20
4.77119e-20
4.83659e-20
4.88481e-20
4.91625e-20
4.93155e-20
4.15668e-20
4.36319e-20
4.65861e-20
5.03237e-20
5.47565e-20
5.98016e-20
6.53764e-20
7.1395e-20
7.77676e-20
8.43996e-20
9.11933e-20
9.80493e-20
1.04869e-19
1.11556e-19
1.18019e-19
1.24175e-19
1.29949e-19
1.35279e-19
1.40112e-19
1.44413e-19
1.48154e-19
1.51324e-19
1.5392e-19
1.5595e-19
1.57432e-19
1.58388e-19
1.5885e-19
1.21495e-19
1.28013e-19
1.37354e-19
1.492e-19
1.6328e-19
1.79334e-19
1.97093e-19
2.16276e-19
2.36579e-19
2.57684e-19
2.79261e-19
3.00979e-19
3.22511e-19
3.43546e-19
3.63797e-19
3.83004e-19
4.00945e-19
4.17436e-19
4.32335e-19
4.4554e-19
4.56988e-19
4.66655e-19
4.74548e-19
4.80704e-19
4.85185e-19
4.88072e-19
4.89461e-19
3.58393e-19
3.78417e-19
4.07153e-19
4.43626e-19
4.87001e-19
5.3647e-19
5.91197e-19
6.50291e-19
7.12802e-19
7.77728e-19
8.44036e-19
9.1069e-19
9.76676e-19
1.04104e-18
1.10289e-18
1.16144e-18
1.21604e-18
1.26614e-18
1.31131e-18
1.35128e-18
1.38587e-18
1.41504e-18
1.43882e-18
1.45734e-18
1.4708e-18
1.47946e-18
1.48362e-18
1.06512e-18
1.12599e-18
1.21335e-18
1.32422e-18
1.45608e-18
1.60642e-18
1.77268e-18
1.9521e-18
2.14175e-18
2.33857e-18
2.53939e-18
2.74107e-18
2.94053e-18
3.13488e-18
3.32149e-18
3.498e-18
3.66244e-18
3.81321e-18
3.94909e-18
4.06924e-18
4.17318e-18
4.26077e-18
4.33215e-18
4.38774e-18
4.42813e-18
4.45412e-18
4.46662e-18
3.17593e-18
3.35919e-18
3.6223e-18
3.95637e-18
4.35374e-18
4.80691e-18
5.30807e-18
5.84887e-18
6.42043e-18
7.01343e-18
7.61833e-18
8.22559e-18
8.82595e-18
9.41069e-18
9.97187e-18
1.05025e-17
1.09966e-17
1.14494e-17
1.18573e-17
1.22178e-17
1.25295e-17
1.27921e-17
1.30061e-17
1.31726e-17
1.32935e-17
1.33713e-17
1.34087e-17
9.49494e-18
1.0046e-17
1.08369e-17
1.1841e-17
1.30353e-17
1.43969e-17
1.59024e-17
1.75266e-17
1.92425e-17
2.10223e-17
2.2837e-17
2.46582e-17
2.64581e-17
2.82106e-17
2.98919e-17
3.14812e-17
3.29609e-17
3.43166e-17
3.55376e-17
3.66167e-17
3.75497e-17
3.83356e-17
3.89758e-17
3.94741e-17
3.9836e-17
4.00689e-17
4.01807e-17
2.83875e-17
3.00384e-17
3.24087e-17
3.54182e-17
3.89975e-17
4.30785e-17
4.75902e-17
5.24571e-17
5.75986e-17
6.29303e-17
6.83662e-17
7.38202e-17
7.92094e-17
8.44555e-17
8.94876e-17
9.42431e-17
9.86693e-17
1.02724e-16
1.06375e-16
1.096e-16
1.12389e-16
1.14737e-16
1.16649e-16
1.18137e-16
1.19218e-16
1.19913e-16
1.20246e-16
8.4911e-17
8.98553e-17
9.69521e-17
1.05961e-16
1.16673e-16
1.28883e-16
1.42378e-16
1.56932e-16
1.72301e-16
1.88234e-16
2.04472e-16
2.20759e-16
2.36847e-16
2.52503e-16
2.67516e-16
2.817e-16
2.94899e-16
3.06986e-16
3.17867e-16
3.2748e-16
3.35788e-16
3.42783e-16
3.48479e-16
3.52912e-16
3.56131e-16
3.582e-16
3.59195e-16
2.53734e-16
2.685e-16
2.89693e-16
3.16592e-16
3.48569e-16
3.8501e-16
4.25274e-16
4.6868e-16
5.14503e-16
5.61989e-16
6.10367e-16
6.58872e-16
7.06764e-16
7.53353e-16
7.98009e-16
8.40183e-16
8.79411e-16
9.15323e-16
9.47641e-16
9.76179e-16
1.00084e-15
1.02159e-15
1.03849e-15
1.05163e-15
1.06117e-15
1.06731e-15
1.07025e-15
7.5739e-16
8.01408e-16
8.64561e-16
9.44678e-16
1.03987e-15
1.14829e-15
1.26802e-15
1.39699e-15
1.53306e-15
1.67397e-15
1.81743e-15
1.96116e-15
2.10298e-15
2.24085e-15
2.37292e-15
2.49758e-15
2.61346e-15
2.71949e-15
2.81486e-15
2.89905e-15
2.97175e-15
3.03292e-15
3.08271e-15
3.12142e-15
3.14952e-15
3.16758e-15
3.17626e-15
2.25433e-15
2.38492e-15
2.57221e-15
2.80969e-15
3.09169e-15
3.41263e-15
3.76674e-15
4.1479e-15
4.54965e-15
4.9653e-15
5.38806e-15
5.81123e-15
6.22837e-15
6.6335e-15
7.02122e-15
7.38684e-15
7.72644e-15
8.03691e-15
8.31595e-15
8.56207e-15
8.77448e-15
8.95308e-15
9.09834e-15
9.21124e-15
9.29315e-15
9.34576e-15
9.37102e-15
6.68706e-15
7.07228e-15
7.62436e-15
8.32376e-15
9.15338e-15
1.00965e-14
1.11357e-14
1.22528e-14
1.34285e-14
1.46432e-14
1.58767e-14
1.71097e-14
1.83233e-14
1.95004e-14
2.06253e-14
2.16847e-14
2.26675e-14
2.35649e-14
2.43706e-14
2.50805e-14
2.56926e-14
2.62069e-14
2.66248e-14
2.69494e-14
2.71848e-14
2.73359e-14
2.74084e-14
1.97315e-14
2.08567e-14
2.24678e-14
2.45064e-14
2.69211e-14
2.96616e-14
3.26761e-14
3.59104e-14
3.9308e-14
4.2811e-14
4.63615e-14
4.99032e-14
5.33826e-14
5.67505e-14
5.99633e-14
6.29836e-14
6.57807e-14
6.83307e-14
7.06166e-14
7.26278e-14
7.43597e-14
7.58128e-14
7.69924e-14
7.79076e-14
7.85705e-14
7.89957e-14
7.91996e-14
5.78485e-14
6.10927e-14
6.57314e-14
7.15904e-14
7.85159e-14
8.63574e-14
9.49613e-14
1.04168e-13
1.13813e-13
1.2373e-13
1.33753e-13
1.43724e-13
1.53493e-13
1.62925e-13
1.719e-13
1.80317e-13
1.88094e-13
1.95169e-13
2.01499e-13
2.07058e-13
2.11836e-13
2.15839e-13
2.19084e-13
2.21599e-13
2.23417e-13
2.24583e-13
2.25141e-13
1.68276e-13
1.77462e-13
1.90573e-13
2.07093e-13
2.26562e-13
2.48537e-13
2.72564e-13
2.98182e-13
3.24921e-13
3.52311e-13
3.79893e-13
4.07231e-13
4.33922e-13
4.59604e-13
4.83963e-13
5.06737e-13
5.27719e-13
5.46756e-13
5.63744e-13
5.78628e-13
5.91396e-13
6.0207e-13
6.10707e-13
6.17388e-13
6.22214e-13
6.25302e-13
6.26779e-13
4.85346e-13
5.10781e-13
5.46984e-13
5.92445e-13
6.45811e-13
7.05778e-13
7.71039e-13
8.40283e-13
9.12199e-13
9.85504e-13
1.05897e-12
1.13143e-12
1.20187e-12
1.26934e-12
1.33308e-12
1.39244e-12
1.44693e-12
1.4962e-12
1.54004e-12
1.57834e-12
1.6111e-12
1.63843e-12
1.66049e-12
1.67753e-12
1.68981e-12
1.69765e-12
1.7014e-12
1.3881e-12
1.45675e-12
1.55411e-12
1.67582e-12
1.81792e-12
1.97665e-12
2.14831e-12
2.32926e-12
2.51594e-12
2.70497e-12
2.89317e-12
3.07766e-12
3.25587e-12
3.42562e-12
3.58508e-12
3.73284e-12
3.86783e-12
3.98936e-12
4.09703e-12
4.19074e-12
4.27064e-12
4.33708e-12
4.39057e-12
4.43175e-12
4.46138e-12
4.48026e-12
4.48926e-12
3.94144e-12
4.12283e-12
4.37895e-12
4.69722e-12
5.06627e-12
5.47531e-12
5.91396e-12
6.37226e-12
6.84079e-12
7.31082e-12
7.77445e-12
8.22472e-12
8.65572e-12
9.06258e-12
9.44149e-12
9.78967e-12
1.01053e-11
1.03872e-11
1.06352e-11
1.08497e-11
1.10314e-11
1.11816e-11
1.13019e-11
1.13941e-11
1.14601e-11
1.15021e-11
1.1522e-11
1.11159e-11
1.15942e-11
1.22666e-11
1.30973e-11
1.40538e-11
1.51055e-11
1.62233e-11
1.73798e-11
1.85499e-11
1.97107e-11
2.08423e-11
2.1928e-11
2.29541e-11
2.39102e-11
2.47887e-11
2.55849e-11
2.62966e-11
2.69235e-11
2.74672e-11
2.79307e-11
2.83178e-11
2.86333e-11
2.88824e-11
2.90706e-11
2.92036e-11
2.92869e-11
2.93259e-11
3.10186e-11
3.23226e-11
3.41553e-11
3.64191e-11
3.90261e-11
4.18941e-11
4.49461e-11
4.81105e-11
5.13219e-11
5.45221e-11
5.76601e-11
6.06933e-11
6.35865e-11
6.6312e-11
6.88489e-11
7.11819e-11
7.33009e-11
7.51995e-11
7.68751e-11
7.83287e-11
7.9564e-11
8.05874e-11
8.14079e-11
8.20362e-11
8.24851e-11
8.27686e-11
8.29023e-11
8.51777e-11
8.90157e-11
9.44693e-11
1.01313e-10
1.09363e-10
1.1846e-10
1.28468e-10
1.39268e-10
1.50748e-10
1.62807e-10
1.75345e-10
1.88264e-10
2.01453e-10
2.14795e-10
2.28157e-10
2.41392e-10
2.54343e-10
2.66842e-10
2.78716e-10
2.89793e-10
2.99904e-10
3.08894e-10
3.16618e-10
3.22955e-10
3.27801e-10
3.31079e-10
3.32733e-10
2.40719e-10
2.54252e-10
2.73949e-10
2.9947e-10
3.30665e-10
3.67492e-10
4.09948e-10
4.58013e-10
5.1158e-10
5.70383e-10
6.33937e-10
7.01491e-10
7.72019e-10
8.44255e-10
9.16759e-10
9.88028e-10
1.0566e-09
1.12116e-09
1.18061e-09
1.23411e-09
1.28107e-09
1.32117e-09
1.35425e-09
1.38034e-09
1.39957e-09
1.41214e-09
1.41829e-09
8.3222e-10
8.91642e-10
9.78626e-10
1.09153e-09
1.22856e-09
1.38704e-09
1.56286e-09
1.75044e-09
1.94304e-09
2.13346e-09
2.31498e-09
2.48217e-09
2.63134e-09
2.76062e-09
2.86973e-09
2.95954e-09
3.03168e-09
3.08817e-09
3.13116e-09
3.16282e-09
3.18517e-09
3.2001e-09
3.20931e-09
3.21433e-09
3.21649e-09
3.21698e-09
3.21679e-09
3.06318e-09
3.21784e-09
3.43003e-09
3.68279e-09
3.95991e-09
4.24653e-09
4.5301e-09
4.80087e-09
5.05202e-09
5.27925e-09
5.48034e-09
5.65467e-09
5.8028e-09
5.92619e-09
6.02673e-09
6.10636e-09
6.16731e-09
6.21197e-09
6.24278e-09
6.26215e-09
6.27241e-09
6.2758e-09
6.2744e-09
6.27012e-09
6.26474e-09
6.25982e-09
6.25675e-09
6.48734e-09
6.71746e-09
7.03446e-09
7.41635e-09
7.84426e-09
8.30206e-09
8.77494e-09
9.25103e-09
9.72096e-09
1.01775e-08
1.06151e-08
1.10298e-08
1.14188e-08
1.17801e-08
1.21123e-08
1.2415e-08
1.26877e-08
1.29306e-08
1.31441e-08
1.33289e-08
1.34858e-08
1.36158e-08
1.37202e-08
1.38005e-08
1.3858e-08
1.38946e-08
1.3912e-08
1.06579e-08
1.10991e-08
1.17223e-08
1.24988e-08
1.34056e-08
1.44233e-08
1.55358e-08
1.67294e-08
1.79918e-08
1.9312e-08
2.0679e-08
2.20812e-08
2.35065e-08
2.49414e-08
2.63715e-08
2.7781e-08
2.91533e-08
3.04713e-08
3.17174e-08
3.28745e-08
3.39263e-08
3.48575e-08
3.56546e-08
3.63061e-08
3.68027e-08
3.71374e-08
3.73057e-08
1.71464e-08
1.8038e-08
1.93262e-08
2.09795e-08
2.29783e-08
2.53096e-08
2.79635e-08
3.09305e-08
3.41987e-08
3.77675e-08
4.16136e-08
4.5707e-08
5.00098e-08
5.44751e-08
5.90485e-08
6.36683e-08
6.82673e-08
7.27748e-08
7.71184e-08
8.12203e-08
8.50129e-08
8.84259e-08
9.13907e-08
9.38474e-08
9.57427e-08
9.70345e-08
9.76909e-08
3.06365e-08
3.24212e-08
3.50274e-08
3.84161e-08
4.25702e-08
4.74823e-08
5.31465e-08
5.95532e-08
6.66836e-08
7.45062e-08
8.29752e-08
9.20285e-08
1.01581e-07
1.11501e-07
1.21644e-07
1.31858e-07
1.41981e-07
1.51847e-07
1.61293e-07
1.70159e-07
1.78291e-07
1.85552e-07
1.91816e-07
1.96971e-07
2.00928e-07
2.03616e-07
2.04979e-07
6.08612e-08
6.4127e-08
6.88912e-08
7.50785e-08
8.26525e-08
9.15469e-08
1.01698e-07
1.13033e-07
1.25456e-07
1.38852e-07
1.53077e-07
1.67966e-07
1.8333e-07
1.98964e-07
2.14653e-07
2.30172e-07
2.453e-07
2.59817e-07
2.73509e-07
2.86187e-07
2.97675e-07
3.07812e-07
3.16461e-07
3.23514e-07
3.28881e-07
3.32496e-07
3.34315e-07
1.18552e-07
1.23615e-07
1.30902e-07
1.40192e-07
1.51305e-07
1.64069e-07
1.78311e-07
1.93848e-07
2.10478e-07
2.27988e-07
2.4615e-07
2.64726e-07
2.83474e-07
3.02151e-07
3.20517e-07
3.38343e-07
3.55407e-07
3.71508e-07
3.86467e-07
4.00123e-07
4.12333e-07
4.22977e-07
4.31957e-07
4.39206e-07
4.4467e-07
4.48319e-07
4.50141e-07
2.03205e-07
2.09419e-07
2.18252e-07
2.29329e-07
2.42329e-07
2.5695e-07
2.72905e-07
2.89913e-07
3.07698e-07
3.25993e-07
3.44541e-07
3.63096e-07
3.81426e-07
3.99312e-07
4.16561e-07
4.32997e-07
4.48466e-07
4.62834e-07
4.75985e-07
4.87826e-07
4.98278e-07
5.07283e-07
5.14799e-07
5.20802e-07
5.25286e-07
5.28256e-07
5.29727e-07
3.01727e-07
3.07925e-07
3.16634e-07
3.27397e-07
3.39808e-07
3.53501e-07
3.68137e-07
3.8341e-07
3.99036e-07
4.14765e-07
4.30369e-07
4.45654e-07
4.60446e-07
4.74602e-07
4.88e-07
5.00542e-07
5.12147e-07
5.22756e-07
5.32323e-07
5.40816e-07
5.48217e-07
5.54518e-07
5.59721e-07
5.63836e-07
5.6688e-07
5.68876e-07
5.69855e-07
3.96315e-07
4.01414e-07
4.08503e-07
4.17143e-07
4.26944e-07
4.37561e-07
4.48688e-07
4.60058e-07
4.71446e-07
4.82659e-07
4.93542e-07
5.0397e-07
5.13846e-07
5.23098e-07
5.31674e-07
5.39543e-07
5.46684e-07
5.53091e-07
5.58767e-07
5.63721e-07
5.67971e-07
5.71535e-07
5.74437e-07
5.76703e-07
5.78359e-07
5.79434e-07
5.79956e-07
4.73302e-07
4.7672e-07
4.81418e-07
4.87057e-07
4.93338e-07
5e-07
5.06821e-07
5.13618e-07
5.20245e-07
5.26587e-07
5.32563e-07
5.38115e-07
5.4321e-07
5.4783e-07
5.51973e-07
5.55648e-07
5.58872e-07
5.61668e-07
5.64062e-07
5.66082e-07
5.67758e-07
5.69118e-07
5.7019e-07
5.71001e-07
5.71577e-07
5.7194e-07
5.72112e-07
5.267e-07
5.28389e-07
5.30665e-07
5.33324e-07
5.36186e-07
5.39099e-07
5.4194e-07
5.44614e-07
5.47053e-07
5.49214e-07
5.51074e-07
5.52626e-07
5.5388e-07
5.54852e-07
5.55568e-07
5.56058e-07
5.56355e-07
5.56492e-07
5.56503e-07
5.5642e-07
5.56273e-07
5.56089e-07
5.55892e-07
5.55704e-07
5.55544e-07
5.55425e-07
5.55361e-07
5.57207e-07
5.57449e-07
5.57718e-07
5.57938e-07
5.58041e-07
5.57977e-07
5.57708e-07
5.57215e-07
5.56493e-07
5.55551e-07
5.54408e-07
5.53089e-07
5.51628e-07
5.50061e-07
5.48426e-07
5.4676e-07
5.45101e-07
5.43483e-07
5.41939e-07
5.40497e-07
5.39183e-07
5.3802e-07
5.37025e-07
5.36213e-07
5.35596e-07
5.35181e-07
5.34972e-07
5.6907e-07
5.68264e-07
5.67089e-07
5.6557e-07
5.63728e-07
5.61588e-07
5.59179e-07
5.56535e-07
5.53694e-07
5.50699e-07
5.47594e-07
5.44425e-07
5.41237e-07
5.38075e-07
5.3498e-07
5.31992e-07
5.29146e-07
5.26475e-07
5.24007e-07
5.21766e-07
5.19773e-07
5.18044e-07
5.16592e-07
5.15426e-07
5.14551e-07
5.13969e-07
5.1368e-07
5.67596e-07
5.66119e-07
5.64024e-07
5.61406e-07
5.58345e-07
5.54917e-07
5.51193e-07
5.47241e-07
5.43127e-07
5.38913e-07
5.34659e-07
5.3042e-07
5.26246e-07
5.22186e-07
5.1828e-07
5.14566e-07
5.11077e-07
5.07843e-07
5.04887e-07
5.02229e-07
4.99885e-07
4.97868e-07
4.96185e-07
4.94841e-07
4.93838e-07
4.93175e-07
4.92847e-07
5.56715e-07
5.54928e-07
5.52414e-07
5.49301e-07
5.45705e-07
5.41718e-07
5.37395e-07
5.32813e-07
5.28072e-07
5.23257e-07
5.18439e-07
5.13681e-07
5.09038e-07
5.04557e-07
5.0028e-07
4.96241e-07
4.92472e-07
4.88997e-07
4.85837e-07
4.83009e-07
4.80526e-07
4.78397e-07
4.76627e-07
4.75217e-07
4.74168e-07
4.73477e-07
4.73135e-07
5.41245e-07
5.39302e-07
5.36578e-07
5.33221e-07
5.29359e-07
5.25102e-07
5.20553e-07
5.15794e-07
5.10858e-07
5.0585e-07
5.00853e-07
4.95937e-07
4.91159e-07
4.86565e-07
4.82196e-07
4.78086e-07
4.74262e-07
4.70748e-07
4.67562e-07
4.64717e-07
4.62226e-07
4.60093e-07
4.58323e-07
4.56916e-07
4.55871e-07
4.55182e-07
4.54842e-07
5.23693e-07
5.21708e-07
5.18931e-07
5.15519e-07
5.11605e-07
5.07306e-07
5.02726e-07
4.97955e-07
4.93056e-07
4.88086e-07
4.83135e-07
4.78273e-07
4.73556e-07
4.69032e-07
4.64738e-07
4.60706e-07
4.56962e-07
4.53528e-07
4.50418e-07
4.47646e-07
4.45221e-07
4.43147e-07
4.41428e-07
4.40063e-07
4.3905e-07
4.38382e-07
4.38053e-07
5.05538e-07
5.03585e-07
5.00856e-07
4.97507e-07
4.93674e-07
4.89472e-07
4.85004e-07
4.80361e-07
4.75602e-07
4.70786e-07
4.65998e-07
4.61303e-07
4.56755e-07
4.524e-07
4.48272e-07
4.44401e-07
4.4081e-07
4.37519e-07
4.34542e-07
4.3189e-07
4.29572e-07
4.27591e-07
4.2595e-07
4.24647e-07
4.2368e-07
4.23044e-07
4.2273e-07
4.87649e-07
4.8577e-07
4.83147e-07
4.79931e-07
4.76253e-07
4.72225e-07
4.67947e-07
4.63506e-07
4.5895e-07
4.54351e-07
4.49786e-07
4.45318e-07
4.40995e-07
4.36859e-07
4.32942e-07
4.29272e-07
4.2587e-07
4.22753e-07
4.19936e-07
4.17427e-07
4.15234e-07
4.13362e-07
4.1181e-07
4.10579e-07
4.09665e-07
4.09064e-07
4.08768e-07
4.70507e-07
4.68724e-07
4.66236e-07
4.63187e-07
4.59701e-07
4.55886e-07
4.51835e-07
4.47628e-07
4.43304e-07
4.38952e-07
4.3464e-07
4.30424e-07
4.26349e-07
4.22453e-07
4.18765e-07
4.15311e-07
4.1211e-07
4.09179e-07
4.0653e-07
4.04171e-07
4.0211e-07
4.00349e-07
3.98891e-07
3.97733e-07
3.96875e-07
3.96309e-07
3.96031e-07
4.54344e-07
4.52665e-07
4.50323e-07
4.47452e-07
4.4417e-07
4.40577e-07
4.36765e-07
4.32789e-07
4.28716e-07
4.24624e-07
4.20574e-07
4.16618e-07
4.12796e-07
4.09143e-07
4.05686e-07
4.02448e-07
3.99449e-07
3.96702e-07
3.9422e-07
3.9201e-07
3.90078e-07
3.88428e-07
3.87062e-07
3.85977e-07
3.85172e-07
3.84642e-07
3.84381e-07
4.39242e-07
4.37669e-07
4.35474e-07
4.32783e-07
4.29706e-07
4.26337e-07
4.22755e-07
4.19008e-07
4.15182e-07
4.11344e-07
4.0755e-07
4.03846e-07
4.00269e-07
3.96851e-07
3.93617e-07
3.90588e-07
3.87782e-07
3.85212e-07
3.82889e-07
3.80821e-07
3.79014e-07
3.7747e-07
3.7619e-07
3.75175e-07
3.74421e-07
3.73925e-07
3.73681e-07
4.25194e-07
4.23723e-07
4.2167e-07
4.19154e-07
4.16275e-07
4.13121e-07
4.09739e-07
4.06218e-07
4.0263e-07
3.99037e-07
3.95487e-07
3.92023e-07
3.88678e-07
3.85482e-07
3.82458e-07
3.79625e-07
3.77001e-07
3.74597e-07
3.72424e-07
3.70488e-07
3.68797e-07
3.67351e-07
3.66154e-07
3.65203e-07
3.64497e-07
3.64032e-07
3.63803e-07
4.12139e-07
4.10763e-07
4.08842e-07
4.06485e-07
4.03788e-07
4.00813e-07
3.97635e-07
3.94334e-07
3.90975e-07
3.87613e-07
3.84293e-07
3.81052e-07
3.77924e-07
3.74934e-07
3.72105e-07
3.69455e-07
3.66999e-07
3.64749e-07
3.62714e-07
3.60903e-07
3.59318e-07
3.57964e-07
3.56842e-07
3.55951e-07
3.5529e-07
3.54854e-07
3.54639e-07
4.00001e-07
3.98713e-07
3.96913e-07
3.94705e-07
3.92164e-07
3.89357e-07
3.86372e-07
3.83277e-07
3.80131e-07
3.76983e-07
3.73875e-07
3.70842e-07
3.67913e-07
3.65113e-07
3.62464e-07
3.59982e-07
3.57681e-07
3.55572e-07
3.53665e-07
3.51967e-07
3.50481e-07
3.49212e-07
3.48159e-07
3.47323e-07
3.46702e-07
3.46294e-07
3.46092e-07
3.8869e-07
3.87485e-07
3.858e-07
3.83715e-07
3.81308e-07
3.78665e-07
3.75861e-07
3.72958e-07
3.70009e-07
3.67058e-07
3.64145e-07
3.61302e-07
3.58556e-07
3.55932e-07
3.53447e-07
3.51118e-07
3.48959e-07
3.46981e-07
3.45191e-07
3.43596e-07
3.42202e-07
3.41009e-07
3.4002e-07
3.39235e-07
3.38652e-07
3.38267e-07
3.38078e-07
3.78143e-07
3.77007e-07
3.754e-07
3.73416e-07
3.71143e-07
3.68656e-07
3.66022e-07
3.63296e-07
3.60528e-07
3.57758e-07
3.55024e-07
3.52354e-07
3.49776e-07
3.47311e-07
3.44977e-07
3.42789e-07
3.4076e-07
3.389e-07
3.37218e-07
3.35718e-07
3.34407e-07
3.33285e-07
3.32355e-07
3.31616e-07
3.31067e-07
3.30705e-07
3.30527e-07
3.68232e-07
3.67136e-07
3.65607e-07
3.63733e-07
3.61593e-07
3.59254e-07
3.56777e-07
3.54215e-07
3.51612e-07
3.49009e-07
3.46438e-07
3.43928e-07
3.41503e-07
3.39183e-07
3.36987e-07
3.34928e-07
3.33018e-07
3.31267e-07
3.29682e-07
3.2827e-07
3.27034e-07
3.25978e-07
3.25101e-07
3.24405e-07
3.23887e-07
3.23546e-07
3.23378e-07
3.58845e-07
3.57812e-07
3.56372e-07
3.54608e-07
3.52593e-07
3.50392e-07
3.4806e-07
3.45648e-07
3.43198e-07
3.40747e-07
3.38325e-07
3.3596e-07
3.33675e-07
3.31489e-07
3.29419e-07
3.27478e-07
3.25677e-07
3.24026e-07
3.22531e-07
3.21199e-07
3.20033e-07
3.19035e-07
3.18208e-07
3.17551e-07
3.17062e-07
3.1674e-07
3.16581e-07
3.49979e-07
3.49006e-07
3.47648e-07
3.45986e-07
3.44087e-07
3.42011e-07
3.39813e-07
3.37539e-07
3.35228e-07
3.32915e-07
3.3063e-07
3.28399e-07
3.26242e-07
3.24179e-07
3.22224e-07
3.20391e-07
3.1869e-07
3.1713e-07
3.15718e-07
3.14459e-07
3.13357e-07
3.12414e-07
3.11632e-07
3.11011e-07
3.10549e-07
3.10245e-07
3.10094e-07
3.41583e-07
3.40664e-07
3.39383e-07
3.37813e-07
3.3602e-07
3.3406e-07
3.31984e-07
3.29835e-07
3.27652e-07
3.25466e-07
3.23307e-07
3.21197e-07
3.19158e-07
3.17207e-07
3.15358e-07
3.13625e-07
3.12016e-07
3.1054e-07
3.09204e-07
3.08013e-07
3.0697e-07
3.06077e-07
3.05337e-07
3.04748e-07
3.04311e-07
3.04023e-07
3.03881e-07
3.33606e-07
3.32737e-07
3.31525e-07
3.30041e-07
3.28344e-07
3.2649e-07
3.24526e-07
3.22493e-07
3.20426e-07
3.18357e-07
3.16313e-07
3.14316e-07
3.12385e-07
3.10537e-07
3.08786e-07
3.07144e-07
3.0562e-07
3.04221e-07
3.02955e-07
3.01826e-07
3.00837e-07
2.99991e-07
2.9929e-07
2.98732e-07
2.98317e-07
2.98044e-07
2.97909e-07
3.26003e-07
3.2518e-07
3.24032e-07
3.22626e-07
3.21018e-07
3.19261e-07
3.174e-07
3.15472e-07
3.13513e-07
3.11552e-07
3.09614e-07
3.0772e-07
3.05889e-07
3.04136e-07
3.02475e-07
3.00917e-07
2.99471e-07
2.98144e-07
2.96943e-07
2.95871e-07
2.94933e-07
2.9413e-07
2.93463e-07
2.92934e-07
2.9254e-07
2.92281e-07
2.92153e-07
3.18735e-07
3.17955e-07
3.16865e-07
3.1553e-07
3.14005e-07
3.12337e-07
3.1057e-07
3.0874e-07
3.06881e-07
3.05018e-07
3.03178e-07
3.01379e-07
2.9964e-07
2.97975e-07
2.96397e-07
2.94917e-07
2.93543e-07
2.92282e-07
2.91141e-07
2.90122e-07
2.8923e-07
2.88467e-07
2.87834e-07
2.8733e-07
2.86956e-07
2.86709e-07
2.86588e-07
3.11768e-07
3.11026e-07
3.0999e-07
3.08721e-07
3.07271e-07
3.05686e-07
3.04006e-07
3.02266e-07
3.00498e-07
2.98727e-07
2.96977e-07
2.95266e-07
2.93612e-07
2.92028e-07
2.90528e-07
2.89119e-07
2.87812e-07
2.86613e-07
2.85526e-07
2.84557e-07
2.83708e-07
2.82982e-07
2.82379e-07
2.819e-07
2.81544e-07
2.81309e-07
2.81193e-07
3.05068e-07
3.04362e-07
3.03376e-07
3.02168e-07
3.00788e-07
2.99279e-07
2.97679e-07
2.96023e-07
2.94339e-07
2.92653e-07
2.90986e-07
2.89356e-07
2.87781e-07
2.86273e-07
2.84843e-07
2.83502e-07
2.82256e-07
2.81114e-07
2.80078e-07
2.79155e-07
2.78346e-07
2.77654e-07
2.77079e-07
2.76623e-07
2.76283e-07
2.7606e-07
2.75949e-07
2.98609e-07
2.97936e-07
2.96996e-07
2.95844e-07
2.94528e-07
2.93089e-07
2.91564e-07
2.89985e-07
2.88379e-07
2.86771e-07
2.85181e-07
2.83627e-07
2.82124e-07
2.80686e-07
2.79322e-07
2.78043e-07
2.76855e-07
2.75764e-07
2.74777e-07
2.73896e-07
2.73124e-07
2.72463e-07
2.71915e-07
2.7148e-07
2.71156e-07
2.70942e-07
2.70837e-07
2.92363e-07
2.9172e-07
2.90823e-07
2.89723e-07
2.88467e-07
2.87092e-07
2.85636e-07
2.84128e-07
2.82594e-07
2.81058e-07
2.7954e-07
2.78056e-07
2.76621e-07
2.75247e-07
2.73944e-07
2.72722e-07
2.71587e-07
2.70545e-07
2.69602e-07
2.6876e-07
2.68022e-07
2.67391e-07
2.66868e-07
2.66452e-07
2.66142e-07
2.65939e-07
2.65838e-07
2.86304e-07
2.8569e-07
2.84832e-07
2.8378e-07
2.82578e-07
2.81264e-07
2.79871e-07
2.78428e-07
2.76962e-07
2.75493e-07
2.7404e-07
2.72621e-07
2.71248e-07
2.69934e-07
2.68688e-07
2.67518e-07
2.66433e-07
2.65436e-07
2.64533e-07
2.63728e-07
2.63022e-07
2.62419e-07
2.61918e-07
2.6152e-07
2.61224e-07
2.61029e-07
2.60932e-07
2.80408e-07
2.79819e-07
2.78997e-07
2.77989e-07
2.76838e-07
2.75579e-07
2.74245e-07
2.72863e-07
2.71458e-07
2.7005e-07
2.68659e-07
2.67299e-07
2.65984e-07
2.64725e-07
2.63531e-07
2.62411e-07
2.6137e-07
2.60415e-07
2.5955e-07
2.58778e-07
2.58102e-07
2.57524e-07
2.57044e-07
2.56662e-07
2.56379e-07
2.56192e-07
2.561e-07
2.74646e-07
2.74081e-07
2.73293e-07
2.72326e-07
2.71221e-07
2.70013e-07
2.68732e-07
2.67406e-07
2.66058e-07
2.64707e-07
2.63372e-07
2.62067e-07
2.60805e-07
2.59596e-07
2.5845e-07
2.57375e-07
2.56376e-07
2.55459e-07
2.54629e-07
2.53888e-07
2.53239e-07
2.52684e-07
2.52223e-07
2.51858e-07
2.51586e-07
2.51406e-07
2.51318e-07
2.68994e-07
2.6845e-07
2.67692e-07
2.66762e-07
2.657e-07
2.64538e-07
2.63307e-07
2.62032e-07
2.60735e-07
2.59436e-07
2.58153e-07
2.56898e-07
2.55684e-07
2.54522e-07
2.5342e-07
2.52385e-07
2.51424e-07
2.50543e-07
2.49744e-07
2.49031e-07
2.48408e-07
2.47874e-07
2.47431e-07
2.4708e-07
2.46818e-07
2.46646e-07
2.46561e-07
2.63419e-07
2.62895e-07
2.62164e-07
2.61269e-07
2.60245e-07
2.59125e-07
2.57939e-07
2.5671e-07
2.5546e-07
2.54209e-07
2.52971e-07
2.51762e-07
2.50592e-07
2.49472e-07
2.48409e-07
2.47412e-07
2.46486e-07
2.45636e-07
2.44866e-07
2.44179e-07
2.43579e-07
2.43065e-07
2.42638e-07
2.423e-07
2.42048e-07
2.41882e-07
2.418e-07
2.5789e-07
2.57384e-07
2.56678e-07
2.55812e-07
2.54823e-07
2.53741e-07
2.52595e-07
2.51407e-07
2.502e-07
2.48991e-07
2.47795e-07
2.46626e-07
2.45495e-07
2.44412e-07
2.43385e-07
2.42421e-07
2.41526e-07
2.40705e-07
2.39961e-07
2.39298e-07
2.38718e-07
2.38222e-07
2.3781e-07
2.37483e-07
2.37241e-07
2.3708e-07
2.37002e-07
2.52369e-07
2.51878e-07
2.51194e-07
2.50355e-07
2.49397e-07
2.48349e-07
2.47237e-07
2.46086e-07
2.44916e-07
2.43744e-07
2.42585e-07
2.41451e-07
2.40355e-07
2.39304e-07
2.38308e-07
2.37374e-07
2.36506e-07
2.35711e-07
2.34991e-07
2.34349e-07
2.33787e-07
2.33307e-07
2.32909e-07
2.32592e-07
2.32357e-07
2.32202e-07
2.32126e-07
2.46813e-07
2.46337e-07
2.45671e-07
2.44855e-07
2.43923e-07
2.42903e-07
2.41822e-07
2.40703e-07
2.39564e-07
2.38423e-07
2.37294e-07
2.36191e-07
2.35123e-07
2.34101e-07
2.33132e-07
2.32224e-07
2.31381e-07
2.30608e-07
2.29909e-07
2.29285e-07
2.2874e-07
2.28273e-07
2.27887e-07
2.2758e-07
2.27351e-07
2.27201e-07
2.27127e-07
2.41175e-07
2.40709e-07
2.40059e-07
2.39262e-07
2.38351e-07
2.37355e-07
2.36299e-07
2.35204e-07
2.3409e-07
2.32974e-07
2.3187e-07
2.30792e-07
2.29749e-07
2.28751e-07
2.27806e-07
2.26919e-07
2.26097e-07
2.25343e-07
2.24661e-07
2.24054e-07
2.23522e-07
2.23068e-07
2.22691e-07
2.22392e-07
2.2217e-07
2.22023e-07
2.21951e-07
2.35396e-07
2.34938e-07
2.343e-07
2.33517e-07
2.32622e-07
2.31642e-07
2.30603e-07
2.29526e-07
2.28431e-07
2.27335e-07
2.26251e-07
2.25193e-07
2.2417e-07
2.23192e-07
2.22266e-07
2.21397e-07
2.20592e-07
2.19854e-07
2.19186e-07
2.18591e-07
2.18071e-07
2.17626e-07
2.17258e-07
2.16965e-07
2.16748e-07
2.16605e-07
2.16535e-07
2.29407e-07
2.28954e-07
2.28321e-07
2.27545e-07
2.26659e-07
2.2569e-07
2.24662e-07
2.23599e-07
2.22519e-07
2.21437e-07
2.20369e-07
2.19326e-07
2.18318e-07
2.17354e-07
2.16442e-07
2.15586e-07
2.14794e-07
2.14067e-07
2.1341e-07
2.12825e-07
2.12314e-07
2.11877e-07
2.11515e-07
2.11227e-07
2.11014e-07
2.10873e-07
2.10804e-07
2.23116e-07
2.22665e-07
2.22036e-07
2.21266e-07
2.20385e-07
2.19422e-07
2.18403e-07
2.17347e-07
2.16275e-07
2.15202e-07
2.14143e-07
2.13108e-07
2.1211e-07
2.11155e-07
2.10251e-07
2.09404e-07
2.08619e-07
2.079e-07
2.0725e-07
2.06672e-07
2.06166e-07
2.05734e-07
2.05376e-07
2.05092e-07
2.04882e-07
2.04743e-07
2.04674e-07
2.16447e-07
2.15997e-07
2.15368e-07
2.14597e-07
2.13717e-07
2.12754e-07
2.11735e-07
2.10681e-07
2.0961e-07
2.08539e-07
2.07481e-07
2.06449e-07
2.05452e-07
2.045e-07
2.03599e-07
2.02755e-07
2.01973e-07
2.01257e-07
2.0061e-07
2.00034e-07
1.99531e-07
1.99102e-07
1.98746e-07
1.98464e-07
1.98255e-07
1.98117e-07
1.98049e-07
2.09305e-07
2.08851e-07
2.08217e-07
2.07441e-07
2.06554e-07
2.05585e-07
2.04559e-07
2.03498e-07
2.0242e-07
2.01342e-07
2.00279e-07
1.99242e-07
1.9824e-07
1.97284e-07
1.96379e-07
1.95533e-07
1.94749e-07
1.94031e-07
1.93383e-07
1.92807e-07
1.92303e-07
1.91873e-07
1.91518e-07
1.91236e-07
1.91026e-07
1.90889e-07
1.90821e-07
2.01578e-07
2.01117e-07
2.00473e-07
1.99685e-07
1.98785e-07
1.97802e-07
1.96761e-07
1.95684e-07
1.94592e-07
1.935e-07
1.92423e-07
1.91373e-07
1.9036e-07
1.89392e-07
1.88478e-07
1.87623e-07
1.86832e-07
1.86108e-07
1.85454e-07
1.84873e-07
1.84365e-07
1.83933e-07
1.83575e-07
1.83291e-07
1.83081e-07
1.82943e-07
1.82874e-07
1.93148e-07
1.92675e-07
1.92017e-07
1.9121e-07
1.9029e-07
1.89284e-07
1.8822e-07
1.87121e-07
1.86005e-07
1.84891e-07
1.83792e-07
1.82722e-07
1.8169e-07
1.80705e-07
1.79775e-07
1.78906e-07
1.78101e-07
1.77366e-07
1.76703e-07
1.76114e-07
1.75599e-07
1.75161e-07
1.74799e-07
1.74512e-07
1.74299e-07
1.74159e-07
1.74091e-07
1.83891e-07
1.83404e-07
1.82725e-07
1.81894e-07
1.80946e-07
1.79911e-07
1.78817e-07
1.77686e-07
1.7654e-07
1.75395e-07
1.74268e-07
1.7317e-07
1.72113e-07
1.71104e-07
1.70153e-07
1.69264e-07
1.68442e-07
1.67692e-07
1.67015e-07
1.66415e-07
1.65891e-07
1.65445e-07
1.65077e-07
1.64785e-07
1.64569e-07
1.64427e-07
1.64357e-07
1.7369e-07
1.73186e-07
1.72482e-07
1.71622e-07
1.7064e-07
1.6957e-07
1.68438e-07
1.6727e-07
1.66086e-07
1.64906e-07
1.63744e-07
1.62613e-07
1.61525e-07
1.60489e-07
1.59511e-07
1.58599e-07
1.57757e-07
1.56988e-07
1.56296e-07
1.55682e-07
1.55147e-07
1.54692e-07
1.54316e-07
1.54019e-07
1.53799e-07
1.53654e-07
1.53583e-07
1.62451e-07
1.61926e-07
1.61195e-07
1.60302e-07
1.59283e-07
1.58172e-07
1.56999e-07
1.55789e-07
1.54565e-07
1.53345e-07
1.52145e-07
1.50979e-07
1.49858e-07
1.48791e-07
1.47787e-07
1.4685e-07
1.45986e-07
1.45198e-07
1.4449e-07
1.43861e-07
1.43315e-07
1.4285e-07
1.42466e-07
1.42163e-07
1.41939e-07
1.41792e-07
1.4172e-07
1.5012e-07
1.49575e-07
1.48816e-07
1.47888e-07
1.46831e-07
1.4568e-07
1.44466e-07
1.43215e-07
1.41951e-07
1.40692e-07
1.39456e-07
1.38256e-07
1.37104e-07
1.36009e-07
1.34979e-07
1.3402e-07
1.33136e-07
1.32332e-07
1.31609e-07
1.30968e-07
1.30412e-07
1.29939e-07
1.29549e-07
1.29241e-07
1.29013e-07
1.28864e-07
1.28791e-07
1.36718e-07
1.36154e-07
1.3537e-07
1.34412e-07
1.33322e-07
1.32137e-07
1.30887e-07
1.29602e-07
1.28304e-07
1.27015e-07
1.2575e-07
1.24524e-07
1.23349e-07
1.22233e-07
1.21185e-07
1.20211e-07
1.19315e-07
1.18499e-07
1.17767e-07
1.1712e-07
1.16558e-07
1.16081e-07
1.15688e-07
1.15378e-07
1.15149e-07
1.14999e-07
1.14925e-07
1.22369e-07
1.21793e-07
1.20992e-07
1.20014e-07
1.18903e-07
1.17695e-07
1.16425e-07
1.1512e-07
1.13805e-07
1.125e-07
1.11223e-07
1.09986e-07
1.08803e-07
1.07682e-07
1.0663e-07
1.05654e-07
1.04757e-07
1.03942e-07
1.03211e-07
1.02566e-07
1.02006e-07
1.01532e-07
1.01141e-07
1.00834e-07
1.00607e-07
1.00458e-07
1.00385e-07
1.07336e-07
1.06757e-07
1.05952e-07
1.04971e-07
1.03858e-07
1.02651e-07
1.01383e-07
1.00083e-07
9.87748e-08
9.74793e-08
9.62132e-08
9.49905e-08
9.38223e-08
9.27175e-08
9.1683e-08
9.0724e-08
8.98443e-08
8.90465e-08
8.83322e-08
8.77021e-08
8.71562e-08
8.66938e-08
8.63138e-08
8.60145e-08
8.57939e-08
8.56496e-08
8.5579e-08
9.20223e-08
9.1454e-08
9.06651e-08
8.97051e-08
8.86173e-08
8.74396e-08
8.62049e-08
8.49414e-08
8.36729e-08
8.24192e-08
8.11966e-08
8.00183e-08
7.88948e-08
7.78343e-08
7.68432e-08
7.5926e-08
7.50861e-08
7.43256e-08
7.36456e-08
7.30466e-08
7.25283e-08
7.20898e-08
7.17297e-08
7.14464e-08
7.12378e-08
7.11014e-08
7.10347e-08
7.69499e-08
7.64087e-08
7.56581e-08
7.47462e-08
7.37146e-08
7.26e-08
7.14339e-08
7.02432e-08
6.90506e-08
6.78745e-08
6.67302e-08
6.56299e-08
6.45831e-08
6.35971e-08
6.26775e-08
6.18281e-08
6.10517e-08
6.03498e-08
5.97233e-08
5.91721e-08
5.86958e-08
5.82933e-08
5.79632e-08
5.77037e-08
5.75127e-08
5.7388e-08
5.7327e-08
6.26807e-08
6.21822e-08
6.14917e-08
6.06542e-08
5.97085e-08
5.86889e-08
5.76247e-08
5.65407e-08
5.54576e-08
5.43923e-08
5.33585e-08
5.23668e-08
5.14257e-08
5.05413e-08
4.97184e-08
4.89599e-08