/*--------------------------------*- C++ -*----------------------------------*\
| =========                 |                                                 |
| \\      /  F ield         | OpenFOAM: The Open Source CFD Toolbox           |
|  \\    /   O peration     | Version:  2106                                  |
|   \\  /    A nd           | Website:  www.openfoam.com                      |
|    \\/     M anipulation  |                                                 |
\*---------------------------------------------------------------------------*/
FoamFile
{
    version     2.0;
    format      ascii;
    arch        "LSB;label=32;scalar=64";
    class       volScalarField;
    location    "149.99958";
    object      C2H4;
}
// * * * * * * * * * * * * * * * * * * * * * * * * * * * * * * * * * * * * * //

dimensions      [0 0 0 0 0 0 0];

internalField   nonuniform List<scalar> 
3360
(
2.49937e-18
2.57979e-18
2.69172e-18
2.82862e-18
2.98479e-18
3.15512e-18
3.33496e-18
3.52016e-18
3.70698e-18
3.89215e-18
4.07281e-18
4.24655e-18
4.41138e-18
4.56571e-18
4.70832e-18
4.83838e-18
4.95537e-18
5.05905e-18
5.14948e-18
5.22693e-18
5.29185e-18
5.34487e-18
5.38676e-18
5.41835e-18
5.44058e-18
5.4544e-18
5.46082e-18
1.09641e-17
1.13671e-17
1.19357e-17
1.26439e-17
1.34699e-17
1.43948e-17
1.54016e-17
1.6475e-17
1.76006e-17
1.87646e-17
1.99541e-17
2.11564e-17
2.23589e-17
2.35493e-17
2.47154e-17
2.58452e-17
2.69271e-17
2.79496e-17
2.8902e-17
2.97739e-17
3.05561e-17
3.12403e-17
3.18193e-17
3.22877e-17
3.26411e-17
3.28771e-17
3.29948e-17
3.44014e-17
3.59112e-17
3.80565e-17
4.07523e-17
4.39279e-17
4.75197e-17
5.14676e-17
5.57119e-17
6.01925e-17
6.4848e-17
6.96155e-17
7.44327e-17
7.92378e-17
8.39698e-17
8.85699e-17
9.29819e-17
9.71541e-17
1.0104e-16
1.04599e-16
1.07798e-16
1.10611e-16
1.1302e-16
1.15015e-16
1.16591e-16
1.17753e-16
1.18511e-16
1.1888e-16
1.00187e-16
1.05163e-16
1.12281e-16
1.21287e-16
1.31968e-16
1.44124e-16
1.57556e-16
1.72058e-16
1.87412e-16
2.03391e-16
2.19759e-16
2.36278e-16
2.52709e-16
2.6882e-16
2.84392e-16
2.99223e-16
3.13135e-16
3.25975e-16
3.3762e-16
3.4798e-16
3.56994e-16
3.64631e-16
3.70885e-16
3.75777e-16
3.79346e-16
3.81651e-16
3.82763e-16
2.92706e-16
3.08404e-16
3.30903e-16
3.59433e-16
3.93344e-16
4.32008e-16
4.7478e-16
5.20979e-16
5.69875e-16
6.20702e-16
6.72667e-16
7.24968e-16
7.76822e-16
8.27479e-16
8.76245e-16
9.22498e-16
9.65703e-16
1.00542e-15
1.04129e-15
1.07309e-15
1.10066e-15
1.12394e-15
1.14295e-15
1.15777e-15
1.16856e-15
1.17551e-15
1.17886e-15
8.63034e-16
9.1124e-16
9.80418e-16
1.06822e-15
1.17264e-15
1.29172e-15
1.42346e-15
1.56572e-15
1.71619e-15
1.87248e-15
2.03209e-15
2.19253e-15
2.35137e-15
2.50628e-15
2.65515e-15
2.7961e-15
2.92752e-15
3.04809e-15
3.15683e-15
3.25303e-15
3.3363e-15
3.40649e-15
3.46372e-15
3.50829e-15
3.54069e-15
3.56154e-15
3.57157e-15
2.56362e-15
2.7101e-15
2.92029e-15
3.18709e-15
3.50435e-15
3.86609e-15
4.26612e-15
4.69781e-15
5.15412e-15
5.62766e-15
6.11083e-15
6.59605e-15
7.07593e-15
7.54352e-15
7.99246e-15
8.41712e-15
8.81274e-15
9.17545e-15
9.50234e-15
9.79139e-15
1.00414e-14
1.02522e-14
1.04239e-14
1.05576e-14
1.06548e-14
1.07173e-14
1.07474e-14
7.64035e-15
8.08109e-15
8.71388e-15
9.51733e-15
1.0473e-14
1.15629e-14
1.27681e-14
1.40687e-14
1.54432e-14
1.68692e-14
1.83239e-14
1.97842e-14
2.12279e-14
2.2634e-14
2.39835e-14
2.52594e-14
2.64475e-14
2.75363e-14
2.85172e-14
2.9384e-14
3.01337e-14
3.07651e-14
3.12795e-14
3.16799e-14
3.19707e-14
3.21578e-14
3.22477e-14
2.28305e-14
2.41551e-14
2.60564e-14
2.84702e-14
3.1341e-14
3.46142e-14
3.8233e-14
4.2137e-14
4.62616e-14
5.05394e-14
5.49015e-14
5.92788e-14
6.3605e-14
6.78171e-14
7.18583e-14
7.56782e-14
7.92345e-14
8.24929e-14
8.54276e-14
8.80211e-14
9.02636e-14
9.21523e-14
9.3691e-14
9.48885e-14
9.57585e-14
9.63181e-14
9.6587e-14
6.82225e-14
7.21894e-14
7.78845e-14
8.51153e-14
9.37151e-14
1.0352e-13
1.1436e-13
1.26053e-13
1.38406e-13
1.51215e-13
1.64275e-13
1.77378e-13
1.90325e-13
2.02928e-13
2.15017e-13
2.26442e-13
2.37075e-13
2.46816e-13
2.55586e-13
2.63335e-13
2.70033e-13
2.75674e-13
2.80268e-13
2.83842e-13
2.86439e-13
2.88108e-13
2.8891e-13
2.03954e-13
2.15828e-13
2.32871e-13
2.54506e-13
2.8023e-13
3.09553e-13
3.41962e-13
3.76911e-13
4.13819e-13
4.52079e-13
4.91073e-13
5.30185e-13
5.68817e-13
6.06413e-13
6.42463e-13
6.76522e-13
7.08215e-13
7.3724e-13
7.63369e-13
7.86451e-13
8.064e-13
8.23197e-13
8.36875e-13
8.47518e-13
8.55248e-13
8.60218e-13
8.62605e-13
6.09106e-13
6.4455e-13
6.95423e-13
7.5999e-13
8.36747e-13
9.24218e-13
1.02087e-12
1.12505e-12
1.23504e-12
1.34902e-12
1.46514e-12
1.58157e-12
1.69652e-12
1.80834e-12
1.91553e-12
2.01676e-12
2.11091e-12
2.19711e-12
2.27468e-12
2.34318e-12
2.40236e-12
2.45217e-12
2.49273e-12
2.52427e-12
2.54718e-12
2.5619e-12
2.56897e-12
1.81693e-12
1.92254e-12
2.07406e-12
2.26628e-12
2.49467e-12
2.7548e-12
3.04204e-12
3.35149e-12
3.67795e-12
4.01603e-12
4.36021e-12
4.70506e-12
5.04533e-12
5.37611e-12
5.69298e-12
5.99205e-12
6.27009e-12
6.52448e-12
6.75331e-12
6.95529e-12
7.12974e-12
7.27651e-12
7.39596e-12
7.48885e-12
7.55627e-12
7.59961e-12
7.62042e-12
5.40323e-12
5.71639e-12
6.16553e-12
6.73503e-12
7.41129e-12
8.18096e-12
9.03017e-12
9.94427e-12
1.09078e-11
1.19046e-11
1.29185e-11
1.39334e-11
1.49339e-11
1.59055e-11
1.68355e-11
1.77124e-11
1.85269e-11
1.92716e-11
1.99409e-11
2.05312e-11
2.10407e-11
2.14691e-11
2.18175e-11
2.20883e-11
2.22848e-11
2.2411e-11
2.24716e-11
1.60074e-11
1.69307e-11
1.82539e-11
1.99303e-11
2.19189e-11
2.41796e-11
2.66708e-11
2.93488e-11
3.21675e-11
3.50796e-11
3.80372e-11
4.09934e-11
4.39034e-11
4.67257e-11
4.94231e-11
5.19635e-11
5.43202e-11
5.64723e-11
5.84046e-11
6.01071e-11
6.15752e-11
6.28086e-11
6.3811e-11
6.45896e-11
6.51542e-11
6.55167e-11
6.56906e-11
4.71361e-11
4.98314e-11
5.36909e-11
5.85747e-11
6.43601e-11
7.09266e-11
7.81505e-11
8.59017e-11
9.4045e-11
1.02442e-10
1.10953e-10
1.19444e-10
1.27786e-10
1.35862e-10
1.43566e-10
1.50809e-10
1.57517e-10
1.63633e-10
1.69116e-10
1.7394e-10
1.78095e-10
1.81581e-10
1.84411e-10
1.86607e-10
1.88198e-10
1.89219e-10
1.89708e-10
1.37699e-10
1.45463e-10
1.56567e-10
1.70594e-10
1.87178e-10
2.05959e-10
2.26571e-10
2.48632e-10
2.71748e-10
2.95521e-10
3.19554e-10
3.43465e-10
3.66897e-10
3.89523e-10
4.11056e-10
4.31253e-10
4.49918e-10
4.669e-10
4.82095e-10
4.95441e-10
5.06916e-10
5.16529e-10
5.24323e-10
5.30363e-10
5.34733e-10
5.37534e-10
5.38876e-10
3.97932e-10
4.19885e-10
4.51226e-10
4.90731e-10
5.37314e-10
5.89914e-10
6.47458e-10
7.08842e-10
7.72942e-10
8.38635e-10
9.04819e-10
9.70446e-10
1.03454e-09
1.09624e-09
1.15478e-09
1.20953e-09
1.25998e-09
1.30577e-09
1.34665e-09
1.38247e-09
1.4132e-09
1.43891e-09
1.45971e-09
1.47581e-09
1.48744e-09
1.49489e-09
1.49845e-09
1.13387e-09
1.19443e-09
1.28069e-09
1.3891e-09
1.5165e-09
1.65982e-09
1.81597e-09
1.98185e-09
2.15432e-09
2.33033e-09
2.5069e-09
2.68126e-09
2.85089e-09
3.01354e-09
3.1673e-09
3.31062e-09
3.44228e-09
3.56142e-09
3.66747e-09
3.76018e-09
3.83954e-09
3.90577e-09
3.95928e-09
4.00061e-09
4.03043e-09
4.04949e-09
4.0586e-09
3.17219e-09
3.334e-09
3.56384e-09
3.8517e-09
4.18859e-09
4.56584e-09
4.9749e-09
5.40727e-09
5.8546e-09
6.30881e-09
6.76226e-09
7.20793e-09
7.63952e-09
8.0516e-09
8.4396e-09
8.79987e-09
9.12968e-09
9.42714e-09
9.69114e-09
9.9213e-09
1.01178e-08
1.02815e-08
1.04134e-08
1.05152e-08
1.05884e-08
1.06352e-08
1.06576e-08
8.67167e-09
9.08746e-09
9.67623e-09
1.04106e-08
1.1266e-08
1.2219e-08
1.32467e-08
1.4327e-08
1.54385e-08
1.6561e-08
1.76757e-08
1.87658e-08
1.98164e-08
2.08149e-08
2.17512e-08
2.26171e-08
2.3407e-08
2.4117e-08
2.47452e-08
2.52914e-08
2.57566e-08
2.61431e-08
2.64541e-08
2.66935e-08
2.68657e-08
2.69754e-08
2.70277e-08
2.30367e-08
2.40575e-08
2.54982e-08
2.72874e-08
2.93611e-08
3.1659e-08
3.41232e-08
3.66987e-08
3.93337e-08
4.19801e-08
4.45942e-08
4.71378e-08
4.95776e-08
5.18862e-08
5.40419e-08
5.60282e-08
5.78336e-08
5.94513e-08
6.08786e-08
6.21162e-08
6.31678e-08
6.40397e-08
6.47399e-08
6.52779e-08
6.56642e-08
6.59102e-08
6.60273e-08
5.91556e-08
6.154e-08
6.48937e-08
6.90412e-08
7.38249e-08
7.9098e-08
8.47223e-08
9.05689e-08
9.65186e-08
1.02463e-07
1.08306e-07
1.13965e-07
1.1937e-07
1.24463e-07
1.29201e-07
1.33551e-07
1.37493e-07
1.41015e-07
1.44114e-07
1.46795e-07
1.49069e-07
1.5095e-07
1.52458e-07
1.53615e-07
1.54445e-07
1.54973e-07
1.55224e-07
1.46178e-07
1.51469e-07
1.58889e-07
1.68031e-07
1.78529e-07
1.90047e-07
2.02275e-07
2.14924e-07
2.27737e-07
2.40482e-07
2.52956e-07
2.64988e-07
2.76436e-07
2.87187e-07
2.97157e-07
3.06285e-07
3.14533e-07
3.21885e-07
3.2834e-07
3.33913e-07
3.38631e-07
3.42528e-07
3.45648e-07
3.48039e-07
3.49752e-07
3.5084e-07
3.51357e-07
3.46655e-07
3.57836e-07
3.73478e-07
3.92688e-07
4.14671e-07
4.38699e-07
4.64107e-07
4.90291e-07
5.16712e-07
5.42898e-07
5.68439e-07
5.92997e-07
6.16293e-07
6.38112e-07
6.58292e-07
6.76724e-07
6.93346e-07
7.08132e-07
7.21093e-07
7.32265e-07
7.41708e-07
7.49499e-07
7.5573e-07
7.60499e-07
7.63912e-07
7.66079e-07
7.67108e-07
7.88385e-07
8.11006e-07
8.4259e-07
8.81288e-07
9.2545e-07
9.7358e-07
1.02432e-06
1.07646e-06
1.12891e-06
1.18074e-06
1.23117e-06
1.27953e-06
1.32529e-06
1.36805e-06
1.40752e-06
1.4435e-06
1.47589e-06
1.50466e-06
1.52983e-06
1.55151e-06
1.5698e-06
1.58489e-06
1.59693e-06
1.60615e-06
1.61274e-06
1.61692e-06
1.6189e-06
1.72094e-06
1.76504e-06
1.82653e-06
1.90174e-06
1.98739e-06
2.08053e-06
2.17852e-06
2.27897e-06
2.37982e-06
2.47928e-06
2.57585e-06
2.6683e-06
2.75564e-06
2.83713e-06
2.91225e-06
2.98064e-06
3.04213e-06
3.09668e-06
3.14438e-06
3.18541e-06
3.22002e-06
3.24853e-06
3.27128e-06
3.28868e-06
3.30111e-06
3.30899e-06
3.31274e-06
3.60814e-06
3.69164e-06
3.80799e-06
3.95015e-06
4.11191e-06
4.28765e-06
4.47234e-06
4.66151e-06
4.85125e-06
5.03823e-06
5.21963e-06
5.39315e-06
5.55697e-06
5.70973e-06
5.85043e-06
5.97847e-06
6.09353e-06
6.19555e-06
6.28472e-06
6.36137e-06
6.426e-06
6.4792e-06
6.52166e-06
6.5541e-06
6.57727e-06
6.59196e-06
6.59893e-06
7.27079e-06
7.42562e-06
7.64137e-06
7.90503e-06
8.20511e-06
8.53121e-06
8.87405e-06
9.22536e-06
9.57794e-06
9.92558e-06
1.02631e-05
1.05861e-05
1.08913e-05
1.11761e-05
1.14385e-05
1.16775e-05
1.18924e-05
1.20831e-05
1.22498e-05
1.23931e-05
1.2514e-05
1.26136e-05
1.26931e-05
1.27538e-05
1.27972e-05
1.28247e-05
1.28377e-05
1.40709e-05
1.43521e-05
1.47441e-05
1.52238e-05
1.57704e-05
1.63655e-05
1.69923e-05
1.76359e-05
1.82834e-05
1.89233e-05
1.95461e-05
2.01438e-05
2.071e-05
2.12397e-05
2.17292e-05
2.21762e-05
2.2579e-05
2.29374e-05
2.32514e-05
2.35222e-05
2.37511e-05
2.394e-05
2.4091e-05
2.42067e-05
2.42894e-05
2.4342e-05
2.43669e-05
2.6063e-05
2.65565e-05
2.72455e-05
2.80898e-05
2.90538e-05
3.01054e-05
3.12159e-05
3.23593e-05
3.3513e-05
3.46569e-05
3.57741e-05
3.68502e-05
3.78734e-05
3.88343e-05
3.97257e-05
4.05427e-05
4.12819e-05
4.19417e-05
4.25221e-05
4.30241e-05
4.34498e-05
4.38022e-05
4.40849e-05
4.43018e-05
4.44575e-05
4.45566e-05
4.46037e-05
4.59453e-05
4.67626e-05
4.79041e-05
4.93039e-05
5.09037e-05
5.26507e-05
5.44974e-05
5.64012e-05
5.83243e-05
6.02336e-05
6.21005e-05
6.39009e-05
6.56149e-05
6.72265e-05
6.87234e-05
7.00968e-05
7.1341e-05
7.24529e-05
7.34322e-05
7.42802e-05
7.50001e-05
7.55968e-05
7.60759e-05
7.6444e-05
7.67085e-05
7.68769e-05
7.69572e-05
7.65947e-05
7.7836e-05
7.95681e-05
8.16891e-05
8.41089e-05
8.67463e-05
8.95286e-05
9.23905e-05
9.52748e-05
9.81315e-05
0.000100918
0.000103598
0.000106144
0.000108531
0.000110743
0.000112767
0.000114597
0.000116229
0.000117663
0.000118902
0.000119953
0.000120822
0.000121518
0.000122053
0.000122437
0.000122681
0.000122797
0.000120049
0.000121743
0.000124101
0.000126979
0.000130251
0.000133802
0.000137532
0.000141349
0.000145178
0.00014895
0.000152611
0.000156114
0.000159425
0.000162514
0.000165362
0.000167958
0.000170294
0.000172368
0.000174183
0.000175747
0.000177067
0.000178156
0.000179027
0.000179693
0.00018017
0.000180473
0.000180617
0.000176448
0.000178519
0.000181393
0.000184888
0.000188844
0.000193115
0.000197577
0.000202119
0.000206648
0.000211084
0.000215365
0.000219438
0.000223266
0.00022682
0.000230081
0.000233038
0.000235687
0.00023803
0.000240073
0.000241826
0.000243302
0.000244516
0.000245484
0.000246223
0.000246751
0.000247085
0.000247244
0.000243732
0.000246028
0.000249207
0.000253059
0.0002574
0.000262068
0.00026692
0.000271836
0.000276713
0.000281468
0.000286035
0.000290361
0.000294409
0.000298152
0.000301574
0.000304665
0.000307427
0.000309862
0.000311979
0.000313793
0.000315316
0.000316566
0.000317562
0.000318321
0.000318863
0.000319206
0.000319369
0.00031838
0.000320739
0.000323997
0.000327936
0.000332363
0.000337108
0.000342025
0.000346989
0.000351899
0.000356671
0.00036124
0.000365557
0.000369586
0.000373302
0.000376692
0.00037975
0.000382476
0.000384877
0.000386963
0.000388746
0.000390244
0.000391472
0.000392449
0.000393195
0.000393726
0.000394063
0.000394222
0.000396612
0.00039891
0.00040208
0.000405908
0.000410203
0.000414799
0.000419554
0.000424347
0.000429079
0.000433673
0.000438065
0.00044221
0.000446074
0.000449636
0.000452883
0.00045581
0.000458419
0.000460715
0.00046271
0.000464416
0.000465849
0.000467024
0.00046796
0.000468673
0.000469182
0.000469505
0.000469658
0.000475288
0.000477455
0.000480446
0.000484054
0.000488101
0.00049243
0.000496906
0.000501416
0.000505869
0.000510189
0.00051432
0.000518218
0.000521853
0.000525204
0.000528259
0.000531014
0.000533471
0.000535635
0.000537515
0.000539124
0.000540476
0.000541585
0.000542469
0.000543144
0.000543625
0.000543931
0.000544076
0.000552235
0.000554248
0.000557026
0.000560378
0.000564139
0.000568162
0.000572324
0.000576519
0.000580662
0.000584685
0.000588533
0.000592167
0.000595557
0.000598685
0.000601539
0.000604114
0.000606412
0.000608438
0.0006102
0.000611708
0.000612977
0.000614019
0.000614849
0.000615484
0.000615937
0.000616224
0.000616361
0.000626179
0.00062804
0.000630608
0.00063371
0.00063719
0.000640916
0.000644773
0.000648664
0.000652509
0.000656246
0.000659823
0.000663204
0.000666361
0.000669277
0.000671939
0.000674343
0.00067649
0.000678384
0.000680033
0.000681446
0.000682634
0.000683611
0.000684391
0.000684986
0.000685412
0.000685682
0.000685811
0.00069649
0.000698214
0.000700595
0.000703471
0.0007067
0.000710159
0.000713741
0.000717357
0.000720934
0.000724412
0.000727744
0.000730896
0.000733842
0.000736564
0.000739051
0.0007413
0.000743309
0.000745083
0.000746627
0.000747952
0.000749067
0.000749984
0.000750716
0.000751275
0.000751676
0.00075193
0.00075205
0.000762991
0.000764596
0.000766812
0.00076949
0.000772499
0.000775724
0.000779066
0.000782441
0.000785782
0.000789032
0.000792148
0.000795097
0.000797855
0.000800405
0.000802737
0.000804846
0.000806731
0.000808397
0.000809847
0.000811092
0.00081214
0.000813003
0.000813692
0.000814218
0.000814595
0.000814834
0.000814948
0.000825755
0.000827255
0.000829328
0.000831834
0.000834651
0.000837671
0.000840803
0.000843967
0.000847101
0.000850151
0.000853077
0.000855848
0.00085844
0.000860837
0.00086303
0.000865015
0.00086679
0.000868358
0.000869725
0.000870898
0.000871886
0.000872699
0.000873349
0.000873845
0.000874201
0.000874427
0.000874534
0.000884968
0.000886377
0.000888325
0.000890681
0.00089333
0.000896172
0.000899119
0.000902099
0.00090505
0.000907924
0.000910682
0.000913294
0.000915739
0.000918001
0.000920072
0.000921945
0.000923621
0.000925103
0.000926394
0.000927503
0.000928436
0.000929205
0.000929819
0.000930289
0.000930625
0.000930839
0.00093094
0.000940872
0.000942202
0.000944041
0.000946265
0.000948767
0.000951451
0.000954236
0.000957052
0.000959842
0.00096256
0.000965169
0.00096764
0.000969954
0.000972095
0.000974056
0.00097583
0.000977417
0.000978821
0.000980044
0.000981094
0.000981979
0.000982708
0.00098329
0.000983735
0.000984054
0.000984256
0.000984353
0.000993726
0.000994987
0.000996729
0.000998837
0.00100121
0.00100375
0.00100639
0.00100906
0.00101171
0.00101429
0.00101676
0.00101911
0.00102131
0.00102334
0.0010252
0.00102689
0.00102839
0.00102973
0.00103089
0.00103189
0.00103273
0.00103342
0.00103397
0.0010344
0.0010347
0.00103489
0.00103498
0.00104379
0.00104499
0.00104664
0.00104865
0.0010509
0.00105332
0.00105583
0.00105837
0.00106089
0.00106334
0.0010657
0.00106793
0.00107002
0.00107196
0.00107373
0.00107534
0.00107677
0.00107804
0.00107915
0.0010801
0.0010809
0.00108156
0.00108208
0.00108249
0.00108278
0.00108296
0.00108305
0.0010913
0.00109244
0.00109402
0.00109593
0.00109808
0.00110039
0.00110279
0.00110521
0.00110761
0.00110995
0.0011122
0.00111433
0.00111633
0.00111817
0.00111986
0.0011214
0.00112277
0.00112398
0.00112503
0.00112594
0.0011267
0.00112733
0.00112784
0.00112822
0.0011285
0.00112867
0.00112875
0.00113649
0.00113758
0.00113909
0.00114092
0.00114298
0.00114518
0.00114747
0.00114979
0.00115208
0.00115432
0.00115647
0.00115851
0.00116042
0.00116219
0.0011638
0.00116527
0.00116658
0.00116774
0.00116875
0.00116962
0.00117035
0.00117095
0.00117143
0.0011718
0.00117206
0.00117223
0.00117231
0.00117957
0.00118061
0.00118206
0.00118381
0.00118578
0.00118789
0.00119009
0.00119231
0.00119451
0.00119665
0.00119871
0.00120067
0.0012025
0.00120419
0.00120574
0.00120714
0.0012084
0.00120951
0.00121048
0.00121131
0.00121201
0.00121259
0.00121305
0.0012134
0.00121365
0.00121381
0.00121389
0.00122071
0.00122172
0.0012231
0.00122478
0.00122667
0.0012287
0.00123081
0.00123294
0.00123506
0.00123712
0.0012391
0.00124097
0.00124273
0.00124436
0.00124584
0.00124719
0.0012484
0.00124947
0.0012504
0.0012512
0.00125187
0.00125242
0.00125286
0.0012532
0.00125344
0.0012536
0.00125367
0.0012601
0.00126106
0.0012624
0.00126401
0.00126583
0.00126778
0.00126981
0.00127186
0.0012739
0.00127588
0.00127778
0.00127959
0.00128128
0.00128285
0.00128428
0.00128558
0.00128674
0.00128776
0.00128866
0.00128943
0.00129007
0.00129061
0.00129103
0.00129136
0.00129159
0.00129174
0.00129181
0.00129787
0.0012988
0.00130009
0.00130165
0.0013034
0.00130528
0.00130724
0.00130921
0.00131118
0.00131309
0.00131492
0.00131666
0.00131829
0.0013198
0.00132118
0.00132243
0.00132355
0.00132454
0.00132541
0.00132615
0.00132677
0.00132728
0.00132769
0.00132801
0.00132823
0.00132838
0.00132844
0.00133418
0.00133508
0.00133632
0.00133782
0.00133952
0.00134133
0.00134322
0.00134513
0.00134702
0.00134887
0.00135064
0.00135232
0.0013539
0.00135536
0.00135669
0.0013579
0.00135898
0.00135993
0.00136077
0.00136148
0.00136209
0.00136258
0.00136298
0.00136328
0.0013635
0.00136363
0.0013637
0.00136914
0.00137001
0.00137121
0.00137266
0.0013743
0.00137606
0.00137788
0.00137973
0.00138156
0.00138335
0.00138507
0.00138669
0.00138821
0.00138962
0.00139091
0.00139208
0.00139313
0.00139405
0.00139486
0.00139555
0.00139613
0.00139661
0.001397
0.00139729
0.0013975
0.00139763
0.0013977
0.00140286
0.0014037
0.00140487
0.00140628
0.00140787
0.00140957
0.00141134
0.00141313
0.0014149
0.00141663
0.0014183
0.00141987
0.00142135
0.00142271
0.00142396
0.00142509
0.00142611
0.001427
0.00142778
0.00142845
0.00142902
0.00142948
0.00142985
0.00143014
0.00143034
0.00143047
0.00143053
0.00143545
0.00143627
0.0014374
0.00143877
0.00144031
0.00144196
0.00144368
0.00144542
0.00144714
0.00144882
0.00145043
0.00145196
0.00145339
0.00145472
0.00145593
0.00145703
0.00145801
0.00145888
0.00145964
0.00146029
0.00146084
0.00146129
0.00146165
0.00146192
0.00146212
0.00146225
0.00146231
0.00146701
0.0014678
0.0014689
0.00147023
0.00147172
0.00147333
0.001475
0.00147669
0.00147836
0.00147999
0.00148156
0.00148304
0.00148444
0.00148572
0.0014869
0.00148797
0.00148893
0.00148977
0.00149051
0.00149114
0.00149167
0.00149211
0.00149246
0.00149273
0.00149292
0.00149304
0.0014931
0.0014976
0.00149837
0.00149944
0.00150073
0.00150219
0.00150375
0.00150537
0.00150702
0.00150865
0.00151023
0.00151176
0.0015132
0.00151456
0.00151581
0.00151696
0.001518
0.00151893
0.00151975
0.00152047
0.00152108
0.0015216
0.00152203
0.00152237
0.00152263
0.00152281
0.00152293
0.00152299
0.0015273
0.00152805
0.0015291
0.00153036
0.00153177
0.0015333
0.00153488
0.00153648
0.00153807
0.00153961
0.0015411
0.00154251
0.00154383
0.00154505
0.00154617
0.00154718
0.00154809
0.00154889
0.00154958
0.00155018
0.00155069
0.0015511
0.00155144
0.00155169
0.00155187
0.00155199
0.00155204
0.00155619
0.00155692
0.00155794
0.00155917
0.00156055
0.00156204
0.00156358
0.00156514
0.00156669
0.0015682
0.00156965
0.00157102
0.00157231
0.0015735
0.00157459
0.00157558
0.00157646
0.00157724
0.00157792
0.00157851
0.001579
0.00157941
0.00157973
0.00157998
0.00158015
0.00158027
0.00158032
0.00158431
0.00158503
0.00158602
0.00158722
0.00158857
0.00159002
0.00159153
0.00159305
0.00159457
0.00159604
0.00159746
0.0015988
0.00160006
0.00160122
0.00160228
0.00160325
0.00160411
0.00160488
0.00160554
0.00160611
0.00160659
0.00160699
0.0016073
0.00160755
0.00160772
0.00160783
0.00160788
0.00161173
0.00161243
0.0016134
0.00161457
0.00161589
0.00161731
0.00161878
0.00162027
0.00162175
0.00162319
0.00162458
0.00162589
0.00162712
0.00162826
0.0016293
0.00163024
0.00163109
0.00163183
0.00163248
0.00163304
0.00163351
0.0016339
0.00163421
0.00163444
0.00163461
0.00163472
0.00163477
0.00163848
0.00163917
0.00164012
0.00164126
0.00164256
0.00164394
0.00164539
0.00164685
0.00164829
0.0016497
0.00165106
0.00165234
0.00165354
0.00165466
0.00165568
0.0016566
0.00165742
0.00165815
0.00165879
0.00165934
0.0016598
0.00166017
0.00166048
0.00166071
0.00166087
0.00166098
0.00166103
0.00166461
0.00166529
0.00166622
0.00166734
0.00166861
0.00166997
0.00167138
0.00167281
0.00167422
0.0016756
0.00167693
0.00167819
0.00167936
0.00168045
0.00168145
0.00168236
0.00168316
0.00168388
0.0016845
0.00168504
0.00168549
0.00168586
0.00168615
0.00168638
0.00168654
0.00168665
0.00168669
0.00169016
0.00169082
0.00169173
0.00169283
0.00169407
0.00169541
0.00169679
0.00169819
0.00169958
0.00170093
0.00170223
0.00170346
0.00170462
0.00170568
0.00170666
0.00170755
0.00170834
0.00170904
0.00170965
0.00171017
0.00171061
0.00171098
0.00171127
0.00171149
0.00171165
0.00171175
0.0017118
0.00171515
0.0017158
0.00171669
0.00171777
0.00171899
0.00172029
0.00172165
0.00172302
0.00172438
0.00172571
0.00172698
0.00172819
0.00172932
0.00173037
0.00173133
0.00173219
0.00173297
0.00173366
0.00173426
0.00173477
0.0017352
0.00173556
0.00173584
0.00173606
0.00173621
0.00173631
0.00173636
0.00173961
0.00174024
0.00174112
0.00174218
0.00174337
0.00174465
0.00174598
0.00174732
0.00174866
0.00174996
0.00175121
0.00175239
0.0017535
0.00175453
0.00175547
0.00175632
0.00175708
0.00175775
0.00175834
0.00175884
0.00175927
0.00175962
0.00175989
0.00176011
0.00176026
0.00176036
0.0017604
0.00176355
0.00176417
0.00176502
0.00176606
0.00176723
0.00176849
0.00176979
0.00177111
0.00177242
0.00177369
0.00177492
0.00177608
0.00177717
0.00177817
0.0017791
0.00177993
0.00178068
0.00178134
0.00178191
0.0017824
0.00178282
0.00178316
0.00178344
0.00178364
0.00178379
0.00178389
0.00178393
0.00178697
0.00178758
0.00178842
0.00178944
0.00179059
0.00179182
0.0017931
0.00179439
0.00179567
0.00179692
0.00179812
0.00179926
0.00180033
0.00180131
0.00180222
0.00180303
0.00180377
0.00180441
0.00180498
0.00180546
0.00180587
0.0018062
0.00180647
0.00180667
0.00180682
0.00180691
0.00180696
0.0018099
0.00181049
0.00181132
0.00181231
0.00181344
0.00181464
0.0018159
0.00181716
0.00181842
0.00181964
0.00182082
0.00182193
0.00182298
0.00182394
0.00182483
0.00182563
0.00182635
0.00182698
0.00182753
0.001828
0.0018284
0.00182873
0.00182899
0.00182919
0.00182934
0.00182943
0.00182947
0.0018323
0.00183289
0.0018337
0.00183467
0.00183577
0.00183695
0.00183818
0.00183942
0.00184065
0.00184185
0.001843
0.00184409
0.00184511
0.00184605
0.00184692
0.0018477
0.0018484
0.00184902
0.00184956
0.00185003
0.00185042
0.00185074
0.00185099
0.00185119
0.00185133
0.00185142
0.00185146
0.00185419
0.00185476
0.00185555
0.0018565
0.00185758
0.00185873
0.00185993
0.00186114
0.00186234
0.00186351
0.00186464
0.0018657
0.0018667
0.00186762
0.00186847
0.00186923
0.00186992
0.00187052
0.00187105
0.0018715
0.00187188
0.00187219
0.00187245
0.00187264
0.00187277
0.00187286
0.0018729
0.00187552
0.00187607
0.00187684
0.00187777
0.00187882
0.00187995
0.00188111
0.0018823
0.00188347
0.00188461
0.00188571
0.00188674
0.00188772
0.00188862
0.00188944
0.00189019
0.00189085
0.00189144
0.00189196
0.0018924
0.00189277
0.00189307
0.00189332
0.0018935
0.00189364
0.00189372
0.00189376
0.00189626
0.0018968
0.00189755
0.00189845
0.00189947
0.00190057
0.0019017
0.00190285
0.00190399
0.0019051
0.00190617
0.00190718
0.00190812
0.001909
0.0019098
0.00191052
0.00191117
0.00191174
0.00191224
0.00191267
0.00191303
0.00191333
0.00191356
0.00191374
0.00191387
0.00191396
0.00191399
0.00191636
0.00191689
0.00191761
0.00191849
0.00191948
0.00192054
0.00192164
0.00192276
0.00192386
0.00192493
0.00192597
0.00192694
0.00192786
0.00192871
0.00192948
0.00193018
0.00193081
0.00193136
0.00193185
0.00193226
0.00193261
0.0019329
0.00193312
0.0019333
0.00193342
0.0019335
0.00193354
0.00193577
0.00193628
0.00193698
0.00193783
0.00193878
0.0019398
0.00194087
0.00194194
0.001943
0.00194404
0.00194504
0.00194598
0.00194686
0.00194768
0.00194842
0.0019491
0.0019497
0.00195024
0.0019507
0.0019511
0.00195143
0.00195171
0.00195193
0.0019521
0.00195222
0.0019523
0.00195233
0.00195441
0.0019549
0.00195557
0.00195639
0.0019573
0.00195828
0.0019593
0.00196033
0.00196135
0.00196234
0.0019633
0.0019642
0.00196504
0.00196583
0.00196654
0.00196719
0.00196776
0.00196827
0.00196872
0.0019691
0.00196942
0.00196969
0.0019699
0.00197006
0.00197017
0.00197025
0.00197028
0.0019722
0.00197266
0.0019733
0.00197408
0.00197495
0.00197588
0.00197685
0.00197783
0.0019788
0.00197975
0.00198066
0.00198151
0.00198232
0.00198306
0.00198374
0.00198435
0.0019849
0.00198538
0.00198581
0.00198617
0.00198647
0.00198672
0.00198692
0.00198708
0.00198719
0.00198725
0.00198729
0.00198903
0.00198947
0.00199007
0.0019908
0.00199163
0.00199251
0.00199342
0.00199435
0.00199526
0.00199615
0.00199701
0.00199782
0.00199857
0.00199927
0.00199991
0.00200049
0.002001
0.00200146
0.00200186
0.0020022
0.00200248
0.00200272
0.0020029
0.00200305
0.00200315
0.00200322
0.00200325
0.0020048
0.00200521
0.00200577
0.00200646
0.00200723
0.00200805
0.0020089
0.00200976
0.00201062
0.00201145
0.00201224
0.002013
0.0020137
0.00201435
0.00201494
0.00201548
0.00201596
0.00201638
0.00201675
0.00201707
0.00201733
0.00201755
0.00201773
0.00201786
0.00201795
0.00201801
0.00201804
0.0020194
0.00201977
0.00202029
0.00202093
0.00202163
0.00202239
0.00202318
0.00202397
0.00202475
0.00202552
0.00202625
0.00202694
0.00202758
0.00202818
0.00202873
0.00202922
0.00202966
0.00203004
0.00203038
0.00203067
0.00203091
0.00203111
0.00203127
0.00203139
0.00203148
0.00203154
0.00203156
0.00203271
0.00203305
0.00203353
0.0020341
0.00203474
0.00203543
0.00203614
0.00203686
0.00203757
0.00203825
0.00203891
0.00203954
0.00204012
0.00204066
0.00204115
0.00204159
0.00204199
0.00204234
0.00204264
0.0020429
0.00204312
0.0020433
0.00204344
0.00204355
0.00204363
0.00204368
0.0020437
0.00204464
0.00204495
0.00204537
0.00204588
0.00204645
0.00204706
0.00204769
0.00204833
0.00204896
0.00204957
0.00205015
0.0020507
0.00205122
0.00205169
0.00205213
0.00205252
0.00205286
0.00205317
0.00205344
0.00205367
0.00205386
0.00205402
0.00205414
0.00205424
0.00205431
0.00205435
0.00205437
0.00205512
0.00205538
0.00205575
0.00205619
0.00205669
0.00205722
0.00205777
0.00205832
0.00205886
0.00205939
0.0020599
0.00206037
0.00206082
0.00206123
0.0020616
0.00206193
0.00206223
0.0020625
0.00206273
0.00206292
0.00206309
0.00206322
0.00206333
0.00206341
0.00206347
0.00206351
0.00206353
0.00206409
0.00206432
0.00206463
0.002065
0.00206542
0.00206587
0.00206633
0.0020668
0.00206726
0.0020677
0.00206813
0.00206853
0.0020689
0.00206924
0.00206955
0.00206984
0.00207009
0.00207031
0.0020705
0.00207066
0.0020708
0.00207091
0.002071
0.00207107
0.00207112
0.00207115
0.00207116
0.00207157
0.00207176
0.00207201
0.00207232
0.00207266
0.00207303
0.00207341
0.00207379
0.00207417
0.00207453
0.00207487
0.0020752
0.0020755
0.00207578
0.00207603
0.00207626
0.00207646
0.00207664
0.00207679
0.00207692
0.00207703
0.00207712
0.0020772
0.00207725
0.00207729
0.00207731
0.00207733
0.00207761
0.00207776
0.00207796
0.00207821
0.00207848
0.00207877
0.00207907
0.00207937
0.00207966
0.00207995
0.00208022
0.00208047
0.00208071
0.00208092
0.00208112
0.0020813
0.00208145
0.00208159
0.00208171
0.00208181
0.0020819
0.00208197
0.00208202
0.00208207
0.0020821
0.00208211
0.00208212
0.00208233
0.00208244
0.0020826
0.00208278
0.00208299
0.00208321
0.00208343
0.00208366
0.00208388
0.00208409
0.0020843
0.00208449
0.00208466
0.00208482
0.00208497
0.0020851
0.00208522
0.00208532
0.00208541
0.00208548
0.00208554
0.00208559
0.00208564
0.00208567
0.00208569
0.0020857
0.00208571
0.00208587
0.00208595
0.00208606
0.0020862
0.00208635
0.0020865
0.00208667
0.00208683
0.00208699
0.00208714
0.00208728
0.00208742
0.00208754
0.00208766
0.00208776
0.00208785
0.00208793
0.002088
0.00208806
0.00208811
0.00208816
0.00208819
0.00208822
0.00208824
0.00208826
0.00208827
0.00208827
0.00208842
0.00208847
0.00208855
0.00208864
0.00208874
0.00208885
0.00208896
0.00208907
0.00208918
0.00208928
0.00208937
0.00208946
0.00208955
0.00208962
0.00208969
0.00208975
0.0020898
0.00208984
0.00208988
0.00208992
0.00208994
0.00208997
0.00208998
0.00209
0.00209001
0.00209001
0.00209002
0.00209017
0.00209021
0.00209026
0.00209031
0.00209038
0.00209045
0.00209051
0.00209058
0.00209065
0.00209071
0.00209077
0.00209083
0.00209088
0.00209092
0.00209096
0.002091
0.00209103
0.00209106
0.00209108
0.0020911
0.00209112
0.00209113
0.00209114
0.00209115
0.00209115
0.00209116
0.00209116
0.00209133
0.00209135
0.00209137
0.00209141
0.00209144
0.00209148
0.00209152
0.00209156
0.00209159
0.00209163
0.00209166
0.00209168
0.00209171
0.00209173
0.00209175
0.00209177
0.00209178
0.00209179
0.0020918
0.00209181
0.00209181
0.00209182
0.00209182
0.00209183
0.00209183
0.00209183
0.00209183
0.00209203
0.00209204
0.00209205
0.00209206
0.00209208
0.00209209
0.0020921
0.00209211
0.00209212
0.00209213
0.00209214
0.00209215
0.00209215
0.00209215
0.00209215
0.00209216
0.00209216
0.00209215
0.00209215
0.00209215
0.00209215
0.00209215