/*--------------------------------*- C++ -*----------------------------------*\
| =========                 |                                                 |
| \\      /  F ield         | OpenFOAM: The Open Source CFD Toolbox           |
|  \\    /   O peration     | Version:  2106                                  |
|   \\  /    A nd           | Website:  www.openfoam.com                      |
|    \\/     M anipulation  |                                                 |
\*---------------------------------------------------------------------------*/
FoamFile
{
    version     2.0;
    format      ascii;
    arch        "LSB;label=32;scalar=64";
    class       volScalarField;
    location    "149.99958";
    object      C4H612;
}
// * * * * * * * * * * * * * * * * * * * * * * * * * * * * * * * * * * * * * //

dimensions      [0 0 0 0 0 0 0];

internalField   nonuniform List<scalar> 
3360
(
1.06937e-18
1.10379e-18
1.15167e-18
1.21025e-18
1.27707e-18
1.34994e-18
1.42689e-18
1.50613e-18
1.58606e-18
1.66528e-18
1.74258e-18
1.81692e-18
1.88744e-18
1.95347e-18
2.01449e-18
2.07014e-18
2.12019e-18
2.16456e-18
2.20325e-18
2.23638e-18
2.26416e-18
2.28685e-18
2.30477e-18
2.31828e-18
2.32779e-18
2.33371e-18
2.33645e-18
4.69107e-18
4.86348e-18
5.10679e-18
5.40979e-18
5.76319e-18
6.15891e-18
6.58971e-18
7.04897e-18
7.53054e-18
8.02858e-18
8.53752e-18
9.05193e-18
9.56643e-18
1.00757e-17
1.05747e-17
1.10581e-17
1.1521e-17
1.19585e-17
1.23659e-17
1.2739e-17
1.30737e-17
1.33664e-17
1.36142e-17
1.38145e-17
1.39657e-17
1.40667e-17
1.41171e-17
1.47189e-17
1.53649e-17
1.62828e-17
1.74362e-17
1.87949e-17
2.03317e-17
2.20208e-17
2.38368e-17
2.57538e-17
2.77457e-17
2.97855e-17
3.18466e-17
3.39025e-17
3.59271e-17
3.78953e-17
3.9783e-17
4.15681e-17
4.32307e-17
4.47535e-17
4.61223e-17
4.7326e-17
4.83567e-17
4.92099e-17
4.98844e-17
5.03816e-17
5.07058e-17
5.08636e-17
4.28657e-17
4.49947e-17
4.80403e-17
5.18936e-17
5.64634e-17
6.16645e-17
6.74116e-17
7.36162e-17
8.01856e-17
8.70224e-17
9.40257e-17
1.01093e-16
1.08123e-16
1.15017e-16
1.21679e-16
1.28025e-16
1.33977e-16
1.39471e-16
1.44453e-16
1.48886e-16
1.52743e-16
1.5601e-16
1.58686e-16
1.60779e-16
1.62306e-16
1.63292e-16
1.63768e-16
1.25237e-16
1.31953e-16
1.41579e-16
1.53786e-16
1.68295e-16
1.84838e-16
2.03138e-16
2.22905e-16
2.43825e-16
2.65572e-16
2.87805e-16
3.10183e-16
3.32369e-16
3.54043e-16
3.74908e-16
3.94698e-16
4.13183e-16
4.30175e-16
4.45525e-16
4.59131e-16
4.70926e-16
4.80886e-16
4.89018e-16
4.95361e-16
4.99978e-16
5.02952e-16
5.04383e-16
3.69256e-16
3.89881e-16
4.19479e-16
4.57046e-16
5.01722e-16
5.52673e-16
6.0904e-16
6.69904e-16
7.34286e-16
8.01154e-16
8.69445e-16
9.38091e-16
1.00605e-15
1.07233e-15
1.13603e-15
1.19633e-15
1.25256e-15
1.30415e-15
1.35067e-15
1.39183e-15
1.42746e-15
1.45749e-15
1.48198e-15
1.50105e-15
1.51491e-15
1.52383e-15
1.52812e-15
1.09686e-15
1.15954e-15
1.24947e-15
1.36362e-15
1.49936e-15
1.65414e-15
1.82529e-15
2.00999e-15
2.20523e-15
2.40783e-15
2.61456e-15
2.82217e-15
3.02749e-15
3.22755e-15
3.41963e-15
3.60133e-15
3.7706e-15
3.92579e-15
4.06565e-15
4.18932e-15
4.29631e-15
4.38646e-15
4.45994e-15
4.51715e-15
4.55873e-15
4.58548e-15
4.59834e-15
3.26898e-15
3.45755e-15
3.7283e-15
4.07206e-15
4.48095e-15
4.94725e-15
5.46292e-15
6.01938e-15
6.60747e-15
7.21763e-15
7.84001e-15
8.46481e-15
9.08251e-15
9.68413e-15
1.02615e-14
1.08074e-14
1.13158e-14
1.17816e-14
1.22013e-14
1.25722e-14
1.28929e-14
1.31631e-14
1.33832e-14
1.35545e-14
1.36789e-14
1.37589e-14
1.37974e-14
9.76822e-15
1.03349e-14
1.11484e-14
1.21812e-14
1.34095e-14
1.48099e-14
1.63583e-14
1.80286e-14
1.97934e-14
2.16237e-14
2.349e-14
2.53629e-14
2.72138e-14
2.90161e-14
3.07451e-14
3.23795e-14
3.39011e-14
3.52952e-14
3.65508e-14
3.76605e-14
3.86199e-14
3.9428e-14
4.00864e-14
4.05988e-14
4.0971e-14
4.12104e-14
4.13254e-14
2.91895e-14
3.08867e-14
3.33235e-14
3.64172e-14
4.00967e-14
4.42919e-14
4.89298e-14
5.39328e-14
5.92179e-14
6.46986e-14
7.02862e-14
7.58925e-14
8.1432e-14
8.68244e-14
9.19968e-14
9.68849e-14
1.01434e-13
1.05602e-13
1.09354e-13
1.1267e-13
1.15536e-13
1.17949e-13
1.19915e-13
1.21444e-13
1.22555e-13
1.23269e-13
1.23612e-13
8.72631e-14
9.23435e-14
9.96357e-14
1.08892e-13
1.19899e-13
1.32445e-13
1.46311e-13
1.61264e-13
1.77055e-13
1.93425e-13
2.10109e-13
2.26843e-13
2.43373e-13
2.59458e-13
2.74882e-13
2.89455e-13
3.03015e-13
3.15433e-13
3.26613e-13
3.36489e-13
3.45024e-13
3.52211e-13
3.58063e-13
3.62617e-13
3.65924e-13
3.6805e-13
3.69072e-13
2.6061e-13
2.75776e-13
2.97542e-13
3.25167e-13
3.58008e-13
3.95433e-13
4.36785e-13
4.81362e-13
5.28422e-13
5.77189e-13
6.26872e-13
6.76685e-13
7.25869e-13
7.73713e-13
8.19573e-13
8.62884e-13
9.03169e-13
9.40049e-13
9.73238e-13
1.00255e-12
1.02787e-12
1.04918e-12
1.06653e-12
1.08003e-12
1.08983e-12
1.09613e-12
1.09915e-12
7.77385e-13
8.22571e-13
8.874e-13
9.69643e-13
1.06736e-12
1.17866e-12
1.30156e-12
1.43396e-12
1.57364e-12
1.71829e-12
1.86555e-12
2.01309e-12
2.15868e-12
2.30021e-12
2.43578e-12
2.56374e-12
2.6827e-12
2.79155e-12
2.88945e-12
2.97587e-12
3.05051e-12
3.11331e-12
3.16441e-12
3.20416e-12
3.23301e-12
3.25155e-12
3.26045e-12
2.31181e-12
2.4458e-12
2.63797e-12
2.88163e-12
3.17097e-12
3.50028e-12
3.86363e-12
4.25473e-12
4.66697e-12
5.09348e-12
5.52729e-12
5.96152e-12
6.38957e-12
6.8053e-12
7.20318e-12
7.57838e-12
7.92687e-12
8.24548e-12
8.53184e-12
8.78442e-12
9.00241e-12
9.1857e-12
9.33479e-12
9.45066e-12
9.53472e-12
9.58873e-12
9.61466e-12
6.84887e-12
7.24391e-12
7.81007e-12
8.52733e-12
9.37818e-12
1.03454e-11
1.14113e-11
1.25571e-11
1.37631e-11
1.50091e-11
1.62745e-11
1.75393e-11
1.87844e-11
1.99919e-11
2.1146e-11
2.2233e-11
2.32413e-11
2.41621e-11
2.49888e-11
2.57173e-11
2.63454e-11
2.68731e-11
2.7302e-11
2.76351e-11
2.78767e-11
2.80318e-11
2.81062e-11
2.01676e-11
2.13207e-11
2.29721e-11
2.50616e-11
2.75369e-11
3.03465e-11
3.34373e-11
3.67537e-11
4.02379e-11
4.38305e-11
4.74722e-11
5.11051e-11
5.46743e-11
5.81295e-11
6.14258e-11
6.45248e-11
6.73949e-11
7.00116e-11
7.23575e-11
7.44217e-11
7.61992e-11
7.76908e-11
7.89017e-11
7.98413e-11
8.05219e-11
8.09586e-11
8.11679e-11
5.89154e-11
6.22375e-11
6.69883e-11
7.299e-11
8.00855e-11
8.81213e-11
9.69403e-11
1.06379e-10
1.1627e-10
1.26441e-10
1.36724e-10
1.46954e-10
1.5698e-10
1.6666e-10
1.75873e-10
1.84515e-10
1.92501e-10
1.99767e-10
2.06268e-10
2.11978e-10
2.16888e-10
2.21001e-10
2.24336e-10
2.2692e-10
2.2879e-10
2.29988e-10
2.30562e-10
1.70259e-10
1.79651e-10
1.93061e-10
2.09963e-10
2.29894e-10
2.524e-10
2.7702e-10
3.03284e-10
3.3071e-10
3.58817e-10
3.87134e-10
4.15213e-10
4.42638e-10
4.69035e-10
4.94081e-10
5.17505e-10
5.39093e-10
5.58685e-10
5.76173e-10
5.915e-10
6.0465e-10
6.15648e-10
6.24549e-10
6.31436e-10
6.36413e-10
6.39599e-10
6.41124e-10
4.85138e-10
5.11048e-10
5.47955e-10
5.9434e-10
6.48849e-10
7.10169e-10
7.7698e-10
8.47952e-10
9.21748e-10
9.97053e-10
1.0726e-09
1.1472e-09
1.21978e-09
1.28937e-09
1.35516e-09
1.41648e-09
1.47281e-09
1.52378e-09
1.56916e-09
1.60883e-09
1.64278e-09
1.67112e-09
1.69401e-09
1.7117e-09
1.72446e-09
1.73261e-09
1.73651e-09
1.35726e-09
1.42649e-09
1.52483e-09
1.648e-09
1.79214e-09
1.95355e-09
2.12857e-09
2.31356e-09
2.50496e-09
2.6993e-09
2.89331e-09
3.08399e-09
3.26866e-09
3.44497e-09
3.61098e-09
3.76513e-09
3.90624e-09
4.03351e-09
4.14647e-09
4.24494e-09
4.32903e-09
4.39905e-09
4.4555e-09
4.49903e-09
4.53039e-09
4.5504e-09
4.55996e-09
3.71031e-09
3.88821e-09
4.14013e-09
4.45435e-09
4.82034e-09
5.22809e-09
5.66783e-09
6.13006e-09
6.60564e-09
7.08591e-09
7.56287e-09
8.02927e-09
8.47879e-09
8.90604e-09
9.30662e-09
9.67713e-09
1.00151e-08
1.03189e-08
1.05877e-08
1.08214e-08
1.10204e-08
1.11858e-08
1.13189e-08
1.14213e-08
1.1495e-08
1.15419e-08
1.15643e-08
9.85678e-09
1.02936e-08
1.091e-08
1.16756e-08
1.25629e-08
1.35461e-08
1.46005e-08
1.57026e-08
1.683e-08
1.79624e-08
1.90809e-08
2.01693e-08
2.12132e-08
2.22011e-08
2.31235e-08
2.39734e-08
2.47459e-08
2.54381e-08
2.60488e-08
2.65784e-08
2.70284e-08
2.74014e-08
2.7701e-08
2.79312e-08
2.80966e-08
2.82018e-08
2.82519e-08
2.53121e-08
2.63324e-08
2.77675e-08
2.95423e-08
3.15894e-08
3.38458e-08
3.62526e-08
3.87545e-08
4.13005e-08
4.38443e-08
4.63448e-08
4.87664e-08
5.10791e-08
5.32587e-08
5.52862e-08
5.71479e-08
5.88348e-08
6.03419e-08
6.16682e-08
6.28156e-08
6.37885e-08
6.45936e-08
6.5239e-08
6.57342e-08
6.60893e-08
6.63151e-08
6.64226e-08
6.25525e-08
6.48171e-08
6.7993e-08
7.19057e-08
7.63992e-08
8.13294e-08
8.6563e-08
9.19776e-08
9.74619e-08
1.02917e-07
1.08256e-07
1.13406e-07
1.18306e-07
1.22909e-07
1.27176e-07
1.31083e-07
1.34613e-07
1.3776e-07
1.40523e-07
1.42909e-07
1.44928e-07
1.46596e-07
1.47932e-07
1.48955e-07
1.49688e-07
1.50154e-07
1.50375e-07
1.48357e-07
1.53146e-07
1.59845e-07
1.68072e-07
1.77488e-07
1.87779e-07
1.98662e-07
2.09877e-07
2.21194e-07
2.32411e-07
2.43351e-07
2.5387e-07
2.63849e-07
2.73195e-07
2.81839e-07
2.89735e-07
2.96855e-07
3.03189e-07
3.0874e-07
3.13526e-07
3.17571e-07
3.20909e-07
3.23578e-07
3.25621e-07
3.27083e-07
3.28011e-07
3.28452e-07
3.37441e-07
3.47145e-07
3.60693e-07
3.77295e-07
3.96242e-07
4.16894e-07
4.38669e-07
4.61045e-07
4.83561e-07
5.05816e-07
5.27469e-07
5.48237e-07
5.67894e-07
5.86265e-07
6.03225e-07
6.18688e-07
6.3261e-07
6.44976e-07
6.55801e-07
6.6512e-07
6.72988e-07
6.79474e-07
6.84655e-07
6.88619e-07
6.91453e-07
6.93251e-07
6.94105e-07
7.36606e-07
7.55597e-07
7.82082e-07
8.14481e-07
8.51392e-07
8.91547e-07
9.33803e-07
9.7714e-07
1.02067e-06
1.06361e-06
1.10532e-06
1.14525e-06
1.183e-06
1.21822e-06
1.2507e-06
1.28027e-06
1.30686e-06
1.33046e-06
1.3511e-06
1.36884e-06
1.38382e-06
1.39615e-06
1.406e-06
1.41352e-06
1.4189e-06
1.42231e-06
1.42393e-06
1.54411e-06
1.58032e-06
1.63079e-06
1.69249e-06
1.76273e-06
1.83908e-06
1.91935e-06
2.00161e-06
2.08416e-06
2.16555e-06
2.24453e-06
2.3201e-06
2.39147e-06
2.45803e-06
2.51935e-06
2.57514e-06
2.62528e-06
2.66974e-06
2.70859e-06
2.74198e-06
2.77013e-06
2.7933e-06
2.81178e-06
2.8259e-06
2.83599e-06
2.84237e-06
2.8454e-06
3.10388e-06
3.1716e-06
3.26602e-06
3.38149e-06
3.513e-06
3.65604e-06
3.80654e-06
3.96087e-06
4.11586e-06
4.26876e-06
4.41725e-06
4.55941e-06
4.69373e-06
4.81903e-06
4.9345e-06
5.03957e-06
5.13398e-06
5.21767e-06
5.29077e-06
5.35355e-06
5.40644e-06
5.44992e-06
5.48458e-06
5.51101e-06
5.52986e-06
5.54179e-06
5.54744e-06
5.94807e-06
6.0716e-06
6.24403e-06
6.45526e-06
6.69632e-06
6.9591e-06
7.23628e-06
7.52127e-06
7.80828e-06
8.09219e-06
8.36866e-06
8.63405e-06
8.88542e-06
9.12047e-06
9.33748e-06
9.53532e-06
9.71333e-06
9.87129e-06
1.00093e-05
1.0128e-05
1.02279e-05
1.031e-05
1.03754e-05
1.04251e-05
1.04606e-05
1.04829e-05
1.04935e-05
1.07367e-05
1.09498e-05
1.12477e-05
1.16133e-05
1.20314e-05
1.24883e-05
1.29715e-05
1.34698e-05
1.39732e-05
1.44728e-05
1.49608e-05
1.54309e-05
1.58775e-05
1.62964e-05
1.66843e-05
1.70388e-05
1.73586e-05
1.76429e-05
1.78918e-05
1.81059e-05
1.82865e-05
1.8435e-05
1.85532e-05
1.86432e-05
1.87073e-05
1.87477e-05
1.87667e-05
1.7949e-05
1.82774e-05
1.87363e-05
1.9299e-05
1.9942e-05
2.0644e-05
2.13856e-05
2.21494e-05
2.292e-05
2.36837e-05
2.44289e-05
2.51455e-05
2.58255e-05
2.64624e-05
2.70514e-05
2.75891e-05
2.80736e-05
2.85039e-05
2.88803e-05
2.92039e-05
2.94765e-05
2.97005e-05
2.98787e-05
3.00143e-05
3.01107e-05
3.01715e-05
3.02001e-05
2.73293e-05
2.77544e-05
2.8346e-05
2.9068e-05
2.98883e-05
3.07779e-05
3.1711e-05
3.26648e-05
3.36195e-05
3.4558e-05
3.54661e-05
3.63324e-05
3.71477e-05
3.79054e-05
3.86006e-05
3.92306e-05
3.97942e-05
4.02915e-05
4.07236e-05
4.10928e-05
4.1402e-05
4.16548e-05
4.18548e-05
4.20064e-05
4.21136e-05
4.21809e-05
4.22125e-05
3.75289e-05
3.7973e-05
3.85873e-05
3.93307e-05
4.0167e-05
4.10641e-05
4.19938e-05
4.29322e-05
4.38591e-05
4.47582e-05
4.56166e-05
4.64245e-05
4.7175e-05
4.78635e-05
4.84876e-05
4.90463e-05
4.95404e-05
4.99715e-05
5.03422e-05
5.06557e-05
5.09158e-05
5.11265e-05
5.12918e-05
5.14161e-05
5.15034e-05
5.15577e-05
5.1583e-05
4.65322e-05
4.68985e-05
4.74011e-05
4.80031e-05
4.8672e-05
4.93796e-05
5.01021e-05
5.08199e-05
5.15175e-05
5.2183e-05
5.2808e-05
5.33865e-05
5.39151e-05
5.43924e-05
5.48183e-05
5.51938e-05
5.5521e-05
5.58026e-05
5.60414e-05
5.62408e-05
5.64042e-05
5.65349e-05
5.66363e-05
5.67117e-05
5.67641e-05
5.67964e-05
5.68114e-05
5.26639e-05
5.28933e-05
5.32049e-05
5.35731e-05
5.39758e-05
5.43941e-05
5.48128e-05
5.52201e-05
5.56071e-05
5.59679e-05
5.62987e-05
5.65976e-05
5.68642e-05
5.7099e-05
5.73035e-05
5.74795e-05
5.76293e-05
5.77551e-05
5.78593e-05
5.79444e-05
5.80125e-05
5.80659e-05
5.81064e-05
5.81358e-05
5.81558e-05
5.81679e-05
5.81733e-05
5.53182e-05
5.54084e-05
5.55282e-05
5.56655e-05
5.581e-05
5.59533e-05
5.60892e-05
5.62134e-05
5.63233e-05
5.64176e-05
5.64964e-05
5.65603e-05
5.66106e-05
5.66488e-05
5.66766e-05
5.66958e-05
5.67081e-05
5.67149e-05
5.67176e-05
5.67174e-05
5.67154e-05
5.67123e-05
5.67087e-05
5.67053e-05
5.67024e-05
5.67003e-05
5.66992e-05
5.49213e-05
5.49058e-05
5.48812e-05
5.48463e-05
5.48005e-05
5.47438e-05
5.46767e-05
5.46005e-05
5.45169e-05
5.44279e-05
5.43354e-05
5.42417e-05
5.41488e-05
5.40583e-05
5.39719e-05
5.38907e-05
5.38159e-05
5.37481e-05
5.36877e-05
5.3635e-05
5.35901e-05
5.35527e-05
5.35227e-05
5.34997e-05
5.34832e-05
5.34727e-05
5.34677e-05
5.2404e-05
5.23241e-05
5.22119e-05
5.20733e-05
5.19141e-05
5.17392e-05
5.15534e-05
5.13612e-05
5.11667e-05
5.09735e-05
5.07848e-05
5.06034e-05
5.04314e-05
5.02705e-05
5.01222e-05
4.99871e-05
4.98658e-05
4.97585e-05
4.96651e-05
4.95851e-05
4.9518e-05
4.94632e-05
4.94197e-05
4.93868e-05
4.93635e-05
4.93488e-05
4.9342e-05
4.8725e-05
4.86126e-05
4.84564e-05
4.82662e-05
4.80507e-05
4.78179e-05
4.75745e-05
4.73267e-05
4.70798e-05
4.68381e-05
4.66052e-05
4.63841e-05
4.61769e-05
4.59853e-05
4.58102e-05
4.56523e-05
4.55116e-05
4.53881e-05
4.52812e-05
4.51902e-05
4.51144e-05
4.50527e-05
4.50041e-05
4.49675e-05
4.49417e-05
4.49256e-05
4.49181e-05
4.45512e-05
4.44274e-05
4.42562e-05
4.40487e-05
4.3815e-05
4.35639e-05
4.33031e-05
4.30392e-05
4.27779e-05
4.25236e-05
4.22801e-05
4.205e-05
4.18356e-05
4.16382e-05
4.14587e-05
4.12973e-05
4.11542e-05
4.10289e-05
4.09209e-05
4.08292e-05
4.0753e-05
4.06912e-05
4.06426e-05
4.06061e-05
4.05804e-05
4.05644e-05
4.05569e-05
4.0316e-05
4.01942e-05
4.0026e-05
3.98225e-05
3.95937e-05
3.93483e-05
3.9094e-05
3.88374e-05
3.85839e-05
3.83379e-05
3.81029e-05
3.78815e-05
3.76757e-05
3.74867e-05
3.73151e-05
3.71613e-05
3.70252e-05
3.69062e-05
3.68037e-05
3.6717e-05
3.66449e-05
3.65866e-05
3.65407e-05
3.65063e-05
3.64822e-05
3.64671e-05
3.64601e-05
3.62808e-05
3.61673e-05
3.60106e-05
3.58212e-05
3.56087e-05
3.53812e-05
3.51456e-05
3.49082e-05
3.46738e-05
3.44466e-05
3.42298e-05
3.40259e-05
3.38365e-05
3.36628e-05
3.35054e-05
3.33644e-05
3.32397e-05
3.31309e-05
3.30373e-05
3.29581e-05
3.28924e-05
3.28391e-05
3.27974e-05
3.27661e-05
3.27441e-05
3.27305e-05
3.27241e-05
3.25771e-05
3.24743e-05
3.23325e-05
3.21613e-05
3.19693e-05
3.1764e-05
3.15516e-05
3.13377e-05
3.11267e-05
3.09222e-05
3.07274e-05
3.05442e-05
3.03741e-05
3.02183e-05
3.00772e-05
2.99509e-05
2.98393e-05
2.9742e-05
2.96583e-05
2.95875e-05
2.95288e-05
2.94813e-05
2.94441e-05
2.94162e-05
2.93966e-05
2.93845e-05
2.93788e-05
2.92499e-05
2.91585e-05
2.90323e-05
2.88801e-05
2.87094e-05
2.85269e-05
2.83384e-05
2.81485e-05
2.79613e-05
2.77801e-05
2.76074e-05
2.74452e-05
2.72947e-05
2.71569e-05
2.70321e-05
2.69205e-05
2.68219e-05
2.67359e-05
2.66621e-05
2.65997e-05
2.65479e-05
2.65061e-05
2.64733e-05
2.64487e-05
2.64315e-05
2.64208e-05
2.64158e-05
2.62976e-05
2.6217e-05
2.61058e-05
2.59717e-05
2.58213e-05
2.56607e-05
2.54946e-05
2.53275e-05
2.51629e-05
2.50036e-05
2.48518e-05
2.47093e-05
2.45772e-05
2.44562e-05
2.43467e-05
2.42489e-05
2.41625e-05
2.40871e-05
2.40224e-05
2.39678e-05
2.39225e-05
2.38859e-05
2.38572e-05
2.38357e-05
2.38206e-05
2.38113e-05
2.38069e-05
2.36951e-05
2.36244e-05
2.35269e-05
2.34093e-05
2.32775e-05
2.31367e-05
2.29912e-05
2.28448e-05
2.27006e-05
2.25611e-05
2.24283e-05
2.23037e-05
2.21882e-05
2.20824e-05
2.19868e-05
2.19013e-05
2.18259e-05
2.17601e-05
2.17037e-05
2.1656e-05
2.16165e-05
2.15845e-05
2.15595e-05
2.15408e-05
2.15276e-05
2.15195e-05
2.15157e-05
2.14077e-05
2.13458e-05
2.12605e-05
2.11576e-05
2.10423e-05
2.09191e-05
2.07919e-05
2.06639e-05
2.05378e-05
2.0416e-05
2.03e-05
2.01912e-05
2.00905e-05
1.99982e-05
1.99148e-05
1.98403e-05
1.97745e-05
1.97172e-05
1.96681e-05
1.96265e-05
1.95921e-05
1.95643e-05
1.95426e-05
1.95263e-05
1.95148e-05
1.95077e-05
1.95044e-05
1.93985e-05
1.93444e-05
1.92698e-05
1.91798e-05
1.9079e-05
1.89712e-05
1.886e-05
1.87481e-05
1.8638e-05
1.85316e-05
1.84304e-05
1.83354e-05
1.82475e-05
1.81671e-05
1.80944e-05
1.80294e-05
1.79721e-05
1.79222e-05
1.78793e-05
1.78432e-05
1.78132e-05
1.7789e-05
1.77701e-05
1.77559e-05
1.7746e-05
1.77398e-05
1.77369e-05
1.76321e-05
1.75848e-05
1.75195e-05
1.74407e-05
1.73525e-05
1.72582e-05
1.71608e-05
1.7063e-05
1.69668e-05
1.68738e-05
1.67854e-05
1.67025e-05
1.66257e-05
1.65555e-05
1.64921e-05
1.64354e-05
1.63854e-05
1.63419e-05
1.63045e-05
1.6273e-05
1.62469e-05
1.62258e-05
1.62093e-05
1.6197e-05
1.61883e-05
1.61829e-05
1.61804e-05
1.60764e-05
1.60349e-05
1.59776e-05
1.59086e-05
1.58312e-05
1.57486e-05
1.56633e-05
1.55777e-05
1.54935e-05
1.54121e-05
1.53348e-05
1.52623e-05
1.51952e-05
1.51339e-05
1.50784e-05
1.50289e-05
1.49852e-05
1.49472e-05
1.49146e-05
1.48871e-05
1.48644e-05
1.4846e-05
1.48316e-05
1.48208e-05
1.48133e-05
1.48086e-05
1.48064e-05
1.47028e-05
1.46664e-05
1.46161e-05
1.45554e-05
1.44875e-05
1.4415e-05
1.43402e-05
1.42651e-05
1.41913e-05
1.412e-05
1.40522e-05
1.39888e-05
1.393e-05
1.38763e-05
1.38277e-05
1.37844e-05
1.37462e-05
1.3713e-05
1.36845e-05
1.36604e-05
1.36405e-05
1.36245e-05
1.36119e-05
1.36025e-05
1.35959e-05
1.35918e-05
1.35899e-05
1.34867e-05
1.34546e-05
1.34104e-05
1.3357e-05
1.32973e-05
1.32335e-05
1.31678e-05
1.31018e-05
1.3037e-05
1.29744e-05
1.2915e-05
1.28592e-05
1.28077e-05
1.27605e-05
1.2718e-05
1.268e-05
1.26465e-05
1.26174e-05
1.25924e-05
1.25713e-05
1.25539e-05
1.25399e-05
1.25289e-05
1.25206e-05
1.25149e-05
1.25113e-05
1.25096e-05
1.2407e-05
1.23787e-05
1.23397e-05
1.22926e-05
1.224e-05
1.21838e-05
1.2126e-05
1.20679e-05
1.20109e-05
1.19558e-05
1.19035e-05
1.18545e-05
1.18092e-05
1.17677e-05
1.17303e-05
1.16969e-05
1.16675e-05
1.16419e-05
1.162e-05
1.16015e-05
1.15862e-05
1.15739e-05
1.15643e-05
1.15571e-05
1.1552e-05
1.15489e-05
1.15474e-05
1.14455e-05
1.14205e-05
1.1386e-05
1.13445e-05
1.12981e-05
1.12485e-05
1.11975e-05
1.11463e-05
1.1096e-05
1.10474e-05
1.10013e-05
1.09581e-05
1.09182e-05
1.08817e-05
1.08487e-05
1.08193e-05
1.07934e-05
1.07709e-05
1.07516e-05
1.07354e-05
1.07219e-05
1.07111e-05
1.07026e-05
1.06963e-05
1.06919e-05
1.06891e-05
1.06879e-05
1.05869e-05
1.05648e-05
1.05343e-05
1.04976e-05
1.04565e-05
1.04127e-05
1.03676e-05
1.03223e-05
1.02779e-05
1.0235e-05
1.01943e-05
1.01561e-05
1.01209e-05
1.00886e-05
1.00596e-05
1.00336e-05
1.00108e-05
9.99094e-06
9.97394e-06
9.95961e-06
9.94778e-06
9.93825e-06
9.9308e-06
9.92522e-06
9.92133e-06
9.91891e-06
9.91779e-06
9.8181e-06
9.79849e-06
9.77148e-06
9.73895e-06
9.70256e-06
9.66377e-06
9.62381e-06
9.58373e-06
9.54437e-06
9.50641e-06
9.47036e-06
9.4366e-06
9.40539e-06
9.3769e-06
9.35118e-06
9.32826e-06
9.30808e-06
9.29054e-06
9.27553e-06
9.26289e-06
9.25245e-06
9.24404e-06
9.23747e-06
9.23256e-06
9.22913e-06
9.227e-06
9.22601e-06
9.12787e-06
9.11046e-06
9.08648e-06
9.0576e-06
9.0253e-06
8.99087e-06
8.95541e-06
8.91984e-06
8.88492e-06
8.85125e-06
8.81928e-06
8.78935e-06
8.76168e-06
8.73643e-06
8.71365e-06
8.69335e-06
8.67548e-06
8.65996e-06
8.64668e-06
8.6355e-06
8.62628e-06
8.61885e-06
8.61305e-06
8.60872e-06
8.60569e-06
8.60381e-06
8.60294e-06
8.50662e-06
8.49113e-06
8.46979e-06
8.44411e-06
8.41538e-06
8.38476e-06
8.35323e-06
8.32161e-06
8.29057e-06
8.26065e-06
8.23224e-06
8.20566e-06
8.18109e-06
8.15868e-06
8.13846e-06
8.12045e-06
8.10461e-06
8.09085e-06
8.07908e-06
8.06918e-06
8.06102e-06
8.05444e-06
8.04932e-06
8.04548e-06
8.04281e-06
8.04115e-06
8.04039e-06
7.94609e-06
7.93229e-06
7.91328e-06
7.89039e-06
7.86479e-06
7.83751e-06
7.80943e-06
7.78127e-06
7.75364e-06
7.727e-06
7.70172e-06
7.67807e-06
7.65622e-06
7.63629e-06
7.61832e-06
7.60232e-06
7.58825e-06
7.57604e-06
7.56559e-06
7.55682e-06
7.54958e-06
7.54376e-06
7.53922e-06
7.53583e-06
7.53346e-06
7.532e-06
7.53132e-06
7.43922e-06
7.42689e-06
7.40992e-06
7.38949e-06
7.36665e-06
7.34231e-06
7.31726e-06
7.29214e-06
7.2675e-06
7.24375e-06
7.22122e-06
7.20015e-06
7.18069e-06
7.16294e-06
7.14695e-06
7.13271e-06
7.1202e-06
7.10935e-06
7.10007e-06
7.09228e-06
7.08586e-06
7.0807e-06
7.07667e-06
7.07367e-06
7.07157e-06
7.07028e-06
7.06968e-06
6.97989e-06
6.96887e-06
6.9537e-06
6.93544e-06
6.91502e-06
6.89328e-06
6.87089e-06
6.84846e-06
6.82645e-06
6.80525e-06
6.78515e-06
6.76635e-06
6.74899e-06
6.73317e-06
6.71892e-06
6.70625e-06
6.69511e-06
6.68545e-06
6.67721e-06
6.67028e-06
6.66458e-06
6.66e-06
6.65643e-06
6.65377e-06
6.65191e-06
6.65077e-06
6.65024e-06
6.56285e-06
6.55299e-06
6.53941e-06
6.52306e-06
6.50479e-06
6.48534e-06
6.46531e-06
6.44525e-06
6.42558e-06
6.40663e-06
6.38867e-06
6.37188e-06
6.35639e-06
6.34227e-06
6.32956e-06
6.31826e-06
6.30834e-06
6.29974e-06
6.29241e-06
6.28625e-06
6.28119e-06
6.27712e-06
6.27395e-06
6.27159e-06
6.26995e-06
6.26893e-06
6.26846e-06
6.18355e-06
6.17471e-06
6.16254e-06
6.1479e-06
6.13153e-06
6.11411e-06
6.09618e-06
6.07822e-06
6.06062e-06
6.04367e-06
6.02761e-06
6.0126e-06
5.99877e-06
5.98616e-06
5.97482e-06
5.96474e-06
5.9559e-06
5.94824e-06
5.94172e-06
5.93624e-06
5.93174e-06
5.92813e-06
5.92532e-06
5.92323e-06
5.92177e-06
5.92087e-06
5.92046e-06
5.83805e-06
5.83012e-06
5.81921e-06
5.80608e-06
5.79141e-06
5.77579e-06
5.75973e-06
5.74364e-06
5.72788e-06
5.71272e-06
5.69835e-06
5.68493e-06
5.67257e-06
5.66131e-06
5.65119e-06
5.6422e-06
5.63432e-06
5.6275e-06
5.6217e-06
5.61683e-06
5.61283e-06
5.60962e-06
5.60713e-06
5.60528e-06
5.60399e-06
5.6032e-06
5.60283e-06
5.52293e-06
5.51582e-06
5.50603e-06
5.49425e-06
5.4811e-06
5.46709e-06
5.4527e-06
5.43829e-06
5.42418e-06
5.4106e-06
5.39775e-06
5.38576e-06
5.37471e-06
5.36466e-06
5.35563e-06
5.34761e-06
5.34059e-06
5.33453e-06
5.32937e-06
5.32504e-06
5.3215e-06
5.31865e-06
5.31645e-06
5.31481e-06
5.31367e-06
5.31297e-06
5.31264e-06
5.23526e-06
5.22887e-06
5.22009e-06
5.20953e-06
5.19773e-06
5.18518e-06
5.17228e-06
5.15938e-06
5.14675e-06
5.1346e-06
5.12311e-06
5.1124e-06
5.10253e-06
5.09357e-06
5.08552e-06
5.07838e-06
5.07214e-06
5.06675e-06
5.06217e-06
5.05834e-06
5.05519e-06
5.05268e-06
5.05073e-06
5.04928e-06
5.04828e-06
5.04766e-06
5.04738e-06
4.97247e-06
4.96675e-06
4.95887e-06
4.9494e-06
4.93883e-06
4.92759e-06
4.91605e-06
4.9045e-06
4.89321e-06
4.88236e-06
4.8721e-06
4.86254e-06
4.85374e-06
4.84576e-06
4.8386e-06
4.83226e-06
4.82672e-06
4.82195e-06
4.81789e-06
4.8145e-06
4.81173e-06
4.80951e-06
4.80779e-06
4.80652e-06
4.80564e-06
4.8051e-06
4.80485e-06
4.73239e-06
4.72726e-06
4.72021e-06
4.71174e-06
4.70228e-06
4.69223e-06
4.68192e-06
4.67161e-06
4.66153e-06
4.65185e-06
4.64271e-06
4.63421e-06
4.62639e-06
4.6193e-06
4.61296e-06
4.60735e-06
4.60245e-06
4.59823e-06
4.59466e-06
4.59168e-06
4.58924e-06
4.58729e-06
4.58578e-06
4.58467e-06
4.5839e-06
4.58343e-06
4.58321e-06
4.51315e-06
4.50857e-06
4.50227e-06
4.49471e-06
4.48627e-06
4.47731e-06
4.46812e-06
4.45894e-06
4.44998e-06
4.44138e-06
4.43327e-06
4.42574e-06
4.41882e-06
4.41256e-06
4.40696e-06
4.40202e-06
4.39772e-06
4.39402e-06
4.39088e-06
4.38827e-06
4.38614e-06
4.38445e-06
4.38314e-06
4.38217e-06
4.38151e-06
4.3811e-06
4.38091e-06
4.31317e-06
4.3091e-06
4.3035e-06
4.29677e-06
4.28928e-06
4.28133e-06
4.27318e-06
4.26505e-06
4.25712e-06
4.24953e-06
4.24238e-06
4.23574e-06
4.22966e-06
4.22417e-06
4.21928e-06
4.21496e-06
4.21121e-06
4.20798e-06
4.20526e-06
4.203e-06
4.20116e-06
4.19969e-06
4.19856e-06
4.19774e-06
4.19717e-06
4.19682e-06
4.19666e-06
4.13117e-06
4.12757e-06
4.12262e-06
4.11668e-06
4.11007e-06
4.10306e-06
4.09588e-06
4.08874e-06
4.08179e-06
4.07514e-06
4.06889e-06
4.0631e-06
4.05782e-06
4.05306e-06
4.04881e-06
4.04508e-06
4.04185e-06
4.03907e-06
4.03674e-06
4.0348e-06
4.03323e-06
4.03199e-06
4.03103e-06
4.03033e-06
4.02986e-06
4.02957e-06
4.02944e-06
3.96611e-06
3.96295e-06
3.95862e-06
3.95343e-06
3.94766e-06
3.94155e-06
3.9353e-06
3.9291e-06
3.92307e-06
3.91733e-06
3.91195e-06
3.90697e-06
3.90244e-06
3.89837e-06
3.89475e-06
3.89158e-06
3.88883e-06
3.88649e-06
3.88452e-06
3.88289e-06
3.88158e-06
3.88055e-06
3.87976e-06
3.87918e-06
3.87879e-06
3.87856e-06
3.87845e-06
3.81723e-06
3.81451e-06
3.81077e-06
3.8063e-06
3.80134e-06
3.7961e-06
3.79076e-06
3.78547e-06
3.78035e-06
3.77548e-06
3.77093e-06
3.76674e-06
3.76293e-06
3.75952e-06
3.7565e-06
3.75386e-06
3.75159e-06
3.74966e-06
3.74804e-06
3.74672e-06
3.74566e-06
3.74483e-06
3.7442e-06
3.74375e-06
3.74345e-06
3.74327e-06
3.74319e-06
3.68405e-06
3.68175e-06
3.6786e-06
3.67484e-06
3.67068e-06
3.6663e-06
3.66186e-06
3.65747e-06
3.65323e-06
3.64921e-06
3.64547e-06
3.64204e-06
3.63893e-06
3.63616e-06
3.63372e-06
3.63161e-06
3.6298e-06
3.62827e-06
3.62701e-06
3.62599e-06
3.62517e-06
3.62455e-06
3.62408e-06
3.62375e-06
3.62353e-06
3.6234e-06
3.62335e-06
3.56639e-06
3.56452e-06
3.56197e-06
3.55893e-06
3.55557e-06
3.55204e-06
3.54847e-06
3.54495e-06
3.54157e-06
3.53838e-06
3.53543e-06
3.53274e-06
3.53033e-06
3.52819e-06
3.52633e-06
3.52474e-06
3.52339e-06
3.52227e-06
3.52136e-06
3.52064e-06
3.52008e-06
3.51965e-06
3.51935e-06
3.51914e-06
3.51901e-06
3.51894e-06
3.51891e-06
3.46441e-06
3.46296e-06
3.46098e-06
3.45862e-06
3.45604e-06
3.45334e-06
3.45062e-06
3.44797e-06
3.44544e-06
3.44308e-06
3.44092e-06
3.43898e-06
3.43726e-06
3.43577e-06
3.4345e-06
3.43344e-06
3.43256e-06
3.43186e-06
3.43131e-06
3.4309e-06
3.43059e-06
3.43038e-06
3.43024e-06
3.43016e-06
3.43012e-06
3.43011e-06
3.4301e-06
3.37819e-06
3.37715e-06
3.37575e-06
3.37409e-06
3.37229e-06
3.37043e-06
3.36858e-06
3.36681e-06
3.36516e-06
3.36365e-06
3.36231e-06
3.36115e-06
3.36016e-06
3.35934e-06
3.35868e-06
3.35818e-06
3.3578e-06
3.35753e-06
3.35736e-06
3.35727e-06
3.35724e-06
3.35725e-06
3.35729e-06
3.35735e-06
3.3574e-06
3.35745e-06
3.35748e-06
3.30819e-06
3.30759e-06
3.30679e-06
3.30586e-06
3.30488e-06
3.3039e-06
3.30297e-06
3.30213e-06
3.3014e-06
3.3008e-06
3.30033e-06
3.29999e-06
3.29977e-06
3.29967e-06
3.29967e-06
3.29976e-06
3.29991e-06
3.30012e-06
3.30036e-06
3.30062e-06
3.30088e-06
3.30113e-06
3.30137e-06
3.30157e-06
3.30173e-06
3.30184e-06
3.3019e-06
3.25528e-06
3.25514e-06
3.25498e-06
3.25484e-06
3.25474e-06
3.25471e-06
3.25477e-06
3.25494e-06
3.25521e-06
3.25559e-06
3.25606e-06
3.25661e-06
3.25724e-06
3.25792e-06
3.25863e-06
3.25937e-06
3.2601e-06
3.26082e-06
3.26151e-06
3.26215e-06
3.26274e-06
3.26326e-06
3.26371e-06
3.26407e-06
3.26434e-06
3.26453e-06
3.26462e-06
3.22072e-06
3.22109e-06
3.22163e-06
3.22234e-06
3.22321e-06
3.22423e-06
3.22538e-06
3.22665e-06
3.22803e-06
3.22948e-06
3.23099e-06
3.23254e-06
3.2341e-06
3.23564e-06
3.23715e-06
3.2386e-06
3.23998e-06
3.24127e-06
3.24246e-06
3.24353e-06
3.24448e-06
3.2453e-06
3.24598e-06
3.24652e-06
3.24693e-06
3.2472e-06
3.24733e-06
3.2062e-06
3.20714e-06
3.20847e-06
3.21014e-06
3.21208e-06
3.21426e-06
3.21663e-06
3.21914e-06
3.22174e-06
3.2244e-06
3.22708e-06
3.22973e-06
3.23233e-06
3.23485e-06
3.23724e-06
3.2395e-06
3.24161e-06
3.24354e-06
3.24529e-06
3.24684e-06
3.2482e-06
3.24935e-06
3.2503e-06
3.25105e-06
3.2516e-06
3.25196e-06
3.25214e-06
3.21391e-06
3.21548e-06
3.2177e-06
3.22044e-06
3.2236e-06
3.22709e-06
3.23082e-06
3.23472e-06
3.23871e-06
3.24273e-06
3.24672e-06
3.25062e-06
3.2544e-06
3.258e-06
3.2614e-06
3.26458e-06
3.2675e-06
3.27016e-06
3.27254e-06
3.27464e-06
3.27645e-06
3.27798e-06
3.27923e-06
3.28021e-06
3.28093e-06
3.28139e-06
3.28162e-06
3.24643e-06
3.24873e-06
3.25194e-06
3.25589e-06
3.26042e-06
3.26539e-06
3.27067e-06
3.27614e-06
3.28169e-06
3.28724e-06
3.29271e-06
3.29802e-06
3.30312e-06
3.30796e-06
3.31249e-06
3.31669e-06
3.32053e-06
3.324e-06
3.32709e-06
3.3298e-06
3.33213e-06
3.33408e-06
3.33567e-06
3.33691e-06
3.33781e-06
3.3384e-06
3.33868e-06
3.3067e-06
3.3098e-06
3.31413e-06
3.31944e-06
3.32551e-06
3.33213e-06
3.33913e-06
3.34635e-06
3.35366e-06
3.36092e-06
3.36803e-06
3.37491e-06
3.38148e-06
3.38768e-06
3.39346e-06
3.3988e-06
3.40366e-06
3.40803e-06
3.41191e-06
3.41529e-06
3.41818e-06
3.42061e-06
3.42257e-06
3.42409e-06
3.42519e-06
3.42591e-06
3.42625e-06
3.39758e-06
3.40157e-06
3.40712e-06
3.41391e-06
3.42165e-06
3.43008e-06
3.43896e-06
3.44809e-06
3.45728e-06
3.46639e-06
3.47528e-06
3.48385e-06
3.492e-06
3.49966e-06
3.50679e-06
3.51334e-06
3.51928e-06
3.52461e-06
3.52932e-06
3.53342e-06
3.53692e-06
3.53983e-06
3.54219e-06
3.54401e-06
3.54533e-06
3.54617e-06
3.54658e-06
3.52112e-06
3.52603e-06
3.53286e-06
3.54119e-06
3.55067e-06
3.56096e-06
3.57177e-06
3.58285e-06
3.59398e-06
3.60497e-06
3.61566e-06
3.62593e-06
3.63567e-06
3.64481e-06
3.65327e-06
3.66103e-06
3.66805e-06
3.67433e-06
3.67986e-06
3.68466e-06
3.68874e-06
3.69214e-06
3.69488e-06
3.69699e-06
3.69851e-06
3.69949e-06
3.69996e-06
3.67724e-06
3.68302e-06
3.69105e-06
3.70083e-06
3.71193e-06
3.72395e-06
3.73655e-06
3.74942e-06
3.76231e-06
3.77501e-06
3.78732e-06
3.79912e-06
3.81027e-06
3.82069e-06
3.83033e-06
3.83913e-06
3.84708e-06
3.85416e-06
3.86039e-06
3.86579e-06
3.87036e-06
3.87416e-06
3.87722e-06
3.87957e-06
3.88127e-06
3.88235e-06
3.88287e-06
3.86191e-06
3.86837e-06
3.87734e-06
3.88824e-06
3.90057e-06
3.91389e-06
3.92782e-06
3.942e-06
3.95616e-06
3.97006e-06
3.98351e-06
3.99634e-06
4.00844e-06
4.01972e-06
4.03011e-06
4.03958e-06
4.0481e-06
4.05568e-06
4.06233e-06
4.06808e-06
4.07294e-06
4.07697e-06
4.0802e-06
4.08269e-06
4.08448e-06
4.08562e-06
4.08616e-06
4.06564e-06
4.07242e-06
4.08181e-06
4.0932e-06
4.10605e-06
4.1199e-06
4.13432e-06
4.14896e-06
4.16353e-06
4.17779e-06
4.19152e-06
4.20459e-06
4.21687e-06
4.22828e-06
4.23876e-06
4.24828e-06
4.25683e-06
4.26442e-06
4.27106e-06
4.27677e-06
4.2816e-06
4.2856e-06
4.2888e-06
4.29125e-06
4.29301e-06
4.29414e-06
4.29468e-06
4.27346e-06
4.28005e-06
4.28917e-06
4.3002e-06
4.31261e-06
4.32593e-06
4.33975e-06
4.35374e-06
4.36761e-06
4.38112e-06
4.3941e-06
4.4064e-06
4.41792e-06
4.42858e-06
4.43834e-06
4.44719e-06