/*--------------------------------*- C++ -*----------------------------------*\
| =========                 |                                                 |
| \\      /  F ield         | OpenFOAM: The Open Source CFD Toolbox           |
|  \\    /   O peration     | Version:  2106                                  |
|   \\  /    A nd           | Website:  www.openfoam.com                      |
|    \\/     M anipulation  |                                                 |
\*---------------------------------------------------------------------------*/
FoamFile
{
    version     2.0;
    format      ascii;
    arch        "LSB;label=32;scalar=64";
    class       volScalarField;
    location    "149.99958";
    object      C4H61_0;
}
// * * * * * * * * * * * * * * * * * * * * * * * * * * * * * * * * * * * * * //

dimensions      [0 0 0 0 0 0 0];

internalField   nonuniform List<scalar> 
3360
(
5.60667e-19
5.78708e-19
6.03815e-19
6.34525e-19
6.69559e-19
7.07767e-19
7.4811e-19
7.89654e-19
8.31563e-19
8.73099e-19
9.13626e-19
9.52601e-19
9.89576e-19
1.02419e-18
1.05619e-18
1.08536e-18
1.11161e-18
1.13486e-18
1.15515e-18
1.17252e-18
1.18709e-18
1.19898e-18
1.20838e-18
1.21546e-18
1.22045e-18
1.22355e-18
1.22499e-18
2.4595e-18
2.5499e-18
2.67746e-18
2.83632e-18
3.02161e-18
3.22908e-18
3.45495e-18
3.69573e-18
3.94822e-18
4.20934e-18
4.47618e-18
4.74587e-18
5.01563e-18
5.28266e-18
5.54424e-18
5.79768e-18
6.04037e-18
6.26975e-18
6.48339e-18
6.67899e-18
6.85445e-18
7.00793e-18
7.13782e-18
7.24288e-18
7.32216e-18
7.37511e-18
7.40151e-18
7.71705e-18
8.05573e-18
8.53697e-18
9.14169e-18
9.85405e-18
1.06598e-17
1.15454e-17
1.24975e-17
1.35026e-17
1.45469e-17
1.56164e-17
1.6697e-17
1.77749e-17
1.88364e-17
1.98683e-17
2.0858e-17
2.17939e-17
2.26656e-17
2.3464e-17
2.41817e-17
2.48127e-17
2.53531e-17
2.58005e-17
2.61541e-17
2.64148e-17
2.65848e-17
2.66675e-17
2.24742e-17
2.35905e-17
2.51873e-17
2.72075e-17
2.96034e-17
3.23304e-17
3.53435e-17
3.85966e-17
4.20408e-17
4.56253e-17
4.92972e-17
5.30027e-17
5.66884e-17
6.03026e-17
6.37958e-17
6.71228e-17
7.02435e-17
7.31237e-17
7.57361e-17
7.80601e-17
8.00822e-17
8.17952e-17
8.31982e-17
8.42955e-17
8.50962e-17
8.56133e-17
8.58627e-17
6.56609e-17
6.91822e-17
7.42291e-17
8.06293e-17
8.82362e-17
9.69094e-17
1.06504e-16
1.16868e-16
1.27836e-16
1.39238e-16
1.50895e-16
1.62627e-16
1.74259e-16
1.85623e-16
1.96562e-16
2.06938e-16
2.1663e-16
2.25538e-16
2.33586e-16
2.4072e-16
2.46904e-16
2.52126e-16
2.56389e-16
2.59715e-16
2.62135e-16
2.63695e-16
2.64445e-16
1.93599e-16
2.04412e-16
2.19931e-16
2.39627e-16
2.6305e-16
2.89764e-16
3.19316e-16
3.51227e-16
3.84982e-16
4.2004e-16
4.55845e-16
4.91836e-16
5.27466e-16
5.62217e-16
5.95613e-16
6.27231e-16
6.5671e-16
6.83758e-16
7.0815e-16
7.2973e-16
7.48409e-16
7.64155e-16
7.76993e-16
7.86992e-16
7.9426e-16
7.98937e-16
8.01186e-16
5.7508e-16
6.07938e-16
6.5509e-16
7.14938e-16
7.86107e-16
8.67255e-16
9.56989e-16
1.05383e-15
1.15619e-15
1.26241e-15
1.3708e-15
1.47965e-15
1.5873e-15
1.69219e-15
1.79289e-15
1.88816e-15
1.9769e-15
2.05827e-15
2.1316e-15
2.19644e-15
2.25253e-15
2.2998e-15
2.33832e-15
2.36832e-15
2.39012e-15
2.40414e-15
2.41088e-15
1.71391e-15
1.81278e-15
1.95472e-15
2.13496e-15
2.34934e-15
2.59382e-15
2.86418e-15
3.15592e-15
3.46426e-15
3.78416e-15
4.11047e-15
4.43805e-15
4.76191e-15
5.07734e-15
5.38005e-15
5.66627e-15
5.93279e-15
6.17704e-15
6.39706e-15
6.59152e-15
6.75968e-15
6.90132e-15
7.01671e-15
7.10653e-15
7.17177e-15
7.21374e-15
7.2339e-15
5.12142e-15
5.41855e-15
5.84506e-15
6.38654e-15
7.03051e-15
7.76476e-15
8.57655e-15
9.4523e-15
1.03775e-14
1.13372e-14
1.23157e-14
1.32976e-14
1.42681e-14
1.5213e-14
1.61195e-14
1.69764e-14
1.77741e-14
1.85051e-14
1.91634e-14
1.97452e-14
2.02482e-14
2.06719e-14
2.10171e-14
2.12857e-14
2.14809e-14
2.16064e-14
2.16667e-14
1.53039e-14
1.61937e-14
1.74713e-14
1.90933e-14
2.10225e-14
2.3222e-14
2.56536e-14
2.82767e-14
3.10476e-14
3.39211e-14
3.68507e-14
3.979e-14
4.26943e-14
4.55216e-14
4.82334e-14
5.07962e-14
5.31815e-14
5.53665e-14
5.73339e-14
5.90722e-14
6.05748e-14
6.18401e-14
6.28706e-14
6.36724e-14
6.42548e-14
6.46293e-14
6.48093e-14
4.57516e-14
4.84152e-14
5.22384e-14
5.70915e-14
6.28622e-14
6.944e-14
7.67101e-14
8.45498e-14
9.28291e-14
1.01412e-13
1.10159e-13
1.18933e-13
1.27599e-13
1.36032e-13
1.44119e-13
1.5176e-13
1.58869e-13
1.6538e-13
1.71241e-13
1.76419e-13
1.80894e-13
1.84662e-13
1.8773e-13
1.90118e-13
1.91852e-13
1.92967e-13
1.93502e-13
1.36637e-13
1.44588e-13
1.55999e-13
1.70483e-13
1.87702e-13
2.07323e-13
2.29004e-13
2.52375e-13
2.77049e-13
3.02617e-13
3.28666e-13
3.54782e-13
3.80569e-13
4.05654e-13
4.29698e-13
4.52405e-13
4.73526e-13
4.92862e-13
5.10263e-13
5.25629e-13
5.38905e-13
5.5008e-13
5.59177e-13
5.66253e-13
5.71391e-13
5.74694e-13
5.7628e-13
4.07579e-13
4.31269e-13
4.65259e-13
5.08378e-13
5.59613e-13
6.17966e-13
6.824e-13
7.51817e-13
8.2505e-13
9.00888e-13
9.78097e-13
1.05545e-12
1.13178e-12
1.20599e-12
1.27707e-12
1.34416e-12
1.40653e-12
1.46359e-12
1.51492e-12
1.56023e-12
1.59936e-12
1.63229e-12
1.65908e-12
1.67992e-12
1.69505e-12
1.70477e-12
1.70944e-12
1.21207e-12
1.28232e-12
1.38307e-12
1.51082e-12
1.66252e-12
1.83518e-12
2.02568e-12
2.23073e-12
2.44687e-12
2.67048e-12
2.89793e-12
3.12559e-12
3.35002e-12
3.56798e-12
3.77659e-12
3.9733e-12
4.15601e-12
4.32306e-12
4.4732e-12
4.60562e-12
4.71991e-12
4.81601e-12
4.89417e-12
4.95493e-12
4.999e-12
5.02732e-12
5.04091e-12
3.59083e-12
3.79794e-12
4.09478e-12
4.47084e-12
4.91693e-12
5.42406e-12
5.98289e-12
6.58362e-12
7.21593e-12
7.86917e-12
8.53264e-12
9.19578e-12
9.84856e-12
1.04817e-11
1.10867e-11
1.16566e-11
1.21853e-11
1.26681e-11
1.31015e-11
1.34834e-11
1.38127e-11
1.40894e-11
1.43143e-11
1.4489e-11
1.46156e-11
1.46969e-11
1.47359e-11
1.05738e-11
1.11784e-11
1.20441e-11
1.31397e-11
1.44375e-11
1.59105e-11
1.7531e-11
1.92698e-11
2.10965e-11
2.29801e-11
2.48894e-11
2.67941e-11
2.86655e-11
3.0477e-11
3.22052e-11
3.383e-11
3.53348e-11
3.67067e-11
3.79367e-11
3.90189e-11
3.99508e-11
4.07329e-11
4.13677e-11
4.18603e-11
4.22172e-11
4.24461e-11
4.25559e-11
3.08892e-11
3.2631e-11
3.51218e-11
3.82684e-11
4.19886e-11
4.62017e-11
5.08254e-11
5.57742e-11
6.09597e-11
6.62924e-11
7.16836e-11
7.70474e-11
8.23037e-11
8.73792e-11
9.22096e-11
9.67404e-11
1.00927e-10
1.04737e-10
1.08145e-10
1.11139e-10
1.13713e-10
1.1587e-10
1.17618e-10
1.18973e-10
1.19953e-10
1.20582e-10
1.20883e-10
8.92667e-11
9.41914e-11
1.01222e-10
1.10084e-10
1.20533e-10
1.32333e-10
1.45241e-10
1.59011e-10
1.73391e-10
1.88127e-10
2.02974e-10
2.17695e-10
2.32074e-10
2.45914e-10
2.59045e-10
2.71327e-10
2.82645e-10
2.92917e-10
3.02086e-10
3.10122e-10
3.17016e-10
3.22782e-10
3.27449e-10
3.3106e-10
3.3367e-10
3.3534e-10
3.36139e-10
2.54361e-10
2.67946e-10
2.87296e-10
3.11616e-10
3.40195e-10
3.72345e-10
4.07374e-10
4.44585e-10
4.83276e-10
5.22758e-10
5.62368e-10
6.01482e-10
6.39533e-10
6.76019e-10
7.10513e-10
7.42663e-10
7.72198e-10
7.98923e-10
8.22713e-10
8.4351e-10
8.61313e-10
8.76171e-10
8.88174e-10
8.97445e-10
9.04135e-10
9.08412e-10
9.10456e-10
7.11638e-10
7.47936e-10
7.99499e-10
8.64075e-10
9.39649e-10
1.02428e-09
1.11604e-09
1.21304e-09
1.31339e-09
1.41528e-09
1.51701e-09
1.61699e-09
1.71381e-09
1.80625e-09
1.89329e-09
1.97411e-09
2.0481e-09
2.11483e-09
2.17405e-09
2.22569e-09
2.26978e-09
2.30649e-09
2.33609e-09
2.35891e-09
2.37535e-09
2.38585e-09
2.39086e-09
1.94548e-09
2.03876e-09
2.17085e-09
2.33561e-09
2.52752e-09
2.74132e-09
2.97189e-09
3.21426e-09
3.46363e-09
3.71546e-09
3.96555e-09
4.2101e-09
4.44581e-09
4.66984e-09
4.87988e-09
5.07416e-09
5.25137e-09
5.41066e-09
5.55161e-09
5.67415e-09
5.77853e-09
5.86525e-09
5.93503e-09
5.98873e-09
6.02736e-09
6.05198e-09
6.06372e-09
5.16881e-09
5.39787e-09
5.72114e-09
6.12262e-09
6.58794e-09
7.10355e-09
7.6565e-09
8.23444e-09
8.82572e-09
9.41955e-09
1.00062e-08
1.05769e-08
1.11244e-08
1.16425e-08
1.21263e-08
1.2572e-08
1.29772e-08
1.33402e-08
1.36605e-08
1.39382e-08
1.41743e-08
1.43699e-08
1.45271e-08
1.46478e-08
1.47345e-08
1.47897e-08
1.4816e-08
1.32757e-08
1.38109e-08
1.45637e-08
1.54947e-08
1.65686e-08
1.77523e-08
1.90149e-08
2.03274e-08
2.16631e-08
2.29976e-08
2.43095e-08
2.558e-08
2.67933e-08
2.79369e-08
2.90007e-08
2.99775e-08
3.08626e-08
3.16534e-08
3.23494e-08
3.29514e-08
3.34619e-08
3.38844e-08
3.42231e-08
3.44829e-08
3.46693e-08
3.47878e-08
3.48442e-08
3.28181e-08
3.40068e-08
3.56737e-08
3.77275e-08
4.00861e-08
4.26741e-08
4.54215e-08
4.8264e-08
5.11432e-08
5.40072e-08
5.68106e-08
5.95147e-08
6.20877e-08
6.45042e-08
6.67451e-08
6.87968e-08
7.0651e-08
7.23036e-08
7.37548e-08
7.50077e-08
7.60682e-08
7.69444e-08
7.76459e-08
7.81834e-08
7.85685e-08
7.88131e-08
7.89294e-08
7.78817e-08
8.03979e-08
8.3918e-08
8.82415e-08
9.31895e-08
9.85983e-08
1.04318e-07
1.10213e-07
1.16163e-07
1.22059e-07
1.27811e-07
1.33342e-07
1.3859e-07
1.43504e-07
1.4805e-07
1.52203e-07
1.55948e-07
1.5928e-07
1.622e-07
1.64718e-07
1.66846e-07
1.68602e-07
1.70006e-07
1.71081e-07
1.7185e-07
1.72339e-07
1.72571e-07
1.7733e-07
1.82438e-07
1.89571e-07
1.98312e-07
2.08289e-07
2.19165e-07
2.30634e-07
2.42422e-07
2.54285e-07
2.66012e-07
2.77424e-07
2.88372e-07
2.98736e-07
3.08423e-07
3.17368e-07
3.25525e-07
3.3287e-07
3.39394e-07
3.45107e-07
3.50025e-07
3.54178e-07
3.57602e-07
3.60338e-07
3.6243e-07
3.63927e-07
3.64876e-07
3.65327e-07
3.87789e-07
3.97819e-07
4.11807e-07
4.28924e-07
4.48429e-07
4.69654e-07
4.91995e-07
5.14916e-07
5.37943e-07
5.6067e-07
5.8275e-07
6.03901e-07
6.23896e-07
6.42562e-07
6.59776e-07
6.75456e-07
6.89561e-07
7.02079e-07
7.13029e-07
7.2245e-07
7.30399e-07
7.36948e-07
7.42177e-07
7.46175e-07
7.49033e-07
7.50845e-07
7.51705e-07
8.15451e-07
8.34686e-07
8.61502e-07
8.94295e-07
9.31643e-07
9.72257e-07
1.01498e-06
1.05879e-06
1.10278e-06
1.14617e-06
1.18831e-06
1.22866e-06
1.26678e-06
1.30235e-06
1.33514e-06
1.365e-06
1.39185e-06
1.41566e-06
1.43648e-06
1.45439e-06
1.46949e-06
1.48193e-06
1.49185e-06
1.49943e-06
1.50485e-06
1.50829e-06
1.50992e-06
1.64763e-06
1.68395e-06
1.73461e-06
1.79662e-06
1.86732e-06
1.9443e-06
2.02539e-06
2.10868e-06
2.19245e-06
2.27522e-06
2.35576e-06
2.433e-06
2.50613e-06
2.57449e-06
2.6376e-06
2.69516e-06
2.74698e-06
2.79301e-06
2.8333e-06
2.86797e-06
2.89723e-06
2.92133e-06
2.94057e-06
2.95528e-06
2.96579e-06
2.97245e-06
2.97561e-06
3.18219e-06
3.24939e-06
3.34333e-06
3.45862e-06
3.5905e-06
3.73467e-06
3.88724e-06
4.04471e-06
4.20397e-06
4.36225e-06
4.51719e-06
4.66676e-06
4.80929e-06
4.94344e-06
5.06814e-06
5.18261e-06
5.2863e-06
5.37887e-06
5.46017e-06
5.53021e-06
5.58915e-06
5.63748e-06
5.67588e-06
5.70508e-06
5.72585e-06
5.73895e-06
5.74513e-06
5.81692e-06
5.93463e-06
6.0994e-06
6.30203e-06
6.53437e-06
6.78906e-06
7.05935e-06
7.33898e-06
7.62217e-06
7.90354e-06
8.1781e-06
8.44125e-06
8.68911e-06
8.91981e-06
9.132e-06
9.32479e-06
9.49774e-06
9.6508e-06
9.78424e-06
9.89863e-06
9.99476e-06
1.00736e-05
1.01363e-05
1.01839e-05
1.02178e-05
1.02392e-05
1.02492e-05
9.95425e-06
1.01365e-05
1.03897e-05
1.06978e-05
1.10457e-05
1.1422e-05
1.18163e-05
1.22192e-05
1.26225e-05
1.30188e-05
1.34021e-05
1.37674e-05
1.4111e-05
1.443e-05
1.47224e-05
1.49872e-05
1.52238e-05
1.54325e-05
1.56137e-05
1.57686e-05
1.58983e-05
1.60044e-05
1.60885e-05
1.61523e-05
1.61975e-05
1.62259e-05
1.62393e-05
1.54915e-05
1.57146e-05
1.60236e-05
1.63983e-05
1.68208e-05
1.72752e-05
1.77477e-05
1.82261e-05
1.87004e-05
1.9162e-05
1.96042e-05
2.00218e-05
2.0411e-05
2.07691e-05
2.10947e-05
2.13872e-05
2.16466e-05
2.18737e-05
2.20697e-05
2.22361e-05
2.23747e-05
2.24875e-05
2.25764e-05
2.26436e-05
2.2691e-05
2.27208e-05
2.27348e-05
2.17869e-05
2.20157e-05
2.23309e-05
2.27104e-05
2.31348e-05
2.35871e-05
2.40525e-05
2.45187e-05
2.49758e-05
2.54158e-05
2.58328e-05
2.62224e-05
2.65818e-05
2.69094e-05
2.72045e-05
2.74674e-05
2.76987e-05
2.78998e-05
2.80722e-05
2.82177e-05
2.83383e-05
2.84359e-05
2.85126e-05
2.85703e-05
2.8611e-05
2.86364e-05
2.86483e-05
2.78796e-05
2.80746e-05
2.83418e-05
2.86613e-05
2.90157e-05
2.93899e-05
2.97713e-05
3.01498e-05
3.05172e-05
3.08675e-05
3.11965e-05
3.15012e-05
3.178e-05
3.20322e-05
3.22579e-05
3.24576e-05
3.26325e-05
3.27838e-05
3.2913e-05
3.30217e-05
3.31115e-05
3.3184e-05
3.3241e-05
3.32837e-05
3.33139e-05
3.33327e-05
3.33415e-05
3.28964e-05
3.30368e-05
3.32283e-05
3.34562e-05
3.37073e-05
3.39707e-05
3.42373e-05
3.45e-05
3.47534e-05
3.49935e-05
3.52176e-05
3.54241e-05
3.56123e-05
3.57819e-05
3.59331e-05
3.60668e-05
3.61835e-05
3.62845e-05
3.63707e-05
3.64433e-05
3.65033e-05
3.65518e-05
3.659e-05
3.66188e-05
3.66391e-05
3.66518e-05
3.66578e-05
3.6423e-05
3.65102e-05
3.66288e-05
3.67694e-05
3.69238e-05
3.70851e-05
3.72479e-05
3.74077e-05
3.75614e-05
3.77068e-05
3.78423e-05
3.7967e-05
3.80807e-05
3.81833e-05
3.8275e-05
3.83562e-05
3.84273e-05
3.84891e-05
3.85421e-05
3.85869e-05
3.86241e-05
3.86545e-05
3.86784e-05
3.86966e-05
3.87096e-05
3.87177e-05
3.87216e-05
3.85014e-05
3.85485e-05
3.86126e-05
3.86885e-05
3.87719e-05
3.88589e-05
3.89467e-05
3.90331e-05
3.91163e-05
3.91953e-05
3.92692e-05
3.93376e-05
3.94003e-05
3.94572e-05
3.95085e-05
3.95543e-05
3.95948e-05
3.96303e-05
3.9661e-05
3.96873e-05
3.97094e-05
3.97275e-05
3.9742e-05
3.97531e-05
3.97611e-05
3.97662e-05
3.97687e-05
3.94166e-05
3.94385e-05
3.94682e-05
3.95035e-05
3.95423e-05
3.95832e-05
3.96247e-05
3.96658e-05
3.97059e-05
3.97444e-05
3.97809e-05
3.98152e-05
3.98472e-05
3.98767e-05
3.99037e-05
3.99282e-05
3.99503e-05
3.997e-05
3.99874e-05
4.00024e-05
4.00153e-05
4.0026e-05
4.00348e-05
4.00415e-05
4.00465e-05
4.00497e-05
4.00512e-05
3.94991e-05
3.95072e-05
3.95184e-05
3.95319e-05
3.9547e-05
3.95632e-05
3.958e-05
3.95972e-05
3.96144e-05
3.96315e-05
3.96482e-05
3.96644e-05
3.96799e-05
3.96948e-05
3.97088e-05
3.97219e-05
3.97341e-05
3.97452e-05
3.97552e-05
3.97641e-05
3.97719e-05
3.97785e-05
3.9784e-05
3.97883e-05
3.97915e-05
3.97936e-05
3.97946e-05
3.90484e-05
3.90503e-05
3.9053e-05
3.90565e-05
3.90607e-05
3.90655e-05
3.9071e-05
3.90771e-05
3.90836e-05
3.90906e-05
3.9098e-05
3.91056e-05
3.91133e-05
3.91211e-05
3.91287e-05
3.91362e-05
3.91433e-05
3.91501e-05
3.91564e-05
3.91621e-05
3.91672e-05
3.91716e-05
3.91754e-05
3.91783e-05
3.91806e-05
3.91821e-05
3.91828e-05
3.82766e-05
3.82769e-05
3.82775e-05
3.82784e-05
3.82795e-05
3.82809e-05
3.82827e-05
3.82849e-05
3.82876e-05
3.82908e-05
3.82945e-05
3.82986e-05
3.83031e-05
3.83078e-05
3.83127e-05
3.83177e-05
3.83226e-05
3.83273e-05
3.83318e-05
3.83359e-05
3.83397e-05
3.8343e-05
3.83458e-05
3.83481e-05
3.83498e-05
3.8351e-05
3.83516e-05
3.7333e-05
3.73333e-05
3.73339e-05
3.73348e-05
3.7336e-05
3.73376e-05
3.73393e-05
3.73413e-05
3.73434e-05
3.73459e-05
3.73488e-05
3.7352e-05
3.73555e-05
3.73592e-05
3.73632e-05
3.73671e-05
3.73711e-05
3.7375e-05
3.73787e-05
3.73821e-05
3.73853e-05
3.73881e-05
3.73904e-05
3.73923e-05
3.73938e-05
3.73948e-05
3.73952e-05
3.63116e-05
3.63124e-05
3.63136e-05
3.63152e-05
3.63172e-05
3.63195e-05
3.6322e-05
3.63247e-05
3.63274e-05
3.63302e-05
3.63332e-05
3.63365e-05
3.63399e-05
3.63435e-05
3.63472e-05
3.63509e-05
3.63545e-05
3.63581e-05
3.63614e-05
3.63646e-05
3.63674e-05
3.63699e-05
3.6372e-05
3.63737e-05
3.6375e-05
3.63759e-05
3.63763e-05
3.52653e-05
3.52665e-05
3.52683e-05
3.52707e-05
3.52734e-05
3.52764e-05
3.52797e-05
3.52829e-05
3.52862e-05
3.52894e-05
3.52927e-05
3.52962e-05
3.52997e-05
3.53034e-05
3.5307e-05
3.53106e-05
3.53141e-05
3.53175e-05
3.53207e-05
3.53236e-05
3.53263e-05
3.53286e-05
3.53306e-05
3.53322e-05
3.53334e-05
3.53342e-05
3.53346e-05
3.42229e-05
3.42245e-05
3.42267e-05
3.42295e-05
3.42326e-05
3.42361e-05
3.42397e-05
3.42432e-05
3.42467e-05
3.42502e-05
3.42536e-05
3.42572e-05
3.42608e-05
3.42644e-05
3.4268e-05
3.42715e-05
3.42749e-05
3.42782e-05
3.42812e-05
3.4284e-05
3.42865e-05
3.42887e-05
3.42905e-05
3.4292e-05
3.42931e-05
3.42939e-05
3.42943e-05
3.31997e-05
3.32014e-05
3.32037e-05
3.32066e-05
3.32099e-05
3.32134e-05
3.3217e-05
3.32205e-05
3.32239e-05
3.32273e-05
3.32307e-05
3.32342e-05
3.32377e-05
3.32412e-05
3.32447e-05
3.32481e-05
3.32513e-05
3.32544e-05
3.32573e-05
3.32599e-05
3.32623e-05
3.32643e-05
3.32661e-05
3.32675e-05
3.32685e-05
3.32692e-05
3.32696e-05
3.22029e-05
3.22046e-05
3.22068e-05
3.22096e-05
3.22127e-05
3.22159e-05
3.22192e-05
3.22224e-05
3.22255e-05
3.22287e-05
3.22319e-05
3.22352e-05
3.22385e-05
3.22418e-05
3.2245e-05
3.22482e-05
3.22513e-05
3.22542e-05
3.22568e-05
3.22593e-05
3.22615e-05
3.22634e-05
3.2265e-05
3.22663e-05
3.22673e-05
3.2268e-05
3.22683e-05
3.12357e-05
3.12371e-05
3.12391e-05
3.12416e-05
3.12443e-05
3.1247e-05
3.12498e-05
3.12525e-05
3.12553e-05
3.12581e-05
3.1261e-05
3.12639e-05
3.1267e-05
3.127e-05
3.12729e-05
3.12759e-05
3.12787e-05
3.12813e-05
3.12838e-05
3.12861e-05
3.12881e-05
3.12899e-05
3.12913e-05
3.12926e-05
3.12935e-05
3.12941e-05
3.12944e-05
3.02987e-05
3.02999e-05
3.03016e-05
3.03035e-05
3.03057e-05
3.03078e-05
3.031e-05
3.03122e-05
3.03144e-05
3.03169e-05
3.03194e-05
3.0322e-05
3.03246e-05
3.03273e-05
3.03299e-05
3.03326e-05
3.03351e-05
3.03375e-05
3.03397e-05
3.03418e-05
3.03437e-05
3.03453e-05
3.03467e-05
3.03478e-05
3.03486e-05
3.03491e-05
3.03494e-05
2.93917e-05
2.93926e-05
2.93938e-05
2.93952e-05
2.93967e-05
2.93982e-05
2.93997e-05
2.94014e-05
2.94032e-05
2.94052e-05
2.94072e-05
2.94094e-05
2.94117e-05
2.9414e-05
2.94164e-05
2.94187e-05
2.94209e-05
2.94231e-05
2.94251e-05
2.94269e-05
2.94286e-05
2.94301e-05
2.94313e-05
2.94323e-05
2.94331e-05
2.94336e-05
2.94338e-05
2.85138e-05
2.85143e-05
2.8515e-05
2.85158e-05
2.85166e-05
2.85175e-05
2.85185e-05
2.85197e-05
2.8521e-05
2.85225e-05
2.85242e-05
2.8526e-05
2.85278e-05
2.85298e-05
2.85318e-05
2.85338e-05
2.85358e-05
2.85376e-05
2.85394e-05
2.85411e-05
2.85426e-05
2.85439e-05
2.8545e-05
2.85459e-05
2.85466e-05
2.85471e-05
2.85473e-05
2.76639e-05
2.7664e-05
2.76642e-05
2.76644e-05
2.76647e-05
2.7665e-05
2.76656e-05
2.76662e-05
2.76671e-05
2.76682e-05
2.76694e-05
2.76708e-05
2.76723e-05
2.76739e-05
2.76756e-05
2.76773e-05
2.7679e-05
2.76806e-05
2.76822e-05
2.76836e-05
2.7685e-05
2.76862e-05
2.76872e-05
2.7688e-05
2.76886e-05
2.7689e-05
2.76892e-05
2.68407e-05
2.68406e-05
2.68403e-05
2.68401e-05
2.68399e-05
2.68398e-05
2.68399e-05
2.68401e-05
2.68406e-05
2.68412e-05
2.68421e-05
2.68431e-05
2.68442e-05
2.68455e-05
2.68469e-05
2.68483e-05
2.68497e-05
2.68512e-05
2.68525e-05
2.68538e-05
2.6855e-05
2.6856e-05
2.68569e-05
2.68576e-05
2.68582e-05
2.68586e-05
2.68588e-05
2.60435e-05
2.60431e-05
2.60425e-05
2.60419e-05
2.60414e-05
2.60409e-05
2.60406e-05
2.60405e-05
2.60405e-05
2.60408e-05
2.60413e-05
2.6042e-05
2.60428e-05
2.60438e-05
2.60449e-05
2.6046e-05
2.60472e-05
2.60484e-05
2.60496e-05
2.60507e-05
2.60517e-05
2.60527e-05
2.60535e-05
2.60541e-05
2.60546e-05
2.6055e-05
2.60551e-05
2.52715e-05
2.52709e-05
2.52701e-05
2.52693e-05
2.52684e-05
2.52676e-05
2.5267e-05
2.52665e-05
2.52662e-05
2.52662e-05
2.52663e-05
2.52667e-05
2.52673e-05
2.5268e-05
2.52688e-05
2.52697e-05
2.52707e-05
2.52717e-05
2.52727e-05
2.52736e-05
2.52745e-05
2.52754e-05
2.52761e-05
2.52767e-05
2.52771e-05
2.52774e-05
2.52776e-05
2.45242e-05
2.45235e-05
2.45225e-05
2.45214e-05
2.45203e-05
2.45192e-05
2.45183e-05
2.45175e-05
2.45169e-05
2.45166e-05
2.45165e-05
2.45166e-05
2.45169e-05
2.45173e-05
2.45179e-05
2.45186e-05
2.45194e-05
2.45203e-05
2.45211e-05
2.45219e-05
2.45227e-05
2.45234e-05
2.45241e-05
2.45246e-05
2.4525e-05
2.45253e-05
2.45254e-05
2.3801e-05
2.38002e-05
2.3799e-05
2.37977e-05
2.37964e-05
2.37951e-05
2.37939e-05
2.37929e-05
2.37921e-05
2.37915e-05
2.37911e-05
2.3791e-05
2.37911e-05
2.37913e-05
2.37917e-05
2.37923e-05
2.37929e-05
2.37936e-05
2.37943e-05
2.3795e-05
2.37957e-05
2.37963e-05
2.37969e-05
2.37973e-05
2.37977e-05
2.3798e-05
2.37981e-05
2.31014e-05
2.31005e-05
2.30992e-05
2.30977e-05
2.30962e-05
2.30947e-05
2.30934e-05
2.30921e-05
2.30911e-05
2.30903e-05
2.30898e-05
2.30895e-05
2.30894e-05
2.30894e-05
2.30897e-05
2.30901e-05
2.30906e-05
2.30911e-05
2.30917e-05
2.30923e-05
2.30929e-05
2.30935e-05
2.3094e-05
2.30944e-05
2.30948e-05
2.3095e-05
2.30951e-05
2.2425e-05
2.2424e-05
2.24226e-05
2.2421e-05
2.24194e-05
2.24178e-05
2.24162e-05
2.24149e-05
2.24137e-05
2.24127e-05
2.2412e-05
2.24116e-05
2.24113e-05
2.24113e-05
2.24114e-05
2.24117e-05
2.24121e-05
2.24125e-05
2.2413e-05
2.24136e-05
2.24141e-05
2.24146e-05
2.2415e-05
2.24154e-05
2.24157e-05
2.2416e-05
2.24161e-05
2.17714e-05
2.17703e-05
2.17689e-05
2.17673e-05
2.17655e-05
2.17638e-05
2.17622e-05
2.17607e-05
2.17594e-05
2.17584e-05
2.17576e-05
2.1757e-05
2.17567e-05
2.17565e-05
2.17566e-05
2.17567e-05
2.1757e-05
2.17574e-05
2.17579e-05
2.17584e-05
2.17588e-05
2.17593e-05
2.17597e-05
2.17601e-05
2.17603e-05
2.17606e-05
2.17607e-05
2.11405e-05
2.11394e-05
2.11379e-05
2.11363e-05
2.11345e-05
2.11327e-05
2.1131e-05
2.11295e-05
2.11282e-05
2.11271e-05
2.11262e-05
2.11256e-05
2.11252e-05
2.1125e-05
2.1125e-05
2.11251e-05
2.11254e-05
2.11257e-05
2.11261e-05
2.11266e-05
2.1127e-05
2.11274e-05
2.11278e-05
2.11282e-05
2.11284e-05
2.11286e-05
2.11287e-05
2.05321e-05
2.0531e-05
2.05295e-05
2.05279e-05
2.05261e-05
2.05243e-05
2.05227e-05
2.05212e-05
2.05198e-05
2.05187e-05
2.05179e-05
2.05173e-05
2.05169e-05
2.05167e-05
2.05166e-05
2.05167e-05
2.0517e-05
2.05173e-05
2.05177e-05
2.05181e-05
2.05185e-05
2.0519e-05
2.05193e-05
2.05197e-05
2.05199e-05
2.05201e-05
2.05202e-05
1.99462e-05
1.99451e-05
1.99437e-05
1.99421e-05
1.99404e-05
1.99387e-05
1.99371e-05
1.99357e-05
1.99344e-05
1.99334e-05
1.99326e-05
1.9932e-05
1.99317e-05
1.99315e-05
1.99315e-05
1.99317e-05
1.99319e-05
1.99323e-05
1.99327e-05
1.99331e-05
1.99335e-05
1.99339e-05
1.99343e-05
1.99346e-05
1.99349e-05
1.99351e-05
1.99352e-05
1.9383e-05
1.9382e-05
1.93807e-05
1.93792e-05
1.93776e-05
1.9376e-05
1.93746e-05
1.93733e-05
1.93722e-05
1.93713e-05
1.93706e-05
1.93701e-05
1.93698e-05
1.93698e-05
1.93699e-05
1.93701e-05
1.93704e-05
1.93708e-05
1.93712e-05
1.93717e-05
1.93721e-05
1.93726e-05
1.9373e-05
1.93733e-05
1.93736e-05
1.93738e-05
1.93739e-05
1.88427e-05
1.88419e-05
1.88407e-05
1.88394e-05
1.8838e-05
1.88366e-05
1.88354e-05
1.88343e-05
1.88333e-05
1.88326e-05
1.88321e-05
1.88319e-05
1.88318e-05
1.88318e-05
1.8832e-05
1.88324e-05
1.88328e-05
1.88333e-05
1.88338e-05
1.88343e-05
1.88348e-05
1.88353e-05
1.88357e-05
1.88361e-05
1.88364e-05
1.88366e-05
1.88367e-05
1.8326e-05
1.83252e-05
1.83243e-05
1.83232e-05
1.8322e-05
1.83209e-05
1.832e-05
1.83192e-05
1.83185e-05
1.83181e-05
1.83179e-05
1.83179e-05
1.8318e-05
1.83183e-05
1.83187e-05
1.83192e-05
1.83197e-05
1.83203e-05
1.8321e-05
1.83216e-05
1.83222e-05
1.83227e-05
1.83232e-05
1.83236e-05
1.83239e-05
1.83241e-05
1.83242e-05
1.78334e-05
1.78328e-05
1.78321e-05
1.78313e-05
1.78305e-05
1.78298e-05
1.78292e-05
1.78288e-05
1.78286e-05
1.78285e-05
1.78286e-05
1.78289e-05
1.78294e-05
1.78299e-05
1.78306e-05
1.78313e-05
1.78321e-05
1.78329e-05
1.78336e-05
1.78344e-05
1.78351e-05
1.78357e-05
1.78363e-05
1.78367e-05
1.78371e-05
1.78373e-05
1.78374e-05
1.73659e-05
1.73656e-05
1.73652e-05
1.73648e-05
1.73644e-05
1.73642e-05
1.73641e-05
1.73642e-05
1.73644e-05
1.73648e-05
1.73654e-05
1.73661e-05
1.7367e-05
1.73679e-05
1.73689e-05
1.73699e-05
1.7371e-05
1.7372e-05
1.7373e-05
1.73739e-05
1.73747e-05
1.73755e-05
1.73761e-05
1.73767e-05
1.73771e-05
1.73773e-05
1.73775e-05
1.69248e-05
1.69248e-05
1.69248e-05
1.69249e-05
1.69251e-05
1.69254e-05
1.6926e-05
1.69267e-05
1.69275e-05
1.69285e-05
1.69297e-05
1.6931e-05
1.69323e-05
1.69337e-05
1.69351e-05
1.69365e-05
1.69379e-05
1.69392e-05
1.69405e-05
1.69416e-05
1.69427e-05
1.69436e-05
1.69443e-05
1.6945e-05
1.69455e-05
1.69458e-05
1.69459e-05
1.65119e-05
1.65122e-05
1.65127e-05
1.65134e-05
1.65143e-05
1.65153e-05
1.65166e-05
1.65181e-05
1.65197e-05
1.65215e-05
1.65233e-05
1.65253e-05
1.65272e-05
1.65292e-05
1.65311e-05
1.6533e-05
1.65348e-05
1.65365e-05
1.65381e-05
1.65396e-05
1.65409e-05
1.6542e-05
1.65429e-05
1.65437e-05
1.65442e-05
1.65446e-05
1.65448e-05
1.61291e-05
1.61298e-05
1.61309e-05
1.61324e-05
1.61341e-05
1.6136e-05
1.61382e-05
1.61406e-05
1.61432e-05
1.61459e-05
1.61486e-05
1.61514e-05
1.61541e-05
1.61568e-05
1.61594e-05
1.61619e-05
1.61642e-05
1.61664e-05
1.61684e-05
1.61703e-05
1.61719e-05
1.61732e-05
1.61744e-05
1.61753e-05
1.6176e-05
1.61764e-05
1.61767e-05
1.57791e-05
1.57804e-05
1.57823e-05
1.57846e-05
1.57873e-05
1.57903e-05
1.57936e-05
1.57972e-05
1.58009e-05
1.58046e-05
1.58084e-05
1.58122e-05
1.58159e-05
1.58195e-05
1.58229e-05
1.58262e-05
1.58292e-05
1.5832e-05
1.58346e-05
1.58369e-05
1.58389e-05
1.58406e-05
1.5842e-05
1.58431e-05
1.58439e-05
1.58444e-05
1.58447e-05
1.54653e-05
1.54672e-05
1.54699e-05
1.54733e-05
1.54772e-05
1.54816e-05
1.54863e-05
1.54912e-05
1.54962e-05
1.55013e-05
1.55064e-05
1.55115e-05
1.55164e-05
1.55211e-05
1.55255e-05
1.55298e-05
1.55337e-05
1.55372e-05
1.55405e-05
1.55433e-05
1.55458e-05
1.55479e-05
1.55497e-05
1.5551e-05
1.5552e-05
1.55527e-05
1.5553e-05
1.51915e-05
1.51942e-05
1.5198e-05
1.52027e-05
1.5208e-05
1.5214e-05
1.52203e-05
1.52269e-05
1.52336e-05
1.52404e-05
1.52471e-05
1.52538e-05
1.52602e-05
1.52663e-05
1.52721e-05
1.52775e-05
1.52824e-05
1.5287e-05
1.5291e-05
1.52946e-05
1.52977e-05
1.53003e-05
1.53025e-05
1.53042e-05
1.53054e-05
1.53062e-05
1.53066e-05
1.49626e-05
1.49662e-05
1.49713e-05
1.49775e-05
1.49847e-05
1.49925e-05
1.50009e-05
1.50097e-05
1.50185e-05
1.50275e-05
1.50363e-05
1.50449e-05
1.50532e-05
1.5061e-05
1.50684e-05
1.50753e-05
1.50816e-05
1.50874e-05
1.50925e-05
1.50969e-05
1.51008e-05
1.5104e-05
1.51067e-05
1.51087e-05
1.51102e-05
1.51112e-05
1.51117e-05
1.47845e-05
1.47893e-05
1.4796e-05
1.48042e-05
1.48137e-05
1.4824e-05
1.48351e-05
1.48465e-05
1.48581e-05
1.48696e-05
1.4881e-05
1.48921e-05
1.49027e-05
1.49128e-05
1.49222e-05
1.49309e-05
1.49388e-05
1.4946e-05
1.49524e-05
1.4958e-05
1.49628e-05
1.49668e-05
1.49701e-05
1.49726e-05
1.49745e-05
1.49756e-05
1.49762e-05
1.46654e-05
1.46717e-05
1.46805e-05
1.46912e-05
1.47036e-05
1.4717e-05
1.47313e-05
1.47461e-05
1.4761e-05
1.47758e-05
1.47904e-05
1.48045e-05
1.4818e-05
1.48307e-05
1.48426e-05
1.48535e-05
1.48635e-05
1.48725e-05
1.48805e-05
1.48874e-05
1.48934e-05
1.48983e-05
1.49023e-05
1.49055e-05
1.49077e-05
1.49092e-05
1.49099e-05
1.46156e-05
1.46237e-05
1.4635e-05
1.46489e-05
1.46648e-05
1.46821e-05
1.47003e-05
1.47192e-05
1.47382e-05
1.4757e-05
1.47755e-05
1.47933e-05
1.48103e-05
1.48263e-05
1.48412e-05
1.48549e-05
1.48673e-05
1.48785e-05
1.48884e-05
1.4897e-05
1.49044e-05
1.49105e-05
1.49154e-05
1.49193e-05
1.4922e-05
1.49238e-05
1.49247e-05
1.46474e-05
1.46578e-05
1.46722e-05
1.46899e-05
1.47101e-05
1.4732e-05
1.47552e-05
1.4779e-05
1.4803e-05
1.48267e-05
1.485e-05
1.48723e-05
1.48936e-05
1.49136e-05
1.49321e-05
1.49492e-05
1.49647e-05
1.49785e-05
1.49908e-05
1.50014e-05
1.50105e-05
1.5018e-05
1.50241e-05
1.50288e-05
1.50322e-05
1.50344e-05
1.50354e-05
1.47761e-05
1.47892e-05
1.48074e-05
1.48297e-05
1.48551e-05
1.48828e-05
1.49119e-05
1.49418e-05
1.49718e-05
1.50016e-05
1.50305e-05
1.50584e-05
1.50849e-05
1.51098e-05
1.51328e-05
1.5154e-05
1.51731e-05
1.51902e-05
1.52053e-05
1.52185e-05
1.52296e-05
1.52389e-05
1.52463e-05
1.52521e-05
1.52563e-05
1.52589e-05
1.52602e-05
1.502e-05
1.50364e-05
1.50593e-05
1.50872e-05
1.5119e-05
1.51536e-05
1.51899e-05
1.52272e-05
1.52646e-05
1.53016e-05
1.53377e-05
1.53723e-05
1.54051e-05
1.54358e-05
1.54643e-05
1.54905e-05
1.55141e-05
1.55352e-05
1.55538e-05
1.55699e-05
1.55836e-05
1.55949e-05
1.56041e-05
1.56111e-05
1.56162e-05
1.56195e-05
1.5621e-05
1.54015e-05
1.5422e-05
1.54505e-05
1.54853e-05
1.55248e-05
1.55677e-05
1.56128e-05
1.5659e-05
1.57054e-05
1.57512e-05
1.57958e-05
1.58385e-05
1.5879e-05
1.59169e-05
1.5952e-05
1.59841e-05
1.60131e-05
1.6039e-05
1.60618e-05
1.60815e-05
1.60983e-05
1.61122e-05
1.61234e-05
1.6132e-05
1.61382e-05
1.61421e-05
1.6144e-05
1.59471e-05
1.59724e-05
1.60077e-05
1.60507e-05
1.60996e-05
1.61526e-05
1.62082e-05
1.62652e-05
1.63223e-05
1.63787e-05
1.64334e-05
1.64859e-05
1.65356e-05
1.65821e-05
1.66251e-05
1.66643e-05
1.66998e-05
1.67315e-05
1.67593e-05
1.67833e-05
1.68038e-05
1.68207e-05
1.68343e-05
1.68447e-05
1.68523e-05
1.68571e-05
1.68594e-05
1.66869e-05
1.67181e-05
1.67613e-05
1.68141e-05
1.6874e-05
1.6939e-05
1.70071e-05
1.70768e-05
1.71467e-05
1.72155e-05
1.72823e-05
1.73463e-05
1.74068e-05
1.74634e-05
1.75157e-05
1.75634e-05
1.76065e-05
1.76449e-05
1.76786e-05
1.77078e-05
1.77325e-05
1.7753e-05
1.77694e-05
1.7782e-05
1.77911e-05
1.77969e-05
1.77997e-05
1.7653e-05
1.76908e-05
1.77434e-05
1.78075e-05
1.78802e-05
1.7959e-05
1.80416e-05
1.8126e-05
1.82105e-05
1.82937e-05
1.83744e-05
1.84516e-05
1.85246e-05
1.85927e-05
1.86556e-05
1.87131e-05
1.87648e-05
1.88109e-05
1.88514e-05
1.88863e-05
1.89159e-05
1.89404e-05
1.89601e-05
1.89752e-05
1.8986e-05
1.8993e-05
1.89963e-05
1.88746e-05
1.892e-05
1.8983e-05
1.90597e-05
1.91466e-05
1.92407e-05
1.93393e-05
1.944e-05
1.95406e-05
1.96397e-05
1.97356e-05
1.98273e-05
1.99139e-05
1.99948e-05
2.00693e-05
2.01373e-05
2.01985e-05
2.0253e-05
2.03007e-05
2.03419e-05
2.03768e-05
2.04057e-05
2.04289e-05
2.04466e-05
2.04594e-05
2.04675e-05
2.04714e-05
2.03704e-05
2.04236e-05
2.04974e-05
2.05872e-05
2.0689e-05
2.0799e-05
2.09141e-05
2.10314e-05
2.11487e-05
2.12639e-05
2.13754e-05
2.14819e-05
2.15823e-05
2.16759e-05
2.17621e-05
2.18406e-05
2.19113e-05
2.19742e-05
2.20292e-05
2.20767e-05
2.21169e-05
2.21501e-05
2.21767e-05
2.21971e-05
2.22117e-05
2.22211e-05
2.22255e-05
2.21345e-05
2.2195e-05
2.22788e-05
2.23808e-05
2.24961e-05
2.26206e-05
2.27506e-05
2.28831e-05
2.30152e-05
2.31448e-05
2.32701e-05
2.33895e-05
2.35019e-05
2.36066e-05
2.37029e-05
2.37906e-05
2.38693e-05
2.39393e-05
2.40005e-05
2.40532e-05
2.40978e-05
2.41346e-05
2.41641e-05
2.41867e-05
2.42029e-05
2.42133e-05
2.42182e-05
2.41186e-05
2.41842e-05
2.42752e-05
2.43856e-05
2.45104e-05
2.46448e-05
2.47849e-05
2.49273e-05
2.50691e-05
2.52079e-05
2.53417e-05
2.54691e-05
2.55888e-05
2.57e-05
2.58021e-05
2.58949e-05
2.59782e-05
2.6052e-05
2.61165e-05
2.6172e-05
2.62189e-05
2.62576e-05
2.62886e-05
2.63123e-05
2.63293e-05
2.63401e-05
2.63453e-05
2.62107e-05
2.62773e-05
2.63695e-05
2.6481e-05
2.66067e-05
2.67418e-05
2.68822e-05
2.70244e-05
2.71655e-05
2.73032e-05
2.74355e-05
2.75611e-05
2.76787e-05
2.77877e-05
2.78876e-05
2.79781e-05
2.80591e-05