/*--------------------------------*- C++ -*----------------------------------*\
| =========                 |                                                 |
| \\      /  F ield         | OpenFOAM: The Open Source CFD Toolbox           |
|  \\    /   O peration     | Version:  2106                                  |
|   \\  /    A nd           | Website:  www.openfoam.com                      |
|    \\/     M anipulation  |                                                 |
\*---------------------------------------------------------------------------*/
FoamFile
{
    version     2.0;
    format      ascii;
    arch        "LSB;label=32;scalar=64";
    class       volScalarField;
    location    "149.99958";
    object      C6H6_0;
}
// * * * * * * * * * * * * * * * * * * * * * * * * * * * * * * * * * * * * * //

dimensions      [0 0 0 0 0 0 0];

internalField   nonuniform List<scalar> 
3360
(
4.96569e-18
5.12548e-18
5.34784e-18
5.61983e-18
5.93012e-18
6.26852e-18
6.62583e-18
6.99378e-18
7.36495e-18
7.73283e-18
8.09176e-18
8.43695e-18
8.76443e-18
9.07105e-18
9.35439e-18
9.61279e-18
9.84522e-18
1.00512e-17
1.02309e-17
1.03847e-17
1.05137e-17
1.06191e-17
1.07023e-17
1.07651e-17
1.08092e-17
1.08367e-17
1.08494e-17
2.17832e-17
2.25838e-17
2.37136e-17
2.51206e-17
2.67616e-17
2.85992e-17
3.05996e-17
3.27322e-17
3.49684e-17
3.72811e-17
3.96444e-17
4.20331e-17
4.44222e-17
4.67872e-17
4.9104e-17
5.13487e-17
5.34981e-17
5.55297e-17
5.74218e-17
5.91542e-17
6.07082e-17
6.20675e-17
6.3218e-17
6.41484e-17
6.48506e-17
6.53195e-17
6.55533e-17
6.83481e-17
7.13477e-17
7.56099e-17
8.09658e-17
8.7275e-17
9.44112e-17
1.02255e-16
1.10687e-16
1.19589e-16
1.28839e-16
1.38311e-16
1.47881e-16
1.57428e-16
1.6683e-16
1.75969e-16
1.84734e-16
1.93024e-16
2.00744e-16
2.07815e-16
2.14171e-16
2.1976e-16
2.24547e-16
2.28509e-16
2.31641e-16
2.33949e-16
2.35455e-16
2.36188e-16
1.99049e-16
2.08935e-16
2.23078e-16
2.40971e-16
2.62191e-16
2.86343e-16
3.13029e-16
3.41841e-16
3.72346e-16
4.04093e-16
4.36614e-16
4.69432e-16
5.02076e-16
5.34086e-16
5.65025e-16
5.94491e-16
6.2213e-16
6.4764e-16
6.70777e-16
6.9136e-16
7.09269e-16
7.24441e-16
7.36867e-16
7.46586e-16
7.53678e-16
7.58257e-16
7.60466e-16
5.81543e-16
6.12731e-16
6.57431e-16
7.14115e-16
7.81488e-16
8.58305e-16
9.43284e-16
1.03507e-15
1.13222e-15
1.2332e-15
1.33644e-15
1.44035e-15
1.54337e-15
1.64402e-15
1.74091e-15
1.8328e-15
1.91864e-15
1.99754e-15
2.06882e-15
2.132e-15
2.18677e-15
2.23302e-15
2.27078e-15
2.30024e-15
2.32167e-15
2.33549e-15
2.34213e-15
1.71466e-15
1.81043e-15
1.94788e-15
2.12232e-15
2.32977e-15
2.56637e-15
2.82811e-15
3.11074e-15
3.4097e-15
3.7202e-15
4.03732e-15
4.35608e-15
4.67165e-15
4.97943e-15
5.27521e-15
5.55524e-15
5.81633e-15
6.05589e-15
6.27192e-15
6.46306e-15
6.62849e-15
6.76795e-15
6.88165e-15
6.97021e-15
7.03458e-15
7.07601e-15
7.09593e-15
5.09335e-15
5.38438e-15
5.80199e-15
6.33205e-15
6.96238e-15
7.68108e-15
8.47584e-15
9.33352e-15
1.02401e-14
1.11809e-14
1.21409e-14
1.31049e-14
1.40583e-14
1.49873e-14
1.58793e-14
1.6723e-14
1.7509e-14
1.82296e-14
1.88791e-14
1.94533e-14
1.99501e-14
2.03688e-14
2.071e-14
2.09757e-14
2.11687e-14
2.1293e-14
2.13527e-14
1.51797e-14
1.60554e-14
1.73126e-14
1.89089e-14
2.08076e-14
2.29729e-14
2.53674e-14
2.79513e-14
3.06822e-14
3.35155e-14
3.64056e-14
3.93069e-14
4.21752e-14
4.49689e-14
4.76499e-14
5.01849e-14
5.25454e-14
5.47087e-14
5.66574e-14
5.83797e-14
5.9869e-14
6.11235e-14
6.21455e-14
6.2941e-14
6.35188e-14
6.38905e-14
6.40691e-14
4.53593e-14
4.7991e-14
5.17685e-14
5.65642e-14
6.22677e-14
6.87708e-14
7.59607e-14
8.3717e-14
9.19117e-14
1.00411e-13
1.09077e-13
1.17774e-13
1.26369e-13
1.34738e-13
1.42767e-13
1.50356e-13
1.57422e-13
1.63895e-13
1.69726e-13
1.74879e-13
1.79334e-13
1.83087e-13
1.86144e-13
1.88523e-13
1.90251e-13
1.91363e-13
1.91897e-13
1.35543e-13
1.43425e-13
1.5474e-13
1.69106e-13
1.86191e-13
2.05672e-13
2.27209e-13
2.5044e-13
2.74982e-13
3.00432e-13
3.26379e-13
3.52412e-13
3.78135e-13
4.03175e-13
4.27193e-13
4.49891e-13
4.71017e-13
4.90369e-13
5.07794e-13
5.2319e-13
5.36498e-13
5.47704e-13
5.56831e-13
5.63933e-13
5.69092e-13
5.72409e-13
5.74002e-13
4.05212e-13
4.28803e-13
4.62665e-13
5.05648e-13
5.56757e-13
6.15016e-13
6.79405e-13
7.4884e-13
8.22168e-13
8.98184e-13
9.75656e-13
1.05336e-12
1.13012e-12
1.20481e-12
1.27643e-12
1.3441e-12
1.40707e-12
1.46474e-12
1.51665e-12
1.56251e-12
1.60214e-12
1.63551e-12
1.66269e-12
1.68383e-12
1.69919e-12
1.70907e-12
1.71381e-12
1.21016e-12
1.28058e-12
1.38165e-12
1.50994e-12
1.66243e-12
1.83622e-12
2.02824e-12
2.23524e-12
2.45376e-12
2.68022e-12
2.91092e-12
3.14223e-12
3.37062e-12
3.59279e-12
3.80574e-12
4.00686e-12
4.19393e-12
4.36518e-12
4.5193e-12
4.65539e-12
4.77297e-12
4.87194e-12
4.95251e-12
5.01519e-12
5.06069e-12
5.08994e-12
5.104e-12
3.60984e-12
3.81966e-12
4.1207e-12
4.5026e-12
4.95637e-12
5.47319e-12
6.04388e-12
6.65869e-12
7.3073e-12
7.97898e-12
8.6628e-12
9.34794e-12
1.0024e-11
1.06812e-11
1.13107e-11
1.19049e-11
1.24573e-11
1.29627e-11
1.34174e-11
1.38187e-11
1.41652e-11
1.44569e-11
1.46942e-11
1.48787e-11
1.50127e-11
1.50988e-11
1.51401e-11
1.0735e-11
1.13572e-11
1.22496e-11
1.33811e-11
1.47246e-11
1.62538e-11
1.7941e-11
1.97571e-11
2.16714e-11
2.36519e-11
2.56663e-11
2.76827e-11
2.96704e-11
3.16009e-11
3.34484e-11
3.51907e-11
3.6809e-11
3.82884e-11
3.96182e-11
4.0791e-11
4.18033e-11
4.26544e-11
4.33467e-11
4.38848e-11
4.42751e-11
4.45259e-11
4.46463e-11
3.18032e-11
3.36376e-11
3.62666e-11
3.95973e-11
4.35482e-11
4.80397e-11
5.29892e-11
5.83098e-11
6.391e-11
6.96957e-11
7.55718e-11
8.14451e-11
8.72266e-11
9.28339e-11
9.81931e-11
1.0324e-10
1.07923e-10
1.12198e-10
1.16037e-10
1.1942e-10
1.22337e-10
1.24787e-10
1.26779e-10
1.28326e-10
1.29447e-10
1.30168e-10
1.30513e-10
9.36494e-11
9.90044e-11
1.06672e-10
1.16375e-10
1.2787e-10
1.40916e-10
1.55268e-10
1.70668e-10
1.86847e-10
2.0353e-10
2.2044e-10
2.3731e-10
2.53884e-10
2.69928e-10
2.85235e-10
2.99625e-10
3.12953e-10
3.25104e-10
3.35997e-10
3.45582e-10
3.53836e-10
3.60763e-10
3.66386e-10
3.70748e-10
3.73909e-10
3.75937e-10
3.76909e-10
2.73578e-10
2.89004e-10
3.11065e-10
3.38934e-10
3.71883e-10
4.09198e-10
4.50149e-10
4.93979e-10
5.39906e-10
5.87137e-10
6.34885e-10
6.82392e-10
7.28946e-10
7.73899e-10
8.16681e-10
8.56809e-10
8.93892e-10
9.27632e-10
9.57821e-10
9.84337e-10
1.00713e-09
1.02623e-09
1.04172e-09
1.05372e-09
1.0624e-09
1.06797e-09
1.07063e-09
7.90607e-10
8.34224e-10
8.96492e-10
9.7498e-10
1.06753e-09
1.17203e-09
1.28636e-09
1.40832e-09
1.53567e-09
1.66619e-09
1.79769e-09
1.92807e-09
2.05542e-09
2.178e-09
2.2943e-09
2.40307e-09
2.50332e-09
2.5943e-09
2.6755e-09
2.74667e-09
2.80774e-09
2.85881e-09
2.90014e-09
2.93212e-09
2.95523e-09
2.97003e-09
2.97711e-09
2.25277e-09
2.37308e-09
2.54446e-09
2.75986e-09
3.01298e-09
3.29772e-09
3.60796e-09
3.93752e-09
4.2802e-09
4.62989e-09
4.9807e-09
5.32713e-09
5.66414e-09
5.98728e-09
6.29278e-09
6.57753e-09
6.83912e-09
7.07581e-09
7.28652e-09
7.47071e-09
7.62839e-09
7.75998e-09
7.86628e-09
7.9484e-09
8.00765e-09
8.04552e-09
8.06363e-09
6.30249e-09
6.62397e-09
7.08064e-09
7.65256e-09
8.32189e-09
9.07142e-09
9.88415e-09
1.07432e-08
1.1632e-08
1.25344e-08
1.34353e-08
1.43208e-08
1.51783e-08
1.5997e-08
1.67679e-08
1.74837e-08
1.8139e-08
1.873e-08
1.92545e-08
1.97118e-08
2.01023e-08
2.04274e-08
2.06895e-08
2.08917e-08
2.10373e-08
2.11302e-08
2.11746e-08
1.72289e-08
1.8055e-08
1.92248e-08
2.06839e-08
2.23835e-08
2.42769e-08
2.63189e-08
2.84654e-08
3.06738e-08
3.2904e-08
3.51188e-08
3.72847e-08
3.93721e-08
4.13561e-08
4.32163e-08
4.49368e-08
4.65061e-08
4.79168e-08
4.91651e-08
5.02503e-08
5.11747e-08
5.19427e-08
5.25606e-08
5.30362e-08
5.33782e-08
5.35963e-08
5.37002e-08
4.57691e-08
4.77975e-08
5.06601e-08
5.42153e-08
5.83358e-08
6.29016e-08
6.7798e-08
7.29157e-08
7.81514e-08
8.34098e-08
8.86043e-08
9.36583e-08
9.85063e-08
1.03094e-07
1.07377e-07
1.11324e-07
1.14911e-07
1.18126e-07
1.20962e-07
1.23421e-07
1.25511e-07
1.27243e-07
1.28635e-07
1.29704e-07
1.30471e-07
1.3096e-07
1.31193e-07
1.17529e-07
1.22267e-07
1.28932e-07
1.37174e-07
1.46681e-07
1.5716e-07
1.68337e-07
1.79957e-07
1.91781e-07
2.03594e-07
2.15207e-07
2.26453e-07
2.37194e-07
2.47316e-07
2.56732e-07
2.65379e-07
2.73213e-07
2.80212e-07
2.86372e-07
2.917e-07
2.96219e-07
2.99958e-07
3.02955e-07
3.05255e-07
3.06904e-07
3.07953e-07
3.08452e-07
2.90411e-07
3.00929e-07
3.1568e-07
3.33853e-07
3.54723e-07
3.77623e-07
4.01932e-07
4.27081e-07
4.52555e-07
4.77893e-07
5.02694e-07
5.26616e-07
5.49378e-07
5.70755e-07
5.90577e-07
6.08725e-07
6.25125e-07
6.39742e-07
6.52577e-07
6.63658e-07
6.73038e-07
6.80787e-07
6.8699e-07
6.91744e-07
6.95149e-07
6.97313e-07
6.98341e-07
6.88601e-07
7.10846e-07
7.41967e-07
7.80191e-07
8.23934e-07
8.71749e-07
9.22314e-07
9.74427e-07
1.02702e-06
1.07914e-06
1.12998e-06
1.17887e-06
1.22525e-06
1.26869e-06
1.30887e-06
1.34557e-06
1.37866e-06
1.40811e-06
1.43391e-06
1.45616e-06
1.47496e-06
1.49048e-06
1.50289e-06
1.51239e-06
1.51918e-06
1.5235e-06
1.52555e-06
1.56544e-06
1.61053e-06
1.67349e-06
1.75064e-06
1.83871e-06
1.93473e-06
2.03598e-06
2.14005e-06
2.24479e-06
2.34835e-06
2.44913e-06
2.54582e-06
2.63736e-06
2.72293e-06
2.80195e-06
2.87402e-06
2.93891e-06
2.99657e-06
3.04705e-06
3.09051e-06
3.12722e-06
3.15748e-06
3.18166e-06
3.20016e-06
3.21339e-06
3.22178e-06
3.22577e-06
3.4144e-06
3.50264e-06
3.62571e-06
3.77634e-06
3.94802e-06
4.13488e-06
4.33165e-06
4.53358e-06
4.73655e-06
4.93694e-06
5.13173e-06
5.31842e-06
5.49499e-06
5.65992e-06
5.8121e-06
5.95079e-06
6.07562e-06
6.18646e-06
6.28346e-06
6.36696e-06
6.43745e-06
6.49554e-06
6.54194e-06
6.57743e-06
6.60281e-06
6.61891e-06
6.62655e-06
7.15342e-06
7.32129e-06
7.55538e-06
7.84172e-06
8.16797e-06
8.52293e-06
8.89658e-06
9.27998e-06
9.66528e-06
1.00457e-05
1.04155e-05
1.077e-05
1.11054e-05
1.14187e-05
1.1708e-05
1.19717e-05
1.22091e-05
1.24201e-05
1.26047e-05
1.27638e-05
1.28981e-05
1.30088e-05
1.30973e-05
1.3165e-05
1.32135e-05
1.32442e-05
1.32588e-05
1.44009e-05
1.4712e-05
1.51459e-05
1.56768e-05
1.62819e-05
1.69406e-05
1.76345e-05
1.83469e-05
1.90636e-05
1.97719e-05
2.04611e-05
2.11225e-05
2.1749e-05
2.23351e-05
2.28767e-05
2.33711e-05
2.38168e-05
2.42132e-05
2.45607e-05
2.48602e-05
2.51135e-05
2.53225e-05
2.54897e-05
2.56178e-05
2.57095e-05
2.57677e-05
2.57954e-05
2.78064e-05
2.83636e-05
2.91409e-05
3.00925e-05
3.11777e-05
3.23599e-05
3.3606e-05
3.48868e-05
3.61763e-05
3.7452e-05
3.86948e-05
3.98887e-05
4.10209e-05
4.20813e-05
4.30624e-05
4.3959e-05
4.47683e-05
4.54889e-05
4.61212e-05
4.66669e-05
4.71288e-05
4.75104e-05
4.7816e-05
4.80502e-05
4.82181e-05
4.83248e-05
4.83755e-05
5.12591e-05
5.22071e-05
5.35297e-05
5.51484e-05
5.69942e-05
5.90047e-05
6.11238e-05
6.33017e-05
6.54942e-05
6.76634e-05
6.97767e-05
7.1807e-05
7.37326e-05
7.55362e-05
7.72053e-05
7.8731e-05
8.01083e-05
8.1335e-05
8.24118e-05
8.33414e-05
8.41284e-05
8.47788e-05
8.52998e-05
8.56993e-05
8.59858e-05
8.61679e-05
8.62546e-05
8.96549e-05
9.11577e-05
9.32523e-05
9.58134e-05
9.87301e-05
0.000101903
0.000105242
0.000108668
0.000112113
0.000115515
0.000118825
0.000122001
0.000125009
0.000127822
0.000130423
0.000132797
0.000134938
0.000136844
0.000138515
0.000139957
0.000141176
0.000142184
0.00014299
0.000143609
0.000144052
0.000144333
0.000144467
0.000148018
0.00015021
0.00015326
0.000156982
0.000161212
0.000165802
0.00017062
0.000175551
0.000180495
0.000185365
0.00019009
0.000194611
0.000198882
0.000202869
0.000206545
0.000209894
0.000212908
0.000215586
0.00021793
0.000219949
0.000221655
0.000223062
0.000224188
0.000225049
0.000225667
0.000226059
0.000226245
0.000230254
0.000233189
0.000237267
0.000242233
0.000247861
0.00025395
0.000260323
0.000266825
0.000273321
0.000279701
0.000285871
0.000291756
0.000297301
0.00030246
0.000307205
0.000311518
0.000315391
0.000318823
0.000321823
0.000324402
0.000326577
0.000328369
0.0003298
0.000330895
0.000331678
0.000332175
0.000332411
0.000338184
0.000341825
0.000346874
0.00035301
0.000359946
0.000367431
0.000375241
0.000383185
0.000391099
0.000398848
0.000406321
0.00041343
0.000420109
0.000426309
0.000431999
0.000437159
0.000441784
0.000445875
0.000449445
0.000452509
0.000455091
0.000457216
0.000458911
0.000460207
0.000461133
0.00046172
0.000461999
0.00047137
0.00047561
0.000481484
0.00048861
0.00049665
0.000505306
0.000514319
0.000523466
0.000532559
0.000541443
0.000549993
0.00055811
0.000565723
0.000572779
0.000579243
0.000585099
0.00059034
0.000594973
0.00059901
0.000602475
0.000605391
0.00060779
0.000609703
0.000611164
0.000612209
0.000612871
0.000613186
0.000627673
0.000632388
0.000638913
0.000646819
0.00065573
0.000665312
0.000675275
0.000685372
0.000695397
0.000705179
0.000714583
0.000723503
0.000731861
0.0007396
0.000746687
0.000753102
0.000758842
0.000763913
0.000768331
0.000772122
0.000775312
0.000777936
0.000780029
0.000781628
0.000782772
0.000783496
0.000783841
0.000804127
0.000809206
0.000816233
0.000824743
0.000834328
0.000844628
0.000855333
0.000866176
0.000876935
0.000887429
0.000897514
0.000907076
0.000916034
0.000924328
0.000931921
0.000938795
0.000944945
0.000950379
0.000955115
0.000959178
0.000962599
0.000965413
0.000967658
0.000969374
0.000970601
0.000971379
0.000971749
0.000997669
0.00100303
0.00101045
0.00101944
0.00102956
0.00104044
0.00105174
0.00106318
0.00107454
0.00108562
0.00109626
0.00110636
0.00111581
0.00112457
0.00113259
0.00113986
0.00114636
0.0011521
0.00115711
0.00116141
0.00116503
0.001168
0.00117038
0.0011722
0.0011735
0.00117432
0.00117471
0.00120554
0.00121114
0.00121889
0.00122827
0.00123884
0.00125019
0.001262
0.00127395
0.00128582
0.00129739
0.00130852
0.00131907
0.00132896
0.00133813
0.00134652
0.00135412
0.00136093
0.00136694
0.00137219
0.00137669
0.00138049
0.00138361
0.00138611
0.00138801
0.00138938
0.00139024
0.00139066
0.00142542
0.00143122
0.00143925
0.00144898
0.00145994
0.00147171
0.00148396
0.00149636
0.00150868
0.00152069
0.00153225
0.00154321
0.00155349
0.00156301
0.00157174
0.00157964
0.00158672
0.00159298
0.00159844
0.00160313
0.00160708
0.00161033
0.00161293
0.00161492
0.00161634
0.00161724
0.00161767
0.00165537
0.00166136
0.00166965
0.00167969
0.001691
0.00170316
0.0017158
0.00172862
0.00174134
0.00175376
0.0017657
0.00177704
0.00178766
0.00179751
0.00180654
0.00181471
0.00182204
0.00182852
0.00183417
0.00183902
0.00184312
0.00184649
0.00184918
0.00185124
0.00185271
0.00185364
0.00185409
0.00189385
0.00190001
0.00190854
0.00191887
0.0019305
0.00194302
0.00195603
0.00196922
0.00198232
0.0019951
0.0020074
0.00201907
0.00203001
0.00204016
0.00204946
0.00205788
0.00206543
0.00207211
0.00207793
0.00208294
0.00208715
0.00209063
0.0020934
0.00209552
0.00209704
0.00209801
0.00209847
0.00213958
0.0021459
0.00215465
0.00216524
0.00217718
0.00219002
0.00220337
0.00221691
0.00223035
0.00224347
0.00225609
0.00226807
0.0022793
0.00228971
0.00229926
0.00230791
0.00231566
0.00232251
0.00232849
0.00233363
0.00233796
0.00234153
0.00234438
0.00234656
0.00234812
0.00234911
0.00234958
0.0023915
0.00239797
0.00240692
0.00241776
0.00242998
0.00244312
0.00245678
0.00247063
0.00248438
0.0024978
0.00251072
0.00252298
0.00253447
0.00254513
0.0025549
0.00256375
0.00257168
0.0025787
0.00258482
0.00259007
0.00259451
0.00259816
0.00260107
0.00260331
0.0026049
0.00260592
0.0026064
0.00264872
0.00265532
0.00266445
0.00267552
0.00268799
0.0027014
0.00271534
0.00272948
0.00274351
0.00275722
0.0027704
0.00278291
0.00279464
0.00280551
0.00281548
0.00282452
0.00283261
0.00283977
0.00284601
0.00285138
0.0028559
0.00285962
0.0028626
0.00286488
0.00286651
0.00286754
0.00286803
0.00291045
0.00291717
0.00292647
0.00293774
0.00295045
0.0029641
0.0029783
0.00299269
0.00300698
0.00302094
0.00303435
0.00304709
0.00305903
0.0030701
0.00308025
0.00308944
0.00309768
0.00310496
0.00311132
0.00311678
0.00312138
0.00312517
0.0031282
0.00313052
0.00313217
0.00313323
0.00313373
0.00317603
0.00318286
0.00319232
0.00320377
0.00321668
0.00323055
0.00324498
0.0032596
0.00327412
0.0032883
0.00330193
0.00331486
0.00332699
0.00333824
0.00334854
0.00335788
0.00336624
0.00337364
0.00338009
0.00338563
0.0033903
0.00339415
0.00339723
0.00339958
0.00340126
0.00340233
0.00340284
0.00344488
0.00345181
0.0034614
0.00347301
0.0034861
0.00350017
0.0035148
0.00352963
0.00354435
0.00355872
0.00357254
0.00358565
0.00359794
0.00360934
0.00361978
0.00362924
0.00363771
0.00364521
0.00365175
0.00365736
0.0036621
0.00366599
0.00366911
0.00367149
0.00367319
0.00367428
0.00367479
0.00371647
0.00372348
0.00373319
0.00374495
0.0037582
0.00377244
0.00378725
0.00380225
0.00381715
0.00383169
0.00384567
0.00385894
0.00387138
0.0038829
0.00389346
0.00390303
0.0039116
0.00391918
0.00392579
0.00393147
0.00393626
0.0039402
0.00394335
0.00394576
0.00394748
0.00394857
0.00394909
0.00399034
0.00399743
0.00400724
0.00401912
0.00403251
0.0040469
0.00406186
0.00407702
0.00409207
0.00410676
0.00412088
0.00413428
0.00414684
0.00415848
0.00416914
0.00417881
0.00418746
0.00419511
0.00420179
0.00420752
0.00421235
0.00421633
0.0042195
0.00422194
0.00422367
0.00422478
0.0042253
0.00426607
0.00427322
0.00428312
0.00429512
0.00430862
0.00432314
0.00433823
0.00435352
0.0043687
0.00438352
0.00439776
0.00441127
0.00442394
0.00443567
0.00444642
0.00445616
0.00446489
0.0044726
0.00447933
0.00448511
0.00448998
0.00449399
0.00449719
0.00449964
0.00450139
0.0045025
0.00450303
0.00454329
0.0045505
0.00456047
0.00457255
0.00458616
0.00460079
0.00461599
0.00463139
0.00464668
0.0046616
0.00467594
0.00468955
0.0047023
0.00471412
0.00472494
0.00473475
0.00474353
0.00475129
0.00475807
0.00476388
0.00476878
0.00477282
0.00477604
0.00477851
0.00478027
0.00478139
0.00478192
0.00482165
0.0048289
0.00483894
0.0048511
0.00486479
0.0048795
0.0048948
0.00491029
0.00492567
0.00494068
0.0049551
0.00496879
0.00498161
0.00499349
0.00500438
0.00501424
0.00502307
0.00503087
0.00503768
0.00504353
0.00504845
0.00505251
0.00505575
0.00505823
0.00506
0.00506113
0.00506166
0.00510085
0.00510814
0.00511823
0.00513044
0.0051442
0.00515899
0.00517436
0.00518993
0.00520538
0.00522046
0.00523495
0.00524869
0.00526157
0.00527351
0.00528444
0.00529434
0.00530321
0.00531105
0.00531789
0.00532376
0.0053287
0.00533277
0.00533603
0.00533851
0.00534029
0.00534142
0.00534196
0.0053806
0.00538792
0.00539805
0.00541031
0.00542413
0.00543897
0.0054544
0.00547002
0.00548553
0.00550066
0.0055152
0.00552899
0.00554192
0.00555389
0.00556486
0.0055748
0.00558369
0.00559155
0.00559841
0.0056043
0.00560926
0.00561335
0.00561661
0.0056191
0.00562089
0.00562202
0.00562256
0.00566065
0.00566799
0.00567815
0.00569045
0.0057043
0.00571919
0.00573466
0.00575032
0.00576587
0.00578104
0.00579562
0.00580945
0.0058224
0.00583441
0.0058454
0.00585536
0.00586427
0.00587215
0.00587902
0.00588493
0.0058899
0.00589399
0.00589726
0.00589976
0.00590155
0.00590268
0.00590322
0.00594076
0.00594812
0.0059583
0.00597062
0.0059845
0.00599941
0.00601491
0.00603061
0.00604618
0.00606137
0.00607598
0.00608983
0.0061028
0.00611482
0.00612583
0.0061358
0.00614473
0.00615262
0.0061595
0.00616541
0.00617039
0.00617448
0.00617776
0.00618026
0.00618205
0.00618319
0.00618373
0.00622072
0.00622809
0.00623828
0.00625061
0.00626451
0.00627943
0.00629495
0.00631066
0.00632624
0.00634145
0.00635606
0.00636992
0.00638291
0.00639494
0.00640595
0.00641593
0.00642486
0.00643276
0.00643964
0.00644555
0.00645053
0.00645463
0.0064579
0.00646041
0.0064622
0.00646333
0.00646387
0.00650032
0.00650769
0.00651788
0.00653022
0.00654412
0.00655905
0.00657457
0.00659028
0.00660587
0.00662108
0.00663569
0.00664955
0.00666253
0.00667456
0.00668557
0.00669555
0.00670448
0.00671237
0.00671925
0.00672516
0.00673014
0.00673424
0.00673751
0.00674001
0.0067418
0.00674294
0.00674348
0.00677938
0.00678675
0.00679693
0.00680927
0.00682316
0.00683808
0.00685359
0.00686929
0.00688487
0.00690007
0.00691467
0.00692852
0.0069415
0.00695351
0.00696452
0.00697448
0.0069834
0.00699129
0.00699817
0.00700407
0.00700904
0.00701313
0.0070164
0.0070189
0.00702069
0.00702182
0.00702236
0.00705772
0.00706508
0.00707526
0.00708758
0.00710145
0.00711636
0.00713184
0.00714753
0.00716309
0.00717826
0.00719285
0.00720667
0.00721963
0.00723163
0.00724262
0.00725257
0.00726147
0.00726934
0.00727621
0.0072821
0.00728707
0.00729115
0.00729441
0.00729691
0.00729869
0.00729983
0.00730037
0.00733518
0.00734253
0.00735268
0.00736498
0.00737883
0.00739371
0.00740917
0.00742482
0.00744035
0.00745549
0.00747005
0.00748385
0.00749677
0.00750875
0.00751971
0.00752964
0.00753852
0.00754638
0.00755323
0.00755911
0.00756406
0.00756813
0.00757139
0.00757388
0.00757566
0.00757679
0.00757733
0.0076116
0.00761892
0.00762906
0.00764133
0.00765514
0.00766998
0.0076854
0.00770101
0.0077165
0.0077316
0.00774612
0.00775988
0.00777277
0.00778471
0.00779564
0.00780554
0.0078144
0.00782224
0.00782906
0.00783493
0.00783986
0.00784393
0.00784717
0.00784965
0.00785143
0.00785256
0.00785309
0.00788682
0.00789412
0.00790422
0.00791645
0.00793022
0.00794502
0.00796039
0.00797595
0.00799139
0.00800644
0.00802091
0.00803462
0.00804747
0.00805937
0.00807026
0.00808013
0.00808896
0.00809676
0.00810357
0.00810941
0.00811433
0.00811838
0.00812161
0.00812408
0.00812585
0.00812697
0.00812751
0.00816068
0.00816796
0.00817802
0.00819021
0.00820393
0.00821867
0.00823398
0.00824948
0.00826486
0.00827985
0.00829426
0.00830792
0.00832072
0.00833257
0.00834342
0.00835324
0.00836203
0.00836981
0.00837658
0.0083824
0.0083873
0.00839133
0.00839455
0.00839701
0.00839877
0.00839989
0.00840042
0.00843304
0.00844028
0.0084503
0.00846244
0.00847609
0.00849077
0.00850601
0.00852144
0.00853675
0.00855167
0.00856602
0.00857961
0.00859235
0.00860414
0.00861494
0.00862472
0.00863347
0.00864121
0.00864795
0.00865374
0.00865861
0.00866262
0.00866583
0.00866828
0.00867003
0.00867114
0.00867167
0.00870372
0.00871093
0.0087209
0.00873297
0.00874656
0.00876115
0.00877631
0.00879167
0.00880689
0.00882174
0.00883601
0.00884953
0.0088622
0.00887393
0.00888467
0.0088944
0.0089031
0.00891079
0.0089175
0.00892325
0.0089281
0.00893209
0.00893527
0.00893771
0.00893945
0.00894056
0.00894108
0.00897255
0.00897972
0.00898963
0.00900163
0.00901514
0.00902965
0.00904472
0.00905998
0.00907512
0.00908988
0.00910406
0.0091175
0.00913009
0.00914175
0.00915242
0.00916208
0.00917073
0.00917838
0.00918504
0.00919076
0.00919557
0.00919954
0.0092027
0.00920512
0.00920685
0.00920795
0.00920848
0.00923934
0.00924646
0.00925631
0.00926823
0.00928165
0.00929606
0.00931103
0.00932619
0.00934122
0.00935588
0.00936996
0.00938331
0.00939581
0.00940739
0.00941799
0.00942758
0.00943617
0.00944376
0.00945037
0.00945605
0.00946083
0.00946477
0.00946791
0.00947031
0.00947203
0.00947312
0.00947364
0.00950388
0.00951094
0.00952072
0.00953255
0.00954586
0.00956017
0.00957502
0.00959006
0.00960498
0.00961952
0.00963349
0.00964674
0.00965914
0.00967063
0.00968114
0.00969066
0.00969917
0.0097067
0.00971326
0.00971889
0.00972364
0.00972754
0.00973066
0.00973304
0.00973474
0.00973583
0.00973634
0.00976592
0.00977293
0.00978261
0.00979434
0.00980754
0.00982172
0.00983645
0.00985135
0.00986614
0.00988055
0.0098944
0.00990752
0.00991982
0.0099312
0.00994161
0.00995105
0.00995948
0.00996694
0.00997344
0.00997902
0.00998372
0.00998759
0.00999068
0.00999304
0.00999472
0.0099958
0.00999631
0.0100252
0.0100321
0.0100417
0.0100533
0.0100664
0.0100804
0.010095
0.0101098
0.0101244
0.0101387
0.0101524
0.0101654
0.0101775
0.0101888
0.0101991
0.0102084
0.0102168
0.0102242
0.0102306
0.0102361
0.0102408
0.0102446
0.0102477
0.01025
0.0102517
0.0102527
0.0102532
0.0102814
0.0102882
0.0102977
0.0103092
0.0103221
0.010336
0.0103504
0.010365
0.0103794
0.0103935
0.0104071
0.0104199
0.0104319
0.0104431
0.0104533
0.0104625
0.0104707
0.010478
0.0104844
0.0104898
0.0104944
0.0104982
0.0105012
0.0105035
0.0105052
0.0105062
0.0105067
0.010534
0.0105408
0.0105502
0.0105615
0.0105743
0.0105879
0.0106022
0.0106166
0.0106308
0.0106447
0.0106581
0.0106708
0.0106826
0.0106936
0.0107036
0.0107127
0.0107209
0.0107281
0.0107343
0.0107397
0.0107442
0.010748
0.0107509
0.0107532
0.0107548
0.0107559
0.0107564
0.0107828
0.0107895
0.0107987
0.0108098
0.0108224
0.0108359
0.0108499
0.0108641
0.0108781
0.0108918
0.010905
0.0109174
0.0109291
0.0109399
0.0109498
0.0109587
0.0109667
0.0109738
0.01098
0.0109853
0.0109897
0.0109934
0.0109963
0.0109985
0.0110001
0.0110012
0.0110016
0.0110271
0.0110337
0.0110427
0.0110537
0.011066
0.0110793
0.011093
0.0111069
0.0111207
0.0111342
0.0111471
0.0111593
0.0111708
0.0111814
0.0111911
0.0111998
0.0112077
0.0112146
0.0112207
0.0112259
0.0112302
0.0112338
0.0112367
0.0112389
0.0112405
0.0112415
0.0112419
0.0112663
0.0112727
0.0112816
0.0112924
0.0113044
0.0113174
0.0113309
0.0113445
0.011358
0.0113711
0.0113838
0.0113958
0.011407
0.0114173
0.0114268
0.0114354
0.0114431
0.0114499
0.0114558
0.0114609
0.0114651
0.0114686
0.0114714
0.0114736
0.0114751
0.0114761
0.0114766
0.0114998
0.011506
0.0115147
0.0115251
0.0115369
0.0115496
0.0115627
0.011576
0.0115892
0.011602
0.0116143
0.011626
0.0116369
0.011647
0.0116562
0.0116646
0.0116721
0.0116787
0.0116844
0.0116894
0.0116935
0.011697
0.0116997
0.0117018
0.0117033
0.0117042
0.0117047
0.0117265
0.0117326
0.011741
0.0117512
0.0117626
0.0117749
0.0117877
0.0118006
0.0118133
0.0118258
0.0118377
0.011849
0.0118596
0.0118694
0.0118784
0.0118865
0.0118938
0.0119002
0.0119057
0.0119105
0.0119145
0.0119179
0.0119205
0.0119225
0.011924
0.0119249
0.0119253
0.0119457
0.0119516
0.0119597
0.0119695
0.0119806
0.0119924
0.0120047
0.0120172
0.0120295
0.0120415
0.012053
0.0120639
0.0120742
0.0120836
0.0120922
0.0121
0.012107
0.0121132
0.0121186
0.0121232
0.0121271
0.0121303
0.0121328
0.0121347
0.0121361
0.012137
0.0121374
0.0121562
0.0121618
0.0121696
0.012179
0.0121896
0.012201
0.0122128
0.0122247
0.0122365
0.012248
0.0122591
0.0122695
0.0122793
0.0122883
0.0122966
0.012304
0.0123107
0.0123166
0.0123218
0.0123262
0.0123299
0.0123329
0.0123354
0.0123372
0.0123385
0.0123394
0.0123398
0.0123567
0.0123621
0.0123695
0.0123785
0.0123886
0.0123994
0.0124106
0.0124219
0.0124331
0.012444
0.0124545
0.0124644
0.0124737
0.0124823
0.0124901
0.0124972
0.0125035
0.0125091
0.012514
0.0125181
0.0125217
0.0125245
0.0125268
0.0125286
0.0125299
0.0125307
0.012531
0.012546
0.0125511
0.0125581
0.0125665
0.012576
0.0125862
0.0125967
0.0126074
0.0126179
0.0126282
0.012638
0.0126473
0.012656
0.0126641
0.0126714
0.0126781
0.012684
0.0126893
0.0126938
0.0126977
0.012701
0.0127037
0.0127059
0.0127075
0.0127087
0.0127094
0.0127098
0.0127227
0.0127274
0.0127339
0.0127418
0.0127506
0.0127601
0.0127699
0.0127798
0.0127896
0.0127991
0.0128082
0.0128168
0.0128249
0.0128324
0.0128392
0.0128453
0.0128508
0.0128557
0.0128599
0.0128635
0.0128665
0.012869
0.012871
0.0128725
0.0128736
0.0128743
0.0128746
0.0128854
0.0128897
0.0128957
0.0129029
0.012911
0.0129197
0.0129286
0.0129377
0.0129466
0.0129553
0.0129637
0.0129715
0.0129789
0.0129857
0.0129919
0.0129975
0.0130025
0.0130069
0.0130107
0.013014
0.0130168
0.0130191
0.0130209
0.0130223
0.0130232
0.0130239
0.0130242
0.0130328
0.0130367
0.013042
0.0130485
0.0130558
0.0130636
0.0130717
0.0130798
0.0130878
0.0130957
0.0131031
0.0131102
0.0131168
0.0131228
0.0131284
0.0131334
0.0131379
0.0131418
0.0131452
0.0131481
0.0131506
0.0131526
0.0131542
0.0131555
0.0131564
0.0131569
0.0131572
0.0131637
0.0131671
0.0131719
0.0131776
0.013184
0.0131909
0.013198
0.0132051
0.0132122
0.013219
0.0132256
0.0132317
0.0132375
0.0132428
0.0132477
0.013252
0.0132559
0.0132594
0.0132623
0.0132649
0.013267
0.0132688
0.0132702
0.0132713
0.013272
0.0132725
0.0132728
0.0132774
0.0132803
0.0132844
0.0132893
0.0132948
0.0133007
0.0133068
0.0133129
0.0133189
0.0133248
0.0133304
0.0133356
0.0133405
0.013345
0.0133492
0.0133529
0.0133562
0.0133591
0.0133616
0.0133638
0.0133656
0.0133671
0.0133683
0.0133692
0.0133698
0.0133702
0.0133704
0.0133734
0.0133759
0.0133792
0.0133833
0.0133879
0.0133928
0.0133979
0.0134029
0.0134079
0.0134128
0.0134174
0.0134217
0.0134257
0.0134295
0.0134328
0.0134359
0.0134386
0.013441
0.013443
0.0134448
0.0134463
0.0134475
0.0134484
0.0134492
0.0134497
0.01345
0.0134502
0.0134519
0.0134539
0.0134566
0.0134599
0.0134636
0.0134675
0.0134715
0.0134756
0.0134795
0.0134834
0.013487
0.0134905
0.0134937
0.0134966
0.0134993
0.0135017
0.0135038
0.0135056
0.0135073
0.0135086
0.0135098
0.0135107
0.0135115
0.0135121
0.0135125
0.0135127
0.0135129
0.0135138
0.0135153
0.0135174
0.0135199
0.0135227
0.0135257
0.0135288
0.0135318
0.0135349
0.0135378
0.0135405
0.0135431
0.0135455
0.0135477
0.0135497
0.0135515
0.013553
0.0135544
0.0135556
0.0135567
0.0135575
0.0135582
0.0135588
0.0135592
0.0135595
0.0135597
0.0135598
0.0135604
0.0135615
0.013563
0.0135648
0.0135668
0.0135689
0.0135711
0.0135733
0.0135755
0.0135775
0.0135795
0.0135813
0.013583
0.0135845
0.0135859
0.0135872
0.0135883
0.0135892
0.0135901
0.0135908
0.0135914
0.0135918
0.0135922
0.0135925
0.0135927
0.0135928
0.0135929
0.0135935
0.0135943
0.0135953
0.0135965
0.0135978
0.0135993
0.0136007
0.0136021
0.0136036
0.0136049
0.0136062
0.0136073
0.0136084
0.0136094
0.0136103
0.0136111
0.0136118
0.0136124
0.0136129
0.0136133
0.0136137
0.013614
0.0136142
0.0136144
0.0136146
0.0136146
0.0136147
0.0136156
0.0136161
0.0136167
0.0136174
0.0136182
0.013619
0.0136199
0.0136207
0.0136215
0.0136223
0.013623
0.0136237
0.0136243
0.0136249
0.0136254
0.0136258
0.0136262
0.0136265
0.0136268
0.013627
0.0136272
0.0136274
0.0136275
0.0136276
0.0136276
0.0136277
0.0136277
0.0136291
0.0136293
0.0136296
0.01363
0.0136304
0.0136308
0.0136312
0.0136316
0.013632
0.0136323
0.0136326
0.0136329
0.0136332
0.0136334
0.0136336
0.0136338
0.013634
0.0136341
0.0136342
0.0136343
0.0136344
0.0136344
0.0136345
0.0136345
0.0136345
0.0136345
0.0136345
0.0136364
0.0136365
0.0136365
0.0136366
0.0136368
0.0136369
0.013637
0.0136371
0.0136371
0.0136372
0.0136373
0.0136373
0.0136374
0.0136374
0.0136374
0.0136374
0.0136374
0.0136374
0.0136374
0.0136374
0.0136374
0.0136374
0.0136373
0.0136373
0.0136373
0.0136373
0.0136373
0.0136395
0.0136395
0.0136395
0.0136394
0.0136393
0.0136393
0.0136392
0.0136391
0.013639
0.0136389
0.0136388
0.0136387
0.0136386
0.0136385
0.0136384
0.0136383
0.0136382
0.0136381
0.013638
0.013638
0.0136379
0.0136378