/*--------------------------------*- C++ -*----------------------------------*\
| =========                 |                                                 |
| \\      /  F ield         | OpenFOAM: The Open Source CFD Toolbox           |
|  \\    /   O peration     | Version:  2106                                  |
|   \\  /    A nd           | Website:  www.openfoam.com                      |
|    \\/     M anipulation  |                                                 |
\*---------------------------------------------------------------------------*/
FoamFile
{
    version     2.0;
    format      ascii;
    arch        "LSB;label=32;scalar=64";
    class       volScalarField;
    location    "149.99958";
    object      C8H8_0;
}
// * * * * * * * * * * * * * * * * * * * * * * * * * * * * * * * * * * * * * //

dimensions      [0 0 0 0 0 0 0];

internalField   nonuniform List<scalar> 
3360
(
1.40817e-18
1.45348e-18
1.51654e-18
1.59367e-18
1.68166e-18
1.77762e-18
1.87895e-18
1.98329e-18
2.08855e-18
2.19287e-18
2.29466e-18
2.39255e-18
2.48541e-18
2.57236e-18
2.65271e-18
2.72599e-18
2.7919e-18
2.85032e-18
2.90127e-18
2.9449e-18
2.98148e-18
3.01135e-18
3.03495e-18
3.05275e-18
3.06527e-18
3.07306e-18
3.07668e-18
6.17728e-18
6.40432e-18
6.72471e-18
7.1237e-18
7.58906e-18
8.11015e-18
8.67744e-18
9.2822e-18
9.91634e-18
1.05722e-17
1.12424e-17
1.19197e-17
1.25972e-17
1.32679e-17
1.39249e-17
1.45614e-17
1.5171e-17
1.57471e-17
1.62837e-17
1.67749e-17
1.72156e-17
1.76011e-17
1.79273e-17
1.81912e-17
1.83903e-17
1.85233e-17
1.85896e-17
1.93822e-17
2.02328e-17
2.14415e-17
2.29603e-17
2.47494e-17
2.67731e-17
2.89974e-17
3.13887e-17
3.39131e-17
3.6536e-17
3.92221e-17
4.19362e-17
4.46434e-17
4.73095e-17
4.99012e-17
5.2387e-17
5.47376e-17
5.6927e-17
5.89322e-17
6.07347e-17
6.23197e-17
6.36769e-17
6.48005e-17
6.56886e-17
6.63433e-17
6.67703e-17
6.69781e-17
5.64464e-17
5.92499e-17
6.32605e-17
6.83346e-17
7.43522e-17
8.12011e-17
8.8769e-17
9.69393e-17
1.0559e-16
1.14593e-16
1.23815e-16
1.33122e-16
1.42379e-16
1.51456e-16
1.6023e-16
1.68586e-16
1.76424e-16
1.83658e-16
1.90219e-16
1.96056e-16
2.01135e-16
2.05437e-16
2.08961e-16
2.11717e-16
2.13728e-16
2.15027e-16
2.15653e-16
1.64914e-16
1.73759e-16
1.86435e-16
2.02509e-16
2.21615e-16
2.43399e-16
2.67497e-16
2.93526e-16
3.21075e-16
3.49711e-16
3.78989e-16
4.08456e-16
4.37671e-16
4.66212e-16
4.93687e-16
5.19747e-16
5.44089e-16
5.66464e-16
5.86678e-16
6.04593e-16
6.20126e-16
6.33241e-16
6.4395e-16
6.52302e-16
6.58382e-16
6.62298e-16
6.64183e-16
4.86245e-16
5.13405e-16
5.52381e-16
6.0185e-16
6.60679e-16
7.27774e-16
8.01999e-16
8.82146e-16
9.66926e-16
1.05498e-15
1.14491e-15
1.2353e-15
1.32479e-15
1.41207e-15
1.49595e-15
1.57536e-15
1.6494e-15
1.71734e-15
1.7786e-15
1.8328e-15
1.87971e-15
1.91926e-15
1.95151e-15
1.97662e-15
1.99487e-15
2.00662e-15
2.01227e-15
1.44438e-15
1.52691e-15
1.64534e-15
1.79565e-15
1.9744e-15
2.17821e-15
2.40359e-15
2.64681e-15
2.9039e-15
3.1707e-15
3.44293e-15
3.7163e-15
3.98668e-15
4.25013e-15
4.50306e-15
4.74232e-15
4.96522e-15
5.16958e-15
5.35375e-15
5.5166e-15
5.65749e-15
5.77621e-15
5.87297e-15
5.94831e-15
6.00306e-15
6.03828e-15
6.05522e-15
4.30468e-15
4.55301e-15
4.90953e-15
5.3622e-15
5.90064e-15
6.51468e-15
7.19373e-15
7.92648e-15
8.70091e-15
9.50438e-15
1.0324e-14
1.11467e-14
1.19601e-14
1.27523e-14
1.35126e-14
1.42315e-14
1.49009e-14
1.55144e-14
1.6067e-14
1.65554e-14
1.69777e-14
1.73335e-14
1.76233e-14
1.78489e-14
1.80128e-14
1.81182e-14
1.81688e-14
1.28631e-14
1.36094e-14
1.46806e-14
1.60406e-14
1.7658e-14
1.95021e-14
2.15411e-14
2.37406e-14
2.60645e-14
2.84747e-14
3.09323e-14
3.33986e-14
3.5836e-14
3.82092e-14
4.04861e-14
4.26383e-14
4.46419e-14
4.64777e-14
4.81312e-14
4.95924e-14
5.08559e-14
5.192e-14
5.27869e-14
5.34616e-14
5.39518e-14
5.42671e-14
5.44186e-14
3.84376e-14
4.06726e-14
4.38814e-14
4.79553e-14
5.28005e-14
5.83249e-14
6.44323e-14
7.10204e-14
7.798e-14
8.51971e-14
9.25551e-14
9.99376e-14
1.07232e-13
1.14333e-13
1.21144e-13
1.27581e-13
1.33572e-13
1.3906e-13
1.44001e-13
1.48367e-13
1.52141e-13
1.55319e-13
1.57907e-13
1.59921e-13
1.61384e-13
1.62325e-13
1.62777e-13
1.14911e-13
1.21601e-13
1.31203e-13
1.43393e-13
1.57886e-13
1.74407e-13
1.92667e-13
2.12358e-13
2.33152e-13
2.54709e-13
2.76679e-13
2.98715e-13
3.20481e-13
3.41663e-13
3.61974e-13
3.81164e-13
3.9902e-13
4.15373e-13
4.30095e-13
4.43099e-13
4.54339e-13
4.63802e-13
4.71509e-13
4.77505e-13
4.8186e-13
4.8466e-13
4.86006e-13
3.4318e-13
3.6315e-13
3.91813e-13
4.28191e-13
4.71437e-13
5.2072e-13
5.75172e-13
6.33873e-13
6.95844e-13
7.60062e-13
8.25486e-13
8.91081e-13
9.55848e-13
1.01885e-12
1.07924e-12
1.13627e-12
1.18932e-12
1.23789e-12
1.28159e-12
1.32019e-12
1.35353e-12
1.3816e-12
1.40444e-12
1.42222e-12
1.43512e-12
1.44342e-12
1.4474e-12
1.02369e-12
1.08319e-12
1.16856e-12
1.27686e-12
1.40554e-12
1.5521e-12
1.71394e-12
1.88829e-12
2.07222e-12
2.2627e-12
2.45662e-12
2.65091e-12
2.84262e-12
3.02899e-12
3.20752e-12
3.37603e-12
3.53267e-12
3.67601e-12
3.80493e-12
3.91873e-12
4.01701e-12
4.09971e-12
4.16701e-12
4.21934e-12
4.25733e-12
4.28175e-12
4.29347e-12
3.04427e-12
3.22071e-12
3.47377e-12
3.79464e-12
4.17565e-12
4.60929e-12
5.08776e-12
5.60278e-12
6.14563e-12
6.70727e-12
7.27852e-12
7.85033e-12
8.41401e-12
8.96146e-12
9.48539e-12
9.97947e-12
1.04384e-11
1.08579e-11
1.1235e-11
1.15676e-11
1.18547e-11
1.2096e-11
1.22924e-11
1.2445e-11
1.25557e-11
1.26268e-11
1.26609e-11
9.01884e-12
9.53904e-12
1.02846e-11
1.12291e-11
1.23495e-11
1.36232e-11
1.50268e-11
1.65356e-11
1.81238e-11
1.97645e-11
2.14308e-11
2.30964e-11
2.4736e-11
2.63261e-11
2.78458e-11
2.92771e-11
3.0605e-11
3.18175e-11
3.29062e-11
3.38654e-11
3.46925e-11
3.53875e-11
3.59523e-11
3.63909e-11
3.6709e-11
3.69132e-11
3.70112e-11
2.65574e-11
2.80759e-11
3.02504e-11
3.30021e-11
3.62616e-11
3.99614e-11
4.40314e-11
4.83986e-11
5.29867e-11
5.77176e-11
6.25131e-11
6.7297e-11
7.19971e-11
7.6547e-11
8.08877e-11
8.49685e-11
8.8748e-11
9.21938e-11
9.5283e-11
9.80011e-11
1.00342e-10
1.02306e-10
1.03901e-10
1.05138e-10
1.06034e-10
1.06609e-10
1.06885e-10
7.75821e-11
8.19568e-11
8.82128e-11
9.6116e-11
1.0546e-10
1.16041e-10
1.27655e-10
1.40084e-10
1.53108e-10
1.66502e-10
1.80043e-10
1.93515e-10
2.06717e-10
2.19464e-10
2.31597e-10
2.42976e-10
2.53492e-10
2.6306e-10
2.71622e-10
2.79141e-10
2.85606e-10
2.91022e-10
2.95413e-10
2.98816e-10
3.01279e-10
3.02857e-10
3.03613e-10
2.24204e-10
2.36572e-10
2.54231e-10
2.76488e-10
3.02734e-10
3.3237e-10
3.64791e-10
3.99376e-10
4.35491e-10
4.72504e-10
5.09793e-10
5.46768e-10
5.82882e-10
6.17643e-10
6.50625e-10
6.81471e-10
7.09898e-10
7.35698e-10
7.58727e-10
7.78909e-10
7.96226e-10
8.10708e-10
8.22429e-10
8.31499e-10
8.38053e-10
8.42248e-10
8.44256e-10
6.38852e-10
6.72971e-10
7.21571e-10
7.82653e-10
8.54433e-10
9.35181e-10
1.02316e-09
1.11662e-09
1.2138e-09
1.31296e-09
1.41244e-09
1.51068e-09
1.60625e-09
1.69789e-09
1.78453e-09
1.86527e-09
1.93946e-09
2.00658e-09
2.06633e-09
2.11856e-09
2.16328e-09
2.20059e-09
2.23074e-09
2.25403e-09
2.27083e-09
2.28157e-09
2.2867e-09
1.78732e-09
1.87848e-09
2.00798e-09
2.17017e-09
2.35998e-09
2.57253e-09
2.803e-09
3.04661e-09
3.29865e-09
3.55456e-09
3.81004e-09
4.06114e-09
4.30431e-09
4.53649e-09
4.75509e-09
4.95808e-09
5.1439e-09
5.31149e-09
5.46024e-09
5.58992e-09
5.70065e-09
5.79285e-09
5.86719e-09
5.92451e-09
5.9658e-09
5.99216e-09
6.00474e-09
4.88604e-09
5.12031e-09
5.45204e-09
5.86581e-09
6.34776e-09
6.88469e-09
7.46375e-09
8.07243e-09
8.69869e-09
9.33113e-09
9.95919e-09
1.05734e-08
1.11653e-08
1.17279e-08
1.22554e-08
1.27433e-08
1.31883e-08
1.35884e-08
1.39423e-08
1.42501e-08
1.45122e-08
1.473e-08
1.49052e-08
1.50401e-08
1.51371e-08
1.51989e-08
1.52284e-08
1.29808e-08
1.35559e-08
1.43677e-08
1.53758e-08
1.65442e-08
1.78389e-08
1.92273e-08
2.06785e-08
2.21632e-08
2.36542e-08
2.51272e-08
2.65603e-08
2.7935e-08
2.92358e-08
3.04504e-08
3.15696e-08
3.25868e-08
3.34983e-08
3.43025e-08
3.49999e-08
3.55924e-08
3.60837e-08
3.64782e-08
3.67813e-08
3.6999e-08
3.71376e-08
3.72036e-08
3.33374e-08
3.46809e-08
3.65706e-08
3.89076e-08
4.16031e-08
4.45742e-08
4.77434e-08
5.10377e-08
5.43901e-08
5.77396e-08
6.1032e-08
6.42206e-08
6.72658e-08
7.01357e-08
7.28053e-08
7.52567e-08
7.74779e-08
7.94624e-08
8.12088e-08
8.27196e-08
8.40006e-08
8.50607e-08
8.59105e-08
8.65626e-08
8.70302e-08
8.73276e-08
8.74691e-08
8.2402e-08
8.53837e-08
8.9565e-08
9.47164e-08
1.00632e-07
1.07123e-07
1.14013e-07
1.21142e-07
1.28362e-07
1.35543e-07
1.42572e-07
1.49353e-07
1.55804e-07
1.61862e-07
1.6748e-07
1.72623e-07
1.77271e-07
1.81414e-07
1.85051e-07
1.88192e-07
1.9085e-07
1.93046e-07
1.94805e-07
1.96152e-07
1.97117e-07
1.9773e-07
1.98022e-07
1.95523e-07
2.01826e-07
2.10643e-07
2.21471e-07
2.33863e-07
2.47407e-07
2.61729e-07
2.76488e-07
2.91382e-07
3.06142e-07
3.20539e-07
3.34382e-07
3.47513e-07
3.59812e-07
3.71187e-07
3.81577e-07
3.90947e-07
3.99282e-07
4.06588e-07
4.12886e-07
4.18209e-07
4.22601e-07
4.26114e-07
4.28802e-07
4.30727e-07
4.31948e-07
4.32529e-07
4.45172e-07
4.57934e-07
4.75752e-07
4.97584e-07
5.225e-07
5.49658e-07
5.78292e-07
6.07717e-07
6.37326e-07
6.66592e-07
6.95068e-07
7.22382e-07
7.48237e-07
7.72403e-07
7.94713e-07
8.15058e-07
8.33375e-07
8.49647e-07
8.63892e-07
8.76158e-07
8.86514e-07
8.95052e-07
9.01873e-07
9.07091e-07
9.10824e-07
9.13191e-07
9.14315e-07
9.74059e-07
9.98996e-07
1.03377e-06
1.07631e-06
1.12478e-06
1.17751e-06
1.233e-06
1.28991e-06
1.34708e-06
1.4035e-06
1.4583e-06
1.51079e-06
1.56041e-06
1.60673e-06
1.64944e-06
1.68835e-06
1.72335e-06
1.75441e-06
1.78158e-06
1.80496e-06
1.82469e-06
1.84095e-06
1.85393e-06
1.86385e-06
1.87094e-06
1.87544e-06
1.87758e-06
2.05354e-06
2.10096e-06
2.16703e-06
2.24779e-06
2.33972e-06
2.43964e-06
2.5447e-06
2.65237e-06
2.76042e-06
2.86697e-06
2.97041e-06
3.06942e-06
3.16296e-06
3.25024e-06
3.33069e-06
3.40395e-06
3.46982e-06
3.52827e-06
3.57939e-06
3.62336e-06
3.66045e-06
3.69101e-06
3.7154e-06
3.73405e-06
3.74738e-06
3.75584e-06
3.75985e-06
4.1821e-06
4.27033e-06
4.39329e-06
4.54355e-06
4.71457e-06
4.90044e-06
5.09585e-06
5.29612e-06
5.49714e-06
5.69537e-06
5.88785e-06
6.07214e-06
6.24629e-06
6.40882e-06
6.55868e-06
6.69518e-06
6.81796e-06
6.92693e-06
7.02224e-06
7.10425e-06
7.17346e-06
7.23047e-06
7.276e-06
7.31081e-06
7.3357e-06
7.35148e-06
7.35897e-06
8.23571e-06
8.3965e-06
8.62059e-06
8.89454e-06
9.20644e-06
9.54556e-06
9.90229e-06
1.02681e-05
1.06355e-05
1.0998e-05
1.13503e-05
1.16879e-05
1.20071e-05
1.23052e-05
1.25803e-05
1.28311e-05
1.30568e-05
1.32572e-05
1.34327e-05
1.35837e-05
1.37112e-05
1.38163e-05
1.39003e-05
1.39645e-05
1.40104e-05
1.40396e-05
1.40534e-05
1.56553e-05
1.59396e-05
1.63359e-05
1.68205e-05
1.73724e-05
1.79726e-05
1.86043e-05
1.92522e-05
1.99034e-05
2.05462e-05
2.11712e-05
2.17703e-05
2.23372e-05
2.2867e-05
2.33561e-05
2.38022e-05
2.42038e-05
2.45608e-05
2.48733e-05
2.51425e-05
2.53699e-05
2.55574e-05
2.57072e-05
2.58219e-05
2.59039e-05
2.5956e-05
2.59807e-05
2.85905e-05
2.90703e-05
2.97389e-05
3.05562e-05
3.14865e-05
3.24978e-05
3.35616e-05
3.46524e-05
3.5748e-05
3.68293e-05
3.78799e-05
3.88868e-05
3.98391e-05
4.07288e-05
4.155e-05
4.22986e-05
4.29727e-05
4.35716e-05
4.40959e-05
4.45475e-05
4.4929e-05
4.52435e-05
4.54949e-05
4.56873e-05
4.58249e-05
4.59123e-05
4.59538e-05
4.98604e-05
5.06205e-05
5.16788e-05
5.29709e-05
5.444e-05
5.60349e-05
5.771e-05
5.94251e-05
6.11451e-05
6.284e-05
6.44847e-05
6.60586e-05
6.75455e-05
6.89329e-05
7.0212e-05
7.1377e-05
7.24251e-05
7.33555e-05
7.41696e-05
7.48704e-05
7.54621e-05
7.59498e-05
7.63395e-05
7.66377e-05
7.6851e-05
7.69864e-05
7.70507e-05
8.26402e-05
8.37616e-05
8.5321e-05
8.72223e-05
8.93801e-05
9.17183e-05
9.41692e-05
9.66736e-05
9.91801e-05
0.000101645
0.000104033
0.000106314
0.000108465
0.000110469
0.000112314
0.000113993
0.000115502
0.000116839
0.000118009
0.000119016
0.000119865
0.000120564
0.000121123
0.000121551
0.000121857
0.000122051
0.000122143
0.000129976
0.000131521
0.000133666
0.000136279
0.000139238
0.000142439
0.000145788
0.000149204
0.000152616
0.000155966
0.000159204
0.000162293
0.000165203
0.000167909
0.000170399
0.000172661
0.000174692
0.000176493
0.000178066
0.000179418
0.000180559
0.000181499
0.00018225
0.000182824
0.000183235
0.000183495
0.000183619
0.000194365
0.000196372
0.000199156
0.000202542
0.000206373
0.000210511
0.000214834
0.000219236
0.000223627
0.000227932
0.00023209
0.00023605
0.000239777
0.000243241
0.000246424
0.000249315
0.00025191
0.000254208
0.000256216
0.000257942
0.000259398
0.000260597
0.000261555
0.000262288
0.000262812
0.000263145
0.000263303
0.000277567
0.000280054
0.000283504
0.000287696
0.000292435
0.000297549
0.000302885
0.000308315
0.000313726
0.000319026
0.000324141
0.000329011
0.000333589
0.000337844
0.000341751
0.0003453
0.000348483
0.000351302
0.000353765
0.000355882
0.000357668
0.000359139
0.000360315
0.000361214
0.000361857
0.000362266
0.00036246
0.000380627
0.000383604
0.000387731
0.000392744
0.000398408
0.000404515
0.000410886
0.000417363
0.000423815
0.000430133
0.000436226
0.000442025
0.000447476
0.00045254
0.00045719
0.000461412
0.0004652
0.000468554
0.000471485
0.000474004
0.000476129
0.00047788
0.000479279
0.00048035
0.000481116
0.000481603
0.000481834
0.000504014
0.000507483
0.000512293
0.000518132
0.000524727
0.000531836
0.000539249
0.000546784
0.000554288
0.000561632
0.000568715
0.000575454
0.000581788
0.000587671
0.000593074
0.000597978
0.000602378
0.000606275
0.000609679
0.000612606
0.000615076
0.00061711
0.000618736
0.000619981
0.000620872
0.000621438
0.000621707
0.000647768
0.00065173
0.000657222
0.000663888
0.000671415
0.000679528
0.000687985
0.00069658
0.000705137
0.000713511
0.000721586
0.000729267
0.000736486
0.000743191
0.000749347
0.000754936
0.000759949
0.00076439
0.00076827
0.000771605
0.000774419
0.000776739
0.000778592
0.000780011
0.000781027
0.000781673
0.00078198
0.000811624
0.000816077
0.000822248
0.000829737
0.000838193
0.000847304
0.000856801
0.00086645
0.000876056
0.000885455
0.000894515
0.000903134
0.000911233
0.000918754
0.000925659
0.000931927
0.00093755
0.000942531
0.000946882
0.000950623
0.000953779
0.00095638
0.000958459
0.000960051
0.000961191
0.000961915
0.000962259
0.000995105
0.00100004
0.00100689
0.00101519
0.00102456
0.00103466
0.00104519
0.00105588
0.00106652
0.00107693
0.00108697
0.00109651
0.00110547
0.0011138
0.00112144
0.00112838
0.0011346
0.00114012
0.00114493
0.00114907
0.00115256
0.00115544
0.00115774
0.0011595
0.00116076
0.00116156
0.00116194
0.00119758
0.001203
0.0012105
0.00121961
0.00122988
0.00124095
0.00125249
0.0012642
0.00127586
0.00128726
0.00129825
0.00130869
0.00131851
0.00132762
0.00133598
0.00134358
0.00135038
0.00135641
0.00136168
0.00136621
0.00137003
0.00137317
0.00137569
0.00137762
0.00137899
0.00137987
0.00138029
0.00141833
0.00142421
0.00143236
0.00144225
0.0014534
0.00146542
0.00147793
0.00149064
0.00150329
0.00151565
0.00152757
0.00153889
0.00154953
0.00155941
0.00156847
0.00157669
0.00158407
0.0015906
0.0015963
0.00160121
0.00160534
0.00160875
0.00161148
0.00161356
0.00161505
0.001616
0.00161645
0.00165654
0.00166287
0.00167165
0.00168229
0.0016943
0.00170723
0.00172069
0.00173437
0.00174796
0.00176126
0.00177407
0.00178624
0.00179768
0.00180829
0.00181802
0.00182686
0.00183478
0.00184179
0.00184792
0.00185318
0.00185762
0.00186128
0.0018642
0.00186644
0.00186804
0.00186906
0.00186955
0.00191136
0.00191813
0.0019275
0.00193887
0.0019517
0.00196551
0.00197989
0.00199449
0.002009
0.00202319
0.00203686
0.00204985
0.00206204
0.00207336
0.00208374
0.00209316
0.0021016
0.00210907
0.0021156
0.00212121
0.00212594
0.00212984
0.00213295
0.00213534
0.00213704
0.00213813
0.00213864
0.0021819
0.00218909
0.00219904
0.0022111
0.00222472
0.00223937
0.00225462
0.0022701
0.00228549
0.00230053
0.00231502
0.00232878
0.0023417
0.00235369
0.00236468
0.00237465
0.00238359
0.00239151
0.00239842
0.00240435
0.00240936
0.00241348
0.00241678
0.0024193
0.00242111
0.00242226
0.0024228
0.00246726
0.00247485
0.00248535
0.00249808
0.00251243
0.00252788
0.00254397
0.00256028
0.00257651
0.00259236
0.00260762
0.00262212
0.00263572
0.00264835
0.00265992
0.00267042
0.00267983
0.00268816
0.00269543
0.00270168
0.00270694
0.00271128
0.00271475
0.00271741
0.0027193
0.00272051
0.00272109
0.00276654
0.0027745
0.00278552
0.00279888
0.00281394
0.00283015
0.00284701
0.00286412
0.00288113
0.00289775
0.00291374
0.00292893
0.00294319
0.00295641
0.00296853
0.00297953
0.00298938
0.0029981
0.00300571
0.00301225
0.00301776
0.00302231
0.00302593
0.00302871
0.0030307
0.00303196
0.00303256
0.00307884
0.00308715
0.00309866
0.00311261
0.00312833
0.00314525
0.00316286
0.00318071
0.00319846
0.00321579
0.00323247
0.00324832
0.00326318
0.00327696
0.0032896
0.00330106
0.00331133
0.00332042
0.00332835
0.00333516
0.0033409
0.00334563
0.00334941
0.00335231
0.00335438
0.00335569
0.00335632
0.00340326
0.0034119
0.00342387
0.00343837
0.00345472
0.0034723
0.0034906
0.00350915
0.00352759
0.00354559
0.00356292
0.00357937
0.0035948
0.00360911
0.00362223
0.00363413
0.00364478
0.00365421
0.00366244
0.00366951
0.00367547
0.00368038
0.0036843
0.0036873
0.00368944
0.00369081
0.00369145
0.00373893
0.00374788
0.00376027
0.00377529
0.00379222
0.00381043
0.00382937
0.00384857
0.00386765
0.00388628
0.00390421
0.00392122
0.00393719
0.00395199
0.00396556
0.00397785
0.00398887
0.00399862
0.00400712
0.00401443
0.00402059
0.00402566
0.00402971
0.00403281
0.00403503
0.00403644
0.00403711
0.004085
0.00409423
0.00410702
0.00412252
0.00413999
0.00415877
0.00417831
0.00419812
0.00421779
0.004237
0.00425549
0.00427303
0.00428949
0.00430474
0.00431872
0.00433139
0.00434274
0.00435279
0.00436155
0.00436907
0.00437542
0.00438064
0.00438481
0.004388
0.00439029
0.00439174
0.00439243
0.00444063
0.00445013
0.00446329
0.00447923
0.00449719
0.00451651
0.0045366
0.00455697
0.0045772
0.00459694
0.00461594
0.00463397
0.00465088
0.00466655
0.00468091
0.00469393
0.00470559
0.0047159
0.0047249
0.00473263
0.00473914
0.00474451
0.00474879
0.00475207
0.00475441
0.0047559
0.00475661
0.00480503
0.00481478
0.00482827
0.00484462
0.00486304
0.00488285
0.00490345
0.00492433
0.00494507
0.00496531
0.00498477
0.00500325
0.00502058
0.00503663
0.00505135
0.00506468
0.00507662
0.00508719
0.0050964
0.00510432
0.00511099
0.00511648
0.00512087
0.00512422
0.00512662
0.00512815
0.00512887
0.00517742
0.0051874
0.0052012
0.00521792
0.00523677
0.00525703
0.00527809
0.00529944
0.00532064
0.00534133
0.00536123
0.00538012
0.00539782
0.00541423
0.00542927
0.00544289
0.00545509
0.00546588
0.0054753
0.00548338
0.00549019
0.0054958
0.00550028
0.00550371
0.00550616
0.00550772
0.00550846
0.00555707
0.00556725
0.00558134
0.0055984
0.00561763
0.0056383
0.00565979
0.00568157
0.00570319
0.00572429
0.00574458
0.00576384
0.00578189
0.00579862
0.00581395
0.00582784
0.00584028
0.00585127
0.00586087
0.00586911
0.00587605
0.00588177
0.00588633
0.00588982
0.00589232
0.00589391
0.00589466
0.00594327
0.00595363
0.00596797
0.00598535
0.00600492
0.00602597
0.00604784
0.00607001
0.00609201
0.00611349
0.00613414
0.00615373
0.0061721
0.00618912
0.00620471
0.00621884
0.00623149
0.00624267
0.00625243
0.00626081
0.00626787
0.00627368
0.00627832
0.00628187
0.00628441
0.00628603
0.00628679
0.00633533
0.00634586
0.00636044
0.00637809
0.00639798
0.00641936
0.00644158
0.0064641
0.00648645
0.00650826
0.00652923
0.00654913
0.00656778
0.00658506
0.00660089
0.00661523
0.00662807
0.00663942
0.00664933
0.00665783
0.006665
0.00667089
0.0066756
0.00667921
0.00668179
0.00668342
0.0066842
0.00673262
0.0067433
0.00675808
0.00677599
0.00679616
0.00681784
0.00684037
0.0068632
0.00688586
0.00690797
0.00692923
0.0069494
0.0069683
0.00698581
0.00700185
0.00701639
0.0070294
0.0070409
0.00705094
0.00705955
0.00706681
0.00707279
0.00707756
0.00708121
0.00708382
0.00708548
0.00708627
0.00713451
0.00714533
0.0071603
0.00717843
0.00719885
0.00722079
0.0072436
0.00726671
0.00728964
0.00731202
0.00733353
0.00735394
0.00737307
0.00739079
0.00740702
0.00742172
0.00743488
0.00744652
0.00745667
0.00746539
0.00747273
0.00747877
0.0074836
0.00748729
0.00748993
0.00749161
0.00749241
0.00754043
0.00755137
0.0075665
0.00758483
0.00760546
0.00762765
0.0076507
0.00767405
0.00769723
0.00771984
0.00774158
0.0077622
0.00778152
0.00779942
0.00781582
0.00783067
0.00784396
0.00785572
0.00786597
0.00787477
0.00788219
0.00788829
0.00789316
0.00789689
0.00789956
0.00790125
0.00790206
0.00794983
0.00796086
0.00797614
0.00799463
0.00801547
0.00803785
0.00806112
0.00808468
0.00810807
0.00813089
0.00815282
0.00817362
0.00819311
0.00821117
0.00822771
0.00824269
0.0082561
0.00826796
0.0082783
0.00828717
0.00829465
0.00830081
0.00830572
0.00830948
0.00831217
0.00831388
0.00831469
0.00836216
0.00837329
0.00838868
0.00840733
0.00842832
0.00845088
0.00847433
0.00849808
0.00852165
0.00854464
0.00856674
0.0085877
0.00860734
0.00862553
0.00864219
0.00865728
0.00867079
0.00868273
0.00869314
0.00870208
0.00870962
0.00871582
0.00872077
0.00872455
0.00872726
0.00872898
0.0087298
0.00877693
0.00878814
0.00880363
0.0088224
0.00884354
0.00886625
0.00888985
0.00891375
0.00893747
0.00896061
0.00898285
0.00900394
0.0090237
0.009042
0.00905877
0.00907395
0.00908754
0.00909955
0.00911003
0.00911902
0.0091266
0.00913284
0.00913782
0.00914162
0.00914435
0.00914608
0.0091469
0.00919367
0.00920493
0.00922052
0.00923939
0.00926064
0.00928347
0.0093072
0.00933123
0.00935507
0.00937833
0.00940068
0.00942188
0.00944174
0.00946014
0.00947698
0.00949224
0.0095059
0.00951797
0.00952849
0.00953753
0.00954514
0.00955141
0.00955641
0.00956024
0.00956298
0.00956471
0.00956554
0.0096119
0.00962322
0.00963887
0.00965782
0.00967916
0.00970209
0.00972592
0.00975005
0.00977399
0.00979734
0.00981978
0.00984107
0.00986101
0.00987947
0.00989639
0.0099117
0.00992541
0.00993753
0.00994809
0.00995716
0.0099648
0.00997109
0.00997611
0.00997995
0.0099827
0.00998444
0.00998527
0.0100312
0.0100425
0.0100583
0.0100773
0.0100987
0.0101217
0.0101456
0.0101698
0.0101938
0.0102172
0.0102397
0.0102611
0.0102811
0.0102996
0.0103165
0.0103319
0.0103456
0.0103578
0.0103684
0.0103775
0.0103851
0.0103915
0.0103965
0.0104003
0.0104031
0.0104048
0.0104057
0.0104511
0.0104625
0.0104782
0.0104973
0.0105188
0.0105418
0.0105658
0.01059
0.0106141
0.0106375
0.0106601
0.0106815
0.0107015
0.0107201
0.010737
0.0107524
0.0107662
0.0107784
0.010789
0.0107981
0.0108058
0.0108121
0.0108171
0.010821
0.0108237
0.0108255
0.0108263
0.0108713
0.0108827
0.0108984
0.0109175
0.010939
0.010962
0.010986
0.0110103
0.0110344
0.0110579
0.0110804
0.0111019
0.0111219
0.0111405
0.0111575
0.0111729
0.0111866
0.0111988
0.0112094
0.0112186
0.0112262
0.0112325
0.0112376
0.0112414
0.0112442
0.011246
0.0112468
0.0112912
0.0113026
0.0113184
0.0113374
0.0113589
0.011382
0.011406
0.0114303
0.0114543
0.0114778
0.0115004
0.0115218
0.0115418
0.0115604
0.0115774
0.0115928
0.0116066
0.0116187
0.0116294
0.0116385
0.0116461
0.0116525
0.0116575
0.0116614
0.0116641
0.0116659
0.0116667
0.0117105
0.0117219
0.0117376
0.0117567
0.0117782
0.0118012
0.0118252
0.0118494
0.0118735
0.011897
0.0119195
0.0119409
0.0119609
0.0119795
0.0119964
0.0120118
0.0120256
0.0120377
0.0120483
0.0120574
0.0120651
0.0120714
0.0120764
0.0120803
0.012083
0.0120848
0.0120856
0.0121288
0.0121401
0.0121559
0.0121749
0.0121963
0.0122193
0.0122432
0.0122674
0.0122915
0.0123149
0.0123374
0.0123587
0.0123787
0.0123972
0.0124141
0.0124294
0.0124432
0.0124553
0.0124659
0.012475
0.0124826
0.0124889
0.0124939
0.0124978
0.0125005
0.0125022
0.0125031
0.0125456
0.0125569
0.0125726
0.0125915
0.0126129
0.0126358
0.0126597
0.0126838
0.0127077
0.0127311
0.0127535
0.0127748
0.0127947
0.0128131
0.01283
0.0128453
0.012859
0.012871
0.0128816
0.0128906
0.0128982
0.0129045
0.0129095
0.0129133
0.0129161
0.0129178
0.0129186
0.0129604
0.0129717
0.0129873
0.0130062
0.0130274
0.0130503
0.013074
0.013098
0.0131219
0.0131451
0.0131674
0.0131886
0.0132084
0.0132268
0.0132436
0.0132588
0.0132724
0.0132844
0.0132949
0.0133039
0.0133115
0.0133177
0.0133227
0.0133265
0.0133293
0.013331
0.0133318
0.0133727
0.0133839
0.0133995
0.0134183
0.0134394
0.0134621
0.0134857
0.0135096
0.0135333
0.0135564
0.0135786
0.0135997
0.0136194
0.0136376
0.0136543
0.0136694
0.013683
0.0136949
0.0137054
0.0137143
0.0137218
0.013728
0.013733
0.0137368
0.0137395
0.0137412
0.013742
0.013782
0.0137931
0.0138086
0.0138272
0.0138482
0.0138708
0.0138942
0.0139179
0.0139415
0.0139644
0.0139865
0.0140073
0.0140269
0.014045
0.0140616
0.0140766
0.01409
0.0141019
0.0141122
0.0141211
0.0141286
0.0141348
0.0141397
0.0141434
0.0141461
0.0141478
0.0141486
0.0141876
0.0141986
0.0142139
0.0142324
0.0142532
0.0142756
0.0142988
0.0143223
0.0143457
0.0143684
0.0143902
0.0144109
0.0144303
0.0144483
0.0144647
0.0144795
0.0144929
0.0145046
0.0145149
0.0145237
0.0145311
0.0145372
0.014542
0.0145457
0.0145484
0.0145501
0.0145509
0.0145886
0.0145996
0.0146147
0.014633
0.0146536
0.0146757
0.0146987
0.014722
0.014745
0.0147675
0.0147891
0.0148096
0.0148288
0.0148465
0.0148627
0.0148775
0.0148906
0.0149022
0.0149124
0.0149211
0.0149284
0.0149344
0.0149392
0.0149429
0.0149455
0.0149472
0.014948
0.0149844
0.0149952
0.0150101
0.0150282
0.0150485
0.0150703
0.015093
0.015116
0.0151387
0.0151609
0.0151822
0.0152024
0.0152213
0.0152388
0.0152548
0.0152693
0.0152823
0.0152937
0.0153037
0.0153123
0.0153195
0.0153255
0.0153302
0.0153338
0.0153364
0.0153381
0.0153388
0.0153737
0.0153843
0.015399
0.0154168
0.0154368
0.0154583
0.0154806
0.0155031
0.0155255
0.0155473
0.0155683
0.0155882
0.0156067
0.0156239
0.0156397
0.0156539
0.0156667
0.015678
0.0156878
0.0156962
0.0157033
0.0157091
0.0157138
0.0157174
0.0157199
0.0157215
0.0157223
0.0157553
0.0157657
0.0157801
0.0157976
0.0158172
0.0158383
0.0158601
0.0158822
0.0159042
0.0159256
0.0159461
0.0159655
0.0159837
0.0160006
0.016016
0.01603
0.0160424
0.0160535
0.0160631
0.0160713
0.0160783
0.016084
0.0160885
0.016092
0.0160945
0.0160961
0.0160969
0.0161278
0.016138
0.0161521
0.0161691
0.0161882
0.0162088
0.0162301
0.0162517
0.0162731
0.0162939
0.016314
0.0163329
0.0163507
0.0163671
0.0163821
0.0163957
0.0164079
0.0164186
0.016428
0.016436
0.0164428
0.0164483
0.0164528
0.0164562
0.0164586
0.0164602
0.0164609
0.0164895
0.0164994
0.016513
0.0165295
0.0165481
0.0165681
0.0165887
0.0166097
0.0166304
0.0166507
0.0166701
0.0166884
0.0167056
0.0167216
0.0167361
0.0167493
0.0167611
0.0167715
0.0167805
0.0167883
0.0167949
0.0168003
0.0168046
0.0168078
0.0168102
0.0168117
0.0168124
0.0168383
0.0168478
0.016861
0.0168769
0.0168948
0.016914
0.016934
0.0169541
0.0169741
0.0169936
0.0170123
0.01703
0.0170465
0.0170618
0.0170758
0.0170885
0.0170998
0.0171098
0.0171185
0.017126
0.0171323
0.0171375
0.0171416
0.0171448
0.017147
0.0171485
0.0171491
0.017172
0.0171812
0.0171937
0.017209
0.0172261
0.0172444
0.0172635
0.0172828
0.0173018
0.0173204
0.0173382
0.0173551
0.0173709
0.0173855
0.0173988
0.0174109
0.0174217
0.0174312
0.0174395
0.0174466
0.0174526
0.0174576
0.0174615
0.0174645
0.0174666
0.017468
0.0174687
0.0174883
0.0174969
0.0175088
0.0175232
0.0175394
0.0175568
0.0175748
0.017593
0.017611
0.0176286
0.0176454
0.0176613
0.0176762
0.01769
0.0177025
0.0177139
0.0177241
0.0177331
0.0177409
0.0177476
0.0177532
0.0177579
0.0177616
0.0177644
0.0177664
0.0177677
0.0177683
0.0177845
0.0177925
0.0178037
0.0178171
0.0178322
0.0178485
0.0178653
0.0178823
0.0178991
0.0179154
0.0179311
0.0179459
0.0179598
0.0179726
0.0179843
0.0179949
0.0180044
0.0180127
0.01802
0.0180262
0.0180314
0.0180357
0.0180392
0.0180418
0.0180437
0.0180449
0.0180454
0.018058
0.0180654
0.0180757
0.0180881
0.018102
0.0181169
0.0181324
0.018148
0.0181634
0.0181784
0.0181928
0.0182064
0.0182191
0.0182309
0.0182416
0.0182513
0.0182599
0.0182676
0.0182742
0.0182799
0.0182847
0.0182886
0.0182918
0.0182942
0.0182959
0.018297
0.0182975
0.0183066
0.0183133
0.0183226
0.0183338
0.0183464
0.0183598
0.0183738
0.0183879
0.0184018
0.0184153
0.0184283
0.0184405
0.018452
0.0184625
0.0184721
0.0184808
0.0184886
0.0184955
0.0185014
0.0185065
0.0185108
0.0185143
0.0185171
0.0185193
0.0185208
0.0185218
0.0185223
0.0185281
0.018534
0.0185423
0.0185522
0.0185633
0.0185753
0.0185876
0.0186
0.0186123
0.0186242
0.0186356
0.0186464
0.0186565
0.0186657
0.0186742
0.0186818
0.0186887
0.0186947
0.0186999
0.0187043
0.0187081
0.0187112
0.0187136
0.0187155
0.0187169
0.0187177
0.0187181
0.0187212
0.0187263
0.0187334
0.018742
0.0187516
0.0187619
0.0187725
0.0187832
0.0187938
0.018804
0.0188138
0.018823
0.0188316
0.0188396
0.0188468
0.0188533
0.0188591
0.0188642
0.0188687
0.0188725
0.0188757
0.0188783
0.0188804
0.018882
0.0188831
0.0188839
0.0188842
0.0188852
0.0188895
0.0188955
0.0189026
0.0189107
0.0189193
0.0189281
0.0189371
0.0189458
0.0189544
0.0189625
0.0189702
0.0189773
0.0189838
0.0189898
0.0189952
0.019
0.0190042
0.0190079
0.019011
0.0190136
0.0190158
0.0190175
0.0190188
0.0190198
0.0190204
0.0190206
0.0190203
0.0190238
0.0190286
0.0190344
0.0190409
0.0190478
0.0190549
0.0190621
0.0190691
0.0190759
0.0190824
0.0190885
0.0190942
0.0190994
0.0191041
0.0191084
0.0191122
0.0191155
0.0191184
0.0191209
0.019123
0.0191247
0.019126
0.0191271
0.0191278
0.0191283
0.0191285
0.0191277
0.0191304
0.0191341
0.0191386
0.0191436
0.0191489
0.0191544
0.0191598
0.0191652
0.0191704
0.0191754
0.01918
0.0191843
0.0191882
0.0191918
0.019195
0.0191979
0.0192004
0.0192026
0.0192044
0.019206
0.0192072
0.0192082
0.019209
0.0192095
0.0192099
0.0192101
0.0192097
0.0192117
0.0192144
0.0192176
0.0192213
0.0192251
0.0192291
0.019233
0.0192369
0.0192406
0.0192441
0.0192474
0.0192505
0.0192533
0.0192558
0.0192581
0.0192601
0.0192618
0.0192634
0.0192647
0.0192657
0.0192666
0.0192673
0.0192679
0.0192682
0.0192685
0.0192686
0.0192693
0.0192706
0.0192725
0.0192746
0.0192771
0.0192797
0.0192823
0.0192849
0.0192875
0.0192899
0.0192923
0.0192944
0.0192964
0.0192982
0.0192999
0.0193013
0.0193026
0.0193037
0.0193047
0.0193055
0.0193062
0.0193068
0.0193072
0.0193075
0.0193078
0.0193079
0.019308
0.0193101
0.0193109
0.019312
0.0193134
0.0193148
0.0193164
0.0193179
0.0193195
0.019321
0.0193224
0.0193238
0.019325
0.0193262
0.0193272
0.0193281
0.0193289
0.0193296
0.0193303
0.0193308
0.0193312
0.0193316
0.0193319
0.0193322
0.0193323
0.0193325
0.0193326
0.0193326
0.0193361
0.0193365