/*--------------------------------*- C++ -*----------------------------------*\
| =========                 |                                                 |
| \\      /  F ield         | OpenFOAM: The Open Source CFD Toolbox           |
|  \\    /   O peration     | Version:  2106                                  |
|   \\  /    A nd           | Website:  www.openfoam.com                      |
|    \\/     M anipulation  |                                                 |
\*---------------------------------------------------------------------------*/
FoamFile
{
    version     2.0;
    format      ascii;
    arch        "LSB;label=32;scalar=64";
    class       volScalarField;
    location    "149.99958";
    object      C9H7_0;
}
// * * * * * * * * * * * * * * * * * * * * * * * * * * * * * * * * * * * * * //

dimensions      [0 0 0 0 0 0 0];

internalField   nonuniform List<scalar> 
3360
(
2.45102e-23
2.52997e-23
2.63984e-23
2.77424e-23
2.92756e-23
3.09477e-23
3.27134e-23
3.45316e-23
3.63657e-23
3.81837e-23
3.99575e-23
4.16634e-23
4.32818e-23
4.4797e-23
4.61974e-23
4.74744e-23
4.86231e-23
4.96412e-23
5.05292e-23
5.12896e-23
5.19271e-23
5.24478e-23
5.2859e-23
5.31693e-23
5.33875e-23
5.35233e-23
5.35863e-23
1.07592e-22
1.11551e-22
1.17137e-22
1.24094e-22
1.32208e-22
1.41294e-22
1.51185e-22
1.6173e-22
1.72787e-22
1.84223e-22
1.95909e-22
2.0772e-22
2.19533e-22
2.31227e-22
2.42683e-22
2.53782e-22
2.64409e-22
2.74454e-22
2.8381e-22
2.92375e-22
3.00059e-22
3.06779e-22
3.12467e-22
3.17068e-22
3.20539e-22
3.22858e-22
3.24014e-22
3.37956e-22
3.52804e-22
3.73903e-22
4.00415e-22
4.31648e-22
4.66975e-22
5.05804e-22
5.4755e-22
5.91622e-22
6.37414e-22
6.84309e-22
7.31694e-22
7.7896e-22
8.25508e-22
8.70758e-22
9.14159e-22
9.55201e-22
9.93427e-22
1.02844e-21
1.05991e-21
1.08759e-21
1.11128e-21
1.1309e-21
1.14641e-21
1.15784e-21
1.1653e-21
1.16893e-21
9.8565e-22
1.03466e-21
1.10477e-21
1.19347e-21
1.29868e-21
1.41842e-21
1.55074e-21
1.69359e-21
1.84485e-21
2.00227e-21
2.16354e-21
2.32629e-21
2.48817e-21
2.64692e-21
2.80035e-21
2.94649e-21
3.08357e-21
3.21009e-21
3.32485e-21
3.42694e-21
3.51577e-21
3.59102e-21
3.65265e-21
3.70086e-21
3.73604e-21
3.75875e-21
3.76971e-21
2.88456e-21
3.03943e-21
3.2614e-21
3.5429e-21
3.87749e-21
4.259e-21
4.68107e-21
5.13696e-21
5.61951e-21
6.12113e-21
6.63399e-21
7.15021e-21
7.66202e-21
8.16204e-21
8.64342e-21
9.1e-21
9.5265e-21
9.91854e-21
1.02727e-20
1.05867e-20
1.08588e-20
1.10887e-20
1.12763e-20
1.14227e-20
1.15292e-20
1.15978e-20
1.16309e-20
8.5206e-21
8.99705e-21
9.6808e-21
1.05487e-20
1.15808e-20
1.2758e-20
1.40604e-20
1.54668e-20
1.69545e-20
1.84998e-20
2.0078e-20
2.16646e-20
2.32352e-20
2.47672e-20
2.62396e-20
2.76335e-20
2.89333e-20
3.01258e-20
3.12013e-20
3.21528e-20
3.29765e-20
3.36708e-20
3.42369e-20
3.46778e-20
3.49983e-20
3.52046e-20
3.53037e-20
2.53584e-20
2.68088e-20
2.88903e-20
3.15324e-20
3.46744e-20
3.82571e-20
4.22192e-20
4.64952e-20
5.10153e-20
5.57063e-20
6.0493e-20
6.53002e-20
7.00548e-20
7.46878e-20
7.91361e-20
8.3344e-20
8.72643e-20
9.08587e-20
9.40981e-20
9.69625e-20
9.94406e-20
1.01529e-19
1.03231e-19
1.04556e-19
1.05519e-19
1.06139e-19
1.06437e-19
7.57225e-20
8.00952e-20
8.63734e-20
9.43452e-20
1.03828e-19
1.14643e-19
1.26603e-19
1.3951e-19
1.53152e-19
1.67306e-19
1.81745e-19
1.9624e-19
2.10572e-19
2.24531e-19
2.37928e-19
2.50595e-19
2.62391e-19
2.73202e-19
2.8294e-19
2.91548e-19
2.98991e-19
3.05261e-19
3.10369e-19
3.14344e-19
3.17233e-19
3.1909e-19
3.19983e-19
2.2672e-19
2.39887e-19
2.58788e-19
2.82784e-19
3.11324e-19
3.43867e-19
3.79849e-19
4.18667e-19
4.59683e-19
5.02224e-19
5.45605e-19
5.8914e-19
6.32168e-19
6.74064e-19
7.14261e-19
7.52259e-19
7.87635e-19
8.20049e-19
8.49245e-19
8.75046e-19
8.97355e-19
9.16146e-19
9.31454e-19
9.43369e-19
9.52025e-19
9.57592e-19
9.60268e-19
6.78876e-19
7.18386e-19
7.75111e-19
8.47135e-19
9.32798e-19
1.03047e-18
1.13847e-18
1.25496e-18
1.37803e-18
1.50567e-18
1.6358e-18
1.76637e-18
1.89539e-18
2.021e-18
2.14148e-18
2.25534e-18
2.36132e-18
2.45841e-18
2.54583e-18
2.62307e-18
2.68983e-18
2.74606e-18
2.79185e-18
2.82749e-18
2.85337e-18
2.87001e-18
2.87801e-18
2.03391e-18
2.15241e-18
2.3225e-18
2.53843e-18
2.79518e-18
3.08787e-18
3.41137e-18
3.76024e-18
4.12869e-18
4.51067e-18
4.89998e-18
5.29049e-18
5.67623e-18
6.05163e-18
6.41162e-18
6.75174e-18
7.06823e-18
7.35809e-18
7.61904e-18
7.84957e-18
8.04881e-18
8.21657e-18
8.35319e-18
8.45949e-18
8.53669e-18
8.58633e-18
8.61018e-18
6.08861e-18
6.44306e-18
6.95181e-18
7.59752e-18
8.36518e-18
9.24002e-18
1.02067e-17
1.12488e-17
1.2349e-17
1.34892e-17
1.46509e-17
1.58156e-17
1.69657e-17
1.80845e-17
1.91569e-17
2.01697e-17
2.11118e-17
2.19743e-17
2.27506e-17
2.3436e-17
2.40283e-17
2.45268e-17
2.49326e-17
2.52483e-17
2.54775e-17
2.56249e-17
2.56957e-17
1.8212e-17
1.92704e-17
2.07888e-17
2.27152e-17
2.50042e-17
2.76113e-17
3.04902e-17
3.35917e-17
3.6864e-17
4.02527e-17
4.37027e-17
4.71595e-17
5.05705e-17
5.38866e-17
5.70632e-17
6.00616e-17
6.28491e-17
6.53997e-17
6.7694e-17
6.97192e-17
7.14683e-17
7.294e-17
7.41377e-17
7.50692e-17
7.57453e-17
7.61799e-17
7.63886e-17
5.43492e-17
5.74947e-17
6.20058e-17
6.77259e-17
7.45181e-17
8.22485e-17
9.07778e-17
9.99589e-17
1.09636e-16
1.19648e-16
1.29832e-16
1.40026e-16
1.50075e-16
1.59835e-16
1.69175e-16
1.77984e-16
1.86166e-16
1.93646e-16
2.0037e-16
2.063e-16
2.11419e-16
2.15723e-16
2.19224e-16
2.21945e-16
2.23919e-16
2.25187e-16
2.25796e-16
1.61809e-16
1.71106e-16
1.84429e-16
2.01307e-16
2.21327e-16
2.44083e-16
2.69159e-16
2.96113e-16
3.24482e-16
3.53789e-16
3.83553e-16
4.13302e-16
4.42585e-16
4.70985e-16
4.98129e-16
5.23692e-16
5.47408e-16
5.69065e-16
5.88509e-16
6.05643e-16
6.20418e-16
6.32831e-16
6.4292e-16
6.50757e-16
6.56439e-16
6.60088e-16
6.61839e-16
4.80162e-16
5.0738e-16
5.46347e-16
5.95647e-16
6.54035e-16
7.20292e-16
7.93165e-16
8.71341e-16
9.53456e-16
1.03811e-15
1.12391e-15
1.20949e-15
1.29356e-15
1.37494e-15
1.45257e-15
1.52555e-15
1.59313e-15
1.65475e-15
1.71e-15
1.7586e-15
1.80046e-15
1.83559e-15
1.86411e-15
1.88624e-15
1.90227e-15
1.91256e-15
1.91749e-15
1.42113e-15
1.49983e-15
1.61233e-15
1.75438e-15
1.92223e-15
2.11221e-15
2.3206e-15
2.5435e-15
2.77696e-15
3.01692e-15
3.2594e-15
3.50057e-15
3.73682e-15
3.96488e-15
4.18188e-15
4.38537e-15
4.5734e-15
4.74446e-15
4.89751e-15
5.03193e-15
5.1475e-15
5.24433e-15
5.32284e-15
5.38368e-15
5.42771e-15
5.45593e-15
5.46946e-15
4.20301e-15
4.42677e-15
4.74594e-15
5.1478e-15
5.62105e-15
6.15473e-15
6.73777e-15
7.3589e-15
8.00668e-15
8.66976e-15
9.33706e-15
9.99808e-15
1.06431e-14
1.12635e-14
1.18518e-14
1.24016e-14
1.29081e-14
1.33676e-14
1.37777e-14
1.4137e-14
1.44452e-14
1.4703e-14
1.49117e-14
1.50731e-14
1.51898e-14
1.52645e-14
1.53003e-14
1.24834e-14
1.31071e-14
1.39938e-14
1.51054e-14
1.64081e-14
1.7869e-14
1.94559e-14
2.11365e-14
2.28786e-14
2.46513e-14
2.64249e-14
2.8172e-14
2.98677e-14
3.14904e-14
3.30217e-14
3.44468e-14
3.57543e-14
3.6936e-14
3.79871e-14
3.89053e-14
3.96909e-14
4.03464e-14
4.08758e-14
4.12848e-14
4.15799e-14
4.17686e-14
4.18588e-14
3.75614e-14
3.92662e-14
4.1678e-14
4.46829e-14
4.81785e-14
5.20678e-14
5.62565e-14
6.06537e-14
6.51723e-14
6.97302e-14
7.4252e-14
7.86699e-14
8.29247e-14
8.69667e-14
9.07551e-14
9.42585e-14
9.74542e-14
1.00328e-13
1.02871e-13
1.05084e-13
1.0697e-13
1.08539e-13
1.09803e-13
1.10777e-13
1.11478e-13
1.11926e-13
1.1214e-13
1.159e-13
1.20524e-13
1.2702e-13
1.35043e-13
1.44281e-13
1.54442e-13
1.65252e-13
1.76457e-13
1.87823e-13
1.99142e-13
2.1023e-13
2.20931e-13
2.31115e-13
2.40682e-13
2.49555e-13
2.5768e-13
2.65024e-13
2.71573e-13
2.77327e-13
2.823e-13
2.86514e-13
2.9e-13
2.92795e-13
2.94942e-13
2.96483e-13
2.97464e-13
2.97932e-13
3.70847e-13
3.83758e-13
4.01758e-13
4.23761e-13
4.48786e-13
4.75936e-13
5.04395e-13
5.33432e-13
5.62411e-13
5.90792e-13
6.18132e-13
6.4408e-13
6.68376e-13
6.90834e-13
7.11341e-13
7.29842e-13
7.46329e-13
7.60835e-13
7.7342e-13
7.84168e-13
7.93179e-13
8.00559e-13
8.06424e-13
8.10891e-13
8.14075e-13
8.1609e-13
8.17045e-13
1.23636e-12
1.27645e-12
1.33208e-12
1.39969e-12
1.47608e-12
1.55834e-12
1.64387e-12
1.73042e-12
1.81607e-12
1.89923e-12
1.97864e-12
2.05336e-12
2.12269e-12
2.18622e-12
2.2437e-12
2.29507e-12
2.34041e-12
2.37989e-12
2.41379e-12
2.44242e-12
2.46614e-12
2.48533e-12
2.50038e-12
2.5117e-12
2.51965e-12
2.52461e-12
2.52693e-12
4.30132e-12
4.45275e-12
4.66413e-12
4.92308e-12
5.2186e-12
5.5408e-12
5.88079e-12
6.2307e-12
6.58356e-12
6.93339e-12
7.27505e-12
7.60424e-12
7.91741e-12
8.21169e-12
8.48486e-12
8.73526e-12
8.9618e-12
9.16386e-12
9.34128e-12
9.49431e-12
9.62355e-12
9.72995e-12
9.81469e-12
9.87918e-12
9.92497e-12
9.95375e-12
9.96726e-12
1.58958e-11
1.66092e-11
1.76197e-11
1.88819e-11
2.03569e-11
2.20092e-11
2.38058e-11
2.57151e-11
2.77071e-11
2.97525e-11
3.18229e-11
3.3891e-11
3.59302e-11
3.79152e-11
3.98221e-11
4.16287e-11
4.33153e-11
4.48653e-11
4.6265e-11
4.75048e-11
4.85787e-11
4.94841e-11
5.02221e-11
5.07966e-11
5.1214e-11
5.14823e-11
5.16113e-11
6.54722e-11
6.94027e-11
7.50547e-11
8.22495e-11
9.08369e-11
1.00669e-10
1.11585e-10
1.23402e-10
1.35909e-10
1.48872e-10
1.6204e-10
1.75161e-10
1.8799e-10
2.0031e-10
2.11936e-10
2.22721e-10
2.32558e-10
2.41378e-10
2.49144e-10
2.55852e-10
2.61519e-10
2.66183e-10
2.69897e-10
2.72722e-10
2.7473e-10
2.75993e-10
2.76588e-10
3.07077e-10
3.29246e-10
3.61248e-10
4.02135e-10
4.51056e-10
5.07126e-10
5.69358e-10
6.3666e-10
7.07844e-10
7.81662e-10
8.56839e-10
9.32112e-10
1.00628e-09
1.07821e-09
1.14691e-09
1.2115e-09
1.27124e-09
1.32557e-09
1.37412e-09
1.41663e-09
1.45302e-09
1.48335e-09
1.50777e-09
1.52653e-09
1.53999e-09
1.54852e-09
1.55256e-09
1.41717e-09
1.53062e-09
1.69636e-09
1.91157e-09
2.1743e-09
2.4826e-09
2.83391e-09
3.22485e-09
3.6511e-09
4.10731e-09
4.58722e-09
5.08381e-09
5.58949e-09
6.09636e-09
6.5965e-09
7.08219e-09
7.54618e-09
7.9819e-09
8.38359e-09
8.74648e-09
9.06678e-09
9.34179e-09
9.56985e-09
9.75027e-09
9.88332e-09
9.97005e-09
1.00122e-08
6.25682e-09
6.83737e-09
7.69873e-09
8.83974e-09
1.02656e-08
1.19825e-08
1.39943e-08
1.63001e-08
1.8892e-08
2.17543e-08
2.4862e-08
2.81814e-08
3.16701e-08
3.52784e-08
3.89509e-08
4.2628e-08
4.62479e-08
4.97489e-08
5.3071e-08
5.61579e-08
5.89586e-08
6.1429e-08
6.35321e-08
6.52392e-08
6.65299e-08
6.73921e-08
6.78217e-08
2.78216e-08
3.06412e-08
3.48672e-08
4.05373e-08
4.7728e-08
5.6526e-08
6.70084e-08
7.92265e-08
9.31925e-08
1.0892e-07
1.26316e-07
1.45229e-07
1.65448e-07
1.86707e-07
2.08689e-07
2.31038e-07
2.5337e-07
2.75284e-07
2.9638e-07
3.1624e-07
3.34506e-07
3.50835e-07
3.64922e-07
3.76507e-07
3.8538e-07
3.91383e-07
3.94412e-07
1.24748e-07
1.37007e-07
1.55387e-07
1.80062e-07
2.11368e-07
2.49683e-07
2.95342e-07
3.48569e-07
4.09419e-07
4.77736e-07
5.53133e-07
6.34974e-07
7.22361e-07
8.14071e-07
9.08687e-07
1.00463e-06
1.10024e-06
1.19378e-06
1.28355e-06
1.36788e-06
1.44521e-06
1.51418e-06
1.57353e-06
1.62224e-06
1.65947e-06
1.68463e-06
1.69731e-06
5.26168e-07
5.70412e-07
6.3618e-07
7.23519e-07
8.32987e-07
9.65038e-07
1.11994e-06
1.29753e-06
1.4971e-06
1.71726e-06
1.95593e-06
2.21035e-06
2.47715e-06
2.75241e-06
3.03187e-06
3.31099e-06
3.58516e-06
3.84982e-06
4.10056e-06
4.33337e-06
4.54467e-06
4.73113e-06
4.89009e-06
5.0194e-06
5.11749e-06
5.18328e-06
5.21623e-06
1.87247e-06
1.99623e-06
2.17741e-06
2.41331e-06
2.70223e-06
3.04245e-06
3.43171e-06
3.86682e-06
4.34351e-06
4.85635e-06
5.39882e-06
5.9635e-06
6.54224e-06
7.12644e-06
7.70734e-06
8.27624e-06
8.82477e-06
9.3452e-06
9.8305e-06
1.02745e-05
1.06718e-05
1.1018e-05
1.13095e-05
1.15441e-05
1.17202e-05
1.18372e-05
1.18953e-05
5.28608e-06
5.54506e-06
5.91842e-06
6.39505e-06
6.96565e-06
7.62109e-06
8.35169e-06
9.14685e-06
9.99496e-06
1.08835e-05
1.17993e-05
1.2729e-05
1.3659e-05
1.45764e-05
1.54689e-05
1.63251e-05
1.7135e-05
1.78895e-05
1.85814e-05
1.92043e-05
1.97537e-05
2.02258e-05
2.06185e-05
2.09307e-05
2.11626e-05
2.13153e-05
2.13904e-05
1.1907e-05
1.23228e-05
1.2914e-05
1.36551e-05
1.45239e-05
1.54993e-05
1.65604e-05
1.76867e-05
1.88581e-05
2.0055e-05
2.12587e-05
2.24516e-05
2.36177e-05
2.47428e-05
2.58143e-05
2.68218e-05
2.77566e-05
2.86121e-05
2.93832e-05
3.00666e-05
3.06604e-05
3.1164e-05
3.15778e-05
3.1903e-05
3.2142e-05
3.22977e-05
3.23734e-05
2.21409e-05
2.26727e-05
2.34194e-05
2.43411e-05
2.5402e-05
2.65692e-05
2.7812e-05
2.91021e-05
3.04136e-05
3.17235e-05
3.30113e-05
3.42594e-05
3.54531e-05
3.65807e-05
3.76328e-05
3.86026e-05
3.94855e-05
4.0279e-05
4.09818e-05
4.15945e-05
4.21185e-05
4.25562e-05
4.29108e-05
4.3186e-05
4.33858e-05
4.35146e-05
4.35767e-05
3.53347e-05
3.58953e-05
3.66743e-05
3.76229e-05
3.86974e-05
3.98587e-05
4.10715e-05
4.23053e-05
4.35337e-05
4.47345e-05
4.58897e-05
4.69852e-05
4.80103e-05
4.89578e-05
4.9823e-05
5.06036e-05
5.12994e-05
5.19117e-05
5.2443e-05
5.28968e-05
5.32773e-05
5.3589e-05
5.38366e-05
5.40252e-05
5.41597e-05
5.42447e-05
5.42851e-05
5.01112e-05
5.06097e-05
5.12959e-05
5.2121e-05
5.30414e-05
5.40191e-05
5.5021e-05
5.60194e-05
5.69917e-05
5.79204e-05
5.87923e-05
5.95983e-05
6.03326e-05
6.09925e-05
6.15777e-05
6.20898e-05
6.25319e-05
6.29081e-05
6.32232e-05
6.34826e-05
6.36918e-05
6.38564e-05
6.39817e-05
6.40729e-05
6.41349e-05
6.41722e-05
6.41891e-05
6.49883e-05
6.53622e-05
6.58714e-05
6.64747e-05
6.71357e-05
6.78229e-05
6.85102e-05
6.91763e-05
6.9805e-05
7.03847e-05
7.09078e-05
7.13701e-05
7.17704e-05
7.21097e-05
7.23909e-05
7.26182e-05
7.27968e-05
7.29322e-05
7.30306e-05
7.3098e-05
7.31402e-05
7.3163e-05
7.31716e-05
7.31708e-05
7.31649e-05
7.31579e-05
7.3153e-05
7.88175e-05
7.9041e-05
7.93398e-05
7.96849e-05
8.00504e-05
8.04148e-05
8.07604e-05
8.10739e-05
8.13461e-05
8.15714e-05
8.17473e-05
8.1874e-05
8.19536e-05
8.19899e-05
8.1988e-05
8.19535e-05
8.18928e-05
8.18121e-05
8.17177e-05
8.16158e-05
8.15121e-05
8.14118e-05
8.13197e-05
8.124e-05
8.11764e-05
8.11317e-05
8.11085e-05
9.09433e-05
9.10193e-05
9.11134e-05
9.12095e-05
9.12936e-05
9.13539e-05
9.13819e-05
9.13719e-05
9.1321e-05
9.12291e-05
9.10978e-05
9.09307e-05
9.07325e-05
9.0509e-05
9.02663e-05
9.00112e-05
8.97502e-05
8.94898e-05
8.92362e-05
8.89953e-05
8.87723e-05
8.8572e-05
8.83985e-05
8.82552e-05
8.81451e-05
8.80704e-05
8.80325e-05
0.000101105
0.000101054
0.000100974
0.000100859
0.000100704
0.000100506
0.000100267
9.99868e-05
9.96677e-05
9.93141e-05
9.89313e-05
9.85253e-05
9.81027e-05
9.76705e-05
9.72358e-05
9.68055e-05
9.63863e-05
9.59847e-05
9.56066e-05
9.52574e-05
9.49418e-05
9.46641e-05
9.44277e-05
9.42354e-05
9.40896e-05
9.39918e-05
9.39427e-05
0.00010935
0.000109195
0.000108971
0.000108684
0.000108338
0.000107938
0.000107489
0.000106996
0.000106467
0.00010591
0.000105333
0.000104743
0.000104148
0.000103557
0.000102976
0.000102413
0.000101875
0.000101368
0.000100897
0.000100467
0.000100082
9.97474e-05
9.94646e-05
9.92364e-05
9.90644e-05
9.89496e-05
9.88923e-05
0.000115858
0.000115623
0.000115289
0.00011487
0.000114377
0.000113821
0.000113212
0.00011256
0.000111875
0.000111166
0.000110444
0.000109719
0.000108998
0.00010829
0.000107603
0.000106945
0.000106321
0.000105737
0.0001052
0.000104712
0.000104279
0.000103904
0.000103588
0.000103335
0.000103144
0.000103018
0.000102955
0.000120856
0.000120562
0.000120147
0.000119631
0.000119031
0.000118361
0.000117636
0.000116867
0.000116069
0.000115252
0.000114427
0.000113606
0.000112796
0.000112007
0.000111246
0.000110521
0.000109838
0.000109202
0.000108619
0.000108093
0.000107627
0.000107225
0.000106887
0.000106617
0.000106415
0.00010628
0.000106214
0.000124574
0.000124239
0.000123767
0.000123182
0.000122506
0.000121756
0.00012095
0.000120101
0.000119224
0.000118333
0.000117438
0.000116551
0.000115682
0.000114839
0.000114029
0.000113261
0.000112539
0.00011187
0.000111258
0.000110708
0.000110221
0.000109802
0.000109451
0.000109171
0.000108961
0.000108822
0.000108753
0.000127224
0.00012686
0.000126349
0.000125718
0.000124991
0.000124188
0.000123328
0.000122426
0.000121498
0.000120558
0.000119619
0.000118691
0.000117784
0.000116908
0.000116069
0.000115274
0.00011453
0.000113842
0.000113213
0.000112649
0.000112151
0.000111723
0.000111365
0.000111079
0.000110866
0.000110724
0.000110654
0.000128987
0.000128605
0.00012807
0.00012741
0.000126651
0.000125814
0.00012492
0.000123985
0.000123027
0.000122059
0.000121094
0.000120144
0.000119217
0.000118322
0.000117468
0.000116661
0.000115906
0.000115209
0.000114573
0.000114003
0.000113501
0.00011307
0.00011271
0.000112422
0.000112208
0.000112066
0.000111996
0.000130019
0.000129626
0.000129076
0.0001284
0.000127623
0.000126768
0.000125855
0.000124904
0.00012393
0.000122949
0.000121973
0.000121012
0.000120077
0.000119177
0.000118318
0.000117507
0.00011675
0.000116052
0.000115416
0.000114847
0.000114346
0.000113915
0.000113556
0.00011327
0.000113057
0.000112915
0.000112846
0.000130445
0.000130048
0.000129491
0.000128807
0.000128023
0.00012716
0.00012624
0.000125284
0.000124306
0.000123323
0.000122345
0.000121384
0.000120451
0.000119552
0.000118696
0.00011789
0.000117137
0.000116443
0.000115813
0.000115248
0.000114751
0.000114324
0.000113969
0.000113686
0.000113475
0.000113335
0.000113266
0.000130371
0.000129973
0.000129415
0.000128731
0.000127945
0.000127083
0.000126166
0.000125212
0.000124239
0.00012326
0.000122289
0.000121336
0.00012041
0.00011952
0.000118673
0.000117875
0.000117131
0.000116446
0.000115824
0.000115267
0.000114777
0.000114357
0.000114007
0.000113729
0.000113521
0.000113383
0.000113316
0.000129882
0.000129486
0.000128932
0.000128251
0.00012747
0.000126615
0.000125706
0.000124762
0.000123799
0.000122831
0.000121872
0.000120931
0.000120017
0.00011914
0.000118306
0.000117521
0.000116789
0.000116116
0.000115504
0.000114957
0.000114477
0.000114065
0.000113722
0.000113449
0.000113245
0.00011311
0.000113044
0.000129051
0.000128659
0.000128109
0.000127436
0.000126665
0.000125821
0.000124925
0.000123994
0.000123045
0.000122093
0.000121149
0.000120224
0.000119327
0.000118466
0.000117647
0.000116877
0.00011616
0.0001155
0.000114902
0.000114366
0.000113896
0.000113493
0.000113158
0.000112891
0.000112692
0.000112561
0.000112496
0.000127932
0.000127545
0.000127005
0.000126343
0.000125585
0.000124755
0.000123874
0.00012296
0.00012203
0.000121095
0.00012017
0.000119263
0.000118385
0.000117542
0.000116741
0.000115988
0.000115287
0.000114643
0.000114058
0.000113535
0.000113076
0.000112683
0.000112356
0.000112096
0.000111902
0.000111774
0.000111711
0.000126578
0.000126199
0.000125669
0.00012502
0.000124277
0.000123464
0.000122601
0.000121706
0.000120795
0.000119881
0.000118976
0.00011809
0.000117231
0.000116408
0.000115626
0.000114891
0.000114208
0.000113579
0.000113009
0.0001125
0.000112053
0.00011167
0.000111352
0.000111099
0.00011091
0.000110786
0.000110724
0.000125032
0.000124661
0.000124143
0.000123507
0.000122781
0.000121985
0.000121142
0.000120268
0.000119378
0.000118485
0.000117602
0.000116738
0.000115901
0.000115098
0.000114336
0.000113621
0.000112955
0.000112343
0.000111789
0.000111293
0.000110859
0.000110486
0.000110177
0.000109931
0.000109747
0.000109626
0.000109567
0.000123328
0.000122966
0.00012246
0.000121839
0.00012113
0.000120354
0.000119531
0.000118678
0.00011781
0.000116941
0.00011608
0.000115238
0.000114423
0.000113642
0.000112901
0.000112204
0.000111557
0.000110963
0.000110423
0.000109942
0.00010952
0.000109158
0.000108858
0.000108619
0.000108441
0.000108324
0.000108266
0.000121496
0.000121143
0.000120649
0.000120045
0.000119353
0.000118597
0.000117795
0.000116965
0.00011612
0.000115273
0.000114436
0.000113617
0.000112824
0.000112065
0.000111344
0.000110668
0.000110039
0.000109462
0.000108938
0.000108471
0.000108061
0.000107711
0.000107419
0.000107187
0.000107015
0.000106901
0.000106845
0.000119562
0.000119218
0.000118737
0.000118148
0.000117475
0.000116739
0.000115959
0.000115151
0.000114329
0.000113506
0.000112692
0.000111896
0.000111126
0.000110388
0.000109689
0.000109032
0.000108422
0.000107862
0.000107354
0.000106901
0.000106503
0.000106163
0.000105881
0.000105656
0.000105489
0.000105379
0.000105324
0.000117546
0.000117211
0.000116743
0.00011617
0.000115516
0.0001148
0.000114042
0.000113256
0.000112458
0.000111658
0.000110868
0.000110095
0.000109347
0.000108631
0.000107952
0.000107315
0.000106723
0.00010618
0.000105688
0.000105249
0.000104864
0.000104534
0.000104261
0.000104043
0.000103881
0.000103774
0.000103722
0.000115465
0.00011514
0.000114685
0.000114129
0.000113492
0.000112797
0.00011206
0.000111297
0.000110522
0.000109746
0.000108978
0.000108228
0.000107503
0.000106809
0.00010615
0.000105532
0.000104959
0.000104432
0.000103955
0.00010353
0.000103157
0.000102838
0.000102573
0.000102362
0.000102205
0.000102102
0.000102051
0.000113335
0.000113019
0.000112577
0.000112037
0.000111419
0.000110743
0.000110028
0.000109288
0.000108535
0.000107782
0.000107037
0.00010631
0.000105606
0.000104933
0.000104295
0.000103696
0.00010314
0.00010263
0.000102168
0.000101755
0.000101394
0.000101085
0.000100829
0.000100625
0.000100473
0.000100373
0.000100324
0.000111167
0.00011086
0.000110431
0.000109906
0.000109306
0.00010865
0.000107956
0.000107237
0.000106507
0.000105776
0.000105054
0.000104349
0.000103667
0.000103014
0.000102395
0.000101815
0.000101276
0.000100782
0.000100335
9.99355e-05
9.95859e-05
9.92868e-05
9.90385e-05
9.88412e-05
9.86945e-05
9.85977e-05
9.85499e-05
0.000108968
0.00010867
0.000108254
0.000107744
0.000107161
0.000106525
0.000105851
0.000105154
0.000104446
0.000103737
0.000103036
0.000102352
0.000101691
0.000101059
0.000100459
9.98968e-05
9.9375e-05
9.88962e-05
9.84628e-05
9.80762e-05
9.77377e-05
9.74482e-05
9.72079e-05
9.70169e-05
9.68749e-05
9.67813e-05
9.6735e-05
0.000106745
0.000106455
0.000106051
0.000105556
0.000104991
0.000104374
0.00010372
0.000103043
0.000102356
0.000101668
0.000100989
0.000100325
9.96844e-05
9.90711e-05
9.84901e-05
9.79451e-05
9.74395e-05
9.69757e-05
9.65559e-05
9.61815e-05
9.58537e-05
9.55734e-05
9.53407e-05
9.51559e-05
9.50184e-05
9.49278e-05
9.48831e-05
0.0001045
0.000104219
0.000103827
0.000103346
0.000102797
0.000102198
0.000101563
0.000100906
0.000100239
9.9572e-05
9.8913e-05
9.82695e-05
9.76478e-05
9.70531e-05
9.64897e-05
9.59615e-05
9.54714e-05
9.5022e-05
9.46151e-05
9.42524e-05
9.3935e-05
9.36634e-05
9.34381e-05
9.32591e-05
9.31261e-05
9.30384e-05
9.29951e-05
0.000102234
0.000101961
0.000101579
0.000101112
0.000100579
9.99971e-05
9.93806e-05
9.87429e-05
9.80954e-05
9.74476e-05
9.68079e-05
9.61834e-05
9.55801e-05
9.50031e-05
9.44566e-05
9.39443e-05
9.34691e-05
9.30333e-05
9.26389e-05
9.22873e-05
9.19797e-05
9.17165e-05
9.14983e-05
9.13249e-05
9.1196e-05
9.1111e-05
9.10691e-05
9.9943e-05
9.96772e-05
9.93065e-05
9.88525e-05
9.83343e-05
9.77683e-05
9.71691e-05
9.65494e-05
9.59202e-05
9.52908e-05
9.46694e-05
9.40629e-05
9.3477e-05
9.29168e-05
9.23863e-05
9.1889e-05
9.14278e-05
9.1005e-05
9.06224e-05
9.02814e-05
8.9983e-05
8.97278e-05
8.95162e-05
8.93481e-05
8.92232e-05
8.91408e-05
8.91002e-05
9.76212e-05
9.73625e-05
9.70016e-05
9.65598e-05
9.60554e-05
9.55046e-05
9.49216e-05
9.43187e-05
9.37066e-05
9.30945e-05
9.24903e-05
9.19005e-05
9.1331e-05
9.07865e-05
9.0271e-05
8.97878e-05
8.93398e-05
8.89291e-05
8.85575e-05
8.82264e-05
8.79368e-05
8.76891e-05
8.74837e-05
8.73206e-05
8.71994e-05
8.71195e-05
8.70801e-05
9.52591e-05
9.50068e-05
9.46551e-05
9.42244e-05
9.37328e-05
9.3196e-05
9.26279e-05
9.20405e-05
9.14443e-05
9.08481e-05
9.02596e-05
8.96854e-05
8.9131e-05
8.8601e-05
8.80994e-05
8.76293e-05
8.71935e-05
8.67941e-05
8.64328e-05
8.61109e-05
8.58293e-05
8.55886e-05
8.53891e-05
8.52306e-05
8.51129e-05
8.50353e-05
8.4997e-05
9.28434e-05
9.2597e-05
9.22534e-05
9.18328e-05
9.13528e-05
9.08287e-05
9.0274e-05
8.97007e-05
8.91187e-05
8.8537e-05
8.79629e-05
8.74028e-05
8.68621e-05
8.63453e-05
8.58563e-05
8.53982e-05
8.49735e-05
8.45845e-05
8.42326e-05
8.39191e-05
8.3645e-05
8.34108e-05
8.32166e-05
8.30624e-05
8.29479e-05
8.28724e-05
8.28352e-05
9.03569e-05
9.01157e-05
8.97793e-05
8.93676e-05
8.88976e-05
8.83847e-05
8.78419e-05
8.72809e-05
8.67117e-05
8.61427e-05
8.55813e-05
8.50337e-05
8.45053e-05
8.40003e-05
8.35226e-05
8.30752e-05
8.26606e-05
8.22808e-05
8.19374e-05
8.16316e-05
8.13642e-05
8.11358e-05
8.09464e-05
8.07961e-05
8.06845e-05
8.0611e-05
8.05747e-05
8.77782e-05
8.75413e-05
8.7211e-05
8.68068e-05
8.63454e-05
8.58419e-05
8.53093e-05
8.47588e-05
8.42004e-05
8.36423e-05
8.30919e-05
8.25551e-05
8.20372e-05
8.15426e-05
8.10747e-05
8.06366e-05
8.02308e-05
7.98591e-05
7.95232e-05
7.92242e-05
7.89628e-05
7.87395e-05
7.85545e-05
7.84076e-05
7.82986e-05
7.82268e-05
7.81914e-05
8.50814e-05
8.48479e-05
8.45224e-05
8.41241e-05
8.36697e-05
8.31738e-05
8.26492e-05
8.21073e-05
8.15577e-05
8.10086e-05
8.04671e-05
7.99393e-05
7.94302e-05
7.89441e-05
7.84845e-05
7.80543e-05
7.76559e-05
7.72912e-05
7.69617e-05
7.66684e-05
7.64122e-05
7.61934e-05
7.60121e-05
7.58683e-05
7.57616e-05
7.56913e-05
7.56567e-05
8.22359e-05
8.20049e-05
8.16829e-05
8.12889e-05
8.08394e-05
8.0349e-05
7.98305e-05
7.9295e-05
7.87519e-05
7.82097e-05
7.76751e-05
7.71542e-05
7.66521e-05
7.61727e-05
7.57197e-05
7.52959e-05
7.49035e-05
7.45445e-05
7.42203e-05
7.39318e-05
7.36798e-05
7.34647e-05
7.32866e-05
7.31454e-05
7.30406e-05
7.29716e-05
7.29376e-05
7.92069e-05
7.89773e-05
7.86573e-05
7.82659e-05
7.78194e-05
7.73325e-05
7.68178e-05
7.62864e-05
7.57477e-05
7.52101e-05
7.46803e-05
7.41643e-05
7.3667e-05
7.31926e-05
7.27444e-05
7.23253e-05
7.19376e-05
7.15829e-05
7.12627e-05
7.0978e-05
7.07294e-05
7.05173e-05
7.03418e-05
7.02026e-05
7.00994e-05
7.00315e-05
6.9998e-05
7.59562e-05
7.5727e-05
7.54076e-05
7.5017e-05
7.45716e-05
7.4086e-05
7.35729e-05
7.30433e-05
7.25067e-05
7.19714e-05
7.14442e-05
7.09309e-05
7.04366e-05
6.99652e-05
6.95201e-05
6.91042e-05
6.87195e-05
6.83679e-05
6.80506e-05
6.77686e-05
6.75226e-05
6.73127e-05
6.71391e-05
6.70015e-05
6.68995e-05
6.68325e-05
6.67994e-05
7.24441e-05
7.22143e-05
7.18941e-05
7.15025e-05
7.10562e-05
7.05698e-05
7.0056e-05
6.9526e-05
6.89893e-05
6.84542e-05
6.79274e-05
6.74149e-05
6.69215e-05
6.64514e-05
6.60078e-05
6.55935e-05
6.52106e-05
6.48608e-05
6.45453e-05
6.42651e-05
6.40207e-05
6.38124e-05
6.36402e-05
6.35038e-05
6.34027e-05
6.33363e-05
6.33036e-05
6.86312e-05
6.83998e-05
6.80774e-05
6.76833e-05
6.72343e-05
6.67452e-05
6.62288e-05
6.56964e-05
6.51576e-05
6.46206e-05
6.40924e-05
6.35789e-05
6.3085e-05
6.26145e-05
6.2171e-05
6.1757e-05
6.13747e-05
6.10257e-05
6.07111e-05
6.04319e-05
6.01886e-05
5.99813e-05
5.981e-05
5.96744e-05
5.9574e-05
5.9508e-05
5.94756e-05
6.44818e-05
6.4248e-05
6.39224e-05
6.35245e-05
6.30714e-05
6.25781e-05
6.20575e-05
6.15212e-05
6.09788e-05
6.04387e-05
5.99078e-05
5.9392e-05
5.88963e-05
5.84246e-05
5.79802e-05
5.75657e-05
5.71832e-05
5.68343e-05
5.65202e-05
5.62415e-05
5.59988e-05
5.57922e-05
5.56215e-05
5.54866e-05
5.53866e-05
5.5321e-05
5.52888e-05
5.99687e-05
5.97321e-05
5.94027e-05
5.90004e-05
5.85425e-05
5.80442e-05
5.75189e-05
5.6978e-05
5.64315e-05
5.58877e-05
5.53536e-05
5.48353e-05
5.43375e-05
5.38643e-05
5.34189e-05
5.30038e-05
5.26211e-05
5.22723e-05
5.19585e-05
5.16804e-05
5.14383e-05
5.12324e-05
5.10625e-05
5.09281e-05
5.08288e-05
5.07635e-05
5.07315e-05
5.50802e-05
5.48409e-05
5.45079e-05
5.41014e-05
5.36391e-05
5.31364e-05
5.26068e-05
5.20621e-05
5.15122e-05
5.09656e-05
5.04293e-05
4.99093e-05
4.94105e-05
4.89368e-05
4.84913e-05
4.80766e-05
4.76946e-05
4.73468e-05
4.70341e-05
4.67572e-05
4.65164e-05
4.63118e-05
4.6143e-05
4.60097e-05
4.59111e-05
4.58465e-05
4.58147e-05
4.98278e-05
4.95867e-05
4.92514e-05
4.88424e-05
4.83775e-05
4.78726e-05
4.73412e-05
4.67951e-05
4.62445e-05
4.56977e-05
4.5162e-05
4.46431e-05
4.41459e-05
4.36743e-05
4.32313e-05
4.28193e-05
4.24402e-05
4.20954e-05
4.17857e-05
4.15117e-05
4.12737e-05
4.10715e-05
4.09049e-05
4.07734e-05
4.06762e-05
4.06125e-05
4.05813e-05
4.42554e-05
4.40144e-05
4.36795e-05
4.32713e-05
4.28078e-05
4.23049e-05
4.17762e-05
4.12337e-05
4.06873e-05
4.01455e-05
3.96153e-05
3.91024e-05
3.86117e-05
3.81467e-05
3.77106e-05
3.73055e-05
3.69331e-05
3.65948e-05
3.62912e-05
3.60229e-05
3.579e-05
3.55924e-05
3.54296e-05
3.53013e-05
3.52065e-05
3.51444e-05
3.5114e-05
3.84474e-05
3.82097e-05
3.78795e-05
3.74774e-05
3.70214e-05
3.65272e-05
3.60085e-05
3.5477e-05
3.49424e-05
3.44132e-05
3.38961e-05
3.33968e-05
3.29196e-05
3.24682e-05
3.20453e-05
3.1653e-05
3.1293e-05
3.09662e-05
3.06733e-05
3.04147e-05
3.01904e-05
3.00002e-05
2.98438e-05
2.97205e-05
2.96295e-05
2.95699e-05
2.95407e-05
3.25334e-05
3.23032e-05
3.19837e-05
3.15952e-05
3.11551e-05
3.06789e-05
3.01799e-05
2.96695e-05
2.9157e-05
2.86506e-05
2.81567e-05
2.76806e-05
2.72263e-05
2.67973e-05
2.63961e-05
2.60244e-05
2.56838e-05
2.5375e-05
2.50985e-05
2.48547e-05
2.46435e-05
2.44646e-05
2.43175e-05
2.42016e-05
2.41162e-05
2.40603e-05
2.40329e-05
2.66862e-05
2.64688e-05
2.61675e-05
2.58015e-05
2.53876e-05
2.49406e-05
2.44731e-05
2.39958e-05
2.35177e-05
2.30461e-05
2.25872e-05
2.21457e-05
2.17253e-05
2.1329e-05
2.0959e-05
2.06169e-05
2.03038e-05
2.00204e-05
1.9767e-05
1.95438e-05
1.93506e-05
1.91872e-05
1.90529e-05
1.89472e-05
1.88693e-05
1.88184e-05
1.87934e-05
2.11094e-05
2.09106e-05
2.06355e-05
2.03018e-05
1.99252e-05
1.95193e-05
1.90958e-05
1.86644e-05
1.82333e-05
1.78093e-05
1.73975e-05
1.70023e-05
1.66269e-05
1.62738e-05
1.59448e-05
1.56411e-05
1.53637e-05
1.5113e-05
1.48892e-05
1.46923e-05
1.45221e-05
1.43782e-05
1.42601e-05
1.41673e-05
1.40989e-05
1.40542e-05
1.40323e-05
1.60135e-05
1.58388e-05
1.55973e-05
1.5305e-05
1.49759e-05
1.46221e-05
1.42538e-05
1.38798e-05
1.35072e-05
1.31416e-05
1.27876e-05
1.24488e-05
1.21278e-05
1.18267e-05
1.15467e-05
1.1289e-05
1.10539e-05
1.08419e-05
1.0653e-05
1.04871e-05
1.03438e-05
1.02229e-05
1.01237e-05
1.00458e-05
9.98849e-06
9.95105e-06
9.93273e-06
1.15829e-05
1.14364e-05
1.12342e-05
1.099e-05
1.07158e-05
1.04219e-05
1.01169e-05
9.80815e-06
9.50155e-06
9.20179e-06
8.91253e-06
8.63655e-06
8.37591e-06
8.13209e-06
7.9061e-06
7.69854e-06
7.50976e-06
7.33986e-06
7.18878e-06
7.05631e-06
6.94214e-06
6.84589e-06
6.76708e-06
6.70522e-06
6.65975e-06
6.63007e-06
6.61557e-06
7.94227e-06
7.82588e-06
7.66556e-06
7.47244e-06
7.25621e-06
7.0252e-06
6.78641e-06
6.54561e-06
6.30742e-06
6.07547e-06
5.85251e-06
5.64062e-06
5.44126e-06
5.25543e-06
5.08377e-06
4.92662e-06
4.78412e-06
4.65622e-06