/*--------------------------------*- C++ -*----------------------------------*\
| =========                 |                                                 |
| \\      /  F ield         | OpenFOAM: The Open Source CFD Toolbox           |
|  \\    /   O peration     | Version:  2106                                  |
|   \\  /    A nd           | Website:  www.openfoam.com                      |
|    \\/     M anipulation  |                                                 |
\*---------------------------------------------------------------------------*/
FoamFile
{
    version     2.0;
    format      ascii;
    arch        "LSB;label=32;scalar=64";
    class       volScalarField;
    location    "149.99958";
    object      CH3CO;
}
// * * * * * * * * * * * * * * * * * * * * * * * * * * * * * * * * * * * * * //

dimensions      [0 0 0 0 0 0 0];

internalField   nonuniform List<scalar> 
3360
(
1.36476e-37
1.45791e-37
1.59286e-37
1.76647e-37
1.97622e-37
2.21948e-37
2.4932e-37
2.79376e-37
3.1169e-37
3.45779e-37
3.81115e-37
4.1714e-37
4.53281e-37
4.88971e-37
5.23663e-37
5.56847e-37
5.88063e-37
6.16913e-37
6.43068e-37
6.66278e-37
6.86372e-37
7.03264e-37
7.16946e-37
7.27488e-37
7.35035e-37
7.3979e-37
7.42016e-37
2.35134e-36
2.53337e-36
2.80166e-36
3.15449e-36
3.59228e-36
4.11598e-36
4.72618e-36
5.42243e-36
6.20274e-36
7.06321e-36
7.99779e-36
8.99806e-36
1.00532e-35
1.11498e-35
1.22727e-35
1.34045e-35
1.45266e-35
1.56194e-35
1.6663e-35
1.76379e-35
1.85259e-35
1.93108e-35
1.99787e-35
2.0519e-35
2.09249e-35
2.11933e-35
2.13251e-35
2.26477e-35
2.47353e-35
2.78561e-35
3.20342e-35
3.7321e-35
4.37742e-35
5.14425e-35
6.03534e-35
7.05023e-35
8.18448e-35
9.42915e-35
1.07708e-34
1.21917e-34
1.36698e-34
1.51797e-34
1.66937e-34
1.81827e-34
1.96174e-34
2.09703e-34
2.2216e-34
2.33326e-34
2.43028e-34
2.5114e-34
2.57587e-34
2.62344e-34
2.65435e-34
2.66929e-34
1.9063e-34
2.1049e-34
2.40547e-34
2.8135e-34
3.33738e-34
3.98604e-34
4.76718e-34
5.6857e-34
6.74241e-34
7.93302e-34
9.24749e-34
1.06699e-33
1.21789e-33
1.37479e-33
1.5347e-33
1.69438e-33
1.85054e-33
1.99998e-33
2.13979e-33
2.26742e-33
2.38081e-33
2.47843e-33
2.55931e-33
2.62302e-33
2.66963e-33
2.69969e-33
2.71411e-33
1.6146e-33
1.79597e-33
2.07206e-33
2.44944e-33
2.9374e-33
3.54562e-33
4.28235e-33
5.15276e-33
6.15761e-33
7.29228e-33
8.5462e-33
9.90284e-33
1.13402e-32
1.28318e-32
1.43479e-32
1.58573e-32
1.73284e-32
1.87314e-32
2.00395e-32
2.12297e-32
2.22837e-32
2.31884e-32
2.3936e-32
2.45234e-32
2.49523e-32
2.52283e-32
2.53605e-32
1.38981e-32
1.55225e-32
1.80033e-32
2.14056e-32
2.58188e-32
3.13353e-32
3.80332e-32
4.59609e-32
5.51248e-32
6.548e-32
7.6926e-32
8.93067e-32
1.02416e-31
1.16007e-31
1.29804e-31
1.43519e-31
1.56867e-31
1.69576e-31
1.81406e-31
1.92152e-31
2.01653e-31
2.09796e-31
2.16515e-31
2.21787e-31
2.25633e-31
2.28105e-31
2.29288e-31
1.21119e-31
1.35581e-31
1.57692e-31
1.88056e-31
2.2749e-31
2.76829e-31
3.36773e-31
4.07743e-31
4.89776e-31
5.82445e-31
6.84816e-31
7.95465e-31
9.12521e-31
1.03376e-30
1.15671e-30
1.27881e-30
1.39752e-30
1.51045e-30
1.61547e-30
1.71078e-30
1.79499e-30
1.86712e-30
1.92659e-30
1.97323e-30
2.00723e-30
2.02907e-30
2.03952e-30
1.05975e-30
1.1873e-30
1.38246e-30
1.65063e-30
1.9991e-30
2.43526e-30
2.96524e-30
3.59268e-30
4.31775e-30
5.13647e-30
6.04041e-30
7.01674e-30
8.04876e-30
9.1167e-30
1.01987e-29
1.12722e-29
1.23148e-29
1.33055e-29
1.42258e-29
1.50602e-29
1.57966e-29
1.64265e-29
1.69453e-29
1.73517e-29
1.76475e-29
1.78373e-29
1.7928e-29
9.28245e-30
1.04029e-29
1.21166e-29
1.44705e-29
1.75274e-29
2.13507e-29
2.59921e-29
3.14808e-29
3.78156e-29
4.49587e-29
5.28334e-29
6.13257e-29
7.02882e-29
7.95477e-29
8.89141e-29
9.81914e-29
1.07187e-28
1.15722e-28
1.23637e-28
1.30801e-28
1.37113e-28
1.42504e-28
1.46935e-28
1.50399e-28
1.52914e-28
1.54525e-28
1.55291e-28
8.08007e-29
9.05269e-29
1.05395e-28
1.25797e-28
1.5226e-28
1.85308e-28
2.2536e-28
2.72633e-28
3.27081e-28
3.88339e-28
4.55715e-28
5.28198e-28
6.045e-28
6.83126e-28
7.6245e-28
8.40804e-28
9.16568e-28
9.88244e-28
1.05452e-27
1.11433e-27
1.16684e-27
1.21153e-27
1.24813e-27
1.27661e-27
1.29721e-27
1.31031e-27
1.31652e-27
6.9658e-28
7.79823e-28
9.0686e-28
1.08081e-27
1.30586e-27
1.58608e-27
1.92456e-27
2.32264e-27
2.77936e-27
3.29116e-27
3.8517e-27
4.45213e-27
5.08142e-27
5.72697e-27
6.37528e-27
7.01271e-27
7.62616e-27
8.20369e-27
8.73505e-27
9.21198e-27
9.62843e-27
9.98066e-27
1.02672e-26
1.04885e-26
1.0647e-26
1.07469e-26
1.07936e-26
5.8948e-27
6.58921e-27
7.64626e-27
9.08875e-27
1.09472e-26
1.32503e-26
1.60176e-26
1.92536e-26
2.2944e-26
2.7053e-26
3.15238e-26
3.62802e-26
4.12305e-26
4.62725e-26
5.12993e-26
5.62048e-26
6.08895e-26
6.52647e-26
6.92562e-26
7.28069e-26
7.58773e-26
7.84464e-26
8.05106e-26
8.20828e-26
8.31907e-26
8.38748e-26
8.41866e-26
4.85077e-26
5.40921e-26
6.25567e-26
7.4044e-26
8.87459e-26
1.06828e-25
1.28373e-25
1.53342e-25
1.81546e-25
2.12637e-25
2.46118e-25
2.81361e-25
3.17643e-25
3.54188e-25
3.90209e-25
4.2495e-25
4.57727e-25
4.8795e-25
5.15151e-25
5.38995e-25
5.59281e-25
5.75943e-25
5.89046e-25
5.98771e-25
6.05407e-25
6.0934e-25
6.11037e-25
3.81989e-25
4.244e-25
4.88289e-25
5.7429e-25
6.83286e-25
8.15855e-25
9.71888e-25
1.15034e-24
1.34911e-24
1.56504e-24
1.79406e-24
2.03138e-24
2.27178e-24
2.50993e-24
2.74066e-24
2.95926e-24
3.16165e-24
3.34457e-24
3.50564e-24
3.64343e-24
3.75741e-24
3.84798e-24
3.91634e-24
3.96447e-24
3.99504e-24
4.01138e-24
4.01735e-24
2.82595e-24
3.12304e-24
3.56654e-24
4.15648e-24
4.8936e-24
5.77578e-24
6.79582e-24
7.94036e-24
9.18969e-24
1.05185e-23
1.18972e-23
1.32938e-23
1.46756e-23
1.60114e-23
1.72731e-23
1.84365e-23
1.94827e-23
2.03985e-23
2.11762e-23
2.18136e-23
2.2314e-23
2.26855e-23
2.29408e-23
2.30967e-23
2.31739e-23
2.31966e-23
2.31925e-23
1.91311e-23
2.09853e-23
2.37183e-23
2.72941e-23
3.16745e-23
3.68007e-23
4.25837e-23
4.89031e-23
5.56103e-23
6.25373e-23
6.95068e-23
7.63433e-23
8.28835e-23
8.89847e-23
9.45304e-23
9.94339e-23
1.03639e-22
1.07121e-22
1.09881e-22
1.11949e-22
1.13377e-22
1.14238e-22
1.14624e-22
1.14645e-22
1.14429e-22
1.1412e-22
1.13877e-22
1.1491e-22
1.24797e-22
1.3912e-22
1.57443e-22
1.79294e-22
2.04098e-22
2.3116e-22
2.59683e-22
2.88817e-22
3.17705e-22
3.45542e-22
3.7162e-22
3.95356e-22
4.16315e-22
4.3421e-22
4.48902e-22
4.60382e-22
4.68757e-22
4.74232e-22
4.77099e-22
4.77719e-22
4.76516e-22
4.73974e-22
4.7063e-22
4.6708e-22
4.63978e-22
4.62038e-22
5.90363e-22
6.33056e-22
6.93517e-22
7.68591e-22
8.54993e-22
9.49181e-22
1.04744e-21
1.14607e-21
1.24162e-21
1.33105e-21
1.41192e-21
1.48245e-21
1.54151e-21
1.58857e-21
1.62368e-21
1.64729e-21
1.66022e-21
1.66358e-21
1.65865e-21
1.64686e-21
1.62979e-21
1.60911e-21
1.5866e-21
1.56417e-21
1.54388e-21
1.52792e-21
1.51866e-21
2.49858e-21
2.63859e-21
2.83105e-21
3.06086e-21
3.31315e-21
3.57356e-21
3.82891e-21
4.06789e-21
4.28154e-21
4.46356e-21
4.61016e-21
4.71989e-21
4.79322e-21
4.83207e-21
4.83946e-21
4.81907e-21
4.775e-21
4.71156e-21
4.63315e-21
4.54419e-21
4.44914e-21
4.35251e-21
4.25895e-21
4.17328e-21
4.1006e-21
4.04628e-21
4.01607e-21
8.44297e-21
8.76416e-21
9.1881e-21
9.66725e-21
1.01582e-20
1.0624e-20
1.10354e-20
1.13723e-20
1.16231e-20
1.17837e-20
1.18559e-20
1.1846e-20
1.17631e-20
1.16175e-20
1.14204e-20
1.11828e-20
1.09152e-20
1.06275e-20
1.03291e-20
1.00287e-20
9.7348e-21
9.4558e-21
9.20012e-21
8.97644e-21
8.79382e-21
8.66182e-21
8.59051e-21
2.25024e-20
2.29496e-20
2.34974e-20
2.40515e-20
2.45336e-20
2.48869e-20
2.50777e-20
2.50927e-20
2.49353e-20
2.46205e-20
2.41704e-20
2.36102e-20
2.29655e-20
2.22605e-20
2.15172e-20
2.07548e-20
1.999e-20
1.92374e-20
1.85098e-20
1.78188e-20
1.71752e-20
1.65895e-20
1.60725e-20
1.56349e-20
1.52883e-20
1.50444e-20
1.4916e-20
4.81557e-20
4.83394e-20
4.84556e-20
4.83924e-20
4.80696e-20
4.74465e-20
4.65183e-20
4.53088e-20
4.38606e-20
4.22267e-20
4.04626e-20
3.86214e-20
3.67503e-20
3.4889e-20
3.30694e-20
3.13156e-20
2.96454e-20
2.80721e-20
2.66072e-20
2.52614e-20
2.40455e-20
2.29703e-20
2.20465e-20
2.12854e-20
2.06979e-20
2.02953e-20
2.00885e-20
8.62702e-20
8.56219e-20
8.45479e-20
8.29934e-20
8.09389e-20
7.8402e-20
7.54233e-20
7.20471e-20
6.83276e-20
6.43493e-20
6.02283e-20
5.61068e-20
5.21453e-20
4.85158e-20
4.53955e-20
4.29649e-20
4.11632e-20
3.97891e-20
3.87104e-20
3.78406e-20
3.71245e-20
3.65283e-20
3.60332e-20
3.56307e-20
3.53196e-20
3.51041e-20
3.49915e-20
1.32516e-19
1.30413e-19
1.27339e-19
1.23547e-19
1.19582e-19
1.16411e-19
1.15611e-19
1.17443e-19
1.20818e-19
1.25128e-19
1.30013e-19
1.35234e-19
1.40618e-19
1.46027e-19
1.51343e-19
1.56465e-19
1.61302e-19
1.65777e-19
1.6983e-19
1.73418e-19
1.76513e-19
1.79103e-19
1.8119e-19
1.8279e-19
1.83929e-19
1.84643e-19
1.84975e-19
2.57048e-19
2.7042e-19
2.89631e-19
3.14112e-19
3.43451e-19
3.77296e-19
4.15278e-19
4.56919e-19
5.01628e-19
5.48726e-19
5.97439e-19
6.46894e-19
6.96135e-19
7.44171e-19
7.9004e-19
8.32876e-19
8.71968e-19
9.06807e-19
9.371e-19
9.62763e-19
9.839e-19
1.00076e-18
1.0137e-18
1.02315e-18
1.02957e-18
1.03341e-18
1.03512e-18
1.14247e-18
1.22244e-18
1.33736e-18
1.4831e-18
1.65538e-18
1.84909e-18
2.05797e-18
2.27474e-18
2.49154e-18
2.70077e-18
2.89584e-18
3.07185e-18
3.22579e-18
3.35652e-18
3.46436e-18
3.55072e-18
3.61766e-18
3.6676e-18
3.70309e-18
3.72665e-18
3.74069e-18
3.74747e-18
3.74907e-18
3.74737e-18
3.74406e-18
3.74062e-18
3.73835e-18
5.4783e-18
5.77454e-18
6.18462e-18
6.68008e-18
7.23433e-18
7.82318e-18
8.42574e-18
9.0249e-18
9.60733e-18
1.0163e-17
1.06848e-17
1.11674e-17
1.16078e-17
1.20039e-17
1.23552e-17
1.26622e-17
1.29264e-17
1.31497e-17
1.33348e-17
1.34847e-17
1.36029e-17
1.3693e-17
1.37588e-17
1.38041e-17
1.38326e-17
1.38482e-17
1.38543e-17
1.78085e-17
1.87219e-17
2.00184e-17
2.16424e-17
2.35462e-17
2.5687e-17
2.80261e-17
3.05265e-17
3.31525e-17
3.58691e-17
3.86415e-17
4.14357e-17
4.42179e-17
4.69554e-17
4.96165e-17
5.21713e-17
5.45918e-17
5.68524e-17
5.89305e-17
6.08066e-17
6.24649e-17
6.38931e-17
6.50829e-17
6.60297e-17
6.67326e-17
6.71944e-17
6.74208e-17
5.27294e-17
5.63044e-17
6.15239e-17
6.83056e-17
7.66079e-17
8.64054e-17
9.7674e-17
1.1038e-16
1.24469e-16
1.39864e-16
1.56452e-16
1.74089e-16
1.9259e-16
2.11738e-16
2.31282e-16
2.50943e-16
2.70424e-16
2.89411e-16
3.07591e-16
3.24651e-16
3.40296e-16
3.54251e-16
3.66272e-16
3.76148e-16
3.83708e-16
3.88821e-16
3.91401e-16
1.68716e-16
1.83056e-16
2.04395e-16
2.32795e-16
2.68529e-16
3.11948e-16
3.63404e-16
4.2317e-16
4.91381e-16
5.68074e-16
6.52951e-16
7.45451e-16
8.44723e-16
9.49628e-16
1.05876e-15
1.17047e-15
1.28294e-15
1.39418e-15
1.50216e-15
1.60475e-15
1.69999e-15
1.78593e-15
1.86076e-15
1.92289e-15
1.97089e-15
2.00364e-15
2.0203e-15
5.99315e-16
6.52882e-16
7.32966e-16
8.40132e-16
9.75708e-16
1.14128e-15
1.33835e-15
1.56804e-15
1.83087e-15
2.12654e-15
2.45379e-15
2.81037e-15
3.19283e-15
3.59626e-15
4.0148e-15
4.44182e-15
4.8701e-15
5.292e-15
5.69975e-15
6.08563e-15
6.4422e-15
6.7626e-15
7.04046e-15
7.27023e-15
7.4473e-15
7.56791e-15
7.62924e-15
2.13857e-15
2.30628e-15
2.55511e-15
2.88489e-15
3.29747e-15
3.79432e-15
4.37644e-15
5.04346e-15
5.79314e-15
6.62095e-15
7.51987e-15
8.48046e-15
9.49093e-15
1.05375e-14
1.16047e-14
1.26759e-14
1.3734e-14
1.47614e-14
1.57409e-14
1.66563e-14
1.74926e-14
1.82359e-14
1.88741e-14
1.93973e-14
1.97972e-14
2.00675e-14
2.0204e-14
6.61518e-15
7.01975e-15
7.61056e-15
8.3775e-15
9.31383e-15
1.04131e-14
1.16675e-14
1.30667e-14
1.45973e-14
1.62428e-14
1.79833e-14
1.97964e-14
2.16576e-14
2.35407e-14
2.54187e-14
2.72648e-14
2.9052e-14
3.07555e-14
3.23521e-14
3.38207e-14
3.51426e-14
3.63013e-14
3.72835e-14
3.80792e-14
3.8681e-14
3.90837e-14
3.92851e-14
1.63257e-14
1.70468e-14
1.8083e-14
1.94005e-14
2.09709e-14
2.27669e-14
2.47605e-14
2.6922e-14
2.92201e-14
3.16216e-14
3.40926e-14
3.65984e-14
3.91051e-14
4.15787e-14
4.39881e-14
4.63043e-14
4.85009e-14
5.05543e-14
5.24442e-14
5.41534e-14
5.56676e-14
5.69758e-14
5.80699e-14
5.89447e-14
5.95988e-14
6.00321e-14
6.02467e-14
3.21606e-14
3.31315e-14
3.45061e-14
3.62209e-14
3.82199e-14
4.04508e-14
4.28636e-14
4.54106e-14
4.8046e-14
5.07266e-14
5.34123e-14
5.60661e-14
5.86549e-14
6.11494e-14
6.35243e-14
6.57583e-14
6.78339e-14
6.9737e-14
7.14572e-14
7.29866e-14
7.43206e-14
7.54566e-14
7.63943e-14
7.71352e-14
7.76826e-14
7.80411e-14
7.82165e-14
5.22581e-14
5.32738e-14
5.46929e-14
5.64334e-14
5.84222e-14
6.05932e-14
6.28863e-14
6.52479e-14
6.76306e-14
6.99933e-14
7.23013e-14
7.45255e-14
7.66427e-14
7.86347e-14
8.0488e-14
8.21931e-14
8.37438e-14
8.51373e-14
8.63726e-14
8.74513e-14
8.8376e-14
8.91509e-14
8.9781e-14
9.0272e-14
9.06301e-14
9.08619e-14
9.09743e-14
7.28779e-14
7.37163e-14
7.48734e-14
7.62697e-14
7.78348e-14
7.95066e-14
8.12312e-14
8.29632e-14
8.46652e-14
8.63077e-14
8.78679e-14
8.93295e-14
9.06815e-14
9.19173e-14
9.30342e-14
9.40326e-14
9.49149e-14
9.56854e-14
9.63496e-14
9.69137e-14
9.73843e-14
9.77684e-14
9.80727e-14
9.8304e-14
9.84687e-14
9.85729e-14
9.86224e-14
9.04458e-14
9.09756e-14
9.16958e-14
9.25474e-14
9.34784e-14
9.44443e-14
9.54081e-14
9.63407e-14
9.722e-14
9.80308e-14
9.87633e-14
9.94126e-14
9.99778e-14
1.00461e-13
1.00866e-13
1.012e-13
1.01468e-13
1.01679e-13
1.0184e-13
1.0196e-13
1.02044e-13
1.02101e-13
1.02135e-13
1.02155e-13
1.02163e-13
1.02165e-13
1.02164e-13
1.02958e-13
1.03159e-13
1.03422e-13
1.03715e-13
1.04011e-13
1.04287e-13
1.04526e-13
1.04717e-13
1.04853e-13
1.0493e-13
1.04949e-13
1.04915e-13
1.04831e-13
1.04706e-13
1.04547e-13
1.04362e-13
1.0416e-13
1.03948e-13
1.03734e-13
1.03526e-13
1.03329e-13
1.0315e-13
1.02992e-13
1.02861e-13
1.0276e-13
1.02691e-13
1.02655e-13
1.10077e-13
1.10004e-13
1.09887e-13
1.09723e-13
1.09507e-13
1.09235e-13
1.08909e-13
1.0853e-13
1.08103e-13
1.07634e-13
1.07132e-13
1.06604e-13
1.06061e-13
1.0551e-13
1.04961e-13
1.04423e-13
1.03904e-13
1.0341e-13
1.0295e-13
1.02529e-13
1.0215e-13
1.0182e-13
1.01541e-13
1.01315e-13
1.01145e-13
1.01032e-13
1.00976e-13
1.12567e-13
1.12299e-13
1.11916e-13
1.11432e-13
1.10861e-13
1.10214e-13
1.09505e-13
1.08745e-13
1.07948e-13
1.07124e-13
1.06287e-13
1.05447e-13
1.04615e-13
1.03802e-13
1.03016e-13
1.02266e-13
1.01558e-13
1.009e-13
1.00297e-13
9.97527e-14
9.92717e-14
9.88567e-14
9.85098e-14
9.82323e-14
9.80249e-14
9.78877e-14
9.78197e-14
1.11551e-13
1.11166e-13
1.10624e-13
1.09951e-13
1.09172e-13
1.08308e-13
1.07377e-13
1.06399e-13
1.05391e-13
1.04369e-13
1.03347e-13
1.02338e-13
1.01354e-13
1.00403e-13
9.94951e-14
9.86377e-14
9.78371e-14
9.70989e-14
9.64274e-14
9.58262e-14
9.52981e-14
9.4845e-14
9.44682e-14
9.41681e-14
9.39448e-14
9.37976e-14
9.37249e-14
1.08195e-13
1.07749e-13
1.07124e-13
1.06356e-13
1.05473e-13
1.04504e-13
1.03471e-13
1.02394e-13
1.01293e-13
1.00185e-13
9.90858e-14
9.80088e-14
9.69649e-14
9.59637e-14
9.50136e-14
9.41212e-14
9.32922e-14
9.25313e-14
9.18421e-14
9.12275e-14
9.06894e-14
9.02292e-14
8.98476e-14
8.95445e-14
8.93195e-14
8.91714e-14
8.90983e-14
1.03419e-13
1.02952e-13
1.02299e-13
1.01499e-13
1.00585e-13
9.95849e-14
9.8525e-14
9.74262e-14
9.63086e-14
9.51891e-14
9.40832e-14
9.30037e-14
9.19616e-14
9.0966e-14
9.00243e-14
8.91427e-14
8.83261e-14
8.75787e-14
8.69034e-14
8.63026e-14
8.57777e-14
8.53296e-14
8.49586e-14
8.46644e-14
8.44462e-14
8.43029e-14
8.42322e-14
9.7888e-14
9.74245e-14
9.67786e-14
9.59887e-14
9.5088e-14
9.41058e-14
9.30676e-14
9.19946e-14
9.09065e-14
8.98195e-14
8.87486e-14
8.77061e-14
8.67021e-14
8.57451e-14
8.48418e-14
8.39979e-14
8.32177e-14
8.25048e-14
8.18616e-14
8.12902e-14
8.07916e-14
8.03665e-14
8.00149e-14
7.97363e-14
7.95299e-14
7.93944e-14
7.93277e-14
9.20525e-14
9.1608e-14
9.09893e-14
9.02335e-14
8.9373e-14
8.84362e-14
8.74477e-14
8.64278e-14
8.53951e-14
8.43656e-14
8.33532e-14
8.23692e-14
8.14231e-14
8.05226e-14
7.96739e-14
7.88818e-14
7.81505e-14
7.74829e-14
7.68813e-14
7.63472e-14
7.58816e-14
7.54849e-14
7.51571e-14
7.48975e-14
7.47052e-14
7.45791e-14
7.4517e-14
8.62041e-14
8.57866e-14
8.52057e-14
8.44967e-14
8.36902e-14
8.28131e-14
8.18884e-14
8.09353e-14
7.9971e-14
7.90111e-14
7.80683e-14
7.71531e-14
7.6274e-14
7.5438e-14
7.46508e-14
7.39168e-14
7.32396e-14
7.26217e-14
7.20653e-14
7.15716e-14
7.11413e-14
7.07749e-14
7.04722e-14
7.02325e-14
7.0055e-14
6.99385e-14
6.98813e-14
8.05207e-14
8.01336e-14
7.95952e-14
7.89383e-14
7.81915e-14
7.73796e-14
7.65235e-14
7.56421e-14
7.47514e-14
7.38656e-14
7.29963e-14
7.21529e-14
7.13434e-14
7.05741e-14
6.98501e-14
6.91754e-14
6.85531e-14
6.79857e-14
6.74748e-14
6.70218e-14
6.66271e-14
6.62911e-14
6.60135e-14
6.57938e-14
6.56312e-14
6.55244e-14
6.5472e-14
7.51039e-14
7.47479e-14
7.42528e-14
7.36489e-14
7.29625e-14
7.22165e-14
7.14299e-14
7.06202e-14
6.98027e-14
6.89903e-14
6.81935e-14
6.74209e-14
6.66796e-14
6.59754e-14
6.53129e-14
6.46958e-14
6.41268e-14
6.36081e-14
6.31412e-14
6.27273e-14
6.23668e-14
6.20599e-14
6.18065e-14
6.16059e-14
6.14575e-14
6.136e-14
6.13122e-14
7.00055e-14
6.96797e-14
6.92267e-14
6.86742e-14
6.80463e-14
6.73632e-14
6.66432e-14
6.59027e-14
6.51556e-14
6.44135e-14
6.36859e-14
6.29806e-14
6.2304e-14
6.16615e-14
6.10572e-14
6.04943e-14
5.99754e-14
5.95025e-14
5.90769e-14
5.86996e-14
5.8371e-14
5.80914e-14
5.78603e-14
5.76775e-14
5.75422e-14
5.74533e-14
5.74095e-14
6.52459e-14
6.49486e-14
6.45352e-14
6.4031e-14
6.34573e-14
6.28335e-14
6.21765e-14
6.15012e-14
6.08201e-14
6.01437e-14
5.94806e-14
5.8838e-14
5.82218e-14
5.76366e-14
5.70863e-14
5.65737e-14
5.61014e-14
5.56709e-14
5.52835e-14
5.49401e-14
5.46411e-14
5.43866e-14
5.41764e-14
5.40101e-14
5.38869e-14
5.3806e-14
5.37663e-14
6.08264e-14
6.05555e-14
6.01788e-14
5.97186e-14
5.91954e-14
5.86266e-14
5.8028e-14
5.74129e-14
5.67927e-14
5.61769e-14
5.55733e-14
5.49884e-14
5.44275e-14
5.3895e-14
5.33942e-14
5.29278e-14
5.2498e-14
5.21064e-14
5.1754e-14
5.14416e-14
5.11696e-14
5.09382e-14
5.0747e-14
5.05957e-14
5.04838e-14
5.04102e-14
5.03741e-14
5.67377e-14
5.64906e-14
5.61467e-14
5.57272e-14
5.52501e-14
5.47319e-14
5.41868e-14
5.36269e-14
5.30624e-14
5.25019e-14
5.19525e-14
5.14203e-14
5.09099e-14
5.04253e-14
4.99696e-14
4.95453e-14
4.91543e-14
4.8798e-14
4.84774e-14
4.81932e-14
4.79458e-14
4.77352e-14
4.75613e-14
4.74238e-14
4.73219e-14
4.7255e-14
4.72221e-14
5.29613e-14
5.27361e-14
5.24225e-14
5.204e-14
5.16053e-14
5.11335e-14
5.06372e-14
5.01274e-14
4.96136e-14
4.91033e-14
4.86033e-14
4.81188e-14
4.76542e-14
4.72131e-14
4.67984e-14
4.64122e-14
4.60562e-14
4.57319e-14
4.54402e-14
4.51815e-14
4.49564e-14
4.47647e-14
4.46065e-14
4.44813e-14
4.43886e-14
4.43278e-14
4.42978e-14
4.94791e-14
4.92734e-14
4.89874e-14
4.86388e-14
4.82429e-14
4.78131e-14
4.73611e-14
4.68969e-14
4.64289e-14
4.59642e-14
4.55087e-14
4.50675e-14
4.46443e-14
4.42426e-14
4.38648e-14
4.35131e-14
4.31889e-14
4.28935e-14
4.26278e-14
4.23923e-14
4.21872e-14
4.20127e-14
4.18686e-14
4.17546e-14
4.16702e-14
4.16147e-14
4.15875e-14
4.627e-14
4.60825e-14
4.58219e-14
4.55042e-14
4.51434e-14
4.47517e-14
4.43398e-14
4.39166e-14
4.34901e-14
4.30665e-14
4.26514e-14
4.22492e-14
4.18635e-14
4.14973e-14
4.1153e-14
4.08323e-14
4.05368e-14
4.02676e-14
4.00254e-14
3.98106e-14
3.96237e-14
3.94646e-14
3.93333e-14
3.92294e-14
3.91524e-14
3.91019e-14
3.90771e-14
4.33148e-14
4.31438e-14
4.29061e-14
4.26163e-14
4.22873e-14
4.193e-14
4.15543e-14
4.11683e-14
4.07792e-14
4.03928e-14
4.00141e-14
3.96471e-14
3.92952e-14
3.89611e-14
3.86469e-14
3.83544e-14
3.80848e-14
3.78391e-14
3.76181e-14
3.74222e-14
3.72516e-14
3.71064e-14
3.69866e-14
3.68918e-14
3.68216e-14
3.67755e-14
3.67529e-14
4.05937e-14
4.04376e-14
4.02206e-14
3.99561e-14
3.96557e-14
3.93295e-14
3.89865e-14
3.86341e-14
3.82787e-14
3.79259e-14
3.758e-14
3.72449e-14
3.69235e-14
3.66184e-14
3.63314e-14
3.60642e-14
3.58179e-14
3.55936e-14
3.53917e-14
3.52127e-14
3.50569e-14
3.49244e-14
3.48149e-14
3.47283e-14
3.46642e-14
3.46221e-14
3.46014e-14
3.80879e-14
3.79453e-14
3.7747e-14
3.75053e-14
3.72307e-14
3.69326e-14
3.66191e-14
3.62969e-14
3.59721e-14
3.56496e-14
3.53334e-14
3.5027e-14
3.47332e-14
3.44542e-14
3.41918e-14
3.39475e-14
3.37223e-14
3.35171e-14
3.33325e-14
3.31689e-14
3.30265e-14
3.29052e-14
3.28051e-14
3.27259e-14
3.26673e-14
3.26288e-14
3.26099e-14
3.57796e-14
3.56492e-14
3.54678e-14
3.52467e-14
3.49955e-14
3.47227e-14
3.44358e-14
3.4141e-14
3.38438e-14
3.35486e-14
3.32593e-14
3.29788e-14
3.27099e-14
3.24545e-14
3.22143e-14
3.19907e-14
3.17846e-14
3.15967e-14
3.14278e-14
3.1278e-14
3.11475e-14
3.10365e-14
3.09449e-14
3.08724e-14
3.08188e-14
3.07835e-14
3.07662e-14
3.36524e-14
3.35329e-14
3.33668e-14
3.31643e-14
3.29342e-14
3.26844e-14
3.24216e-14
3.21515e-14
3.18792e-14
3.16088e-14
3.13436e-14
3.10867e-14
3.08402e-14
3.06062e-14
3.03861e-14
3.01811e-14
2.99922e-14
2.98201e-14
2.96652e-14
2.95279e-14
2.94084e-14
2.93066e-14
2.92226e-14
2.91562e-14
2.9107e-14
2.90747e-14
2.90589e-14
3.16909e-14
3.15814e-14
3.14291e-14
3.12434e-14
3.10324e-14
3.08033e-14
3.05623e-14
3.03146e-14
3.00648e-14
2.98167e-14
2.95735e-14
2.93378e-14
2.91117e-14
2.8897e-14
2.8695e-14
2.8507e-14
2.83336e-14
2.81757e-14
2.80336e-14
2.79076e-14
2.77978e-14
2.77045e-14
2.76274e-14
2.75664e-14
2.75213e-14
2.74917e-14
2.74771e-14
2.98811e-14
2.97805e-14
2.96407e-14
2.94702e-14
2.92765e-14
2.90662e-14
2.88449e-14
2.86175e-14
2.83881e-14
2.81603e-14
2.79369e-14
2.77204e-14
2.75127e-14
2.73155e-14
2.71299e-14
2.69572e-14
2.67979e-14
2.66528e-14
2.65222e-14
2.64064e-14
2.63056e-14
2.62198e-14
2.6149e-14
2.6093e-14
2.60515e-14
2.60243e-14
2.60109e-14
2.82099e-14
2.81175e-14
2.7989e-14
2.78323e-14
2.76542e-14
2.74609e-14
2.72574e-14
2.70483e-14
2.68374e-14
2.66279e-14
2.64225e-14
2.62234e-14
2.60324e-14
2.5851e-14
2.56803e-14
2.55214e-14
2.53749e-14
2.52414e-14
2.51212e-14
2.50147e-14
2.4922e-14
2.48431e-14
2.47779e-14
2.47263e-14
2.46882e-14
2.46631e-14
2.46508e-14
2.66653e-14
2.65803e-14
2.6462e-14
2.63178e-14
2.6154e-14
2.5976e-14
2.57887e-14
2.55962e-14
2.54021e-14
2.52092e-14
2.502e-14
2.48367e-14
2.46608e-14
2.44937e-14
2.43365e-14
2.41901e-14
2.40552e-14
2.39322e-14
2.38215e-14
2.37233e-14
2.36379e-14
2.35652e-14
2.35051e-14
2.34576e-14
2.34225e-14
2.33994e-14
2.33881e-14
2.52363e-14
2.5158e-14
2.5049e-14
2.49161e-14
2.47651e-14
2.46011e-14
2.44284e-14
2.4251e-14
2.4072e-14
2.38942e-14
2.37198e-14
2.35507e-14
2.33885e-14
2.32344e-14
2.30894e-14
2.29544e-14
2.28299e-14
2.27164e-14
2.26143e-14
2.25237e-14
2.24449e-14
2.23778e-14
2.23224e-14
2.22785e-14
2.22461e-14
2.22248e-14
2.22143e-14
2.39127e-14
2.38404e-14
2.37398e-14
2.36172e-14
2.34778e-14
2.33264e-14
2.31671e-14
2.30033e-14
2.2838e-14
2.26738e-14
2.25128e-14
2.23566e-14
2.22068e-14
2.20645e-14
2.19306e-14
2.18058e-14
2.16908e-14
2.15859e-14
2.14915e-14
2.14078e-14
2.1335e-14
2.12729e-14
2.12218e-14
2.11813e-14
2.11513e-14
2.11316e-14
2.11219e-14
2.26849e-14
2.26181e-14
2.25252e-14
2.24118e-14
2.2283e-14
2.21431e-14
2.19958e-14
2.18443e-14
2.16915e-14
2.15396e-14
2.13907e-14
2.12462e-14
2.11076e-14
2.09759e-14
2.0852e-14
2.07366e-14
2.06301e-14
2.0533e-14
2.04457e-14
2.03682e-14
2.03007e-14
2.02433e-14
2.01959e-14
2.01584e-14
2.01307e-14
2.01125e-14
2.01035e-14
2.15442e-14
2.14823e-14
2.13963e-14
2.12914e-14
2.11721e-14
2.10425e-14
2.09061e-14
2.07659e-14
2.06243e-14
2.04836e-14
2.03456e-14
2.02118e-14
2.00833e-14
1.99612e-14
1.98464e-14
1.97393e-14
1.96406e-14
1.95505e-14
1.94695e-14
1.93977e-14
1.93351e-14
1.92819e-14
1.92379e-14
1.92031e-14
1.91774e-14
1.91605e-14
1.91522e-14
2.04822e-14
2.04249e-14
2.03451e-14
2.02478e-14
2.01372e-14
2.0017e-14
1.98904e-14
1.97602e-14
1.96289e-14
1.94983e-14
1.93702e-14
1.92459e-14
1.91266e-14
1.90132e-14
1.89065e-14
1.8807e-14
1.87152e-14
1.86316e-14
1.85563e-14
1.84895e-14
1.84314e-14
1.83819e-14
1.8341e-14
1.83087e-14
1.82848e-14
1.82691e-14
1.82614e-14
1.94913e-14
1.9438e-14
1.93639e-14
1.92734e-14
1.91706e-14
1.90588e-14
1.89412e-14
1.88201e-14
1.86979e-14
1.85765e-14
1.84572e-14
1.83416e-14
1.82305e-14
1.8125e-14
1.80255e-14
1.79329e-14
1.78474e-14
1.77695e-14
1.76994e-14
1.76372e-14
1.7583e-14
1.75369e-14
1.74989e-14
1.74688e-14
1.74465e-14
1.74318e-14
1.74246e-14
1.8564e-14
1.85144e-14
1.84453e-14
1.83611e-14
1.82653e-14
1.81611e-14
1.80514e-14
1.79386e-14
1.78246e-14
1.77113e-14
1.76001e-14
1.74922e-14
1.73885e-14
1.72899e-14
1.71971e-14
1.71106e-14
1.70308e-14
1.6958e-14
1.68925e-14
1.68344e-14
1.67839e-14
1.67408e-14
1.67053e-14
1.66771e-14
1.66563e-14
1.66427e-14
1.66359e-14
1.76934e-14
1.7647e-14
1.75825e-14
1.75038e-14
1.74142e-14
1.73169e-14
1.72143e-14
1.71088e-14
1.70022e-14
1.68962e-14
1.67921e-14
1.6691e-14
1.6594e-14
1.65017e-14
1.64147e-14
1.63337e-14
1.6259e-14
1.61909e-14
1.61295e-14
1.60751e-14
1.60277e-14
1.59874e-14
1.59541e-14
1.59278e-14
1.59083e-14
1.58954e-14
1.58891e-14
1.68724e-14
1.6829e-14
1.67685e-14
1.66947e-14
1.66108e-14
1.65195e-14
1.64232e-14
1.63242e-14
1.62241e-14
1.61245e-14
1.60267e-14
1.59318e-14
1.58406e-14
1.57539e-14
1.56722e-14
1.55961e-14
1.55259e-14
1.54619e-14
1.54042e-14
1.53531e-14
1.53086e-14
1.52707e-14
1.52394e-14
1.52146e-14
1.51963e-14
1.51842e-14
1.51783e-14
1.60945e-14
1.60536e-14
1.59967e-14
1.59272e-14
1.58481e-14
1.57621e-14
1.56714e-14
1.5578e-14
1.54836e-14
1.53898e-14
1.52976e-14
1.52081e-14
1.51221e-14
1.50403e-14
1.49633e-14
1.48916e-14
1.48253e-14
1.47649e-14
1.47106e-14
1.46623e-14
1.46203e-14
1.45845e-14
1.4555e-14
1.45316e-14
1.45143e-14
1.45029e-14
1.44974e-14
1.53526e-14
1.53138e-14
1.526e-14
1.51942e-14
1.51193e-14
1.50378e-14
1.4952e-14
1.48636e-14
1.47743e-14
1.46855e-14
1.45982e-14
1.45135e-14
1.44321e-14
1.43547e-14
1.42818e-14
1.42138e-14
1.4151e-14
1.40938e-14
1.40423e-14
1.39965e-14
1.39567e-14
1.39228e-14
1.38948e-14
1.38726e-14
1.38562e-14
1.38454e-14
1.38401e-14
1.46392e-14
1.46024e-14
1.45512e-14
1.44887e-14
1.44176e-14
1.43402e-14
1.42586e-14
1.41746e-14
1.40897e-14
1.40052e-14
1.39222e-14
1.38416e-14
1.37641e-14
1.36904e-14
1.3621e-14
1.35563e-14
1.34965e-14
1.3442e-14
1.33929e-14
1.33493e-14
1.33114e-14
1.32791e-14
1.32524e-14
1.32312e-14
1.32156e-14
1.32053e-14
1.32003e-14
1.39482e-14
1.3913e-14
1.38641e-14
1.38044e-14
1.37364e-14
1.36625e-14
1.35845e-14
1.35042e-14
1.3423e-14
1.33421e-14
1.32627e-14
1.31856e-14
1.31114e-14
1.30409e-14
1.29744e-14
1.29124e-14
1.28551e-14
1.28029e-14
1.27558e-14
1.27141e-14
1.26777e-14
1.26467e-14
1.26211e-14
1.26009e-14
1.25859e-14
1.2576e-14
1.25712e-14
1.32725e-14
1.32388e-14
1.31917e-14
1.31343e-14
1.30689e-14
1.29978e-14
1.29227e-14
1.28454e-14
1.27672e-14
1.26894e-14
1.26128e-14
1.25385e-14
1.2467e-14
1.2399e-14
1.23349e-14
1.22751e-14
1.22199e-14
1.21695e-14
1.21241e-14
1.20838e-14
1.20487e-14
1.20188e-14
1.19941e-14
1.19746e-14
1.19601e-14
1.19506e-14
1.19459e-14
1.26049e-14
1.25722e-14
1.25267e-14
1.2471e-14
1.24076e-14
1.23386e-14
1.22659e-14
1.21909e-14
1.2115e-14
1.20395e-14
1.19652e-14
1.18931e-14
1.18237e-14
1.17576e-14
1.16953e-14
1.16372e-14
1.15836e-14
1.15346e-14
1.14905e-14
1.14514e-14
1.14172e-14
1.13882e-14
1.13642e-14
1.13452e-14
1.13311e-14
1.13218e-14
1.13173e-14
1.19378e-14
1.19058e-14
1.18613e-14
1.18069e-14
1.1745e-14
1.16775e-14
1.16064e-14
1.15331e-14
1.14589e-14
1.1385e-14
1.13123e-14
1.12417e-14
1.11738e-14
1.11091e-14
1.10482e-14
1.09913e-14
1.09388e-14
1.08908e-14
1.08476e-14
1.08093e-14
1.07759e-14
1.07474e-14
1.07239e-14
1.07053e-14
1.06915e-14
1.06825e-14
1.0678e-14
1.12632e-14
1.12317e-14
1.11879e-14
1.11342e-14
1.10732e-14
1.10067e-14
1.09365e-14
1.08642e-14
1.07911e-14
1.07182e-14
1.06465e-14
1.05768e-14
1.05098e-14
1.0446e-14
1.03859e-14
1.03298e-14
1.0278e-14
1.02307e-14
1.01881e-14
1.01503e-14
1.01174e-14
1.00893e-14
1.00662e-14
1.00478e-14
1.00342e-14
1.00253e-14
1.00209e-14
1.05735e-14
1.05422e-14
1.04986e-14
1.04454e-14
1.03847e-14
1.03186e-14
1.02488e-14
1.01769e-14
1.01042e-14
1.00317e-14
9.96045e-15
9.89121e-15
9.82462e-15
9.76124e-15
9.70151e-15
9.64579e-15
9.59434e-15
9.54741e-15
9.50513e-15
9.46762e-15
9.43495e-15
9.40713e-15
9.38416e-15
9.36598e-15
9.35253e-15
9.34369e-15
9.33935e-15
9.86162e-15
9.83027e-15
9.7866e-15
9.73324e-15
9.67246e-15
9.60627e-15
9.53643e-15
9.46446e-15
9.39166e-15
9.31915e-15
9.24789e-15
9.17864e-15
9.11209e-15
9.04876e-15
8.98909e-15
8.93345e-15
8.88212e-15
8.83529e-15
8.79314e-15
8.75576e-15
8.72321e-15
8.69551e-15
8.67264e-15
8.65456e-15
8.64118e-15
8.6324e-15
8.62808e-15
9.12162e-15
9.09004e-15
9.04606e-15
8.99232e-15
8.93114e-15
8.86453e-15
8.79428e-15
8.7219e-15
8.64874e-15
8.5759e-15
8.50434e-15
8.43486e-15
8.36812e-15
8.30465e-15
8.2449e-15
8.18922e-15
8.13787e-15
8.09108e-15
8.04897e-15
8.01166e-15
7.9792e-15
7.95158e-15
7.92881e-15
7.9108e-15
7.89749e-15
7.88876e-15
7.88447e-15
8.3502e-15
8.31831e-15
8.27393e-15
8.21971e-15
8.15802e-15
8.09089e-15
8.02013e-15
7.94729e-15
7.87371e-15
7.80052e-15
7.72869e-15
7.659e-15
7.59212e-15
7.52858e-15
7.46883e-15
7.41319e-15
7.36195e-15
7.31528e-15
7.27334e-15
7.23621e-15
7.20392e-15
7.17649e-15
7.15388e-15
7.13602e-15
7.12283e-15
7.11418e-15
7.10994e-15
7.54802e-15
7.51591e-15
7.47123e-15
7.4167e-15
7.35468e-15
7.28727e-15
7.21628e-15
7.14328e-15
7.06963e-15
6.99646e-15
6.92473e-15
6.85524e-15
6.78864e-15
6.72545e-15
6.66611e-15
6.61093e-15
6.56017e-15
6.51401e-15
6.47257e-15
6.43593e-15
6.40412e-15
6.37712e-15
6.35488e-15
6.33734e-15
6.3244e-15
6.31592e-15
6.31176e-15
6.72147e-15
6.68942e-15
6.64485e-15
6.5905e-15
6.52876e-15
6.46174e-15
6.39125e-15
6.31889e-15
6.24599e-15
6.1737e-15
6.10295e-15
6.03453e-15
5.96908e-15
5.90709e-15
5.84897e-15
5.79503e-15
5.7455e-15
5.70053e-15
5.66023e-15
5.62465e-15
5.59381e-15
5.56767e-15
5.54618e-15
5.52925e-15
5.51677e-15
5.50861e-15
5.50461e-15
5.88417e-15
5.85269e-15
5.80897e-15
5.75572e-15
5.69532e-15
5.62986e-15
5.56115e-15
5.49075e-15
5.41999e-15
5.34996e-15
5.28159e-15
5.21562e-15
5.15265e-15
5.09316e-15
5.03751e-15
4.98599e-15
4.93877e-15
4.89601e-15
4.85777e-15
4.82408e-15
4.79493e-15
4.77028e-15
4.75005e-15
4.73414e-15
4.72243e-15
4.71478e-15
4.71105e-15
5.05739e-15
5.02725e-15
4.98542e-15
4.93456e-15
4.87698e-15
4.81472e-15
4.74952e-15
4.6829e-15
4.6161e-15
4.5502e-15
4.48604e-15
4.42431e-15
4.36558e-15
4.31025e-15
4.25866e-15
4.21102e-15
4.16751e-15
4.12821e-15
4.09316e-15
4.06238e-15
4.03581e-15
4.0134e-15
3.99506e-15
3.98067e-15
3.97011e-15
3.96323e-15
3.95987e-15
4.26838e-15
4.24045e-15
4.20175e-15
4.15479e-15
4.10176e-15
4.04458e-15
3.98488e-15
3.92408e-15
3.86334e-15
3.80363e-15
3.74571e-15
3.69022e-15
3.63762e-15
3.58827e-15