/*--------------------------------*- C++ -*----------------------------------*\
| =========                 |                                                 |
| \\      /  F ield         | OpenFOAM: The Open Source CFD Toolbox           |
|  \\    /   O peration     | Version:  2106                                  |
|   \\  /    A nd           | Website:  www.openfoam.com                      |
|    \\/     M anipulation  |                                                 |
\*---------------------------------------------------------------------------*/
FoamFile
{
    version     2.0;
    format      ascii;
    arch        "LSB;label=32;scalar=64";
    class       volScalarField;
    location    "149.99958";
    object      CH3COCH2;
}
// * * * * * * * * * * * * * * * * * * * * * * * * * * * * * * * * * * * * * //

dimensions      [0 0 0 0 0 0 0];

internalField   nonuniform List<scalar> 
3360
(
2.20299e-21
2.27385e-21
2.37247e-21
2.4931e-21
2.63071e-21
2.78079e-21
2.93926e-21
3.10244e-21
3.26705e-21
3.4302e-21
3.58938e-21
3.74246e-21
3.8877e-21
4.02367e-21
4.14933e-21
4.26392e-21
4.367e-21
4.45835e-21
4.53803e-21
4.60626e-21
4.66346e-21
4.71018e-21
4.74708e-21
4.77492e-21
4.7945e-21
4.80668e-21
4.81234e-21
9.662e-21
1.0017e-20
1.0518e-20
1.11418e-20
1.18695e-20
1.26843e-20
1.35713e-20
1.45169e-20
1.55085e-20
1.65339e-20
1.75818e-20
1.8641e-20
1.97003e-20
2.0749e-20
2.17763e-20
2.27716e-20
2.37247e-20
2.46255e-20
2.54645e-20
2.62327e-20
2.69218e-20
2.75245e-20
2.80347e-20
2.84472e-20
2.87586e-20
2.89665e-20
2.90702e-20
3.03061e-20
3.16357e-20
3.3525e-20
3.5899e-20
3.86956e-20
4.18588e-20
4.53354e-20
4.90731e-20
5.30189e-20
5.71186e-20
6.1317e-20
6.55591e-20
6.97906e-20
7.39577e-20
7.80085e-20
8.18937e-20
8.55677e-20
8.89896e-20
9.21238e-20
9.4941e-20
9.74183e-20
9.95396e-20
1.01296e-19
1.02684e-19
1.03707e-19
1.04374e-19
1.04699e-19
8.8222e-20
9.26023e-20
9.88683e-20
1.06796e-19
1.16198e-19
1.26898e-19
1.38722e-19
1.51487e-19
1.65002e-19
1.79067e-19
1.93474e-19
2.08014e-19
2.22476e-19
2.36657e-19
2.50363e-19
2.63417e-19
2.75661e-19
2.86962e-19
2.97212e-19
3.06331e-19
3.14264e-19
3.20986e-19
3.2649e-19
3.30795e-19
3.33937e-19
3.35966e-19
3.36944e-19
2.5762e-19
2.71432e-19
2.91227e-19
3.16329e-19
3.46164e-19
3.8018e-19
4.17811e-19
4.58455e-19
5.01472e-19
5.46188e-19
5.91903e-19
6.37914e-19
6.83531e-19
7.28094e-19
7.70993e-19
8.11682e-19
8.49688e-19
8.84623e-19
9.16184e-19
9.44156e-19
9.68407e-19
9.88884e-19
1.0056e-18
1.01864e-18
1.02814e-18
1.03425e-18
1.03719e-18
7.59171e-19
8.01562e-19
8.62394e-19
9.39603e-19
1.03142e-18
1.13613e-18
1.25198e-18
1.37706e-18
1.50937e-18
1.64678e-18
1.78712e-18
1.92819e-18
2.06784e-18
2.20405e-18
2.33494e-18
2.45886e-18
2.5744e-18
2.6804e-18
2.776e-18
2.86058e-18
2.93379e-18
2.9955e-18
3.04581e-18
3.085e-18
3.11348e-18
3.13181e-18
3.14063e-18
2.25382e-18
2.38256e-18
2.56729e-18
2.80177e-18
3.08059e-18
3.3985e-18
3.75005e-18
4.12942e-18
4.53041e-18
4.94654e-18
5.37114e-18
5.79752e-18
6.21921e-18
6.63009e-18
7.02457e-18
7.39772e-18
7.74535e-18
8.06406e-18
8.35129e-18
8.60526e-18
8.82498e-18
9.01013e-18
9.16102e-18
9.27852e-18
9.3639e-18
9.41884e-18
9.44524e-18
6.71318e-18
7.10032e-18
7.65614e-18
8.36185e-18
9.20126e-18
1.01585e-17
1.12171e-17
1.23594e-17
1.35666e-17
1.48191e-17
1.60966e-17
1.73791e-17
1.8647e-17
1.98819e-17
2.1067e-17
2.21875e-17
2.32309e-17
2.41871e-17
2.50484e-17
2.58097e-17
2.6468e-17
2.70225e-17
2.74742e-17
2.78258e-17
2.80812e-17
2.82455e-17
2.83244e-17
2.00482e-17
2.1211e-17
2.28801e-17
2.4999e-17
2.75191e-17
3.03923e-17
3.3569e-17
3.69959e-17
4.06164e-17
4.43713e-17
4.82001e-17
5.20423e-17
5.58394e-17
5.95365e-17
6.30835e-17
6.64362e-17
6.95575e-17
7.24173e-17
7.4993e-17
7.72692e-17
7.92374e-17
8.0895e-17
8.22454e-17
8.32965e-17
8.406e-17
8.45511e-17
8.47871e-17
5.98715e-17
6.33519e-17
6.83486e-17
7.46925e-17
8.22373e-17
9.08395e-17
1.00349e-16
1.10608e-16
1.21444e-16
1.32681e-16
1.44138e-16
1.55632e-16
1.6699e-16
1.78046e-16
1.8865e-16
1.98672e-16
2.07999e-16
2.16543e-16
2.24236e-16
2.31033e-16
2.36909e-16
2.41856e-16
2.45886e-16
2.49021e-16
2.51298e-16
2.52763e-16
2.53466e-16
1.78872e-16
1.89284e-16
2.04228e-16
2.23198e-16
2.45754e-16
2.71464e-16
2.9988e-16
3.30522e-16
3.62881e-16
3.96426e-16
4.30614e-16
4.64903e-16
4.98773e-16
5.31733e-16
5.63338e-16
5.93197e-16
6.20982e-16
6.46426e-16
6.69333e-16
6.89568e-16
7.07056e-16
7.21781e-16
7.33772e-16
7.43102e-16
7.49878e-16
7.54234e-16
7.56328e-16
5.33818e-16
5.64878e-16
6.09458e-16
6.66037e-16
7.33298e-16
8.09947e-16
8.94636e-16
9.8593e-16
1.08231e-15
1.18218e-15
1.28393e-15
1.38594e-15
1.48666e-15
1.58464e-15
1.67856e-15
1.76725e-15
1.84974e-15
1.92527e-15
1.99323e-15
2.05324e-15
2.1051e-15
2.14874e-15
2.18427e-15
2.21191e-15
2.23197e-15
2.24487e-15
2.25107e-15
1.591e-15
1.68349e-15
1.81618e-15
1.98451e-15
2.18453e-15
2.41233e-15
2.66388e-15
2.93487e-15
3.22076e-15
3.51681e-15
3.81821e-15
4.12019e-15
4.41816e-15
4.70782e-15
4.98529e-15
5.24718e-15
5.49064e-15
5.7134e-15
5.91378e-15
6.09064e-15
6.24338e-15
6.3719e-15
6.47649e-15
6.55783e-15
6.61687e-15
6.65481e-15
6.67304e-15
4.72618e-15
5.00024e-15
5.39331e-15
5.8917e-15
6.48353e-15
7.15711e-15
7.90031e-15
8.70031e-15
9.54354e-15
1.04159e-14
1.13033e-14
1.21915e-14
1.30671e-14
1.39175e-14
1.47313e-14
1.54988e-14
1.62116e-14
1.68633e-14
1.7449e-14
1.79656e-14
1.84115e-14
1.87864e-14
1.90913e-14
1.93283e-14
1.95003e-14
1.96107e-14
1.96638e-14
1.39797e-14
1.47871e-14
1.59442e-14
1.74101e-14
1.91492e-14
2.11262e-14
2.33049e-14
2.5647e-14
2.81124e-14
3.06594e-14
3.32463e-14
3.5832e-14
3.83774e-14
4.0846e-14
4.32055e-14
4.54276e-14
4.74891e-14
4.93716e-14
5.10618e-14
5.2551e-14
5.38352e-14
5.4914e-14
5.57908e-14
5.64719e-14
5.69657e-14
5.72827e-14
5.74349e-14
4.10647e-14
4.3419e-14
4.67903e-14
5.10568e-14
5.61114e-14
6.18492e-14
6.81618e-14
7.49361e-14
8.20537e-14
8.93934e-14
9.68341e-14
1.04257e-13
1.11551e-13
1.18612e-13
1.25348e-13
1.31681e-13
1.37547e-13
1.42895e-13
1.4769e-13
1.51909e-13
1.55542e-13
1.5859e-13
1.61065e-13
1.62986e-13
1.64377e-13
1.65269e-13
1.65697e-13
1.19474e-13
1.26244e-13
1.35927e-13
1.48162e-13
1.62631e-13
1.79022e-13
1.97015e-13
2.16277e-13
2.36466e-13
2.57233e-13
2.78232e-13
2.99129e-13
3.19611e-13
3.39391e-13
3.58219e-13
3.75881e-13
3.92205e-13
4.07058e-13
4.20349e-13
4.32023e-13
4.4206e-13
4.50469e-13
4.57287e-13
4.62571e-13
4.66394e-13
4.68844e-13
4.70018e-13
3.42862e-13
3.61938e-13
3.89181e-13
4.23536e-13
4.64068e-13
5.09864e-13
5.59994e-13
6.13502e-13
6.69413e-13
7.26746e-13
7.84541e-13
8.41879e-13
8.9791e-13
9.51866e-13
1.00308e-12
1.051e-12
1.09517e-12
1.13527e-12
1.17107e-12
1.20246e-12
1.22939e-12
1.25191e-12
1.27014e-12
1.28425e-12
1.29445e-12
1.30097e-12
1.3041e-12
9.6551e-13
1.01772e-12
1.09215e-12
1.18578e-12
1.29593e-12
1.41999e-12
1.55534e-12
1.69931e-12
1.84922e-12
2.0024e-12
2.15629e-12
2.30845e-12
2.45665e-12
2.59893e-12
2.73359e-12
2.85923e-12
2.97476e-12
3.07938e-12
3.17258e-12
3.25411e-12
3.32395e-12
3.38225e-12
3.42937e-12
3.46578e-12
3.49206e-12
3.50886e-12
3.51689e-12
2.65082e-12
2.78783e-12
2.98268e-12
3.2271e-12
3.51366e-12
3.83524e-12
4.18474e-12
4.55508e-12
4.93923e-12
5.33034e-12
5.72187e-12
6.10773e-12
6.48244e-12
6.84115e-12
7.17978e-12
7.495e-12
7.78425e-12
8.04571e-12
8.27826e-12
8.48137e-12
8.65512e-12
8.80003e-12
8.91702e-12
9.00734e-12
9.07248e-12
9.1141e-12
9.13398e-12
7.05342e-12
7.39159e-12
7.8709e-12
8.46955e-12
9.16801e-12
9.94769e-12
1.07905e-11
1.16787e-11
1.25951e-11
1.35235e-11
1.44484e-11
1.5356e-11
1.62337e-11
1.70711e-11
1.7859e-11
1.85905e-11
1.92601e-11
1.98643e-11
2.04008e-11
2.08689e-11
2.1269e-11
2.16025e-11
2.18718e-11
2.20797e-11
2.22297e-11
2.23256e-11
2.23715e-11
1.81342e-11
1.88987e-11
1.99749e-11
2.1307e-11
2.28446e-11
2.45401e-11
2.63481e-11
2.82256e-11
3.01326e-11
3.20323e-11
3.3892e-11
3.56835e-11
3.73834e-11
3.8973e-11
4.04388e-11
4.17714e-11
4.29659e-11
4.40211e-11
4.49385e-11
4.57226e-11
4.63795e-11
4.69166e-11
4.73425e-11
4.76659e-11
4.78958e-11
4.80408e-11
4.81094e-11
4.49088e-11
4.64311e-11
4.85377e-11
5.10835e-11
5.39316e-11
5.69514e-11
6.00193e-11
6.30211e-11
6.58548e-11
6.84336e-11
7.06885e-11
7.25699e-11
7.40487e-11
7.51164e-11
7.57846e-11
7.60818e-11
7.60503e-11
7.5743e-11
7.52196e-11
7.45432e-11
7.37773e-11
7.29827e-11
7.2216e-11
7.15278e-11
7.09623e-11
7.05567e-11
7.03417e-11
1.02479e-10
1.04706e-10
1.07621e-10
1.10855e-10
1.14048e-10
1.16863e-10
1.19008e-10
1.20256e-10
1.20462e-10
1.19579e-10
1.1766e-10
1.14843e-10
1.11329e-10
1.07346e-10
1.0312e-10
9.88538e-11
9.47086e-11
9.0804e-11
8.72196e-11
8.40033e-11
8.11804e-11
7.87612e-11
7.6748e-11
7.51393e-11
7.39331e-11
7.3128e-11
7.27245e-11
1.7141e-10
1.70903e-10
1.6973e-10
1.67622e-10
1.64448e-10
1.6026e-10
1.55279e-10
1.49834e-10
1.44284e-10
1.38933e-10
1.33993e-10
1.29567e-10
1.25669e-10
1.2225e-10
1.19229e-10
1.16519e-10
1.14048e-10
1.11762e-10
1.09631e-10
1.07647e-10
1.0582e-10
1.0417e-10
1.02725e-10
1.01515e-10
1.0057e-10
9.99184e-11
9.95828e-11
1.78878e-10
1.7836e-10
1.77608e-10
1.76651e-10
1.75491e-10
1.74081e-10
1.72312e-10
1.70035e-10
1.67104e-10
1.63427e-10
1.59002e-10
1.53914e-10
1.48322e-10
1.42421e-10
1.3641e-10
1.3047e-10
1.24749e-10
1.19365e-10
1.14401e-10
1.09919e-10
1.05957e-10
1.02543e-10
9.9692e-11
9.74124e-11
9.57072e-11
9.45755e-11
9.4013e-11
2.08589e-10
2.07781e-10
2.0617e-10
2.03487e-10
1.99586e-10
1.94472e-10
1.88291e-10
1.81284e-10
1.73729e-10
1.65897e-10
1.58024e-10
1.503e-10
1.42869e-10
1.35835e-10
1.2927e-10
1.23209e-10
1.17674e-10
1.12674e-10
1.08212e-10
1.04282e-10
1.0088e-10
9.79957e-11
9.56197e-11
9.37416e-11
9.23506e-11
9.14354e-11
9.09841e-11
1.85613e-10
1.84481e-10
1.82719e-10
1.80318e-10
1.77325e-10
1.73835e-10
1.6995e-10
1.65795e-10
1.61497e-10
1.5717e-10
1.52911e-10
1.48794e-10
1.44875e-10
1.41193e-10
1.37773e-10
1.34631e-10
1.31772e-10
1.292e-10
1.26911e-10
1.24902e-10
1.23166e-10
1.21698e-10
1.20491e-10
1.19537e-10
1.18832e-10
1.18367e-10
1.18138e-10
1.55497e-10
1.56603e-10
1.58055e-10
1.59718e-10
1.61507e-10
1.63379e-10
1.65329e-10
1.67376e-10
1.69548e-10
1.71875e-10
1.74383e-10
1.77081e-10
1.79969e-10
1.8303e-10
1.86234e-10
1.89539e-10
1.92891e-10
1.96229e-10
1.99489e-10
2.02602e-10
2.05501e-10
2.08123e-10
2.10409e-10
2.12307e-10
2.13772e-10
2.14772e-10
2.1528e-10
1.48449e-10
1.52053e-10
1.57141e-10
1.635e-10
1.70983e-10
1.79493e-10
1.88972e-10
1.99377e-10
2.10671e-10
2.229e-10
2.35991e-10
2.49852e-10
2.64363e-10
2.79375e-10
2.94711e-10
3.10173e-10
3.25541e-10
3.40585e-10
3.55071e-10
3.68741e-10
3.8138e-10
3.92755e-10
4.02635e-10
4.1082e-10
4.17133e-10
4.21434e-10
4.23618e-10
1.77466e-10
1.83964e-10
1.93289e-10
2.0516e-10
2.19382e-10
2.35813e-10
2.54336e-10
2.74846e-10
2.97231e-10
3.21358e-10
3.47073e-10
3.7419e-10
4.02459e-10
4.31474e-10
4.6082e-10
4.90069e-10
5.18789e-10
5.46551e-10
5.72932e-10
5.97529e-10
6.1996e-10
6.39891e-10
6.57007e-10
6.71043e-10
6.81785e-10
6.89061e-10
6.92744e-10
2.56575e-10
2.65936e-10
2.79392e-10
2.96559e-10
3.17171e-10
3.40839e-10
3.67223e-10
3.95995e-10
4.26817e-10
4.5933e-10
4.9315e-10
5.2787e-10
5.63067e-10
5.98303e-10
6.3314e-10
6.67145e-10
6.99897e-10
7.30999e-10
7.60065e-10
7.86763e-10
8.10792e-10
8.31874e-10
8.49776e-10
8.64317e-10
8.75348e-10
8.8276e-10
8.86483e-10
3.78986e-10
3.89672e-10
4.04822e-10
4.23767e-10
4.45931e-10
4.70787e-10
4.97842e-10
5.26628e-10
5.56698e-10
5.87625e-10
6.19001e-10
6.50439e-10
6.81572e-10
7.1206e-10
7.41586e-10
7.69858e-10
7.96604e-10
8.2159e-10
8.44608e-10
8.65473e-10
8.84027e-10
9.00128e-10
9.13666e-10
9.24569e-10
9.32777e-10
9.38255e-10
9.40989e-10
4.98649e-10
5.07578e-10
5.20077e-10
5.35451e-10
5.53094e-10
5.72465e-10
5.93083e-10
6.1452e-10
6.364e-10
6.58393e-10
6.80215e-10
7.01618e-10
7.22393e-10
7.42352e-10
7.61345e-10
7.79244e-10
7.95938e-10
8.11334e-10
8.25354e-10
8.3793e-10
8.49009e-10
8.58546e-10
8.66508e-10
8.72876e-10
8.77644e-10
8.80811e-10
8.82386e-10
5.71386e-10
5.7682e-10
5.84334e-10
5.93432e-10
6.03682e-10
6.14709e-10
6.26195e-10
6.37875e-10
6.49536e-10
6.61004e-10
6.72147e-10
6.82861e-10
6.9307e-10
7.02715e-10
7.11754e-10
7.20157e-10
7.27901e-10
7.34968e-10
7.41345e-10
7.47023e-10
7.51993e-10
7.56251e-10
7.59791e-10
7.62615e-10
7.64724e-10
7.6612e-10
7.66812e-10
5.84087e-10
5.86095e-10
5.88818e-10
5.92032e-10
5.95546e-10
5.992e-10
6.02869e-10
6.06456e-10
6.09898e-10
6.1315e-10
6.16189e-10
6.19005e-10
6.21597e-10
6.23971e-10
6.26136e-10
6.28105e-10
6.29888e-10
6.31493e-10
6.3293e-10
6.34204e-10
6.35319e-10
6.36277e-10
6.37079e-10
6.37724e-10
6.3821e-10
6.38535e-10
6.38698e-10
5.49727e-10
5.49344e-10
5.48764e-10
5.47986e-10
5.47009e-10
5.45841e-10
5.445e-10
5.4301e-10
5.41399e-10
5.39702e-10
5.37954e-10
5.3619e-10
5.34442e-10
5.32741e-10
5.31112e-10
5.29578e-10
5.28156e-10
5.26859e-10
5.25697e-10
5.24676e-10
5.23798e-10
5.23061e-10
5.22465e-10
5.22003e-10
5.21669e-10
5.21455e-10
5.21353e-10
4.89452e-10
4.878e-10
4.85484e-10
4.82633e-10
4.79359e-10
4.75765e-10
4.71947e-10
4.67989e-10
4.63968e-10
4.59952e-10
4.56e-10
4.52163e-10
4.48483e-10
4.44994e-10
4.41724e-10
4.38694e-10
4.3592e-10
4.33411e-10
4.31174e-10
4.29211e-10
4.2752e-10
4.26097e-10
4.24937e-10
4.2403e-10
4.23368e-10
4.22939e-10
4.2273e-10
4.20911e-10
4.18797e-10
4.15858e-10
4.12275e-10
4.08209e-10
4.03801e-10
3.99174e-10
3.94435e-10
3.89677e-10
3.84975e-10
3.80394e-10
3.75986e-10
3.7179e-10
3.6784e-10
3.64159e-10
3.60766e-10
3.5767e-10
3.5488e-10
3.52398e-10
3.50222e-10
3.4835e-10
3.46775e-10
3.45491e-10
3.44486e-10
3.43751e-10
3.43274e-10
3.43042e-10
3.54835e-10
3.52717e-10
3.49782e-10
3.46219e-10
3.42194e-10
3.37851e-10
3.33316e-10
3.28694e-10
3.24075e-10
3.19532e-10
3.15124e-10
3.10898e-10
3.0689e-10
3.03128e-10
2.99633e-10
2.96417e-10
2.9349e-10
2.90855e-10
2.88515e-10
2.86465e-10
2.84703e-10
2.83222e-10
2.82013e-10
2.81068e-10
2.80377e-10
2.79928e-10
2.7971e-10
2.96281e-10
2.9437e-10
2.91724e-10
2.88519e-10
2.84906e-10
2.81016e-10
2.76962e-10
2.7284e-10
2.6873e-10
2.64695e-10
2.60788e-10
2.57049e-10
2.5351e-10
2.50192e-10
2.47113e-10
2.44284e-10
2.41711e-10
2.39397e-10
2.37343e-10
2.35545e-10
2.34e-10
2.32701e-10
2.31642e-10
2.30813e-10
2.30208e-10
2.29814e-10
2.29623e-10
2.46397e-10
2.44784e-10
2.42554e-10
2.39853e-10
2.36811e-10
2.33538e-10
2.30116e-10
2.26623e-10
2.23133e-10
2.19706e-10
2.16388e-10
2.13213e-10
2.10208e-10
2.07393e-10
2.04782e-10
2.02384e-10
2.00204e-10
1.98243e-10
1.96503e-10
1.94981e-10
1.93672e-10
1.92573e-10
1.91675e-10
1.90974e-10
1.90461e-10
1.90128e-10
1.89966e-10
2.05303e-10
2.03962e-10
2.02109e-10
1.99865e-10
1.97337e-10
1.94618e-10
1.91785e-10
1.88903e-10
1.86013e-10
1.83168e-10
1.8041e-10
1.77769e-10
1.7527e-10
1.72928e-10
1.70756e-10
1.68761e-10
1.66947e-10
1.65316e-10
1.63868e-10
1.62601e-10
1.61512e-10
1.60597e-10
1.5985e-10
1.59267e-10
1.58839e-10
1.58562e-10
1.58427e-10
1.71825e-10
1.7072e-10
1.69192e-10
1.67343e-10
1.6526e-10
1.63018e-10
1.60683e-10
1.58308e-10
1.55934e-10
1.53593e-10
1.51321e-10
1.49145e-10
1.47084e-10
1.45153e-10
1.4336e-10
1.41714e-10
1.40216e-10
1.3887e-10
1.37675e-10
1.36629e-10
1.3573e-10
1.34974e-10
1.34358e-10
1.33875e-10
1.33522e-10
1.33293e-10
1.33182e-10
1.44618e-10
1.4371e-10
1.42454e-10
1.40934e-10
1.39222e-10
1.37379e-10
1.35459e-10
1.33506e-10
1.31553e-10
1.29627e-10
1.27758e-10
1.25967e-10
1.24271e-10
1.22681e-10
1.21205e-10
1.19849e-10
1.18616e-10
1.17507e-10
1.16523e-10
1.15661e-10
1.1492e-10
1.14297e-10
1.13789e-10
1.13391e-10
1.131e-10
1.12911e-10
1.12819e-10
1.22466e-10
1.2172e-10
1.20687e-10
1.19436e-10
1.18027e-10
1.1651e-10
1.14929e-10
1.1332e-10
1.11709e-10
1.10121e-10
1.0858e-10
1.07104e-10
1.05706e-10
1.04395e-10
1.03178e-10
1.0206e-10
1.01043e-10
1.00129e-10
9.93165e-11
9.86055e-11
9.79941e-11
9.74801e-11
9.70605e-11
9.67323e-11
9.64921e-11
9.6336e-11
9.62601e-11
1.04353e-10
1.03737e-10
1.02885e-10
1.01852e-10
1.00689e-10
9.94357e-11
9.81293e-11
9.6799e-11
9.54645e-11
9.41505e-11
9.28758e-11
9.1655e-11
9.04985e-11
8.94143e-11
8.84079e-11
8.74829e-11
8.66416e-11
8.58847e-11
8.52124e-11
8.46238e-11
8.41176e-11
8.36919e-11
8.33444e-11
8.30725e-11
8.28734e-11
8.2744e-11
8.26811e-11
8.94592e-11
8.89485e-11
8.82419e-11
8.73857e-11
8.64202e-11
8.53802e-11
8.42954e-11
8.31882e-11
8.20787e-11
8.0987e-11
7.99283e-11
7.89143e-11
7.79538e-11
7.70532e-11
7.62172e-11
7.54487e-11
7.47495e-11
7.41205e-11
7.35616e-11
7.30724e-11
7.26515e-11
7.22975e-11
7.20085e-11
7.17824e-11
7.16168e-11
7.15092e-11
7.14568e-11
7.71363e-11
7.67108e-11
7.61221e-11
7.54085e-11
7.46036e-11
7.3736e-11
7.283e-11
7.19033e-11
7.09761e-11
7.00644e-11
6.91806e-11
6.83341e-11
6.75323e-11
6.67805e-11
6.60825e-11
6.54408e-11
6.48569e-11
6.43315e-11
6.38647e-11
6.3456e-11
6.31044e-11
6.28086e-11
6.25671e-11
6.23781e-11
6.22397e-11
6.21497e-11
6.2106e-11
6.68746e-11
6.65183e-11
6.60252e-11
6.54274e-11
6.47527e-11
6.40252e-11
6.32619e-11
6.24829e-11
6.17043e-11
6.09391e-11
6.01975e-11
5.94873e-11
5.88145e-11
5.81836e-11
5.75978e-11
5.70591e-11
5.65689e-11
5.61278e-11
5.57359e-11
5.53926e-11
5.50973e-11
5.48488e-11
5.46459e-11
5.4487e-11
5.43707e-11
5.4295e-11
5.42582e-11
5.82741e-11
5.7974e-11
5.75585e-11
5.70545e-11
5.64854e-11
5.58696e-11
5.52247e-11
5.45672e-11
5.39105e-11
5.32651e-11
5.26397e-11
5.20407e-11
5.14733e-11
5.09411e-11
5.04469e-11
4.99924e-11
4.95788e-11
4.92066e-11
4.88757e-11
4.8586e-11
4.83367e-11
4.81269e-11
4.79556e-11
4.78215e-11
4.77233e-11
4.76594e-11
4.76283e-11
5.10214e-11
5.07672e-11
5.04152e-11
4.9988e-11
4.95043e-11
4.89805e-11
4.84331e-11
4.78755e-11
4.73188e-11
4.67718e-11
4.62417e-11
4.57339e-11
4.52529e-11
4.48017e-11
4.43826e-11
4.39972e-11
4.36464e-11
4.33306e-11
4.305e-11
4.28042e-11
4.25927e-11
4.24147e-11
4.22693e-11
4.21556e-11
4.20722e-11
4.2018e-11
4.19916e-11
4.48693e-11
4.4653e-11
4.43532e-11
4.39883e-11
4.35742e-11
4.31272e-11
4.26606e-11
4.21855e-11
4.17113e-11
4.12454e-11
4.07938e-11
4.03613e-11
3.99515e-11
3.9567e-11
3.92099e-11
3.88815e-11
3.85825e-11
3.83134e-11
3.80742e-11
3.78646e-11
3.76843e-11
3.75326e-11
3.74086e-11
3.73116e-11
3.72406e-11
3.71943e-11
3.71718e-11
3.9623e-11
3.94376e-11
3.91793e-11
3.8865e-11
3.85098e-11
3.81269e-11
3.77274e-11
3.73209e-11
3.69151e-11
3.65165e-11
3.613e-11
3.57599e-11
3.54091e-11
3.508e-11
3.47742e-11
3.4493e-11
3.4237e-11
3.40065e-11
3.38017e-11
3.36222e-11
3.34678e-11
3.33378e-11
3.32317e-11
3.31486e-11
3.30878e-11
3.30482e-11
3.30289e-11
3.51233e-11
3.49621e-11
3.47389e-11
3.44683e-11
3.41628e-11
3.38337e-11
3.34904e-11
3.3141e-11
3.27923e-11
3.24497e-11
3.21175e-11
3.17993e-11
3.14977e-11
3.12147e-11
3.09518e-11
3.071e-11
3.04898e-11
3.02916e-11
3.01154e-11
2.9961e-11
2.98282e-11
2.97164e-11
2.96251e-11
2.95536e-11
2.95013e-11
2.94672e-11
2.94507e-11
3.12431e-11
3.1104e-11
3.09114e-11
3.06779e-11
3.04143e-11
3.01304e-11
2.98342e-11
2.95328e-11
2.92319e-11
2.89361e-11
2.86494e-11
2.83747e-11
2.81143e-11
2.787e-11
2.7643e-11
2.74342e-11
2.7244e-11
2.70729e-11
2.69207e-11
2.67874e-11
2.66727e-11
2.65761e-11
2.64973e-11
2.64356e-11
2.63904e-11
2.6361e-11
2.63466e-11
2.78858e-11
2.77654e-11
2.75987e-11
2.73965e-11
2.71683e-11
2.69224e-11
2.66659e-11
2.64047e-11
2.6144e-11
2.58878e-11
2.56393e-11
2.54013e-11
2.51756e-11
2.49638e-11
2.4767e-11
2.4586e-11
2.44212e-11
2.42728e-11
2.41409e-11
2.40253e-11
2.39258e-11
2.38421e-11
2.37738e-11
2.37203e-11
2.36811e-11
2.36556e-11
2.36432e-11
2.49696e-11
2.4865e-11
2.47201e-11
2.45444e-11
2.4346e-11
2.41323e-11
2.39093e-11
2.36822e-11
2.34555e-11
2.32327e-11
2.30166e-11
2.28095e-11
2.26132e-11
2.2429e-11
2.22578e-11
2.21003e-11
2.19569e-11
2.18278e-11
2.1713e-11
2.16124e-11
2.15259e-11
2.14531e-11
2.13936e-11
2.13471e-11
2.1313e-11
2.12908e-11
2.128e-11
2.24271e-11
2.23358e-11
2.22094e-11
2.20562e-11
2.18832e-11
2.16967e-11
2.15022e-11
2.13041e-11
2.11063e-11
2.09118e-11
2.07232e-11
2.05425e-11
2.03712e-11
2.02103e-11
2.00609e-11
1.99234e-11
1.97982e-11
1.96855e-11
1.95853e-11
1.94975e-11
1.9422e-11
1.93584e-11
1.93065e-11
1.92659e-11
1.92361e-11
1.92168e-11
1.92073e-11
2.02026e-11
2.01227e-11
2.00122e-11
1.98781e-11
1.97267e-11
1.95635e-11
1.93933e-11
1.92199e-11
1.90467e-11
1.88764e-11
1.87113e-11
1.85531e-11
1.8403e-11
1.82622e-11
1.81313e-11
1.80109e-11
1.79013e-11
1.78026e-11
1.77148e-11
1.7638e-11
1.75718e-11
1.75161e-11
1.74707e-11
1.74351e-11
1.7409e-11
1.73921e-11
1.73838e-11
1.82501e-11
1.81801e-11
1.80831e-11
1.79654e-11
1.78325e-11
1.76893e-11
1.75398e-11
1.73875e-11
1.72355e-11
1.7086e-11
1.6941e-11
1.6802e-11
1.66702e-11
1.65465e-11
1.64316e-11
1.63258e-11
1.62295e-11
1.61428e-11
1.60657e-11
1.59982e-11
1.59401e-11
1.58912e-11
1.58512e-11
1.582e-11
1.57971e-11
1.57822e-11
1.5775e-11
1.65314e-11
1.64698e-11
1.63844e-11
1.62808e-11
1.61638e-11
1.60377e-11
1.59061e-11
1.57721e-11
1.56381e-11
1.55065e-11
1.53788e-11
1.52564e-11
1.51403e-11
1.50314e-11
1.49301e-11
1.4837e-11
1.47521e-11
1.46757e-11
1.46078e-11
1.45484e-11
1.44972e-11
1.44541e-11
1.44189e-11
1.43914e-11
1.43712e-11
1.43581e-11
1.43518e-11
1.50143e-11
1.49599e-11
1.48845e-11
1.47931e-11
1.46899e-11
1.45785e-11
1.44623e-11
1.4344e-11
1.42258e-11
1.41095e-11
1.39967e-11
1.38886e-11
1.37861e-11
1.36899e-11
1.36005e-11
1.35182e-11
1.34433e-11
1.33758e-11
1.33159e-11
1.32633e-11
1.32181e-11
1.318e-11
1.3149e-11
1.31247e-11
1.31069e-11
1.30953e-11
1.30897e-11
1.36717e-11
1.36236e-11
1.35569e-11
1.3476e-11
1.33846e-11
1.32861e-11
1.31833e-11
1.30785e-11
1.29739e-11
1.28709e-11
1.27711e-11
1.26754e-11
1.25846e-11
1.24994e-11
1.24203e-11
1.23474e-11
1.22811e-11
1.22213e-11
1.21682e-11
1.21217e-11
1.20816e-11
1.20479e-11
1.20204e-11
1.19989e-11
1.19832e-11
1.19729e-11
1.19679e-11
1.24807e-11
1.2438e-11
1.23789e-11
1.23071e-11
1.22261e-11
1.21387e-11
1.20474e-11
1.19545e-11
1.18616e-11
1.17703e-11
1.16817e-11
1.15968e-11
1.15162e-11
1.14406e-11
1.13703e-11
1.13056e-11
1.12467e-11
1.11937e-11
1.11466e-11
1.11053e-11
1.10697e-11
1.10398e-11
1.10154e-11
1.09963e-11
1.09823e-11
1.09732e-11
1.09688e-11
1.14219e-11
1.1384e-11
1.13314e-11
1.12676e-11
1.11955e-11
1.11178e-11
1.10367e-11
1.0954e-11
1.08714e-11
1.07902e-11
1.07114e-11
1.06358e-11
1.05642e-11
1.04969e-11
1.04343e-11
1.03768e-11
1.03244e-11
1.02772e-11
1.02352e-11
1.01985e-11
1.01668e-11
1.01402e-11
1.01185e-11
1.01015e-11
1.00891e-11
1.0081e-11
1.0077e-11
1.04786e-11
1.04448e-11
1.0398e-11
1.03411e-11
1.02769e-11
1.02076e-11
1.01353e-11
1.00617e-11
9.98804e-12
9.91563e-12
9.84537e-12
9.778e-12
9.7141e-12
9.65411e-12
9.59834e-12
9.54701e-12
9.50026e-12
9.45816e-12
9.42073e-12
9.38793e-12
9.35971e-12
9.33597e-12
9.31659e-12
9.30144e-12
9.29034e-12
9.28312e-12
9.27961e-12
9.63659e-12
9.6064e-12
9.56457e-12
9.51381e-12
9.45647e-12
9.39462e-12
9.33004e-12
9.26423e-12
9.19847e-12
9.13378e-12
9.071e-12
9.0108e-12
8.95369e-12
8.90007e-12
8.85022e-12
8.80434e-12
8.76255e-12
8.7249e-12
8.69142e-12
8.6621e-12
8.63687e-12
8.61564e-12
8.59832e-12
8.58476e-12
8.57484e-12
8.56839e-12
8.56526e-12
8.88356e-12
8.85655e-12
8.81912e-12
8.7737e-12
8.72239e-12
8.66704e-12
8.60924e-12
8.55034e-12
8.49146e-12
8.43355e-12
8.37733e-12
8.32342e-12
8.27227e-12
8.22424e-12
8.17958e-12
8.13847e-12
8.10101e-12
8.06726e-12
8.03726e-12
8.01098e-12
7.98836e-12
7.96934e-12
7.95382e-12
7.94167e-12
7.93278e-12
7.927e-12
7.92419e-12
8.20892e-12
8.18471e-12
8.15115e-12
8.11043e-12
8.06442e-12
8.01479e-12
7.96295e-12
7.91011e-12
7.85729e-12
7.80533e-12
7.75488e-12
7.70649e-12
7.66058e-12
7.61745e-12
7.57734e-12
7.54041e-12
7.50675e-12
7.47644e-12
7.44949e-12
7.42588e-12
7.40556e-12
7.38847e-12
7.37452e-12
7.36361e-12
7.35562e-12
7.35043e-12
7.3479e-12
7.60349e-12
7.58173e-12
7.55159e-12
7.51501e-12
7.47367e-12
7.42906e-12
7.38247e-12
7.33498e-12
7.28749e-12
7.24076e-12
7.19539e-12
7.15186e-12
7.11054e-12
7.07172e-12
7.03561e-12
7.00235e-12
6.97205e-12
6.94475e-12
6.92048e-12
6.89922e-12
6.88092e-12
6.86553e-12
6.85297e-12
6.84314e-12
6.83594e-12
6.83127e-12
6.82899e-12
7.05925e-12
7.03967e-12
7.01254e-12
6.9796e-12
6.94238e-12
6.90222e-12
6.86025e-12
6.81747e-12
6.77468e-12
6.73255e-12
6.69165e-12
6.65238e-12
6.6151e-12
6.58007e-12
6.54747e-12
6.51745e-12
6.4901e-12
6.46546e-12
6.44355e-12
6.42436e-12
6.40784e-12
6.39395e-12
6.3826e-12
6.37373e-12
6.36723e-12
6.363e-12
6.36095e-12
6.56922e-12
6.55156e-12
6.52708e-12
6.49737e-12
6.46378e-12
6.42753e-12
6.38964e-12
6.351e-12
6.31234e-12
6.27428e-12
6.23729e-12
6.20177e-12
6.16804e-12
6.13635e-12
6.10686e-12
6.0797e-12
6.05495e-12
6.03266e-12
6.01283e-12
5.99546e-12
5.98051e-12
5.96793e-12
5.95765e-12
5.94962e-12
5.94373e-12
5.9399e-12
5.93804e-12
6.12725e-12
6.11128e-12
6.08915e-12
6.06227e-12
6.03189e-12
5.99908e-12
5.96478e-12
5.92979e-12
5.89476e-12
5.86024e-12
5.8267e-12
5.79449e-12
5.76391e-12
5.73517e-12
5.70842e-12
5.68379e-12
5.66134e-12
5.64111e-12
5.62312e-12
5.60735e-12
5.59377e-12
5.58235e-12
5.57302e-12
5.56572e-12
5.56037e-12
5.55689e-12
5.5552e-12
5.72789e-12
5.71342e-12
5.69335e-12
5.66897e-12
5.64139e-12
5.6116e-12
5.58043e-12
5.54862e-12
5.51677e-12
5.4854e-12
5.45492e-12
5.42565e-12
5.39785e-12
5.37172e-12
5.3474e-12
5.32499e-12
5.30457e-12
5.28616e-12
5.26978e-12
5.25542e-12
5.24305e-12
5.23264e-12
5.22414e-12
5.21749e-12
5.21261e-12
5.20944e-12
5.2079e-12
5.36625e-12
5.35306e-12
5.33477e-12
5.31255e-12
5.28742e-12
5.26027e-12
5.23188e-12
5.20291e-12
5.1739e-12
5.14533e-12
5.11755e-12
5.09088e-12
5.06553e-12
5.0417e-12
5.01952e-12
4.99907e-12
4.98042e-12
4.96361e-12
4.94864e-12
4.93552e-12
4.92422e-12
4.9147e-12
4.90692e-12
4.90083e-12
4.89637e-12
4.89347e-12
4.89205e-12
5.03768e-12
5.02565e-12
5.00896e-12
4.98868e-12
4.96575e-12
4.94098e-12
4.91506e-12
4.8886e-12
4.86211e-12
4.836e-12
4.81061e-12
4.78622e-12
4.76303e-12
4.74122e-12
4.7209e-12
4.70217e-12
4.68507e-12
4.66966e-12
4.65593e-12
4.64389e-12
4.63351e-12
4.62477e-12
4.61762e-12
4.61202e-12
4.60792e-12
4.60525e-12
4.60395e-12
4.7385e-12
4.72749e-12
4.71222e-12
4.69366e-12
4.67267e-12
4.64997e-12
4.62623e-12
4.60198e-12
4.57769e-12
4.55373e-12
4.53043e-12
4.50802e-12
4.48672e-12
4.46666e-12
4.44797e-12
4.43073e-12
4.41499e-12
4.40079e-12
4.38813e-12
4.37702e-12
4.36745e-12
4.35938e-12
4.35278e-12
4.3476e-12
4.34381e-12
4.34134e-12
4.34014e-12
4.46512e-12
4.455e-12
4.44097e-12
4.42391e-12
4.4046e-12
4.38373e-12
4.36187e-12
4.33954e-12
4.31715e-12
4.29506e-12
4.27356e-12
4.25288e-12
4.2332e-12
4.21466e-12
4.19737e-12
4.18142e-12
4.16684e-12
4.15368e-12
4.14195e-12
4.13164e-12
4.12275e-12
4.11526e-12
4.10913e-12
4.10432e-12
4.10079e-12
4.09849e-12
4.09737e-12
4.21412e-12
4.20478e-12
4.19181e-12
4.17604e-12
4.15818e-12
4.13886e-12
4.11862e-12
4.09793e-12
4.07718e-12
4.05669e-12
4.03673e-12
4.01752e-12
3.99922e-12
3.98198e-12
3.96589e-12
3.95102e-12
3.93744e-12
3.92516e-12
3.91421e-12
3.90459e-12
3.89628e-12
3.88927e-12
3.88353e-12
3.87903e-12
3.87573e-12
3.87358e-12
3.87253e-12
3.98219e-12
3.9735e-12
3.96143e-12
3.94675e-12
3.93012e-12
3.91212e-12
3.89325e-12
3.87394e-12
3.85456e-12
3.83541e-12
3.81675e-12
3.79876e-12
3.78163e-12
3.76546e-12
3.75037e-12
3.73641e-12
3.72365e-12
3.71211e-12
3.7018e-12
3.69274e-12
3.68492e-12
3.67832e-12
3.67291e-12
3.66866e-12
3.66554e-12
3.66351e-12
3.66252e-12
3.76608e-12
3.75793e-12
3.7466e-12
3.73282e-12
3.71719e-12
3.70027e-12
3.68252e-12
3.66434e-12
3.64608e-12
3.62803e-12
3.61042e-12
3.59344e-12
3.57724e-12
3.56195e-12
3.54766e-12
3.53445e-12
3.52235e-12
3.5114e-12
3.50162e-12
3.49302e-12
3.48559e-12
3.47931e-12
3.47416e-12
3.47012e-12
3.46715e-12
3.46522e-12
3.46427e-12
3.56253e-12
3.5548e-12
3.54406e-12
3.53099e-12
3.51616e-12
3.50008e-12
3.48321e-12
3.46592e-12
3.44855e-12
3.43135e-12
3.41456e-12
3.39836e-12
3.3829e-12
3.36829e-12
3.35463e-12
3.34199e-12
3.33041e-12
3.31992e-12
3.31056e-12
3.30231e-12
3.29518e-12
3.28916e-12
3.28422e-12
3.28034e-12
3.27749e-12
3.27563e-12
3.27472e-12
3.36825e-12
3.36084e-12
3.35054e-12
3.338e-12
3.32376e-12
3.30831e-12
3.29209e-12
3.27546e-12
3.25873e-12
3.24217e-12
3.22598e-12
3.21036e-12
3.19544e-12
3.18134e-12
3.16814e-12
3.15592e-12
3.14473e-12
3.13459e-12
3.12553e-12
3.11756e-12
3.11066e-12
3.10483e-12
3.10005e-12
3.0963e-12
3.09354e-12
3.09174e-12
3.09086e-12
3.18003e-12
3.17284e-12
3.16284e-12
3.15065e-12
3.13681e-12
3.12179e-12
3.10602e-12
3.08983e-12
3.07354e-12
3.05741e-12
3.04164e-12
3.02641e-12
3.01187e-12
2.99812e-12
2.98525e-12
2.97334e-12
2.96242e-12
2.95254e-12
2.94371e-12
2.93593e-12
2.92921e-12
2.92353e-12
2.91888e-12
2.91522e-12
2.91254e-12
2.91079e-12
2.90993e-12
2.99485e-12
2.98778e-12
2.97796e-12
2.96599e-12
2.95239e-12
2.93764e-12
2.92214e-12
2.90623e-12
2.89022e-12
2.87436e-12
2.85887e-12
2.8439e-12
2.82962e-12
2.81612e-12
2.80349e-12
2.7918e-12
2.7811e-12
2.77142e-12
2.76277e-12
2.75516e-12
2.74859e-12
2.74305e-12
2.73851e-12
2.73495e-12
2.73233e-12
2.73063e-12
2.7298e-12
2.81025e-12
2.80325e-12
2.79354e-12
2.78169e-12
2.76824e-12
2.75365e-12
2.73832e-12
2.7226e-12
2.70679e-12
2.69114e-12
2.67586e-12
2.66111e-12
2.64705e-12
2.63378e-12
2.62138e-12
2.60992e-12
2.59945e-12
2.58998e-12
2.58154e-12
2.57413e-12
2.56774e-12
2.56235e-12
2.55795e-12
2.55451e-12
2.55198e-12
2.55034e-12
2.54954e-12
2.62488e-12
2.61795e-12
2.60833e-12
2.5966e-12
2.5833e-12
2.56889e-12
2.55376e-12
2.53827e-12
2.52271e-12
2.50734e-12
2.49235e-12
2.47793e-12
2.46419e-12
2.45126e-12
2.43921e-12
2.4281e-12
2.41797e-12
2.40884e-12
2.40072e-12
2.39362e-12
2.38751e-12
2.38238e-12
2.3782e-12
2.37494e-12
2.37256e-12
2.37102e-12
2.37027e-12
2.43926e-12
2.43246e-12
2.42303e-12
2.41156e-12
2.39857e-12
2.38452e-12
2.36981e-12
2.35478e-12
2.33973e-12
2.3249e-12
2.31049e-12
2.29667e-12
2.28357e-12
2.27128e-12
2.25987e-12
2.24941e-12
2.23991e-12
2.2314e-12
2.22387e-12
2.21731e-12
2.21171e-12
2.20702e-12
2.20323e-12
2.20029e-12
2.19815e-12
2.19678e-12
2.19611e-12
2.25651e-12
2.25002e-12
2.24103e-12
2.23012e-12
2.2178e-12
2.20453e-12
2.19068e-12
2.1766e-12
2.16257e-12
2.14882e-12
2.13555e-12
2.1229e-12
2.11099e-12
2.09991e-12
2.0897e-12
2.08042e-12
2.07207e-12
2.06466e-12
2.05817e-12
2.05257e-12
2.04785e-12
2.04394e-12
2.04082e-12
2.03843e-12
2.03671e-12
2.03562e-12
2.0351e-12
2.08289e-12
2.077e-12
2.06886e-12
2.05902e-12
2.04798e-12
2.03616e-12
2.02392e-12
2.01159e-12
1.99942e-12
1.98763e-12
1.97639e-12
1.96581e-12
1.956e-12
1.94702e-12
1.9389e-12
1.93165e-12
1.92527e-12
1.91973e-12
1.915e-12
1.91104e-12
1.90779e-12