/*--------------------------------*- C++ -*----------------------------------*\
| =========                 |                                                 |
| \\      /  F ield         | OpenFOAM: The Open Source CFD Toolbox           |
|  \\    /   O peration     | Version:  2106                                  |
|   \\  /    A nd           | Website:  www.openfoam.com                      |
|    \\/     M anipulation  |                                                 |
\*---------------------------------------------------------------------------*/
FoamFile
{
    version     2.0;
    format      ascii;
    arch        "LSB;label=32;scalar=64";
    class       volScalarField;
    location    "149.99958";
    object      CH3COCH3_0;
}
// * * * * * * * * * * * * * * * * * * * * * * * * * * * * * * * * * * * * * //

dimensions      [0 0 0 0 0 0 0];

internalField   nonuniform List<scalar> 
3360
(
0.0136842
0.0136842
0.0136842
0.0136842
0.0136842
0.0136842
0.0136842
0.0136842
0.0136842
0.0136842
0.0136842
0.0136842
0.0136842
0.0136842
0.0136842
0.0136842
0.0136842
0.0136842
0.0136842
0.0136842
0.0136842
0.0136842
0.0136842
0.0136842
0.0136842
0.0136842
0.0136842
0.0136842
0.0136842
0.0136842
0.0136842
0.0136842
0.0136842
0.0136842
0.0136842
0.0136842
0.0136842
0.0136842
0.0136842
0.0136842
0.0136842
0.0136842
0.0136842
0.0136842
0.0136842
0.0136842
0.0136842
0.0136842
0.0136842
0.0136842
0.0136842
0.0136842
0.0136842
0.0136842
0.0136842
0.0136842
0.0136842
0.0136842
0.0136842
0.0136842
0.0136842
0.0136842
0.0136842
0.0136842
0.0136842
0.0136842
0.0136842
0.0136842
0.0136842
0.0136842
0.0136842
0.0136842
0.0136842
0.0136842
0.0136842
0.0136842
0.0136842
0.0136842
0.0136842
0.0136842
0.0136842
0.0136842
0.0136842
0.0136842
0.0136842
0.0136842
0.0136842
0.0136842
0.0136842
0.0136842
0.0136842
0.0136842
0.0136842
0.0136842
0.0136842
0.0136842
0.0136842
0.0136842
0.0136842
0.0136842
0.0136842
0.0136842
0.0136842
0.0136842
0.0136842
0.0136842
0.0136842
0.0136842
0.0136842
0.0136842
0.0136842
0.0136842
0.0136842
0.0136842
0.0136842
0.0136842
0.0136842
0.0136842
0.0136842
0.0136842
0.0136842
0.0136842
0.0136842
0.0136842
0.0136842
0.0136842
0.0136842
0.0136842
0.0136842
0.0136842
0.0136842
0.0136842
0.0136842
0.0136842
0.0136842
0.0136842
0.0136842
0.0136842
0.0136842
0.0136842
0.0136842
0.0136842
0.0136842
0.0136842
0.0136842
0.0136842
0.0136842
0.0136842
0.0136842
0.0136842
0.0136842
0.0136842
0.0136842
0.0136842
0.0136842
0.0136842
0.0136842
0.0136842
0.0136842
0.0136842
0.0136842
0.0136842
0.0136842
0.0136842
0.0136842
0.0136842
0.0136842
0.0136842
0.0136842
0.0136842
0.0136842
0.0136842
0.0136842
0.0136842
0.0136842
0.0136842
0.0136842
0.0136842
0.0136842
0.0136842
0.0136842
0.0136842
0.0136842
0.0136842
0.0136842
0.0136842
0.0136842
0.0136842
0.0136842
0.0136842
0.0136842
0.0136842
0.0136842
0.0136842
0.0136842
0.0136842
0.0136842
0.0136842
0.0136842
0.0136842
0.0136842
0.0136842
0.0136842
0.0136842
0.0136842
0.0136842
0.0136842
0.0136842
0.0136842
0.0136842
0.0136842
0.0136842
0.0136842
0.0136842
0.0136842
0.0136842
0.0136842
0.0136842
0.0136842
0.0136842
0.0136842
0.0136842
0.0136842
0.0136842
0.0136842
0.0136842
0.0136842
0.0136842
0.0136842
0.0136842
0.0136842
0.0136842
0.0136842
0.0136842
0.0136842
0.0136842
0.0136842
0.0136842
0.0136842
0.0136842
0.0136842
0.0136842
0.0136842
0.0136842
0.0136842
0.0136842
0.0136842
0.0136842
0.0136842
0.0136842
0.0136842
0.0136842
0.0136842
0.0136842
0.0136842
0.0136842
0.0136842
0.0136842
0.0136842
0.0136842
0.0136842
0.0136842
0.0136842
0.0136842
0.0136842
0.0136842
0.0136842
0.0136842
0.0136842
0.0136842
0.0136842
0.0136842
0.0136842
0.0136842
0.0136842
0.0136842
0.0136842
0.0136842
0.0136842
0.0136842
0.0136842
0.0136842
0.0136842
0.0136842
0.0136842
0.0136842
0.0136842
0.0136842
0.0136842
0.0136842
0.0136842
0.0136842
0.0136842
0.0136842
0.0136842
0.0136842
0.0136842
0.0136842
0.0136842
0.0136842
0.0136842
0.0136842
0.0136842
0.0136842
0.0136842
0.0136842
0.0136842
0.0136842
0.0136842
0.0136842
0.0136842
0.0136842
0.0136842
0.0136842
0.0136842
0.0136842
0.0136842
0.0136842
0.0136842
0.0136842
0.0136842
0.0136842
0.0136842
0.0136842
0.0136842
0.0136842
0.0136842
0.0136842
0.0136842
0.0136842
0.0136842
0.0136842
0.0136842
0.0136842
0.0136842
0.0136842
0.0136842
0.0136842
0.0136842
0.0136842
0.0136842
0.0136842
0.0136842
0.0136842
0.0136842
0.0136842
0.0136842
0.0136842
0.0136842
0.0136842
0.0136842
0.0136842
0.0136842
0.0136842
0.0136842
0.0136842
0.0136842
0.0136842
0.0136842
0.0136842
0.0136842
0.0136842
0.0136842
0.0136842
0.0136842
0.0136842
0.0136842
0.0136842
0.0136842
0.0136842
0.0136842
0.0136842
0.0136842
0.0136842
0.0136842
0.0136842
0.0136842
0.0136842
0.0136842
0.0136842
0.0136842
0.0136842
0.0136842
0.0136842
0.0136842
0.0136842
0.0136842
0.0136842
0.0136842
0.0136842
0.0136842
0.0136842
0.0136842
0.0136842
0.0136842
0.0136842
0.0136842
0.0136842
0.0136842
0.0136842
0.0136842
0.0136842
0.0136842
0.0136842
0.0136842
0.0136842
0.0136842
0.0136842
0.0136842
0.0136842
0.0136842
0.0136842
0.0136842
0.0136842
0.0136842
0.0136842
0.0136842
0.0136842
0.0136842
0.0136842
0.0136842
0.0136842
0.0136842
0.0136842
0.0136842
0.0136842
0.0136842
0.0136842
0.0136842
0.0136842
0.0136842
0.0136842
0.0136842
0.0136842
0.0136842
0.0136842
0.0136842
0.0136842
0.0136842
0.0136842
0.0136842
0.0136842
0.0136842
0.0136842
0.0136842
0.0136842
0.0136842
0.0136842
0.0136842
0.0136842
0.0136842
0.0136842
0.0136842
0.0136842
0.0136842
0.0136842
0.0136842
0.0136842
0.0136842
0.0136842
0.0136842
0.0136842
0.0136842
0.0136842
0.0136842
0.0136842
0.0136842
0.0136842
0.0136842
0.0136842
0.0136842
0.0136842
0.0136842
0.0136842
0.0136842
0.0136842
0.0136842
0.0136842
0.0136842
0.0136842
0.0136842
0.0136842
0.0136842
0.0136842
0.0136842
0.0136842
0.0136842
0.0136842
0.0136842
0.0136842
0.0136842
0.0136842
0.0136841
0.0136841
0.0136841
0.0136841
0.0136841
0.0136841
0.0136841
0.0136841
0.0136841
0.0136841
0.0136841
0.0136841
0.0136841
0.0136841
0.0136841
0.0136841
0.0136841
0.0136841
0.0136841
0.0136841
0.0136841
0.0136841
0.0136841
0.0136841
0.0136841
0.0136841
0.0136841
0.0136841
0.013684
0.013684
0.013684
0.013684
0.013684
0.013684
0.013684
0.0136839
0.0136839
0.0136839
0.0136839
0.0136839
0.0136839
0.0136839
0.0136839
0.0136839
0.0136839
0.0136839
0.0136839
0.0136839
0.0136839
0.0136839
0.0136839
0.0136839
0.0136839
0.0136838
0.0136838
0.0136838
0.0136837
0.0136837
0.0136837
0.0136836
0.0136836
0.0136836
0.0136835
0.0136835
0.0136835
0.0136835
0.0136835
0.0136834
0.0136834
0.0136834
0.0136834
0.0136834
0.0136834
0.0136834
0.0136834
0.0136835
0.0136835
0.0136834
0.0136834
0.0136833
0.0136833
0.0136832
0.0136831
0.013683
0.0136829
0.0136829
0.0136828
0.0136827
0.0136826
0.0136826
0.0136825
0.0136825
0.0136824
0.0136824
0.0136823
0.0136823
0.0136823
0.0136823
0.0136822
0.0136822
0.0136822
0.0136822
0.0136824
0.0136824
0.0136823
0.0136821
0.013682
0.0136818
0.0136817
0.0136815
0.0136813
0.0136811
0.013681
0.0136808
0.0136806
0.0136805
0.0136803
0.0136802
0.0136801
0.01368
0.0136799
0.0136798
0.0136797
0.0136797
0.0136796
0.0136796
0.0136796
0.0136796
0.0136796
0.0136798
0.0136797
0.0136794
0.0136792
0.0136789
0.0136785
0.0136781
0.0136778
0.0136774
0.013677
0.0136766
0.0136763
0.0136759
0.0136756
0.0136753
0.013675
0.0136748
0.0136746
0.0136744
0.0136742
0.0136741
0.0136739
0.0136739
0.0136738
0.0136737
0.0136737
0.0136737
0.0136738
0.0136735
0.013673
0.0136725
0.0136718
0.0136711
0.0136703
0.0136695
0.0136687
0.013668
0.0136672
0.0136664
0.0136657
0.0136651
0.0136645
0.0136639
0.0136634
0.013663
0.0136626
0.0136623
0.013662
0.0136617
0.0136616
0.0136614
0.0136613
0.0136612
0.0136612
0.0136607
0.01366
0.0136591
0.0136579
0.0136566
0.0136551
0.0136536
0.013652
0.0136504
0.0136489
0.0136474
0.0136459
0.0136445
0.0136432
0.013642
0.0136409
0.01364
0.0136391
0.0136383
0.0136377
0.0136371
0.0136367
0.0136363
0.013636
0.0136358
0.0136357
0.0136356
0.013633
0.0136317
0.0136299
0.0136276
0.013625
0.0136222
0.0136192
0.0136162
0.0136131
0.0136101
0.0136072
0.0136043
0.0136017
0.0135992
0.0135969
0.0135948
0.0135929
0.0135913
0.0135898
0.0135886
0.0135875
0.0135866
0.0135859
0.0135854
0.013585
0.0135848
0.0135847
0.0135776
0.0135751
0.0135716
0.0135672
0.0135623
0.013557
0.0135513
0.0135456
0.0135397
0.013534
0.0135284
0.0135231
0.013518
0.0135133
0.013509
0.013505
0.0135014
0.0134983
0.0134955
0.0134931
0.0134911
0.0134894
0.0134881
0.0134871
0.0134864
0.0134859
0.0134857
0.0134721
0.0134674
0.0134608
0.0134528
0.0134437
0.0134337
0.0134232
0.0134124
0.0134015
0.0133907
0.0133802
0.0133702
0.0133606
0.0133516
0.0133433
0.0133358
0.0133289
0.0133229
0.0133175
0.0133129
0.013309
0.0133058
0.0133032
0.0133012
0.0132998
0.0132989
0.0132985
0.0132829
0.0132745
0.0132627
0.0132483
0.0132319
0.0132139
0.0131948
0.0131752
0.0131553
0.0131355
0.0131162
0.0130975
0.0130796
0.0130629
0.0130472
0.0130328
0.0130198
0.0130081
0.0129978
0.0129888
0.0129812
0.0129748
0.0129697
0.0129657
0.0129629
0.0129611
0.0129602
0.0129677
0.0129535
0.0129337
0.0129094
0.0128815
0.012851
0.0128186
0.0127851
0.0127511
0.0127171
0.0126837
0.0126513
0.0126203
0.0125909
0.0125635
0.0125381
0.0125149
0.0124941
0.0124756
0.0124594
0.0124456
0.012434
0.0124247
0.0124174
0.0124122
0.0124088
0.0124072
0.0124855
0.0124638
0.0124335
0.0123962
0.0123536
0.0123068
0.0122573
0.0122061
0.0121542
0.0121024
0.0120516
0.0120023
0.0119552
0.0119107
0.0118691
0.0118308
0.0117958
0.0117643
0.0117365
0.0117122
0.0116914
0.0116741
0.0116601
0.0116493
0.0116415
0.0116364
0.011634
0.0118142
0.0117847
0.0117435
0.0116931
0.0116357
0.011573
0.011507
0.011439
0.0113706
0.0113027
0.0112365
0.0111727
0.0111121
0.0110552
0.0110024
0.0109539
0.01091
0.0108708
0.0108362
0.0108063
0.0107808
0.0107597
0.0107427
0.0107296
0.0107201
0.0107141
0.0107112
0.0109691
0.0109339
0.0108849
0.0108253
0.0107577
0.0106845
0.0106078
0.0105296
0.0104513
0.0103744
0.0103
0.0102289
0.010162
0.0100996
0.0100421
0.00998983
0.00994283
0.00990112
0.00986463
0.0098332
0.00980665
0.00978474
0.00976721
0.00975378
0.00974416
0.00973803
0.00973512
0.0100057
0.00996847
0.00991686
0.00985431
0.00978381
0.00970801
0.0096292
0.00954936
0.00947014
0.00939291
0.00931874
0.00924848
0.00918275
0.00912197
0.00906641
0.0090162
0.00897137
0.00893182
0.00889743
0.00886797
0.00884322
0.0088229
0.00880672
0.00879437
0.00878556
0.00877997
0.00877733
0.00899907
0.00896335
0.00891406
0.00885457
0.00878785
0.00871649
0.00864274
0.00856846
0.0084952
0.00842422
0.00835645
0.00829263
0.00823325
0.00817863
0.00812897
0.0080843
0.00804459
0.00800972
0.00797951
0.00795373
0.00793214
0.00791447
0.00790044
0.00788976
0.00788216
0.00787735
0.00787507
0.00801726
0.00798545
0.00794165
0.00788893
0.00782999
0.00776718
0.0077025
0.0076376
0.00757385
0.00751229
0.00745373
0.00739877
0.00734779
0.00730105
0.00725865
0.00722062
0.00718688
0.00715732
0.00713175
0.00710997
0.00709175
0.00707686
0.00706505
0.00705607
0.00704968
0.00704564
0.00704374
0.00710603
0.007079
0.00704182
0.00699714
0.00694727
0.00689421
0.00683966
0.00678503
0.00673144
0.00667977
0.00663069
0.00658467
0.00654204
0.00650298
0.00646757
0.00643583
0.00640769
0.00638302
0.0063617
0.00634354
0.00632835
0.00631593
0.00630608
0.00629858
0.00629325
0.00628988
0.00628829
0.00628723
0.00626482
0.00623402
0.006197
0.00615569
0.00611175
0.00606658
0.00602134
0.00597696
0.00593417
0.00589351
0.00585536
0.00582001
0.00578759
0.0057582
0.00573182
0.00570841
0.00568788
0.00567012
0.00565497
0.00564229
0.00563192
0.00562368
0.00561741
0.00561294
0.00561011
0.00560878
0.00556532
0.00554689
0.00552153
0.00549105
0.00545701
0.00542077
0.00538348
0.0053461
0.00530939
0.00527395
0.00524022
0.00520855
0.00517914
0.00515215
0.00512764
0.00510561
0.00508603
0.00506884
0.00505394
0.00504123
0.00503057
0.00502183
0.00501489
0.0050096
0.00500583
0.00500344
0.00500231
0.00493482
0.0049196
0.00489863
0.0048734
0.0048452
0.00481514
0.00478416
0.00475305
0.00472246
0.00469287
0.00466467
0.00463813
0.00461346
0.00459078
0.00457014
0.00455157
0.00453504
0.0045205
0.00450789
0.00449711
0.00448806
0.00448063
0.00447472
0.00447022
0.004467
0.00446496
0.004464
0.00438602
0.0043733
0.00435577
0.00433465
0.00431101
0.00428578
0.00425974
0.00423356
0.00420776
0.00418277
0.00415892
0.00413643
0.0041155
0.00409622
0.00407865
0.00406281
0.0040487
0.00403628
0.00402548
0.00401625
0.00400848
0.00400211
0.00399703
0.00399316
0.00399039
0.00398863
0.0039878
0.00390809
0.00389731
0.00388246
0.00386455
0.00384447
0.00382301
0.00380085
0.00377852
0.00375649
0.00373512
0.0037147
0.00369542
0.00367745
0.00366087
0.00364575
0.0036321
0.00361993
0.0036092
0.00359987
0.00359188
0.00358516
0.00357964
0.00357523
0.00357187
0.00356947
0.00356794
0.00356722
0.00349083
0.00348159
0.00346883
0.00345344
0.00343618
0.0034177
0.0033986
0.00337933
0.0033603
0.00334182
0.00332414
0.00330743
0.00329183
0.00327744
0.00326429
0.00325242
0.00324183
0.00323248
0.00322434
0.00321737
0.0032115
0.00320668
0.00320283
0.00319989
0.00319778
0.00319645
0.00319582
0.00312533
0.0031173
0.00310623
0.00309285
0.00307783
0.00306176
0.00304511
0.00302832
0.00301171
0.00299557
0.00298012
0.0029655
0.00295185
0.00293924
0.00292772
0.00291731
0.00290801
0.00289981
0.00289266
0.00288653
0.00288137
0.00287713
0.00287375
0.00287116
0.00286931
0.00286813
0.00286757
0.002804
0.00279696
0.00278725
0.00277551
0.00276233
0.00274821
0.00273359
0.00271882
0.00270421
0.00269001
0.00267639
0.00266352
0.00265148
0.00264036
0.00263019
0.002621
0.00261279
0.00260554
0.00259922
0.00259381
0.00258925
0.0025855
0.0025825
0.00258021
0.00257857
0.00257753
0.00257704
0.00252049
0.00251428
0.00250569
0.00249532
0.00248367
0.00247118
0.00245824
0.00244516
0.00243223
0.00241964
0.00240758
0.00239616
0.00238549
0.00237563
0.00236661
0.00235845
0.00235116
0.00234472
0.00233911
0.0023343
0.00233025
0.00232692
0.00232426
0.00232222
0.00232077
0.00231984
0.0023194
0.00226951
0.00226399
0.00225636
0.00224714
0.00223678
0.00222567
0.00221415
0.00220252
0.00219101
0.0021798
0.00216906
0.00215889
0.00214938
0.00214059
0.00213255
0.00212528
0.00211878
0.00211304
0.00210804
0.00210376
0.00210014
0.00209717
0.0020948
0.00209298
0.00209169
0.00209086
0.00209047
0.00204665
0.00204172
0.00203491
0.00202667
0.00201741
0.00200749
0.0019972
0.00198681
0.00197651
0.0019665
0.00195689
0.0019478
0.0019393
0.00193144
0.00192425
0.00191775
0.00191194
0.0019068
0.00190233
0.00189849
0.00189526
0.00189261
0.00189048
0.00188886
0.0018877
0.00188696
0.00188661
0.00184821
0.00184379
0.00183768
0.0018303
0.001822
0.0018131
0.00180388
0.00179456
0.00178533
0.00177635
0.00176774
0.00175958
0.00175196
0.00174491
0.00173846
0.00173263
0.00172742
0.00172281
0.0017188
0.00171536
0.00171246
0.00171008
0.00170818
0.00170672
0.00170568
0.00170502
0.00170471
0.00167106
0.00166709
0.0016616
0.00165496
0.00164751
0.00163951
0.00163122
0.00162284
0.00161454
0.00160647
0.00159872
0.0015914
0.00158454
0.0015782
0.00157241
0.00156717
0.00156248
0.00155834
0.00155474
0.00155164
0.00154904
0.0015469
0.00154519
0.00154388
0.00154294
0.00154235
0.00154207
0.00151258
0.001509
0.00150405
0.00149808
0.00149136
0.00148415
0.00147668
0.00146913
0.00146166
0.00145439
0.00144741
0.00144081
0.00143464
0.00142893
0.00142371
0.00141899
0.00141476
0.00141104
0.00140779
0.00140501
0.00140266
0.00140073
0.00139919
0.00139801
0.00139717
0.00139664
0.00139638
0.00137051
0.00136728
0.00136281
0.00135742
0.00135135
0.00134485
0.00133811
0.0013313
0.00132455
0.00131799
0.0013117
0.00130574
0.00130017
0.00129502
0.00129031
0.00128605
0.00128224
0.00127888
0.00127595
0.00127344
0.00127132
0.00126958
0.00126819
0.00126713
0.00126637
0.00126589
0.00126566
0.00124292
0.00124
0.00123597
0.00123109
0.00122561
0.00121973
0.00121364
0.00120748
0.00120139
0.00119546
0.00118977
0.00118438
0.00117935
0.0011747
0.00117044
0.00116659
0.00116315
0.00116012
0.00115747
0.0011552
0.00115329
0.00115172
0.00115046
0.00114951
0.00114882
0.00114838
0.00114818
0.00112816
0.00112552
0.00112187
0.00111745
0.00111249
0.00110717
0.00110166
0.00109609
0.00109057
0.00108521
0.00108006
0.00107519
0.00107063
0.00106642
0.00106257
0.00105909
0.00105598
0.00105324
0.00105084
0.00104879
0.00104706
0.00104564
0.00104451
0.00104364
0.00104302
0.00104263
0.00104244
0.00102479
0.0010224
0.00101909
0.00101509
0.00101059
0.00100577
0.00100078
0.000995731
0.000990735
0.000985873
0.000981211
0.0009768
0.000972675
0.000968863
0.000965377
0.000962225
0.000959408
0.00095692
0.000954754
0.000952896
0.000951332
0.000950045
0.000949018
0.000948234
0.000947672
0.000947316
0.000947146
0.000931557
0.000929385
0.000926384
0.000922757
0.00091868
0.00091431
0.00090978
0.000905204
0.000900673
0.000896265
0.000892039
0.00088804
0.000884301
0.000880844
0.000877685
0.000874828
0.000872275
0.00087002
0.000868057
0.000866373
0.000864956
0.00086379
0.00086286
0.000862148
0.00086164
0.000861317
0.000861163
0.00084737
0.000845398
0.000842674
0.000839382
0.000835682
0.000831715
0.000827604
0.000823451
0.00081934
0.00081534
0.000811505
0.000807877
0.000804484
0.000801348
0.000798482
0.00079589
0.000793574
0.000791529
0.000789749
0.000788221
0.000786936
0.000785878
0.000785035
0.00078439
0.000783929
0.000783636
0.000783497
0.000771272
0.000769481
0.000767007
0.000764016
0.000760656
0.000757053
0.00075332
0.000749547
0.000745814
0.000742182
0.0007387
0.000735405
0.000732325
0.000729478
0.000726875
0.000724523
0.00072242
0.000720564
0.000718947
0.000717561
0.000716394
0.000715435
0.000714669
0.000714084
0.000713665
0.000713399
0.000713273
0.000702423
0.000700795
0.000698546
0.000695828
0.000692774
0.0006895
0.000686107
0.000682679
0.000679287
0.000675986
0.000672822
0.000669828
0.00066703
0.000664443
0.000662079
0.000659942
0.000658032
0.000656346
0.000654878
0.000653619
0.000652559
0.000651687
0.000650992
0.00065046
0.00065008
0.000649839
0.000649724
0.000640081
0.0006386
0.000636555
0.000634084
0.000631306
0.000628329
0.000625244
0.000622127
0.000619043
0.000616042
0.000613165
0.000610444
0.0006079
0.000605549
0.0006034
0.000601457
0.000599721
0.000598189
0.000596854
0.00059571
0.000594747
0.000593955
0.000593323
0.00059284
0.000592495
0.000592275
0.000592171
0.00058359
0.000582243
0.000580382
0.000578134
0.000575607
0.000572898
0.000570092
0.000567257
0.000564451
0.000561721
0.000559105
0.00055663
0.000554316
0.000552178
0.000550223
0.000548457
0.000546878
0.000545485
0.000544271
0.000543231
0.000542355
0.000541635
0.000541061
0.000540622
0.000540308
0.000540108
0.000540013
0.000532369
0.000531143
0.00052945
0.000527403
0.000525103
0.000522639
0.000520084
0.000517504
0.000514951
0.000512467
0.000510087
0.000507834
0.000505729
0.000503784
0.000502006
0.000500399
0.000498963
0.000497695
0.000496591
0.000495645
0.000494849
0.000494194
0.000493671
0.000493272
0.000492986
0.000492805
0.000492719
0.000485903
0.000484787
0.000483245
0.000481381
0.000479288
0.000477044
0.000474719
0.00047237
0.000470046
0.000467785
0.000465618
0.000463569
0.000461653
0.000459882
0.000458264
0.000456802
0.000455495
0.000454341
0.000453337
0.000452476
0.000451751
0.000451155
0.00045068
0.000450317
0.000450057
0.000449892
0.000449814
0.000443732
0.000442715
0.000441311
0.000439614
0.000437708
0.000435665
0.000433548
0.00043141
0.000429294
0.000427236
0.000425263
0.000423397
0.000421653
0.000420041
0.000418568
0.000417237
0.000416048
0.000414998
0.000414084
0.000413301
0.000412641
0.000412099
0.000411666
0.000411336
0.000411099
0.000410949
0.000410878
0.000405448
0.000404522
0.000403243
0.000401698
0.000399962
0.000398102
0.000396174
0.000394227
0.0003923
0.000390427
0.000388631
0.000386932
0.000385344
0.000383877
0.000382536
0.000381325
0.000380242
0.000379287
0.000378455
0.000377741
0.000377141
0.000376648
0.000376254
0.000375953
0.000375738
0.000375601
0.000375537
0.000370687
0.000369844
0.000368679
0.000367272
0.000365691
0.000363997
0.000362242
0.000360469
0.000358715
0.000357009
0.000355374
0.000353828
0.000352382
0.000351047
0.000349827
0.000348724
0.000347738
0.000346869
0.000346112
0.000345463
0.000344916
0.000344467
0.000344109
0.000343835
0.000343639
0.000343515
0.000343456
0.000339124
0.000338356
0.000337296
0.000336015
0.000334576
0.000333034
0.000331436
0.000329822
0.000328225
0.000326672
0.000325184
0.000323776
0.000322461
0.000321246
0.000320135
0.000319131
0.000318235
0.000317444
0.000316755
0.000316164
0.000315667
0.000315259
0.000314933
0.000314684
0.000314505
0.000314392
0.000314339
0.00031047
0.000309771
0.000308806
0.00030764
0.00030633
0.000304927
0.000303472
0.000302004
0.000300551
0.000299138
0.000297784
0.000296503
0.000295307
0.000294201
0.000293191
0.000292278
0.000291462
0.000290743
0.000290116
0.000289579
0.000289127
0.000288755
0.000288459
0.000288232
0.00028807
0.000287968
0.000287919
0.000284465
0.000283829
0.000282952
0.000281891
0.000280699
0.000279423
0.0002781
0.000276765
0.000275444
0.000274159
0.000272927
0.000271763
0.000270675
0.00026967
0.000268752
0.000267922
0.00026718
0.000266526
0.000265957
0.000265468
0.000265058
0.00026472
0.000264451
0.000264245
0.000264098
0.000264004
0.00026396
0.000260879
0.000260301
0.000259504
0.00025854
0.000257457
0.000256297
0.000255095
0.000253881
0.000252681
0.000251514
0.000250395
0.000249337
0.000248349
0.000247436
0.000246602
0.000245848
0.000245175
0.000244581
0.000244064
0.000243621
0.000243248
0.000242941
0.000242696
0.00024251
0.000242376
0.000242291
0.000242251
0.000239506
0.000238982
0.000238258
0.000237382
0.0002364
0.000235347
0.000234256
0.000233154
0.000232065
0.000231006
0.000229991
0.000229031
0.000228135
0.000227306
0.00022655
0.000225866
0.000225255
0.000224717
0.000224248
0.000223846
0.000223508
0.00022323
0.000223008
0.000222838
0.000222717
0.00022264
0.000222604
0.000220164
0.000219688
0.000219032
0.000218238
0.000217348
0.000216393
0.000215405
0.000214407
0.00021342
0.00021246
0.000211541
0.000210671
0.000209859
0.000209109
0.000208424
0.000207805
0.000207252
0.000206764
0.00020634
0.000205976
0.00020567
0.000205418
0.000205218
0.000205064
0.000204955
0.000204885
0.000204852
0.000202688
0.000202257
0.000201664
0.000200946
0.00020014
0.000199277
0.000198383
0.000197481
0.000196589
0.000195721
0.00019489
0.000194104
0.00019337
0.000192693
0.000192074
0.000191514
0.000191015
0.000190574
0.000190191
0.000189862
0.000189586
0.000189358
0.000189177
0.000189039
0.00018894
0.000188877
0.000188847
0.000186934
0.000186546
0.00018601
0.000185363
0.000184636
0.000183857
0.000183051
0.000182237
0.000181433
0.000180651
0.000179901
0.000179193
0.000178532
0.000177921
0.000177363
0.00017686
0.00017641
0.000176013
0.000175667
0.000175371
0.000175122
0.000174918
0.000174755
0.00017463
0.000174541
0.000174484
0.000174457
0.000172774
0.000172425
0.000171943
0.000171361
0.000170708
0.000170008
0.000169283
0.000168552
0.000167829
0.000167126
0.000166454
0.000165818
0.000165224
0.000164675
0.000164175
0.000163723
0.000163319
0.000162963
0.000162653
0.000162387
0.000162164
0.00016198
0.000161834
0.000161722
0.000161642
0.000161591
0.000161567
0.000160095
0.000159782
0.000159351
0.00015883
0.000158245
0.000157618
0.00015697
0.000156316
0.000155669
0.000155041
0.000154439
0.000153871
0.00015334
0.00015285
0.000152402
0.000151998
0.000151638
0.00015132
0.000151043
0.000150806
0.000150607
0.000150443
0.000150312
0.000150212
0.000150141
0.000150096
0.000150074
0.000148796
0.000148517
0.000148133
0.000147669
0.000147148
0.000146591
0.000146014
0.000145432
0.000144857
0.000144298
0.000143763
0.000143258
0.000142786
0.000142351
0.000141954
0.000141595
0.000141275
0.000140992
0.000140747
0.000140536
0.000140359
0.000140214
0.000140098
0.00014001
0.000139946
0.000139906
0.000139887
0.000138788
0.000138542
0.000138202
0.000137792
0.000137331
0.000136839
0.000136329
0.000135815
0.000135307
0.000134814
0.000134342
0.000133896
0.00013348
0.000133096
0.000132746
0.00013243
0.000132148
0.000131899
0.000131683
0.000131497
0.000131342
0.000131214
0.000131112
0.000131034
0.000130978
0.000130943
0.000130926
0.000129992
0.000129776
0.000129478
0.000129119
0.000128715
0.000128284
0.000127838
0.000127388
0.000126943
0.000126512
0.000126099
0.000125709
0.000125346
0.000125011
0.000124705
0.000124429
0.000124183
0.000123966
0.000123777
0.000123616
0.00012348
0.000123368
0.00012328
0.000123212
0.000123163
0.000123132
0.000123118
0.000122337
0.00012215
0.000121891
0.00012158
0.00012123
0.000120857
0.00012047
0.000120081
0.000119696
0.000119323
0.000118967
0.00011863
0.000118316
0.000118027
0.000117763
0.000117525
0.000117313
0.000117126
0.000116964
0.000116825
0.000116708
0.000116612
0.000116535
0.000116477
0.000116435
0.000116409
0.000116396
0.000115756
0.000115596
0.000115375
0.000115109
0.00011481
0.000114491
0.000114161
0.000113829
0.000113501
0.000113183
0.00011288
0.000112593
0.000112326
0.000112081
0.000111856
0.000111654
0.000111474
0.000111316
0.000111178
0.00011106
0.000110961
0.000110879
0.000110815
0.000110765
0.00011073
0.000110707
0.000110697
0.000110185
0.000110051
0.000109865
0.000109641
0.000109391
0.000109123
0.000108846
0.000108568
0.000108294
0.000108028
0.000107774
0.000107535
0.000107312
0.000107107
0.00010692
0.000106752
0.000106602
0.00010647
0.000106355
0.000106257
0.000106175
0.000106107
0.000106054
0.000106013
0.000105983
0.000105965
0.000105956
0.00010556
0.000105449
0.000105296
0.000105112
0.000104907
0.000104687
0.00010446
0.000104232
0.000104008
0.000103791
0.000103583
0.000103388
0.000103206
0.000103039
0.000102887
0.00010275
0.000102628
0.000102521
0.000102428
0.000102349
0.000102282
0.000102227
0.000102184
0.00010215
0.000102127
0.000102112
0.000102104
0.000101809
0.000101721
0.000101599
0.000101451
0.000101287
0.000101112
0.000100931
0.000100749
0.000100571
0.000100398
0.000100234
0.000100079
9.99352e-05
9.9803e-05
9.96829e-05
9.95748e-05
9.94786e-05
9.93942e-05
9.93209e-05
9.92583e-05
9.92058e-05
9.91628e-05
9.91285e-05
9.91025e-05
9.90838e-05
9.9072e-05
9.90664e-05
9.88566e-05
9.87879e-05
9.86934e-05
9.85797e-05
9.84527e-05
9.83174e-05
9.81782e-05
9.80386e-05
9.79014e-05
9.77689e-05
9.76429e-05
9.75245e-05
9.74147e-05
9.73138e-05
9.72223e-05
9.714e-05
9.70669e-05
9.70028e-05
9.69472e-05
9.68997e-05
9.686e-05
9.68274e-05
9.68015e-05
9.67818e-05
9.67677e-05
9.67588e-05
9.67546e-05
9.66133e-05
9.65622e-05
9.6492e-05
9.64076e-05
9.63135e-05
9.62134e-05
9.61105e-05
9.60075e-05
9.59065e-05
9.58091e-05
9.57166e-05
9.56299e-05
9.55495e-05
9.54759e-05
9.54091e-05
9.53492e-05
9.52961e-05
9.52495e-05
9.52092e-05
9.51748e-05
9.51461e-05
9.51225e-05
9.51038e-05
9.50895e-05
9.50794e-05
9.5073e-05
9.50699e-05
9.49801e-05
9.4944e-05
9.48943e-05
9.48347e-05
9.47683e-05
9.46978e-05
9.46255e-05
9.45533e-05
9.44826e-05
9.44146e-05
9.43501e-05
9.42898e-05
9.4234e-05
9.41829e-05
9.41368e-05
9.40954e-05
9.40588e-05
9.40267e-05
9.3999e-05
9.39754e-05
9.39557e-05
9.39395e-05
9.39267e-05
9.3917e-05
9.39101e-05
9.39057e-05
9.39036e-05
9.38493e-05
9.38252e-05
9.3792e-05
9.37523e-05
9.37081e-05
9.36613e-05
9.36135e-05
9.35657e-05
9.35191e-05
9.34743e-05
9.3432e-05
9.33925e-05
9.33561e-05
9.33228e-05
9.32928e-05
9.32659e-05
9.32422e-05
9.32214e-05
9.32035e-05
9.31883e-05
9.31756e-05
9.31652e-05
9.3157e-05
9.31507e-05
9.31463e-05
9.31435e-05
9.31421e-05
9.311e-05
9.30949e-05
9.30742e-05
9.30495e-05
9.3022e-05
9.2993e-05
9.29633e-05
9.29338e-05
9.29051e-05
9.28776e-05
9.28517e-05
9.28275e-05
9.28053e-05
9.2785e-05
9.27668e-05
9.27505e-05
9.27361e-05
9.27236e-05
9.27128e-05
9.27037e-05
9.2696e-05
9.26898e-05
9.26848e-05
9.26811e-05
9.26784e-05
9.26768e-05
9.2676e-05
9.26561e-05
9.26473e-05
9.26354e-05
9.26211e-05
9.26052e-05
9.25885e-05
9.25714e-05
9.25545e-05
9.25381e-05
9.25224e-05
9.25076e-05
9.24939e-05
9.24812e-05
9.24698e-05
9.24595e-05
9.24503e-05
9.24422e-05
9.24351e-05
9.24291e-05
9.24239e-05
9.24197e-05
9.24162e-05
9.24134e-05
9.24113e-05
9.24098e-05
9.24089e-05
9.24084e-05
9.23949e-05
9.23902e-05
9.23838e-05
9.23761e-05
9.23677e-05
9.23587e-05
9.23496e-05
9.23406e-05
9.23318e-05
9.23235e-05
9.23156e-05
9.23083e-05
9.23016e-05
9.22955e-05
9.22901e-05
9.22852e-05
9.22809e-05
9.22772e-05
9.2274e-05
9.22713e-05
9.2269e-05
9.22672e-05
9.22657e-05
9.22646e-05
9.22638e-05
9.22633e-05
9.22631e-05
9.22531e-05
9.22508e-05
9.22476e-05
9.22437e-05
9.22394e-05
9.22349e-05
9.22303e-05
9.22257e-05
9.22213e-05
9.2217e-05
9.2213e-05
9.22092e-05
9.22058e-05
9.22026e-05
9.21998e-05
9.21973e-05
9.2195e-05
9.21931e-05
9.21914e-05
9.219e-05
9.21888e-05
9.21878e-05
9.21871e-05
9.21865e-05
9.21861e-05
9.21858e-05
9.21857e-05
9.21788e-05
9.21776e-05
9.2176e-05
9.21741e-05
9.2172e-05
9.21697e-05
9.21674e-05
9.21652e-05
9.21629e-05
9.21608e-05
9.21587e-05
9.21569e-05
9.21551e-05
9.21535e-05
9.21521e-05
9.21508e-05
9.21496e-05
9.21487e-05
9.21478e-05
9.21471e-05
9.21465e-05
9.2146e-05
9.21456e-05
9.21453e-05
9.2145e-05
9.21449e-05
9.21448e-05
9.21399e-05
9.21394e-05
9.21386e-05
9.21377e-05
9.21367e-05
9.21356e-05
9.21345e-05
9.21334e-05
9.21323e-05
9.21312e-05
9.21302e-05
9.21293e-05
9.21285e-05
9.21277e-05
9.2127e-05
9.21263e-05
9.21258e-05
9.21253e-05
9.21249e-05
9.21245e-05
9.21242e-05
9.21239e-05
9.21238e-05
9.21236e-05
9.21235e-05
9.21234e-05
9.21234e-05
9.21198e-05
9.21195e-05
9.21192e-05
9.21188e-05
9.21183e-05
9.21179e-05
9.21174e-05
9.21169e-05
9.21164e-05
9.21159e-05
9.21155e-05
9.21151e-05
9.21147e-05
9.21144e-05
9.21141e-05
9.21138e-05
9.21136e-05
9.21134e-05
9.21132e-05
9.21131e-05
9.21129e-05
9.21128e-05
9.21128e-05
9.21127e-05
9.21127e-05
9.21126e-05
9.21126e-05
9.21096e-05
9.21096e-05
9.21095e-05
9.21094e-05
9.21092e-05
9.21091e-05
9.21089e-05
9.21088e-05
9.21087e-05
9.21086e-05
9.21085e-05
9.21084e-05
9.21083e-05
9.21082e-05
9.21082e-05
9.21081e-05
9.21081e-05
9.21081e-05
9.2108e-05
9.2108e-05
9.2108e-05
9.2108e-05
9.2108e-05
9.2108e-05
9.2108e-05
9.2108e-05
9.2108e-05
9.21052e-05
9.21052e-05
9.21053e-05
9.21053e-05
9.21054e-05
9.21055e-05
9.21055e-05
9.21056e-05
9.21057e-05
9.21058e-05
9.21059e-05
9.2106e-05
9.21061e-05
9.21062e-05
9.21063e-05
9.21064e-05
9.21065e-05
9.21066e-05
9.21067e-05
9.21068e-05
9.21068e-05
9.21069e-05
9.21069e-05
9.2107e-05
9.2107e-05
9.2107e-05