/*--------------------------------*- C++ -*----------------------------------*\
| =========                 |                                                 |
| \\      /  F ield         | OpenFOAM: The Open Source CFD Toolbox           |
|  \\    /   O peration     | Version:  2106                                  |
|   \\  /    A nd           | Website:  www.openfoam.com                      |
|    \\/     M anipulation  |                                                 |
\*---------------------------------------------------------------------------*/
FoamFile
{
    version     2.0;
    format      ascii;
    arch        "LSB;label=32;scalar=64";
    class       volScalarField;
    location    "149.99958";
    object      H_0;
}
// * * * * * * * * * * * * * * * * * * * * * * * * * * * * * * * * * * * * * //

dimensions      [0 0 0 0 0 0 0];

internalField   nonuniform List<scalar> 
3360
(
1.73709e-26
1.79301e-26
1.87081e-26
1.96599e-26
2.07456e-26
2.19298e-26
2.31801e-26
2.44676e-26
2.57664e-26
2.70537e-26
2.83097e-26
2.95177e-26
3.06636e-26
3.17365e-26
3.27281e-26
3.36323e-26
3.44456e-26
3.51665e-26
3.57952e-26
3.63336e-26
3.6785e-26
3.71537e-26
3.74448e-26
3.76645e-26
3.7819e-26
3.79151e-26
3.79598e-26
7.62154e-26
7.90174e-26
8.29715e-26
8.78956e-26
9.3639e-26
1.0007e-25
1.07071e-25
1.14535e-25
1.22361e-25
1.30455e-25
1.38726e-25
1.47086e-25
1.55448e-25
1.63725e-25
1.71833e-25
1.79689e-25
1.87212e-25
1.94322e-25
2.00943e-25
2.07006e-25
2.12445e-25
2.17202e-25
2.21228e-25
2.24485e-25
2.26942e-25
2.28583e-25
2.29401e-25
2.39209e-25
2.4971e-25
2.64632e-25
2.83382e-25
3.0547e-25
3.30454e-25
3.57913e-25
3.87436e-25
4.18602e-25
4.50984e-25
4.84146e-25
5.17654e-25
5.51077e-25
5.83992e-25
6.15989e-25
6.46679e-25
6.757e-25
7.02729e-25
7.27486e-25
7.49739e-25
7.69306e-25
7.86063e-25
7.99934e-25
8.10898e-25
8.1898e-25
8.24251e-25
8.26817e-25
6.96932e-25
7.31557e-25
7.81091e-25
8.43761e-25
9.18086e-25
1.00268e-24
1.09615e-24
1.19707e-24
1.30392e-24
1.41513e-24
1.52904e-24
1.644e-24
1.75835e-24
1.87047e-24
1.97885e-24
2.08207e-24
2.17889e-24
2.26824e-24
2.34929e-24
2.42139e-24
2.48412e-24
2.53727e-24
2.58079e-24
2.61483e-24
2.63967e-24
2.65571e-24
2.66344e-24
2.03727e-24
2.14658e-24
2.30323e-24
2.5019e-24
2.73803e-24
3.00727e-24
3.30514e-24
3.62687e-24
3.9674e-24
4.32139e-24
4.68331e-24
5.04759e-24
5.40877e-24
5.76161e-24
6.10129e-24
6.42347e-24
6.72442e-24
7.00105e-24
7.25097e-24
7.47246e-24
7.66449e-24
7.82663e-24
7.95902e-24
8.06227e-24
8.13741e-24
8.18582e-24
8.20912e-24
6.01136e-24
6.34734e-24
6.82951e-24
7.44152e-24
8.1694e-24
8.9996e-24
9.91811e-24
1.091e-23
1.19593e-23
1.30493e-23
1.41625e-23
1.52816e-23
1.63897e-23
1.74705e-23
1.85092e-23
1.94927e-23
2.04097e-23
2.12512e-23
2.201e-23
2.26815e-23
2.32626e-23
2.37526e-23
2.4152e-23
2.44631e-23
2.46893e-23
2.48348e-23
2.49048e-23
1.78773e-23
1.88999e-23
2.03675e-23
2.22306e-23
2.44465e-23
2.69735e-23
2.97686e-23
3.27857e-23
3.59757e-23
3.92869e-23
4.26664e-23
4.60612e-23
4.94195e-23
5.26927e-23
5.58361e-23
5.88103e-23
6.15818e-23
6.41234e-23
6.64145e-23
6.84409e-23
7.01943e-23
7.16723e-23
7.28771e-23
7.38154e-23
7.44976e-23
7.49366e-23
7.51476e-23
5.33845e-23
5.64711e-23
6.09036e-23
6.65335e-23
7.32328e-23
8.08762e-23
8.93331e-23
9.84639e-23
1.0812e-22
1.18144e-22
1.28376e-22
1.38654e-22
1.48822e-22
1.58733e-22
1.6825e-22
1.77255e-22
1.85647e-22
1.93342e-22
2.00279e-22
2.06415e-22
2.11725e-22
2.16202e-22
2.19852e-22
2.22695e-22
2.24764e-22
2.26096e-22
2.26736e-22
1.6008e-22
1.6941e-22
1.82809e-22
1.99831e-22
2.20094e-22
2.43219e-22
2.68814e-22
2.9646e-22
3.25705e-22
3.56077e-22
3.8709e-22
4.18257e-22
4.49106e-22
4.79187e-22
5.08092e-22
5.35458e-22
5.60977e-22
5.84397e-22
6.05527e-22
6.24235e-22
6.40443e-22
6.54123e-22
6.65293e-22
6.7401e-22
6.80361e-22
6.84459e-22
6.86436e-22
4.81344e-22
5.09576e-22
5.50151e-22
6.01738e-22
6.63193e-22
7.33398e-22
8.1118e-22
8.95279e-22
9.84346e-22
1.07695e-21
1.17163e-21
1.2669e-21
1.36131e-21
1.4535e-21
1.54221e-21
1.6263e-21
1.70484e-21
1.77703e-21
1.84227e-21
1.90013e-21
1.95036e-21
1.99285e-21
2.02763e-21
2.05484e-21
2.07474e-21
2.08763e-21
2.09387e-21
1.45474e-21
1.54079e-21
1.66453e-21
1.82201e-21
2.00984e-21
2.2247e-21
2.46312e-21
2.72132e-21
2.99526e-21
3.28064e-21
3.57296e-21
3.86773e-21
4.16048e-21
4.44699e-21
4.72331e-21
4.98595e-21
5.23185e-21
5.45852e-21
5.66398e-21
5.84679e-21
6.00605e-21
6.1413e-21
6.2525e-21
6.33995e-21
6.40425e-21
6.44617e-21
6.46663e-21
4.42532e-21
4.69005e-21
5.07128e-21
5.55725e-21
6.13805e-21
6.80399e-21
7.54483e-21
8.34943e-21
9.20561e-21
1.01003e-20
1.10198e-20
1.19502e-20
1.28775e-20
1.37882e-20
1.467e-20
1.55113e-20
1.63022e-20
1.70343e-20
1.7701e-20
1.82971e-20
1.88191e-20
1.9265e-20
1.9634e-20
1.99263e-20
2.0143e-20
2.02855e-20
2.03559e-20
1.36054e-20
1.44334e-20
1.56278e-20
1.71541e-20
1.89836e-20
2.10883e-20
2.34385e-20
2.60012e-20
2.874e-20
3.1615e-20
3.45838e-20
3.76023e-20
4.0626e-20
4.36114e-20
4.65172e-20
4.93052e-20
5.19414e-20
5.43966e-20
5.66465e-20
5.86721e-20
6.0459e-20
6.19976e-20
6.3282e-20
6.43092e-20
6.50785e-20
6.55906e-20
6.58465e-20
4.24502e-20
4.50969e-20
4.89257e-20
5.3836e-20
5.97472e-20
6.65813e-20
7.42539e-20
8.26693e-20
9.1718e-20
1.01277e-19
1.11214e-19
1.21384e-19
1.31643e-19
1.41843e-19
1.51841e-19
1.61505e-19
1.70711e-19
1.79351e-19
1.87333e-19
1.9458e-19
2.01031e-19
2.06639e-19
2.11368e-19
2.15192e-19
2.18089e-19
2.20043e-19
2.21031e-19
1.35437e-19
1.44169e-19
1.56847e-19
1.73185e-19
1.92967e-19
2.15988e-19
2.42018e-19
2.70784e-19
3.01961e-19
3.35166e-19
3.69968e-19
4.05893e-19
4.42437e-19
4.79084e-19
5.15321e-19
5.50651e-19
5.8461e-19
6.16772e-19
6.46762e-19
6.74252e-19
6.98967e-19
7.20675e-19
7.39178e-19
7.54308e-19
7.65908e-19
7.7382e-19
7.77874e-19
4.4574e-19
4.75739e-19
5.19506e-19
5.76265e-19
6.455e-19
7.26739e-19
8.19418e-19
9.22802e-19
1.03593e-18
1.15762e-18
1.28641e-18
1.42067e-18
1.5586e-18
1.69826e-18
1.83771e-18
1.97497e-18
2.10817e-18
2.23553e-18
2.35544e-18
2.46642e-18
2.56717e-18
2.65654e-18
2.73347e-18
2.797e-18
2.84618e-18
2.88005e-18
2.89757e-18
1.53189e-18
1.6405e-18
1.79987e-18
2.00808e-18
2.26428e-18
2.56779e-18
2.91757e-18
3.31187e-18
3.74797e-18
4.22205e-18
4.72915e-18
5.26329e-18
5.81757e-18
6.38442e-18
6.95583e-18
7.52363e-18
8.0797e-18
8.61622e-18
9.12579e-18
9.60151e-18
1.0037e-17
1.04265e-17
1.07645e-17
1.10457e-17
1.12649e-17
1.14169e-17
1.14959e-17
5.57643e-18
5.99532e-18
6.6139e-18
7.42861e-18
8.44041e-18
9.65113e-18
1.10611e-17
1.26675e-17
1.44631e-17
1.64352e-17
1.85659e-17
2.08319e-17
2.32051e-17
2.56535e-17
2.81424e-17
3.06355e-17
3.30958e-17
3.54869e-17
3.77736e-17
3.99224e-17
4.19018e-17
4.36818e-17
4.52342e-17
4.65315e-17
4.75467e-17
4.82523e-17
4.86201e-17
2.18416e-17
2.35798e-17
2.61623e-17
2.95894e-17
3.38821e-17
3.90654e-17
4.51577e-17
5.2162e-17
6.00598e-17
6.88071e-17
7.83324e-17
8.85369e-17
9.92973e-17
1.10469e-16
1.21893e-16
1.33398e-16
1.44808e-16
1.55949e-16
1.66647e-16
1.76736e-16
1.86059e-16
1.94464e-16
2.01808e-16
2.07952e-16
2.12761e-16
2.16101e-16
2.17839e-16
9.33368e-17
1.01143e-16
1.12796e-16
1.28349e-16
1.47951e-16
1.7177e-16
1.99936e-16
2.32504e-16
2.69416e-16
3.10485e-16
3.55387e-16
4.03658e-16
4.5471e-16
5.07849e-16
5.62301e-16
6.17234e-16
6.71794e-16
7.25118e-16
7.7636e-16
8.247e-16
8.69357e-16
9.09589e-16
9.44692e-16
9.74e-16
9.96877e-16
1.01271e-15
1.02092e-15
4.38561e-16
4.76582e-16
5.3347e-16
6.096e-16
7.05795e-16
8.22932e-16
9.61663e-16
1.1222e-15
1.30418e-15
1.50655e-15
1.72754e-15
1.96472e-15
2.21503e-15
2.47493e-15
2.74053e-15
3.00768e-15
3.27219e-15
3.52984e-15
3.77656e-15
4.00845e-15
4.22181e-15
4.41321e-15
4.57943e-15
4.71751e-15
4.82469e-15
4.89844e-15
4.9364e-15
2.25437e-15
2.45473e-15
2.7547e-15
3.15626e-15
3.66356e-15
4.28075e-15
5.01048e-15
5.85282e-15
6.80448e-15
7.85847e-15
9.00402e-15
1.02269e-14
1.151e-14
1.2834e-14
1.41779e-14
1.55202e-14
1.68395e-14
1.81148e-14
1.93262e-14
2.04554e-14
2.14855e-14
2.24012e-14
2.31892e-14
2.38375e-14
2.43358e-14
2.46752e-14
2.48481e-14
1.24022e-14
1.35385e-14
1.52427e-14
1.75294e-14
2.04255e-14
2.39587e-14
2.81483e-14
3.29995e-14
3.84982e-14
4.46094e-14
5.12757e-14
5.84193e-14
6.59434e-14
7.37363e-14
8.16748e-14
8.96291e-14
9.74656e-14
1.05052e-13
1.1226e-13
1.1897e-13
1.25074e-13
1.30475e-13
1.35091e-13
1.38856e-13
1.41719e-13
1.43644e-13
1.4461e-13
7.09803e-14
7.78948e-14
8.83425e-14
1.02502e-13
1.20663e-13
1.43156e-13
1.703e-13
2.02361e-13
2.39511e-13
2.818e-13
3.29128e-13
3.81228e-13
4.3765e-13
4.97765e-13
5.60766e-13
6.2569e-13
6.9144e-13
7.56824e-13
8.20581e-13
8.81431e-13
9.38109e-13
9.89403e-13
1.03418e-12
1.07144e-12
1.10031e-12
1.12005e-12
1.13012e-12
4.30013e-13
4.76576e-13
5.47694e-13
6.45418e-13
7.72768e-13
9.33231e-13
1.13036e-12
1.36742e-12
1.64693e-12
1.97034e-12
2.33757e-12
2.74669e-12
3.19364e-12
3.67219e-12
4.17408e-12
4.68944e-12
5.20734e-12
5.71644e-12
6.20566e-12
6.66471e-12
7.08443e-12
7.45706e-12
7.77623e-12
8.03695e-12
8.23551e-12
8.36927e-12
8.43658e-12
2.96962e-12
3.30784e-12
3.82258e-12
4.52467e-12
5.4276e-12
6.54152e-12
7.8681e-12
9.39672e-12
1.11028e-11
1.2949e-11
1.48891e-11
1.68735e-11
1.88544e-11
2.07896e-11
2.26444e-11
2.43917e-11
2.60116e-11
2.749e-11
2.88178e-11
2.99896e-11
3.10033e-11
3.18591e-11
3.25592e-11
3.31076e-11
3.35091e-11
3.377e-11
3.38968e-11
1.92043e-11
2.08821e-11
2.33197e-11
2.64515e-11
3.02119e-11
3.45265e-11
3.93115e-11
4.44765e-11
4.99277e-11
5.55702e-11
6.13107e-11
6.70589e-11
7.27301e-11
7.82466e-11
8.35383e-11
8.854e-11
9.31974e-11
9.74673e-11
1.01317e-10
1.04724e-10
1.07675e-10
1.10166e-10
1.12201e-10
1.13789e-10
1.14947e-10
1.15695e-10
1.16055e-10
7.09194e-11
7.5945e-11
8.32463e-11
9.26602e-11
1.04063e-10
1.17336e-10
1.32327e-10
1.48864e-10
1.66745e-10
1.8574e-10
2.05596e-10
2.26036e-10
2.46772e-10
2.67506e-10
2.87946e-10
3.07806e-10
3.26814e-10
3.44722e-10
3.61308e-10
3.76378e-10
3.89773e-10
4.01368e-10
4.1107e-10
4.18824e-10
4.24603e-10
4.28414e-10
4.30291e-10
1.97913e-10
2.1288e-10
2.34882e-10
2.63707e-10
2.99303e-10
3.4167e-10
3.90785e-10
4.46558e-10
5.08789e-10
5.77147e-10
6.51141e-10
7.30112e-10
8.13235e-10
8.99523e-10
9.87841e-10
1.07693e-09
1.16543e-09
1.25193e-09
1.33497e-09
1.41314e-09
1.48503e-09
1.54937e-09
1.60497e-09
1.6508e-09
1.68601e-09
1.70991e-09
1.72201e-09
5.06752e-10
5.48349e-10
6.10147e-10
6.92234e-10
7.95294e-10
9.20267e-10
1.0681e-09
1.23957e-09
1.43509e-09
1.65507e-09
1.89881e-09
2.16489e-09
2.45112e-09
2.75449e-09
3.07121e-09
3.3968e-09
3.72615e-09
4.05368e-09
4.37353e-09
4.67939e-09
4.96539e-09
5.22542e-09
5.45353e-09
5.64429e-09
5.79276e-09
5.8948e-09
5.94706e-09
1.29253e-09
1.39688e-09
1.55211e-09
1.75857e-09
2.01812e-09
2.33315e-09
2.70602e-09
3.13858e-09
3.63176e-09
4.18522e-09
4.79717e-09
5.46417e-09
6.18072e-09
6.93783e-09
7.72492e-09
8.52996e-09
9.33972e-09
1.01401e-08
1.09165e-08
1.16544e-08
1.23391e-08
1.29573e-08
1.34961e-08
1.39439e-08
1.42909e-08
1.45285e-08
1.46499e-08
3.23548e-09
3.45588e-09
3.781e-09
4.20902e-09
4.74091e-09
5.37612e-09
6.11394e-09
6.95235e-09
7.88736e-09
8.91257e-09
1.0019e-08
1.11951e-08
1.24267e-08
1.36978e-08
1.49905e-08
1.62855e-08
1.75632e-08
1.88033e-08
1.99859e-08
2.10922e-08
2.21044e-08
2.30059e-08
2.37819e-08
2.44198e-08
2.49091e-08
2.5241e-08
2.54092e-08
7.17276e-09
7.53808e-09
8.06746e-09
8.74806e-09
9.57001e-09
1.0524e-08
1.16e-08
1.27867e-08
1.4071e-08
1.5438e-08
1.68709e-08
1.83516e-08
1.9861e-08
2.13793e-08
2.28862e-08
2.4362e-08
2.57869e-08
2.71428e-08
2.84125e-08
2.95804e-08
3.06324e-08
3.15559e-08
3.23402e-08
3.29774e-08
3.34606e-08
3.37852e-08
3.39481e-08
1.30002e-08
1.34504e-08
1.40925e-08
1.4901e-08
1.58542e-08
1.69319e-08
1.81144e-08
1.9382e-08
2.07153e-08
2.20949e-08
2.35019e-08
2.49176e-08
2.63244e-08
2.77053e-08
2.90447e-08
3.03284e-08
3.15434e-08
3.26782e-08
3.37225e-08
3.46678e-08
3.55066e-08
3.62329e-08
3.68422e-08
3.73312e-08
3.76982e-08
3.79423e-08
3.80638e-08
1.94024e-08
1.98292e-08
2.04294e-08
2.11719e-08
2.20291e-08
2.29761e-08
2.39901e-08
2.50499e-08
2.61364e-08
2.72323e-08
2.83221e-08
2.93921e-08
3.04304e-08
3.14269e-08
3.2373e-08
3.32613e-08
3.40861e-08
3.48426e-08
3.55272e-08
3.61372e-08
3.66708e-08
3.71268e-08
3.75047e-08
3.78046e-08
3.80274e-08
3.81741e-08
3.82463e-08
2.48073e-08
2.51243e-08
2.55646e-08
2.61003e-08
2.6707e-08
2.73629e-08
2.80489e-08
2.87487e-08
2.94482e-08
3.01358e-08
3.08023e-08
3.14402e-08
3.20439e-08
3.26091e-08
3.31332e-08
3.36141e-08
3.40509e-08
3.44432e-08
3.47914e-08
3.50959e-08
3.53577e-08
3.55778e-08
3.57576e-08
3.58983e-08
3.60016e-08
3.60688e-08
3.61016e-08
2.83123e-08
2.84895e-08
2.87318e-08
2.90209e-08
2.93405e-08
2.96766e-08
3.00173e-08
3.03533e-08
3.06772e-08
3.09836e-08
3.12686e-08
3.15301e-08
3.17668e-08
3.19787e-08
3.21661e-08
3.23301e-08
3.24721e-08
3.25936e-08
3.26963e-08
3.27819e-08
3.28521e-08
3.29085e-08
3.29526e-08
3.29856e-08
3.30088e-08
3.30234e-08
3.30303e-08
2.98312e-08
2.98839e-08
2.99527e-08
3.00296e-08
3.01075e-08
3.01806e-08
3.02444e-08
3.0296e-08
3.03335e-08
3.03562e-08
3.03644e-08
3.03588e-08
3.03411e-08
3.0313e-08
3.02764e-08
3.02335e-08
3.01864e-08
3.01371e-08
3.00874e-08
3.0039e-08
2.99935e-08
2.99522e-08
2.99162e-08
2.98863e-08
2.98633e-08
2.98476e-08
2.98397e-08
2.9775e-08
2.97381e-08
2.96833e-08
2.96109e-08
2.95214e-08
2.94153e-08
2.9294e-08
2.91588e-08
2.90119e-08
2.88554e-08
2.8692e-08
2.85242e-08
2.83546e-08
2.81857e-08
2.80201e-08
2.786e-08
2.77074e-08
2.75642e-08
2.74319e-08
2.73119e-08
2.72053e-08
2.71129e-08
2.70354e-08
2.69734e-08
2.69269e-08
2.6896e-08
2.68807e-08
2.86867e-08
2.85955e-08
2.84664e-08
2.83054e-08
2.81177e-08
2.79084e-08
2.76818e-08
2.74425e-08
2.71945e-08
2.69417e-08
2.66877e-08
2.64358e-08
2.61891e-08
2.59502e-08
2.57215e-08
2.55051e-08
2.53029e-08
2.51162e-08
2.49464e-08
2.47944e-08
2.46609e-08
2.45464e-08
2.44513e-08
2.43756e-08
2.43194e-08
2.42823e-08
2.4264e-08
2.70427e-08
2.69246e-08
2.6759e-08
2.65551e-08
2.63208e-08
2.60631e-08
2.57885e-08
2.55026e-08
2.52106e-08
2.4917e-08
2.46258e-08
2.43406e-08
2.40643e-08
2.37995e-08
2.35485e-08
2.3313e-08
2.30946e-08
2.28944e-08
2.27134e-08
2.25523e-08
2.24116e-08
2.22914e-08
2.2192e-08
2.21132e-08
2.20547e-08
2.20163e-08
2.19974e-08
2.51429e-08
2.5019e-08
2.4846e-08
2.4634e-08
2.43919e-08
2.41271e-08
2.38449e-08
2.35508e-08
2.32512e-08
2.29513e-08
2.26554e-08
2.2367e-08
2.2089e-08
2.18239e-08
2.15737e-08
2.13399e-08
2.1124e-08
2.09267e-08
2.07489e-08
2.05911e-08
2.04536e-08
2.03365e-08
2.02398e-08
2.01632e-08
2.01066e-08
2.00694e-08
2.00511e-08
2.32508e-08
2.31291e-08
2.29595e-08
2.27523e-08
2.25161e-08
2.22587e-08
2.19867e-08
2.17057e-08
2.14186e-08
2.11313e-08
2.0848e-08
2.05725e-08
2.03076e-08
2.00555e-08
1.98181e-08
1.95967e-08
1.93926e-08
1.92065e-08
1.90391e-08
1.88906e-08
1.87615e-08
1.86516e-08
1.85609e-08
1.84892e-08
1.84362e-08
1.84015e-08
1.83844e-08
2.14752e-08
2.13603e-08
2.12006e-08
2.10056e-08
2.07838e-08
2.05424e-08
2.02878e-08
2.00254e-08
1.97591e-08
1.94923e-08
1.92295e-08
1.89741e-08
1.87287e-08
1.84954e-08
1.8276e-08
1.80716e-08
1.78833e-08
1.77118e-08
1.75576e-08
1.7421e-08
1.73022e-08
1.72012e-08
1.71179e-08
1.70521e-08
1.70034e-08
1.69715e-08
1.69558e-08
1.98592e-08
1.97534e-08
1.96063e-08
1.94268e-08
1.92229e-08
1.90012e-08
1.87676e-08
1.8527e-08
1.82832e-08
1.80392e-08
1.7799e-08
1.75657e-08
1.73418e-08
1.7129e-08
1.6929e-08
1.67428e-08
1.65713e-08
1.64152e-08
1.62748e-08
1.61506e-08
1.60425e-08
1.59507e-08
1.58749e-08
1.58151e-08
1.57708e-08
1.57418e-08
1.57275e-08
1.84129e-08
1.83167e-08
1.81829e-08
1.80198e-08
1.78346e-08
1.76332e-08
1.74211e-08
1.72028e-08
1.69811e-08
1.67597e-08
1.65419e-08
1.63304e-08
1.61276e-08
1.59349e-08
1.57538e-08
1.55853e-08
1.54301e-08
1.52888e-08
1.51618e-08
1.50494e-08
1.49516e-08
1.48685e-08
1.47999e-08
1.47457e-08
1.47057e-08
1.46794e-08
1.46665e-08
1.71297e-08
1.70428e-08
1.6922e-08
1.67747e-08
1.66074e-08
1.64255e-08
1.62338e-08
1.60365e-08
1.58357e-08
1.56354e-08
1.54385e-08
1.52476e-08
1.50644e-08
1.48905e-08
1.4727e-08
1.45748e-08
1.44347e-08
1.43071e-08
1.41924e-08
1.40908e-08
1.40025e-08
1.39274e-08
1.38654e-08
1.38164e-08
1.37802e-08
1.37564e-08
1.37448e-08
1.59954e-08
1.59171e-08
1.58083e-08
1.56755e-08
1.55246e-08
1.53605e-08
1.51875e-08
1.50088e-08
1.48273e-08
1.46465e-08
1.44688e-08
1.42965e-08
1.41312e-08
1.39743e-08
1.38267e-08
1.36893e-08
1.35628e-08
1.34476e-08
1.33439e-08
1.32521e-08
1.31723e-08
1.31044e-08
1.30483e-08
1.3004e-08
1.29712e-08
1.29497e-08
1.29392e-08
1.49933e-08
1.49228e-08
1.48247e-08
1.4705e-08
1.45689e-08
1.44208e-08
1.42645e-08
1.41025e-08
1.39383e-08
1.37748e-08
1.36143e-08
1.34586e-08
1.33093e-08
1.31674e-08
1.3034e-08
1.29098e-08
1.27954e-08
1.26911e-08
1.25973e-08
1.25142e-08
1.24418e-08
1.23803e-08
1.23295e-08
1.22893e-08
1.22596e-08
1.22401e-08
1.22305e-08
1.41065e-08
1.40429e-08
1.39544e-08
1.38464e-08
1.37234e-08
1.35896e-08
1.34473e-08
1.33003e-08
1.31515e-08
1.30034e-08
1.28581e-08
1.27172e-08
1.25819e-08
1.24534e-08
1.23325e-08
1.22199e-08
1.21161e-08
1.20215e-08
1.19364e-08
1.18609e-08
1.17952e-08
1.17393e-08
1.16931e-08
1.16566e-08
1.16296e-08
1.16118e-08
1.16031e-08
1.33193e-08
1.32617e-08
1.31816e-08
1.30837e-08
1.29722e-08
1.28501e-08
1.27207e-08
1.25871e-08
1.24521e-08
1.23177e-08
1.21858e-08
1.20579e-08
1.1935e-08
1.18183e-08
1.17084e-08
1.1606e-08
1.15116e-08
1.14255e-08
1.1348e-08
1.12793e-08
1.12194e-08
1.11684e-08
1.11263e-08
1.1093e-08
1.10684e-08
1.10522e-08
1.10442e-08
1.26177e-08
1.25655e-08
1.24926e-08
1.24037e-08
1.23019e-08
1.21902e-08
1.20722e-08
1.19506e-08
1.18276e-08
1.17053e-08
1.15852e-08
1.14687e-08
1.13568e-08
1.12503e-08
1.11501e-08
1.10567e-08
1.09705e-08
1.08919e-08
1.08211e-08
1.07583e-08
1.07036e-08
1.0657e-08
1.06185e-08
1.0588e-08
1.05654e-08
1.05505e-08
1.05433e-08
1.19898e-08
1.19423e-08
1.1876e-08
1.17944e-08
1.17008e-08
1.15986e-08
1.14907e-08
1.13796e-08
1.12673e-08
1.11556e-08
1.10459e-08
1.09394e-08
1.08371e-08
1.07398e-08
1.06481e-08
1.05625e-08
1.04836e-08
1.04116e-08
1.03467e-08
1.02891e-08
1.02389e-08
1.01961e-08
1.01607e-08
1.01327e-08
1.0112e-08
1.00984e-08
1.00917e-08
1.14259e-08
1.13823e-08
1.13209e-08
1.12454e-08
1.11593e-08
1.10656e-08
1.09668e-08
1.0865e-08
1.07622e-08
1.06598e-08
1.05592e-08
1.04616e-08
1.03677e-08
1.02784e-08
1.01942e-08
1.01156e-08
1.00431e-08
9.97683e-09
9.91714e-09
9.86415e-09
9.81794e-09
9.77855e-09
9.74599e-09
9.7202e-09
9.70108e-09
9.68852e-09
9.68234e-09
1.09158e-08
1.0875e-08
1.0818e-08
1.07485e-08
1.06694e-08
1.05833e-08
1.04925e-08
1.0399e-08
1.03044e-08
1.02103e-08
1.01179e-08
1.0028e-08
9.94157e-09
9.8593e-09
9.78173e-09
9.70932e-09
9.64244e-09
9.58135e-09
9.52628e-09
9.47736e-09
9.43469e-09
9.39832e-09
9.36823e-09
9.34439e-09
9.32672e-09
9.31511e-09
9.30939e-09
1.0451e-08
1.04134e-08
1.03609e-08
1.02969e-08
1.0224e-08
1.01447e-08
1.00611e-08
9.97492e-09
9.88778e-09
9.80099e-09
9.71565e-09
9.63269e-09
9.55289e-09
9.47688e-09
9.40519e-09
9.33825e-09
9.27638e-09
9.21986e-09
9.16889e-09
9.12359e-09
9.08408e-09
9.05037e-09
9.02249e-09
9.00039e-09
8.98401e-09
8.97324e-09
8.96794e-09
1.00271e-08
9.99236e-09
9.94397e-09
9.88487e-09
9.81757e-09
9.74431e-09
9.66702e-09
9.58736e-09
9.50677e-09
9.42647e-09
9.34748e-09
9.27067e-09
9.19675e-09
9.12632e-09
9.05986e-09
8.99778e-09
8.94038e-09
8.88793e-09
8.84061e-09
8.79855e-09
8.76184e-09
8.73053e-09
8.70462e-09
8.68408e-09
8.66885e-09
8.65883e-09
8.6539e-09
9.63905e-09
9.60688e-09
9.56208e-09
9.50735e-09
9.44501e-09
9.37713e-09
9.30548e-09
9.23161e-09
9.15686e-09
9.08234e-09
9.00902e-09
8.93768e-09
8.86901e-09
8.80355e-09
8.74177e-09
8.68403e-09
8.63064e-09
8.58183e-09
8.53778e-09
8.49862e-09
8.46442e-09
8.43525e-09
8.4111e-09
8.39196e-09
8.37776e-09
8.36842e-09
8.36382e-09
9.28231e-09
9.25244e-09
9.21085e-09
9.16001e-09
9.10209e-09
9.03901e-09
8.9724e-09
8.90371e-09
8.83417e-09
8.76482e-09
8.69656e-09
8.63013e-09
8.56615e-09
8.50516e-09
8.44756e-09
8.39372e-09
8.34392e-09
8.29838e-09
8.25727e-09
8.22071e-09
8.18878e-09
8.16153e-09
8.13897e-09
8.12109e-09
8.10782e-09
8.09909e-09
8.09479e-09
8.95305e-09
8.92524e-09
8.8865e-09
8.83915e-09
8.7852e-09
8.7264e-09
8.66431e-09
8.60026e-09
8.53539e-09
8.47069e-09
8.40697e-09
8.34494e-09
8.28519e-09
8.2282e-09
8.17438e-09
8.12405e-09
8.07748e-09
8.03489e-09
7.99642e-09
7.96221e-09
7.93232e-09
7.90681e-09
7.88569e-09
7.86893e-09
7.8565e-09
7.84832e-09
7.84429e-09
8.64796e-09
8.622e-09
8.58583e-09
8.54161e-09
8.4912e-09
8.43627e-09
8.37824e-09
8.31836e-09
8.25769e-09
8.19716e-09
8.13754e-09
8.07949e-09
8.02354e-09
7.97017e-09
7.91975e-09
7.87259e-09
7.82894e-09
7.78901e-09
7.75294e-09
7.72084e-09
7.6928e-09
7.66886e-09
7.64903e-09
7.63331e-09
7.62164e-09
7.61396e-09
7.61017e-09
8.3642e-09
8.3399e-09
8.30604e-09
8.26463e-09
8.21743e-09
8.16597e-09
8.1116e-09
8.05548e-09
7.99861e-09
7.94186e-09
7.88594e-09
7.83147e-09
7.77897e-09
7.72887e-09
7.68152e-09
7.63723e-09
7.59623e-09
7.5587e-09
7.5248e-09
7.49463e-09
7.46827e-09
7.44575e-09
7.4271e-09
7.41231e-09
7.40133e-09
7.3941e-09
7.39054e-09
8.09928e-09
8.07648e-09
8.0447e-09
8.00584e-09
7.96153e-09
7.91321e-09
7.86215e-09
7.80943e-09
7.756e-09
7.70265e-09
7.65008e-09
7.59887e-09
7.54949e-09
7.50235e-09
7.4578e-09
7.41611e-09
7.37751e-09
7.34218e-09
7.31025e-09
7.28182e-09
7.25698e-09
7.23576e-09
7.21819e-09
7.20424e-09
7.19389e-09
7.18708e-09
7.18372e-09
7.85102e-09
7.82957e-09
7.79968e-09
7.76312e-09
7.72143e-09
7.67596e-09
7.62789e-09
7.57826e-09
7.52794e-09
7.47769e-09
7.42816e-09
7.37989e-09
7.33334e-09
7.28891e-09
7.24689e-09
7.20757e-09
7.17115e-09
7.13781e-09
7.10767e-09
7.08084e-09
7.05738e-09
7.03735e-09
7.02075e-09
7.00758e-09
6.9978e-09
6.99136e-09
6.98819e-09
7.61746e-09
7.59725e-09
7.56907e-09
7.53459e-09
7.49528e-09
7.45239e-09
7.40704e-09
7.3602e-09
7.31271e-09
7.26527e-09
7.2185e-09
7.17292e-09
7.12895e-09
7.08696e-09
7.04726e-09
7.01009e-09
6.97566e-09
6.94413e-09
6.91562e-09
6.89024e-09
6.86805e-09
6.84909e-09
6.83338e-09
6.82092e-09
6.81167e-09
6.80557e-09
6.80257e-09
7.39686e-09
7.37775e-09
7.35112e-09
7.31854e-09
7.28138e-09
7.24083e-09
7.19795e-09
7.15365e-09
7.10873e-09
7.06385e-09
7.01959e-09
6.97645e-09
6.93482e-09
6.89507e-09
6.85747e-09
6.82226e-09
6.78964e-09
6.75976e-09
6.73274e-09
6.70868e-09
6.68764e-09
6.66967e-09
6.65478e-09
6.64296e-09
6.63418e-09
6.6284e-09
6.62556e-09
7.18756e-09
7.16947e-09
7.14424e-09
7.11338e-09
7.07817e-09
7.03975e-09
6.99911e-09
6.95712e-09
6.91452e-09
6.87197e-09
6.82999e-09
6.78907e-09
6.74958e-09
6.71185e-09
6.67616e-09
6.64274e-09
6.61177e-09
6.58339e-09
6.55773e-09
6.53487e-09
6.51488e-09
6.49781e-09
6.48366e-09
6.47243e-09
6.46409e-09
6.4586e-09
6.45589e-09
6.98804e-09
6.97086e-09
6.94691e-09
6.9176e-09
6.88416e-09
6.84766e-09
6.80905e-09
6.76916e-09
6.72868e-09
6.68823e-09
6.64833e-09
6.60942e-09
6.57186e-09
6.53598e-09
6.50203e-09
6.47023e-09
6.44075e-09
6.41373e-09
6.3893e-09
6.36754e-09
6.34851e-09
6.33226e-09
6.31879e-09
6.30809e-09
6.30016e-09
6.29493e-09
6.29235e-09
6.7968e-09
6.78045e-09
6.75765e-09
6.72975e-09
6.6979e-09
6.66315e-09
6.62638e-09
6.58837e-09
6.54981e-09
6.51127e-09
6.47324e-09
6.43615e-09
6.40034e-09
6.36613e-09
6.33375e-09
6.30341e-09
6.27528e-09
6.2495e-09
6.22619e-09
6.20543e-09
6.18727e-09
6.17176e-09
6.15891e-09
6.1487e-09
6.14113e-09
6.13614e-09
6.13368e-09
6.61238e-09
6.59678e-09
6.57501e-09
6.54837e-09
6.51796e-09
6.48477e-09
6.44965e-09
6.41335e-09
6.37651e-09
6.33968e-09
6.30334e-09
6.26789e-09
6.23366e-09
6.20094e-09
6.16997e-09
6.14095e-09
6.11403e-09
6.08937e-09
6.06707e-09
6.04721e-09
6.02985e-09
6.01501e-09
6.00271e-09
5.99295e-09
5.98571e-09
5.98093e-09
5.97858e-09
6.43329e-09
6.41835e-09
6.3975e-09
6.37199e-09
6.34287e-09
6.31107e-09
6.27743e-09
6.24264e-09
6.20734e-09
6.17204e-09
6.1372e-09
6.10321e-09
6.07038e-09
6.03899e-09
6.00927e-09
5.98142e-09
5.9556e-09
5.93195e-09
5.91056e-09
5.89151e-09
5.87485e-09
5.86062e-09
5.84883e-09
5.83947e-09
5.83252e-09
5.82794e-09
5.82569e-09
6.25798e-09
6.24362e-09
6.22359e-09
6.19907e-09
6.17108e-09
6.14052e-09
6.10817e-09
6.07472e-09
6.04077e-09
6.00682e-09
5.9733e-09
5.94058e-09
5.90898e-09
5.87876e-09
5.85015e-09
5.82334e-09
5.79849e-09
5.77573e-09
5.75515e-09
5.73682e-09
5.7208e-09
5.70711e-09
5.69577e-09
5.68677e-09
5.68009e-09
5.67568e-09
5.67352e-09
6.08481e-09
6.07096e-09
6.05163e-09
6.02797e-09
6.00096e-09
5.97146e-09
5.94023e-09
5.90794e-09
5.87515e-09
5.84235e-09
5.80995e-09
5.77833e-09
5.74778e-09
5.71858e-09
5.69094e-09
5.66506e-09
5.64107e-09
5.61909e-09
5.59922e-09
5.58153e-09
5.56607e-09
5.55286e-09
5.54192e-09
5.53323e-09
5.52678e-09
5.52253e-09
5.52044e-09
5.91202e-09
5.89859e-09
5.87986e-09
5.85692e-09
5.83073e-09
5.80212e-09
5.77182e-09
5.74049e-09
5.70865e-09
5.67679e-09
5.64533e-09
5.61464e-09
5.585e-09
5.55668e-09
5.52988e-09
5.50479e-09
5.48153e-09
5.46023e-09
5.44098e-09
5.42384e-09
5.40886e-09
5.39607e-09
5.38547e-09
5.37705e-09
5.37081e-09
5.3667e-09
5.36467e-09
5.73767e-09
5.72458e-09
5.70631e-09
5.68394e-09
5.65839e-09
5.63047e-09
5.60088e-09
5.57028e-09
5.5392e-09
5.50813e-09
5.47746e-09
5.44754e-09
5.41867e-09
5.39108e-09
5.36498e-09
5.34055e-09
5.31791e-09
5.29718e-09
5.27845e-09
5.26177e-09
5.24719e-09
5.23475e-09
5.22444e-09
5.21625e-09
5.21018e-09
5.20618e-09
5.20421e-09
5.55956e-09
5.54668e-09
5.52872e-09
5.50673e-09
5.48161e-09
5.45419e-09
5.42516e-09
5.39514e-09
5.36468e-09
5.33423e-09
5.30419e-09
5.27489e-09
5.24662e-09
5.21961e-09
5.19407e-09
5.17016e-09
5.14801e-09
5.12774e-09
5.10942e-09
5.09311e-09
5.07886e-09
5.0667e-09
5.05662e-09
5.04863e-09
5.0427e-09
5.03879e-09
5.03687e-09
5.37497e-09
5.36226e-09
5.34453e-09
5.32283e-09
5.29806e-09
5.27101e-09
5.24239e-09
5.2128e-09
5.18278e-09
5.15277e-09
5.12318e-09
5.09432e-09
5.06648e-09
5.03989e-09
5.01475e-09
4.99122e-09
4.96943e-09
4.94949e-09
4.93148e-09
4.91545e-09
4.90145e-09
4.88949e-09
4.8796e-09
4.87175e-09
4.86592e-09
4.86209e-09
4.8602e-09
5.18168e-09
5.16906e-09
5.15146e-09
5.12991e-09
5.10532e-09
5.07848e-09
5.05007e-09
5.02072e-09
4.99094e-09
4.96118e-09
4.93184e-09
4.90323e-09
4.87565e-09
4.84931e-09
4.82441e-09
4.80112e-09
4.77956e-09
4.75983e-09
4.74201e-09
4.72617e-09
4.71233e-09
4.70052e-09
4.69074e-09
4.68299e-09
4.67725e-09
4.67346e-09
4.6716e-09
4.97704e-09
4.96442e-09
4.94682e-09
4.92527e-09
4.90069e-09
4.87386e-09
4.84547e-09
4.81615e-09
4.7864e-09
4.7567e-09
4.72741e-09
4.69887e-09
4.67136e-09
4.6451e-09
4.62029e-09
4.59709e-09
4.57562e-09
4.55598e-09
4.53826e-09
4.5225e-09
4.50875e-09
4.49701e-09
4.4873e-09
4.47961e-09
4.4739e-09
4.47015e-09
4.46831e-09
4.75818e-09
4.74547e-09
4.72774e-09
4.70605e-09
4.6813e-09
4.65429e-09
4.62573e-09
4.59623e-09
4.56633e-09
4.53647e-09
4.50704e-09
4.47839e-09
4.45077e-09
4.42443e-09
4.39956e-09
4.37631e-09
4.3548e-09
4.33515e-09
4.31741e-09
4.30165e-09
4.28791e-09
4.27618e-09
4.26649e-09
4.25881e-09
4.25312e-09
4.24937e-09
4.24753e-09
4.52223e-09
4.50934e-09
4.49136e-09
4.46937e-09
4.44429e-09
4.41692e-09
4.388e-09
4.35814e-09
4.32789e-09
4.29769e-09
4.26796e-09
4.23901e-09
4.21114e-09
4.18457e-09
4.15949e-09
4.13607e-09
4.11442e-09
4.09464e-09
4.07681e-09
4.06097e-09
4.04716e-09
4.0354e-09
4.02567e-09
4.01797e-09
4.01227e-09
4.00852e-09
4.00667e-09
4.26646e-09
4.25331e-09
4.23498e-09
4.21256e-09
4.187e-09
4.15913e-09
4.12969e-09
4.09931e-09
4.06855e-09
4.03787e-09
4.00768e-09
3.97832e-09
3.95006e-09
3.92314e-09
3.89776e-09
3.87406e-09
3.85218e-09
3.8322e-09
3.81421e-09
3.79823e-09
3.78432e-09
3.77246e-09
3.76267e-09
3.75493e-09
3.74919e-09
3.74542e-09
3.74357e-09
3.98861e-09
3.97515e-09
3.95639e-09
3.93345e-09
3.90731e-09
3.87883e-09
3.84877e-09
3.81776e-09
3.78639e-09
3.75514e-09
3.7244e-09
3.69453e-09
3.66582e-09
3.63849e-09
3.61274e-09
3.58873e-09
3.56657e-09
3.54636e-09
3.52817e-09
3.51204e-09
3.49799e-09
3.48604e-09
3.47617e-09
3.46837e-09
3.4626e-09
3.45881e-09
3.45695e-09
3.68731e-09
3.67351e-09
3.65428e-09
3.6308e-09
3.60405e-09
3.57493e-09
3.54421e-09
3.51257e-09
3.48058e-09
3.44873e-09
3.41746e-09
3.38709e-09
3.35793e-09
3.33021e-09
3.30412e-09
3.27981e-09
3.2574e-09
3.23698e-09
3.21862e-09
3.20235e-09
3.1882e-09
3.17617e-09
3.16624e-09
3.1584e-09
3.1526e-09
3.1488e-09
3.14693e-09
3.36259e-09
3.34848e-09
3.32884e-09
3.30486e-09
3.27757e-09
3.24789e-09
3.21661e-09
3.18443e-09
3.15193e-09
3.11962e-09
3.08793e-09
3.0572e-09
3.02772e-09
2.99973e-09
2.97342e-09
2.94894e-09
2.9264e-09
2.90588e-09
2.88745e-09
2.87113e-09
2.85695e-09
2.84491e-09
2.83498e-09
2.82714e-09
2.82135e-09
2.81755e-09
2.81569e-09
3.01657e-09
3.00225e-09
2.98233e-09
2.95803e-09
2.93041e-09
2.90039e-09
2.86881e-09
2.83635e-09
2.80362e-09
2.77113e-09
2.73931e-09
2.70849e-09
2.67898e-09
2.65099e-09
2.62473e-09
2.60031e-09
2.57787e-09
2.55746e-09
2.53915e-09
2.52296e-09
2.5089e-09
2.49697e-09
2.48714e-09
2.47939e-09
2.47367e-09
2.46992e-09
2.46808e-09
2.65404e-09
2.6397e-09
2.61976e-09
2.59546e-09
2.56787e-09
2.53793e-09
2.50648e-09
2.4742e-09
2.44172e-09
2.40952e-09
2.37803e-09
2.3476e-09
2.31849e-09
2.29094e-09
2.26512e-09
2.24116e-09
2.21916e-09
2.19919e-09
2.18128e-09
2.16547e-09
2.15176e-09
2.14013e-09
2.13057e-09
2.12303e-09
2.11746e-09
2.11382e-09
2.11204e-09
2.28292e-09
2.26882e-09
2.24924e-09
2.22541e-09
2.19839e-09
2.16912e-09
2.13842e-09
2.10698e-09
2.07539e-09
2.04414e-09
2.01364e-09
1.98422e-09
1.95613e-09
1.92959e-09
1.90476e-09
1.88176e-09
1.86066e-09
1.84154e-09
1.82443e-09
1.80933e-09
1.79625e-09
1.78517e-09
1.77606e-09
1.76889e-09
1.7636e-09
1.76014e-09
1.75844e-09
1.91404e-09
1.90053e-09
1.88179e-09
1.85902e-09
1.83324e-09
1.80536e-09
1.77618e-09
1.74636e-09
1.71646e-09
1.68695e-09
1.6582e-09
1.63053e-09
1.60417e-09
1.57931e-09
1.55609e-09
1.53462e-09
1.51496e-09
1.49717e-09
1.48126e-09
1.46725e-09
1.45513e-09
1.44487e-09
1.43644e-09
1.42981e-09
1.42492e-09
1.42173e-09
1.42016e-09
1.56018e-09
1.54763e-09
1.53025e-09
1.50916e-09
1.48533e-09
1.45961e-09
1.43275e-09
1.40535e-09
1.37796e-09
1.35097e-09
1.32476e-09
1.29957e-09
1.27564e-09
1.25311e-09
1.23212e-09
1.21273e-09
1.19502e-09
1.17902e-09
1.16473e-09
1.15217e-09
1.1413e-09
1.13212e-09
1.12459e-09
1.11866e-09
1.1143e-09
1.11145e-09
1.11005e-09
1.23403e-09
1.22278e-09
1.20721e-09
1.18835e-09
1.16709e-09
1.14419e-09
1.12032e-09
1.09605e-09
1.07184e-09
1.04805e-09
1.025e-09
1.00291e-09
9.81971e-10
9.62309e-10
9.44024e-10