/*--------------------------------*- C++ -*----------------------------------*\
| =========                 |                                                 |
| \\      /  F ield         | OpenFOAM: The Open Source CFD Toolbox           |
|  \\    /   O peration     | Version:  2106                                  |
|   \\  /    A nd           | Website:  www.openfoam.com                      |
|    \\/     M anipulation  |                                                 |
\*---------------------------------------------------------------------------*/
FoamFile
{
    version     2.0;
    format      ascii;
    arch        "LSB;label=32;scalar=64";
    class       volScalarField;
    location    "149.99958";
    object      I-C4H3;
}
// * * * * * * * * * * * * * * * * * * * * * * * * * * * * * * * * * * * * * //

dimensions      [0 0 0 0 0 0 0];

internalField   nonuniform List<scalar> 
3360
(
1.77207e-19
1.82909e-19
1.90844e-19
2.00551e-19
2.11624e-19
2.237e-19
2.36451e-19
2.49581e-19
2.62827e-19
2.75956e-19
2.88765e-19
3.01083e-19
3.1277e-19
3.23711e-19
3.33823e-19
3.43044e-19
3.51339e-19
3.5869e-19
3.65102e-19
3.70592e-19
3.75195e-19
3.78955e-19
3.81924e-19
3.84164e-19
3.8574e-19
3.86721e-19
3.87176e-19
7.7736e-19
8.05931e-19
8.4625e-19
8.96459e-19
9.55022e-19
1.0206e-18
1.09198e-18
1.16809e-18
1.24789e-18
1.33042e-18
1.41476e-18
1.5e-18
1.58526e-18
1.66966e-18
1.75234e-18
1.83244e-18
1.90915e-18
1.98165e-18
2.04917e-18
2.11099e-18
2.16645e-18
2.21496e-18
2.25601e-18
2.28922e-18
2.31427e-18
2.33101e-18
2.33935e-18
2.43908e-18
2.54613e-18
2.69823e-18
2.88936e-18
3.11451e-18
3.36918e-18
3.64908e-18
3.95001e-18
4.26768e-18
4.59776e-18
4.93578e-18
5.27732e-18
5.61801e-18
5.95351e-18
6.27966e-18
6.59247e-18
6.88828e-18
7.16379e-18
7.41614e-18
7.64296e-18
7.84242e-18
8.01322e-18
8.15461e-18
8.26637e-18
8.34876e-18
8.40249e-18
8.42865e-18
7.1033e-18
7.4561e-18
7.96079e-18
8.59932e-18
9.35659e-18
1.02185e-17
1.11708e-17
1.2199e-17
1.32876e-17
1.44205e-17
1.55811e-17
1.67522e-17
1.79172e-17
1.90595e-17
2.01636e-17
2.12151e-17
2.22014e-17
2.31118e-17
2.39375e-17
2.4672e-17
2.53111e-17
2.58525e-17
2.6296e-17
2.66428e-17
2.68959e-17
2.70593e-17
2.71381e-17
2.07531e-17
2.1866e-17
2.34612e-17
2.5484e-17
2.78883e-17
3.06296e-17
3.36622e-17
3.69377e-17
4.04045e-17
4.40081e-17
4.76924e-17
5.14007e-17
5.50771e-17
5.86687e-17
6.21263e-17
6.54057e-17
6.84689e-17
7.12846e-17
7.38283e-17
7.60828e-17
7.80375e-17
7.96879e-17
8.10355e-17
8.20866e-17
8.28517e-17
8.33445e-17
8.35817e-17
6.11896e-17
6.46074e-17
6.95122e-17
7.57374e-17
8.31407e-17
9.15839e-17
1.00924e-16
1.1101e-16
1.21679e-16
1.3276e-16
1.44076e-16
1.55452e-16
1.66713e-16
1.77697e-16
1.88252e-16
1.98245e-16
2.07563e-16
2.16111e-16
2.23821e-16
2.30642e-16
2.36545e-16
2.41522e-16
2.4558e-16
2.4874e-16
2.51037e-16
2.52516e-16
2.53226e-16
1.81762e-16
1.92148e-16
2.07051e-16
2.25966e-16
2.4846e-16
2.74108e-16
3.0247e-16
3.33077e-16
3.6543e-16
3.99004e-16
4.33261e-16
4.67663e-16
5.01687e-16
5.3484e-16
5.6667e-16
5.96778e-16
6.24828e-16
6.50545e-16
6.73721e-16
6.94215e-16
7.11944e-16
7.26884e-16
7.3906e-16
7.48541e-16
7.55431e-16
7.59863e-16
7.61994e-16
5.41705e-16
5.72954e-16
6.17819e-16
6.74784e-16
7.42542e-16
8.19813e-16
9.05265e-16
9.97475e-16
1.09493e-15
1.19604e-15
1.29917e-15
1.40271e-15
1.50507e-15
1.60476e-15
1.70044e-15
1.7909e-15
1.87514e-15
1.95234e-15
2.02188e-15
2.08334e-15
2.13649e-15
2.18126e-15
2.21773e-15
2.24612e-15
2.26674e-15
2.28e-15
2.28638e-15
1.6187e-15
1.71261e-15
1.84741e-15
2.01856e-15
2.22209e-15
2.45416e-15
2.71074e-15
2.98753e-15
3.27997e-15
3.58327e-15
3.89254e-15
4.2029e-15
4.50963e-15
4.80827e-15
5.09479e-15
5.36563e-15
5.61777e-15
5.84879e-15
6.05686e-15
6.24074e-15
6.39974e-15
6.53365e-15
6.64274e-15
6.72765e-15
6.78933e-15
6.829e-15
6.84807e-15
4.83701e-15
5.11826e-15
5.52205e-15
6.03472e-15
6.64445e-15
7.33964e-15
8.1082e-15
8.93724e-15
9.81304e-15
1.07213e-14
1.16472e-14
1.25762e-14
1.34941e-14
1.43877e-14
1.52449e-14
1.60549e-14
1.68088e-14
1.74994e-14
1.81212e-14
1.86706e-14
1.91455e-14
1.95454e-14
1.98711e-14
2.01246e-14
2.03087e-14
2.0427e-14
2.04839e-14
1.44604e-14
1.53023e-14
1.65107e-14
1.80446e-14
1.98685e-14
2.19475e-14
2.42453e-14
2.67232e-14
2.934e-14
3.20527e-14
3.48174e-14
3.75904e-14
4.03294e-14
4.2995e-14
4.5551e-14
4.79658e-14
5.02128e-14
5.22707e-14
5.41233e-14
5.57598e-14
5.71742e-14
5.83651e-14
5.93349e-14
6.00895e-14
6.06375e-14
6.09899e-14
6.11592e-14
4.31859e-14
4.5699e-14
4.93059e-14
5.38837e-14
5.93258e-14
6.55275e-14
7.23799e-14
7.97668e-14
8.75652e-14
9.56464e-14
1.03879e-13
1.12134e-13
1.20284e-13
1.28213e-13
1.35812e-13
1.42989e-13
1.49665e-13
1.55776e-13
1.61276e-13
1.66133e-13
1.70329e-13
1.73861e-13
1.76736e-13
1.78972e-13
1.80596e-13
1.8164e-13
1.82142e-13
1.28821e-13
1.36309e-13
1.47052e-13
1.6068e-13
1.76874e-13
1.95317e-13
2.15682e-13
2.37622e-13
2.60769e-13
2.84739e-13
3.09141e-13
3.33591e-13
3.57716e-13
3.81169e-13
4.03635e-13
4.2484e-13
4.44553e-13
4.62589e-13
4.78814e-13
4.93134e-13
5.05502e-13
5.15908e-13
5.24377e-13
5.30963e-13
5.35744e-13
5.38816e-13
5.40292e-13
3.83092e-13
4.05295e-13
4.3714e-13
4.77518e-13
5.25465e-13
5.80034e-13
6.40244e-13
7.05055e-13
7.73367e-13
8.44044e-13
9.15931e-13
9.87887e-13
1.05882e-12
1.12771e-12
1.19364e-12
1.25582e-12
1.31357e-12
1.36636e-12
1.41382e-12
1.45567e-12
1.4918e-12
1.52217e-12
1.54687e-12
1.56607e-12
1.58001e-12
1.58896e-12
1.59325e-12
1.13493e-12
1.20039e-12
1.29421e-12
1.41307e-12
1.55407e-12
1.71435e-12
1.89098e-12
2.08085e-12
2.2807e-12
2.48716e-12
2.69686e-12
2.90646e-12
3.11278e-12
3.31288e-12
3.50412e-12
3.68424e-12
3.85133e-12
4.00392e-12
4.14091e-12
4.26163e-12
4.36571e-12
4.45316e-12
4.52424e-12
4.57944e-12
4.61947e-12
4.64517e-12
4.6575e-12
3.34198e-12
3.53308e-12
3.80672e-12
4.15299e-12
4.56317e-12
5.02874e-12
5.54092e-12
6.09048e-12
6.66785e-12
7.26319e-12
7.86666e-12
8.46866e-12
9.06012e-12
9.63268e-12
1.01789e-11
1.06924e-11
1.11681e-11
1.16017e-11
1.19904e-11
1.23325e-11
1.2627e-11
1.28742e-11
1.30749e-11
1.32306e-11
1.33433e-11
1.34157e-11
1.34504e-11
9.76295e-12
1.03135e-11
1.11007e-11
1.20953e-11
1.32711e-11
1.46027e-11
1.60641e-11
1.76282e-11
1.92672e-11
2.09526e-11
2.26566e-11
2.43519e-11
2.60132e-11
2.76174e-11
2.91441e-11
3.05761e-11
3.18995e-11
3.31035e-11
3.41809e-11
3.51271e-11
3.59406e-11
3.66222e-11
3.71748e-11
3.7603e-11
3.79129e-11
3.81115e-11
3.82066e-11
2.82139e-11
2.97704e-11
3.19925e-11
3.47934e-11
3.80961e-11
4.18255e-11
4.59054e-11
5.02575e-11
5.48023e-11
5.94599e-11
6.41524e-11
6.88054e-11
7.33499e-11
7.77242e-11
8.18746e-11
8.57563e-11
8.93337e-11
9.25802e-11
9.54782e-11
9.8018e-11
1.00197e-10
1.0202e-10
1.03495e-10
1.04636e-10
1.05461e-10
1.05989e-10
1.06241e-10
8.03938e-11
8.46874e-11
9.08032e-11
9.84898e-11
1.07523e-10
1.17684e-10
1.28755e-10
1.40516e-10
1.52745e-10
1.65223e-10
1.77742e-10
1.90105e-10
2.02131e-10
2.13663e-10
2.24565e-10
2.34726e-10
2.44061e-10
2.52508e-10
2.60027e-10
2.666e-10
2.72227e-10
2.76923e-10
2.80717e-10
2.83647e-10
2.85761e-10
2.87113e-10
2.87759e-10
2.2492e-10
2.36392e-10
2.52689e-10
2.73098e-10
2.96983e-10
3.23731e-10
3.52734e-10
3.83389e-10
4.15105e-10
4.47308e-10
4.79458e-10
5.11057e-10
5.41657e-10
5.70874e-10
5.98383e-10
6.23926e-10
6.4731e-10
6.684e-10
6.87118e-10
7.03436e-10
7.17371e-10
7.28974e-10
7.38328e-10
7.45541e-10
7.50737e-10
7.54054e-10
7.55638e-10
6.14883e-10
6.44364e-10
6.86109e-10
7.38178e-10
7.98827e-10
8.66394e-10
9.39262e-10
1.01586e-09
1.09467e-09
1.17425e-09
1.25328e-09
1.33057e-09
1.40506e-09
1.47586e-09
1.54224e-09
1.60363e-09
1.65963e-09
1.70997e-09
1.75452e-09
1.79324e-09
1.82623e-09
1.85363e-09
1.87568e-09
1.89265e-09
1.90486e-09
1.91264e-09
1.91635e-09
1.63363e-09
1.70601e-09
1.80816e-09
1.93503e-09
2.08206e-09
2.24499e-09
2.41971e-09
2.60232e-09
2.78915e-09
2.97678e-09
3.16213e-09
3.34247e-09
3.51546e-09
3.67914e-09
3.83199e-09
3.97281e-09
4.10082e-09
4.21552e-09
4.31671e-09
4.40446e-09
4.47903e-09
4.54084e-09
4.59049e-09
4.62863e-09
4.65603e-09
4.67347e-09
4.68177e-09
4.19582e-09
4.3649e-09
4.60273e-09
4.89684e-09
5.23607e-09
5.60999e-09
6.00882e-09
6.42339e-09
6.84527e-09
7.26677e-09
7.68109e-09
8.08233e-09
8.46553e-09
8.82665e-09
9.16259e-09
9.47105e-09
9.75054e-09
1.00003e-08
1.022e-08
1.04101e-08
1.05713e-08
1.07047e-08
1.08116e-08
1.08937e-08
1.09525e-08
1.09899e-08
1.10077e-08
1.03721e-08
1.07475e-08
1.1274e-08
1.19225e-08
1.26673e-08
1.34844e-08
1.43518e-08
1.52491e-08
1.61579e-08
1.70619e-08
1.79466e-08
1.87999e-08
1.96118e-08
2.03742e-08
2.10812e-08
2.17284e-08
2.23133e-08
2.28346e-08
2.32923e-08
2.36875e-08
2.40219e-08
2.42983e-08
2.45195e-08
2.4689e-08
2.48104e-08
2.48876e-08
2.49243e-08
2.46132e-08
2.54078e-08
2.65193e-08
2.78844e-08
2.94464e-08
3.11537e-08
3.29588e-08
3.4819e-08
3.66959e-08
3.85559e-08
4.037e-08
4.21141e-08
4.37684e-08
4.53177e-08
4.67505e-08
4.80591e-08
4.92392e-08
5.02888e-08
5.12089e-08
5.20019e-08
5.26722e-08
5.32252e-08
5.36674e-08
5.40059e-08
5.42482e-08
5.4402e-08
5.44751e-08
5.60306e-08
5.76463e-08
5.99023e-08
6.26665e-08
6.58216e-08
6.92605e-08
7.28866e-08
7.66129e-08
8.03628e-08
8.40696e-08
8.76765e-08
9.11364e-08
9.44118e-08
9.74735e-08
1.003e-07
1.02878e-07
1.05199e-07
1.07262e-07
1.09067e-07
1.10622e-07
1.11934e-07
1.13017e-07
1.13881e-07
1.14543e-07
1.15016e-07
1.15316e-07
1.15458e-07
1.22469e-07
1.25666e-07
1.30125e-07
1.35584e-07
1.41807e-07
1.48583e-07
1.55719e-07
1.63045e-07
1.7041e-07
1.77684e-07
1.84757e-07
1.91536e-07
1.9795e-07
2.03942e-07
2.09471e-07
2.1451e-07
2.19046e-07
2.23074e-07
2.26599e-07
2.29633e-07
2.32194e-07
2.34305e-07
2.3599e-07
2.37279e-07
2.38201e-07
2.38786e-07
2.39063e-07
2.57462e-07
2.63728e-07
2.72475e-07
2.8319e-07
2.95416e-07
3.08741e-07
3.22795e-07
3.37244e-07
3.51794e-07
3.66189e-07
3.80211e-07
3.93679e-07
4.06445e-07
4.18395e-07
4.29444e-07
4.39534e-07
4.48632e-07
4.56725e-07
4.63819e-07
4.69934e-07
4.75103e-07
4.79369e-07
4.82779e-07
4.85389e-07
4.87257e-07
4.88442e-07
4.89005e-07
5.20465e-07
5.32828e-07
5.5013e-07
5.71397e-07
5.95768e-07
6.22463e-07
6.50774e-07
6.80061e-07
7.09749e-07
7.39328e-07
7.68352e-07
7.9644e-07
8.2327e-07
8.48581e-07
8.72167e-07
8.93874e-07
9.13596e-07
9.31272e-07
9.46878e-07
9.60425e-07
9.71952e-07
9.81523e-07
9.89221e-07
9.95147e-07
9.99409e-07
1.00213e-06
1.00342e-06
1.0065e-06
1.03101e-06
1.06547e-06
1.10812e-06
1.15738e-06
1.21184e-06
1.27021e-06
1.33128e-06
1.39397e-06
1.45725e-06
1.52022e-06
1.58204e-06
1.64198e-06
1.69938e-06
1.75369e-06
1.80446e-06
1.8513e-06
1.89393e-06
1.93215e-06
1.96582e-06
1.9949e-06
2.0194e-06
2.03938e-06
2.05497e-06
2.06633e-06
2.07367e-06
2.07721e-06
1.84355e-06
1.89054e-06
1.95696e-06
2.03971e-06
2.13609e-06
2.24366e-06
2.36016e-06
2.48346e-06
2.61154e-06
2.74248e-06
2.87445e-06
3.00572e-06
3.13471e-06
3.2599e-06
3.37994e-06
3.49362e-06
3.59986e-06
3.69777e-06
3.78662e-06
3.86585e-06
3.93506e-06
3.99401e-06
4.04261e-06
4.08094e-06
4.10915e-06
4.12754e-06
4.1365e-06
3.17396e-06
3.25605e-06
3.37232e-06
3.51751e-06
3.68712e-06
3.877e-06
4.08328e-06
4.30224e-06
4.53031e-06
4.76403e-06
5.00009e-06
5.2353e-06
5.46669e-06
5.69149e-06
5.90716e-06
6.11147e-06
6.30245e-06
6.47847e-06
6.6382e-06
6.78063e-06
6.90506e-06
7.01107e-06
7.0985e-06
7.16747e-06
7.21828e-06
7.25144e-06
7.26762e-06
5.1329e-06
5.25723e-06
5.43283e-06
5.65127e-06
5.90521e-06
6.18792e-06
6.49308e-06
6.81473e-06
7.14722e-06
7.48521e-06
7.82371e-06
8.15811e-06
8.48424e-06
8.79833e-06
9.09712e-06
9.37781e-06
9.63812e-06
9.87621e-06
1.00907e-05
1.02808e-05
1.04458e-05
1.05856e-05
1.07002e-05
1.07903e-05
1.08563e-05
1.08993e-05
1.09202e-05
7.75687e-06
7.91453e-06
8.13584e-06
8.40898e-06
8.72352e-06
9.06996e-06
9.4396e-06
9.82445e-06
1.02172e-05
1.06114e-05
1.10011e-05
1.13812e-05
1.17472e-05
1.20954e-05
1.24228e-05
1.2727e-05
1.3006e-05
1.32588e-05
1.34844e-05
1.36826e-05
1.38532e-05
1.39967e-05
1.41137e-05
1.42049e-05
1.42714e-05
1.43144e-05
1.43353e-05
1.08344e-05
1.10005e-05
1.1232e-05
1.15152e-05
1.18377e-05
1.21888e-05
1.25585e-05
1.29383e-05
1.33206e-05
1.36989e-05
1.40677e-05
1.44226e-05
1.47597e-05
1.50764e-05
1.53704e-05
1.56404e-05
1.58853e-05
1.61047e-05
1.62986e-05
1.64672e-05
1.66112e-05
1.67313e-05
1.68284e-05
1.69037e-05
1.69582e-05
1.69932e-05
1.70101e-05
1.39442e-05
1.40909e-05
1.42941e-05
1.45403e-05
1.48177e-05
1.5116e-05
1.54261e-05
1.57402e-05
1.60519e-05
1.63559e-05
1.6648e-05
1.69249e-05
1.71843e-05
1.74244e-05
1.76443e-05
1.78435e-05
1.80219e-05
1.81797e-05
1.83175e-05
1.8436e-05
1.8536e-05
1.86185e-05
1.86846e-05
1.87354e-05
1.87718e-05
1.87951e-05
1.88062e-05
1.66775e-05
1.67865e-05
1.69362e-05
1.71159e-05
1.73159e-05
1.7528e-05
1.77451e-05
1.79615e-05
1.81725e-05
1.83746e-05
1.85651e-05
1.87423e-05
1.89051e-05
1.90529e-05
1.91856e-05
1.93034e-05
1.94069e-05
1.94967e-05
1.95735e-05
1.96384e-05
1.96922e-05
1.97358e-05
1.97701e-05
1.9796e-05
1.98143e-05
1.98258e-05
1.98312e-05
1.87954e-05
1.88607e-05
1.89494e-05
1.90541e-05
1.91685e-05
1.92871e-05
1.94053e-05
1.95198e-05
1.96279e-05
1.97278e-05
1.98184e-05
1.98992e-05
1.99702e-05
2.00314e-05
2.00836e-05
2.01273e-05
2.01635e-05
2.01928e-05
2.02162e-05
2.02344e-05
2.02484e-05
2.02587e-05
2.02661e-05
2.02711e-05
2.02743e-05
2.02761e-05
2.02768e-05
2.02457e-05
2.02705e-05
2.03031e-05
2.03396e-05
2.03769e-05
2.04122e-05
2.04435e-05
2.04695e-05
2.04894e-05
2.05027e-05
2.05097e-05
2.05108e-05
2.05066e-05
2.04979e-05
2.04855e-05
2.04705e-05
2.04537e-05
2.04359e-05
2.04179e-05
2.04004e-05
2.0384e-05
2.03691e-05
2.03562e-05
2.03456e-05
2.03376e-05
2.03321e-05
2.03294e-05
2.11024e-05
2.10946e-05
2.1082e-05
2.1064e-05
2.10401e-05
2.10099e-05
2.09735e-05
2.09311e-05
2.08834e-05
2.08311e-05
2.07753e-05
2.07171e-05
2.06574e-05
2.05975e-05
2.05384e-05
2.04811e-05
2.04264e-05
2.03751e-05
2.0328e-05
2.02854e-05
2.02478e-05
2.02154e-05
2.01885e-05
2.01671e-05
2.01513e-05
2.01408e-05
2.01357e-05
2.14882e-05
2.14566e-05
2.14112e-05
2.13539e-05
2.12861e-05
2.12092e-05
2.11248e-05
2.10344e-05
2.09397e-05
2.08421e-05
2.07433e-05
2.06447e-05
2.05477e-05
2.04536e-05
2.03634e-05
2.02782e-05
2.01988e-05
2.01258e-05
2.00598e-05
2.00011e-05
1.995e-05
1.99065e-05
1.98707e-05
1.98425e-05
1.98217e-05
1.98081e-05
1.98015e-05
2.15263e-05
2.14796e-05
2.14137e-05
2.13317e-05
2.12364e-05
2.11303e-05
2.10158e-05
2.08952e-05
2.07709e-05
2.06451e-05
2.05196e-05
2.03962e-05
2.02764e-05
2.01616e-05
2.00529e-05
1.99512e-05
1.98572e-05
1.97716e-05
1.96947e-05
1.96268e-05
1.9568e-05
1.95182e-05
1.94775e-05
1.94455e-05
1.94221e-05
1.94068e-05
1.93993e-05
2.13386e-05
2.12829e-05
2.12047e-05
2.11082e-05
2.09969e-05
2.08741e-05
2.07429e-05
2.06058e-05
2.04654e-05
2.03242e-05
2.01843e-05
2.00477e-05
1.9916e-05
1.97904e-05
1.96722e-05
1.95622e-05
1.9461e-05
1.93692e-05
1.9287e-05
1.92147e-05
1.91524e-05
1.90998e-05
1.90568e-05
1.90231e-05
1.89985e-05
1.89825e-05
1.89747e-05
2.1019e-05
2.09586e-05
2.0874e-05
2.077e-05
2.06507e-05
2.05198e-05
2.03805e-05
2.02358e-05
2.00883e-05
1.99404e-05
1.97946e-05
1.96526e-05
1.95163e-05
1.93868e-05
1.92652e-05
1.91524e-05
1.90489e-05
1.89553e-05
1.88717e-05
1.87983e-05
1.87351e-05
1.86819e-05
1.86385e-05
1.86046e-05
1.85797e-05
1.85636e-05
1.85558e-05
2.06304e-05
2.05683e-05
2.04815e-05
2.0375e-05
2.02532e-05
2.01199e-05
1.99784e-05
1.9832e-05
1.96831e-05
1.95343e-05
1.93878e-05
1.92457e-05
1.91095e-05
1.89804e-05
1.88594e-05
1.87474e-05
1.86449e-05
1.85522e-05
1.84696e-05
1.83972e-05
1.83348e-05
1.82824e-05
1.82397e-05
1.82064e-05
1.8182e-05
1.81662e-05
1.81585e-05
2.02145e-05
2.01526e-05
2.00663e-05
1.99605e-05
1.98397e-05
1.97077e-05
1.95679e-05
1.94235e-05
1.92768e-05
1.91306e-05
1.8987e-05
1.88479e-05
1.87147e-05
1.85887e-05
1.84708e-05
1.83618e-05
1.82621e-05
1.81721e-05
1.80919e-05
1.80217e-05
1.79612e-05
1.79105e-05
1.78692e-05
1.78369e-05
1.78134e-05
1.77981e-05
1.77906e-05
1.97972e-05
1.97368e-05
1.96526e-05
1.95496e-05
1.94319e-05
1.93036e-05
1.91677e-05
1.90275e-05
1.88853e-05
1.87438e-05
1.8605e-05
1.84707e-05
1.83424e-05
1.8221e-05
1.81076e-05
1.80028e-05
1.7907e-05
1.78206e-05
1.77437e-05
1.76764e-05
1.76185e-05
1.757e-05
1.75304e-05
1.74996e-05
1.74771e-05
1.74626e-05
1.74555e-05
1.93938e-05
1.93356e-05
1.92545e-05
1.91553e-05
1.9042e-05
1.89184e-05
1.87878e-05
1.8653e-05
1.85166e-05
1.83809e-05
1.82481e-05
1.81196e-05
1.79969e-05
1.7881e-05
1.77727e-05
1.76726e-05
1.75813e-05
1.74989e-05
1.74256e-05
1.73614e-05
1.73063e-05
1.72601e-05
1.72224e-05
1.71931e-05
1.71717e-05
1.71578e-05
1.71511e-05
1.90126e-05
1.8957e-05
1.88794e-05
1.87845e-05
1.86762e-05
1.85581e-05
1.84332e-05
1.83044e-05
1.81743e-05
1.8045e-05
1.79185e-05
1.77962e-05
1.76795e-05
1.75693e-05
1.74664e-05
1.73713e-05
1.72845e-05
1.72063e-05
1.71367e-05
1.70758e-05
1.70235e-05
1.69796e-05
1.69438e-05
1.6916e-05
1.68957e-05
1.68826e-05
1.68762e-05
1.86572e-05
1.86042e-05
1.85303e-05
1.84399e-05
1.83367e-05
1.82242e-05
1.81052e-05
1.79827e-05
1.7859e-05
1.77362e-05
1.76161e-05
1.75002e-05
1.73894e-05
1.72849e-05
1.71873e-05
1.70972e-05
1.7015e-05
1.69409e-05
1.6875e-05
1.68173e-05
1.67678e-05
1.67263e-05
1.66925e-05
1.66662e-05
1.6647e-05
1.66346e-05
1.66287e-05
1.83281e-05
1.82777e-05
1.82074e-05
1.81214e-05
1.80233e-05
1.79162e-05
1.78032e-05
1.76869e-05
1.75695e-05
1.74532e-05
1.73393e-05
1.72294e-05
1.71245e-05
1.70255e-05
1.69331e-05
1.68477e-05
1.67698e-05
1.66996e-05
1.66372e-05
1.65826e-05
1.65357e-05
1.64964e-05
1.64644e-05
1.64395e-05
1.64214e-05
1.64096e-05
1.6404e-05
1.80244e-05
1.79765e-05
1.79096e-05
1.78279e-05
1.77346e-05
1.76328e-05
1.75255e-05
1.74152e-05
1.7304e-05
1.71937e-05
1.70858e-05
1.69817e-05
1.68823e-05
1.67885e-05
1.67009e-05
1.66201e-05
1.65463e-05
1.64798e-05
1.64207e-05
1.63689e-05
1.63245e-05
1.62873e-05
1.6257e-05
1.62334e-05
1.62162e-05
1.62051e-05
1.61997e-05
1.7744e-05
1.76985e-05
1.7635e-05
1.75572e-05
1.74684e-05
1.73718e-05
1.727e-05
1.71654e-05
1.70599e-05
1.69553e-05
1.68531e-05
1.67543e-05
1.66601e-05
1.65712e-05
1.64882e-05
1.64115e-05
1.63416e-05
1.62786e-05
1.62225e-05
1.61735e-05
1.61313e-05
1.6096e-05
1.60673e-05
1.60449e-05
1.60286e-05
1.60181e-05
1.6013e-05
1.74851e-05
1.74416e-05
1.73811e-05
1.7307e-05
1.72226e-05
1.71308e-05
1.70342e-05
1.69349e-05
1.68348e-05
1.67356e-05
1.66385e-05
1.65448e-05
1.64554e-05
1.6371e-05
1.62923e-05
1.62195e-05
1.61531e-05
1.60933e-05
1.60401e-05
1.59936e-05
1.59536e-05
1.59201e-05
1.58928e-05
1.58716e-05
1.58561e-05
1.58461e-05
1.58413e-05
1.72445e-05
1.7203e-05
1.71453e-05
1.70749e-05
1.69947e-05
1.69075e-05
1.68157e-05
1.67213e-05
1.66262e-05
1.65319e-05
1.64397e-05
1.63507e-05
1.62658e-05
1.61856e-05
1.61107e-05
1.60416e-05
1.59785e-05
1.59216e-05
1.58711e-05
1.58269e-05
1.57889e-05
1.5757e-05
1.57311e-05
1.5711e-05
1.56963e-05
1.56868e-05
1.56822e-05
1.70201e-05
1.69806e-05
1.69257e-05
1.68587e-05
1.67824e-05
1.66995e-05
1.66121e-05
1.65224e-05
1.64319e-05
1.63422e-05
1.62544e-05
1.61697e-05
1.60889e-05
1.60126e-05
1.59413e-05
1.58756e-05
1.58155e-05
1.57614e-05
1.57133e-05
1.56712e-05
1.56351e-05
1.56048e-05
1.55801e-05
1.55609e-05
1.55469e-05
1.55379e-05
1.55335e-05
1.681e-05
1.67725e-05
1.67202e-05
1.66563e-05
1.65836e-05
1.65046e-05
1.64214e-05
1.63359e-05
1.62497e-05
1.61642e-05
1.60806e-05
1.59998e-05
1.59228e-05
1.58501e-05
1.57822e-05
1.57195e-05
1.56623e-05
1.56107e-05
1.55649e-05
1.55247e-05
1.54903e-05
1.54614e-05
1.54379e-05
1.54196e-05
1.54063e-05
1.53977e-05
1.53936e-05
1.66124e-05
1.65766e-05
1.65267e-05
1.64657e-05
1.63964e-05
1.6321e-05
1.62416e-05
1.61599e-05
1.60777e-05
1.59961e-05
1.59163e-05
1.58392e-05
1.57657e-05
1.56963e-05
1.56315e-05
1.55716e-05
1.5517e-05
1.54678e-05
1.5424e-05
1.53858e-05
1.53529e-05
1.53253e-05
1.53029e-05
1.52855e-05
1.52728e-05
1.52645e-05
1.52606e-05
1.64253e-05
1.63911e-05
1.63434e-05
1.62851e-05
1.62189e-05
1.61468e-05
1.60709e-05
1.59928e-05
1.59142e-05
1.58362e-05
1.57599e-05
1.56862e-05
1.56159e-05
1.55496e-05
1.54876e-05
1.54304e-05
1.53782e-05
1.53312e-05
1.52894e-05
1.52528e-05
1.52214e-05
1.5195e-05
1.51736e-05
1.5157e-05
1.51448e-05
1.5137e-05
1.51332e-05
1.62471e-05
1.62143e-05
1.61686e-05
1.61129e-05
1.60494e-05
1.59804e-05
1.59077e-05
1.5833e-05
1.57577e-05
1.5683e-05
1.561e-05
1.55394e-05
1.54721e-05
1.54086e-05
1.53493e-05
1.52946e-05
1.52446e-05
1.51996e-05
1.51595e-05
1.51245e-05
1.50945e-05
1.50693e-05
1.50488e-05
1.50328e-05
1.50212e-05
1.50137e-05
1.50101e-05
1.60761e-05
1.60447e-05
1.60009e-05
1.59474e-05
1.58866e-05
1.58204e-05
1.57507e-05
1.5679e-05
1.56068e-05
1.55352e-05
1.54652e-05
1.53975e-05
1.5333e-05
1.52721e-05
1.52152e-05
1.51627e-05
1.51149e-05
1.50717e-05
1.50333e-05
1.49998e-05
1.4971e-05
1.49468e-05
1.49272e-05
1.49119e-05
1.49008e-05
1.48936e-05
1.48901e-05
1.5911e-05
1.58808e-05
1.58388e-05
1.57874e-05
1.5729e-05
1.56654e-05
1.55984e-05
1.55296e-05
1.54603e-05
1.53915e-05
1.53242e-05
1.52593e-05
1.51973e-05
1.51388e-05
1.50842e-05
1.50339e-05
1.49879e-05
1.49465e-05
1.49097e-05
1.48775e-05
1.48498e-05
1.48267e-05
1.48078e-05
1.47932e-05
1.47825e-05
1.47756e-05
1.47723e-05
1.57505e-05
1.57215e-05
1.5681e-05
1.56316e-05
1.55753e-05
1.55142e-05
1.54498e-05
1.53836e-05
1.53169e-05
1.52507e-05
1.5186e-05
1.51236e-05
1.5064e-05
1.50077e-05
1.49553e-05
1.49068e-05
1.48626e-05
1.48228e-05
1.47874e-05
1.47565e-05
1.47299e-05
1.47077e-05
1.46896e-05
1.46755e-05
1.46653e-05
1.46586e-05
1.46554e-05
1.55934e-05
1.55653e-05
1.55264e-05
1.54787e-05
1.54245e-05
1.53656e-05
1.53036e-05
1.52398e-05
1.51755e-05
1.51118e-05
1.50494e-05
1.49893e-05
1.49319e-05
1.48777e-05
1.48272e-05
1.47806e-05
1.4738e-05
1.46997e-05
1.46657e-05
1.46359e-05
1.46104e-05
1.4589e-05
1.45716e-05
1.4558e-05
1.45481e-05
1.45418e-05
1.45387e-05
1.54383e-05
1.54113e-05
1.53737e-05
1.53277e-05
1.52754e-05
1.52185e-05
1.51586e-05
1.5097e-05
1.5035e-05
1.49735e-05
1.49134e-05
1.48554e-05
1.48e-05
1.47478e-05
1.46991e-05
1.46541e-05
1.46131e-05
1.45761e-05
1.45433e-05
1.45147e-05
1.449e-05
1.44694e-05
1.44527e-05
1.44396e-05
1.44301e-05
1.4424e-05
1.4421e-05
1.52842e-05
1.52581e-05
1.52217e-05
1.51772e-05
1.51267e-05
1.50717e-05
1.50138e-05
1.49543e-05
1.48943e-05
1.48349e-05
1.47768e-05
1.47207e-05
1.46672e-05
1.46167e-05
1.45697e-05
1.45263e-05
1.44867e-05
1.4451e-05
1.44193e-05
1.43917e-05
1.43679e-05
1.4348e-05
1.43318e-05
1.43193e-05
1.43101e-05
1.43042e-05
1.43013e-05
1.51299e-05
1.51045e-05
1.50693e-05
1.50262e-05
1.49772e-05
1.49239e-05
1.48678e-05
1.48102e-05
1.47521e-05
1.46946e-05
1.46383e-05
1.4584e-05
1.45323e-05
1.44834e-05
1.44379e-05
1.43959e-05
1.43576e-05
1.43231e-05
1.42925e-05
1.42658e-05
1.42428e-05
1.42236e-05
1.4208e-05
1.41958e-05
1.4187e-05
1.41812e-05
1.41785e-05
1.49738e-05
1.49492e-05
1.4915e-05
1.48732e-05
1.48256e-05
1.47739e-05
1.47194e-05
1.46635e-05
1.46072e-05
1.45513e-05
1.44968e-05
1.44441e-05
1.43939e-05
1.43466e-05
1.43024e-05
1.42617e-05
1.42246e-05
1.41912e-05
1.41616e-05
1.41357e-05
1.41135e-05
1.40948e-05
1.40797e-05
1.40679e-05
1.40594e-05
1.40538e-05
1.40512e-05
1.48147e-05
1.47908e-05
1.47574e-05
1.47168e-05
1.46705e-05
1.46201e-05
1.45672e-05
1.45128e-05
1.4458e-05
1.44037e-05
1.43506e-05
1.42995e-05
1.42507e-05
1.42047e-05
1.41618e-05
1.41223e-05
1.40863e-05
1.40538e-05
1.40251e-05
1.39999e-05
1.39783e-05
1.39603e-05
1.39456e-05
1.39342e-05
1.39259e-05
1.39205e-05
1.39179e-05
1.46508e-05
1.46275e-05
1.4595e-05
1.45553e-05
1.45101e-05
1.4461e-05
1.44094e-05
1.43563e-05
1.43029e-05
1.42499e-05
1.41982e-05
1.41484e-05
1.41008e-05
1.4056e-05
1.40143e-05
1.39758e-05
1.39408e-05
1.39092e-05
1.38812e-05
1.38567e-05
1.38357e-05
1.38182e-05
1.38039e-05
1.37928e-05
1.37847e-05
1.37795e-05
1.3777e-05
1.44803e-05
1.44575e-05
1.44256e-05
1.43868e-05
1.43426e-05
1.42946e-05
1.4244e-05
1.41921e-05
1.41399e-05
1.40881e-05
1.40376e-05
1.39889e-05
1.39424e-05
1.38987e-05
1.38579e-05
1.38204e-05
1.37862e-05
1.37554e-05
1.3728e-05
1.37041e-05
1.36837e-05
1.36665e-05
1.36526e-05
1.36418e-05
1.36339e-05
1.36288e-05
1.36264e-05
1.4301e-05
1.42785e-05
1.42473e-05
1.42091e-05
1.41657e-05
1.41186e-05
1.4069e-05
1.4018e-05
1.39668e-05
1.3916e-05
1.38665e-05
1.38187e-05
1.37732e-05
1.37303e-05
1.36904e-05
1.36536e-05
1.36201e-05
1.35899e-05
1.35632e-05
1.35398e-05
1.35197e-05
1.35029e-05
1.34893e-05
1.34787e-05
1.3471e-05
1.3466e-05
1.34636e-05
1.41103e-05
1.40881e-05
1.40573e-05
1.40197e-05
1.39769e-05
1.39305e-05
1.38816e-05
1.38314e-05
1.37809e-05
1.3731e-05
1.36822e-05
1.36352e-05
1.35904e-05
1.35483e-05
1.3509e-05
1.34728e-05
1.34398e-05
1.34101e-05
1.33838e-05
1.33608e-05
1.33411e-05
1.33246e-05
1.33112e-05
1.33008e-05
1.32932e-05
1.32883e-05
1.3286e-05
1.39052e-05
1.38833e-05
1.38528e-05
1.38155e-05
1.37732e-05
1.37272e-05
1.36788e-05
1.36292e-05
1.35793e-05
1.35299e-05
1.34817e-05
1.34352e-05
1.33909e-05
1.33492e-05
1.33104e-05
1.32746e-05
1.3242e-05
1.32126e-05
1.31866e-05
1.31639e-05
1.31444e-05
1.31281e-05
1.31149e-05
1.31046e-05
1.30972e-05
1.30923e-05
1.309e-05
1.36825e-05
1.36606e-05
1.36303e-05
1.35932e-05
1.35511e-05
1.35054e-05
1.34573e-05
1.34079e-05
1.33583e-05
1.33091e-05
1.32612e-05
1.32149e-05
1.31709e-05
1.31294e-05
1.30908e-05
1.30551e-05
1.30227e-05
1.29936e-05
1.29677e-05
1.29451e-05
1.29258e-05
1.29096e-05
1.28964e-05
1.28862e-05
1.28788e-05
1.2874e-05
1.28717e-05
1.34382e-05
1.34164e-05
1.3386e-05
1.33489e-05
1.33068e-05
1.3261e-05
1.32128e-05
1.31634e-05
1.31137e-05
1.30644e-05
1.30163e-05
1.297e-05
1.29259e-05
1.28843e-05
1.28456e-05
1.28099e-05
1.27775e-05
1.27483e-05
1.27224e-05
1.26998e-05
1.26804e-05
1.26643e-05
1.26511e-05
1.26409e-05
1.26335e-05
1.26288e-05
1.26264e-05
1.31682e-05
1.31462e-05
1.31155e-05
1.3078e-05
1.30354e-05
1.29892e-05
1.29405e-05
1.28905e-05
1.28403e-05
1.27905e-05
1.27419e-05
1.26951e-05
1.26506e-05
1.26086e-05
1.25695e-05
1.25336e-05
1.25008e-05
1.24714e-05
1.24453e-05
1.24225e-05
1.2403e-05
1.23867e-05
1.23735e-05
1.23633e-05
1.23558e-05
1.2351e-05
1.23487e-05
1.28665e-05
1.2844e-05
1.28127e-05
1.27745e-05
1.27311e-05
1.26839e-05
1.26343e-05
1.25834e-05
1.25322e-05
1.24815e-05
1.2432e-05
1.23843e-05
1.2339e-05
1.22963e-05
1.22565e-05
1.22199e-05
1.21866e-05
1.21567e-05
1.21302e-05
1.21071e-05
1.20873e-05
1.20708e-05
1.20574e-05
1.2047e-05
1.20395e-05
1.20346e-05
1.20322e-05
1.25263e-05
1.25032e-05
1.2471e-05
1.24317e-05
1.23871e-05
1.23386e-05
1.22876e-05
1.22352e-05
1.21826e-05
1.21305e-05
1.20797e-05
1.20308e-05
1.19842e-05
1.19404e-05
1.18997e-05
1.18622e-05
1.18281e-05
1.17974e-05
1.17703e-05
1.17467e-05
1.17264e-05
1.17095e-05
1.16958e-05
1.16852e-05
1.16775e-05
1.16725e-05
1.16701e-05
1.21407e-05
1.21167e-05
1.20833e-05
1.20425e-05
1.19962e-05
1.19459e-05
1.1893e-05
1.18388e-05
1.17843e-05
1.17304e-05
1.16778e-05
1.16271e-05
1.1579e-05
1.15337e-05
1.14916e-05
1.14529e-05
1.14177e-05
1.1386e-05
1.13581e-05
1.13337e-05
1.13128e-05
1.12954e-05
1.12813e-05
1.12704e-05
1.12625e-05
1.12574e-05
1.12549e-05
1.17018e-05
1.16767e-05
1.16418e-05
1.15992e-05
1.15508e-05
1.14983e-05
1.14431e-05
1.13865e-05
1.13296e-05
1.12733e-05
1.12185e-05
1.11657e-05
1.11156e-05
1.10684e-05
1.10246e-05
1.09843e-05
1.09477e-05
1.09149e-05
1.08859e-05
1.08606e-05
1.08389e-05
1.08209e-05
1.08063e-05
1.0795e-05
1.07868e-05
1.07815e-05
1.0779e-05
1.1202e-05
1.11756e-05
1.11389e-05
1.10941e-05
1.10432e-05
1.0988e-05
1.093e-05
1.08705e-05
1.08108e-05
1.07518e-05
1.06943e-05
1.0639e-05
1.05865e-05
1.05372e-05
1.04913e-05
1.04492e-05
1.0411e-05
1.03767e-05
1.03464e-05
1.032e-05
1.02975e-05
1.02787e-05
1.02635e-05
1.02517e-05
1.02432e-05
1.02377e-05
1.02351e-05
1.06341e-05
1.06062e-05
1.05674e-05
1.05201e-05
1.04663e-05
1.04081e-05
1.03469e-05
1.02842e-05
1.02213e-05
1.01592e-05
1.00987e-05
1.00406e-05
9.98539e-06
9.93359e-06
9.88549e-06
9.84134e-06
9.80128e-06
9.76538e-06
9.73367e-06
9.70608e-06
9.68254e-06
9.66292e-06
9.64705e-06
9.63477e-06
9.62588e-06
9.62017e-06
9.61743e-06
9.99224e-06
9.96271e-06
9.92167e-06
9.87165e-06
9.81488e-06
9.75334e-06
9.68877e-06
9.62269e-06
9.55637e-06
9.49094e-06
9.42728e-06
9.36617e-06
9.30818e-06
9.25379e-06
9.20334e-06
9.15706e-06
9.11511e-06
9.07754e-06
9.04438e-06
9.01555e-06
8.99097e-06
8.97049e-06
8.95395e-06
8.94115e-06
8.9319e-06
8.92595e-06
8.9231e-06
9.27369e-06
9.24253e-06
9.19924e-06
9.1465e-06
9.08669e-06
9.0219e-06
8.95397e-06
8.8845e-06
8.81486e-06
8.7462e-06
8.67947e-06
8.61546e-06
8.55479e-06
8.49794e-06
8.44524e-06
8.39696e-06
8.35322e-06
8.31409e-06
8.27958e-06
8.2496e-06
8.22406e-06
8.2028e-06
8.18564e-06
8.17237e-06
8.16278e-06
8.15662e-06
8.15367e-06
8.48035e-06
8.44772e-06
8.40239e-06
8.34721e-06
8.28468e-06
8.21701e-06
8.14613e-06
8.07371e-06
8.00119e-06
7.92977e-06
7.86044e-06
7.79401e-06
7.73111e-06
7.67223e-06
7.61772e-06
7.56782e-06
7.52266e-06
7.48231e-06
7.44674e-06
7.41588e-06
7.3896e-06
7.36775e-06
7.35013e-06
7.33651e-06
7.32667e-06
7.32037e-06
7.31734e-06
7.62082e-06
7.58707e-06
7.54024e-06
7.48327e-06
7.41877e-06
7.34904e-06
7.2761e-06
7.20166e-06
7.12721e-06
7.05399e-06
6.983e-06
6.91507e-06
6.85083e-06
6.79076e-06
6.73523e-06
6.68444e-06
6.63854e-06
6.59757e-06
6.56149e-06
6.53021e-06
6.50361e-06
6.48151e-06
6.46369e-06
6.44994e-06
6.44001e-06
6.43365e-06
6.4306e-06
6.71195e-06
6.67772e-06
6.63024e-06
6.57255e-06
6.50732e-06
6.43688e-06
6.36329e-06
6.2883e-06
6.21342e-06
6.13987e-06
6.06868e-06
6.00065e-06
5.93641e-06
5.87643e-06
5.82105e-06
5.77047e-06
5.72481e-06
5.6841e-06
5.6483e-06
5.61729e-06
5.59095e-06
5.56907e-06
5.55146e-06
5.53788e-06
5.52807e-06
5.5218e-06
5.51879e-06
5.77922e-06
5.74536e-06
5.69844e-06
5.64148e-06
5.57716e-06
5.50781e-06
5.43548e-06
5.36189e-06
5.28852e-06
5.21658e-06
5.14706e-06
5.08074e-06
5.01822e-06
4.95993e-06
4.90619e-06
4.85718e-06
4.813e-06
4.77365e-06
4.73908e-06
4.70919e-06
4.68381e-06
4.66276e-06
4.64583e-06
4.63278e-06
4.62337e-06
4.61735e-06
4.61447e-06
4.85482e-06
4.82233e-06
4.77734e-06
4.72281e-06
4.6613e-06
4.59509e-06
4.52615e-06
4.45613e-06
4.38646e-06
4.31827e-06
4.25249e-06
4.18985e-06
4.13089e-06
4.07602e-06
4.02551e-06
3.97952e-06
3.93812e-06
3.90129e-06
3.86899e-06
3.84107e-06
3.81741e-06
3.79779e-06
3.78203e-06
3.76989e-06
3.76115e-06
3.75556e-06
3.75288e-06
3.97312e-06
3.94296e-06
3.90125e-06
3.85074e-06
3.79386e-06
3.73274e-06
3.6692e-06
3.6048e-06
3.54083e-06
3.47835e-06
3.41818e-06
3.36099e-06
3.30726e-06
3.25735e-06
3.21147e-06