/*--------------------------------*- C++ -*----------------------------------*\
| =========                 |                                                 |
| \\      /  F ield         | OpenFOAM: The Open Source CFD Toolbox           |
|  \\    /   O peration     | Version:  2106                                  |
|   \\  /    A nd           | Website:  www.openfoam.com                      |
|    \\/     M anipulation  |                                                 |
\*---------------------------------------------------------------------------*/
FoamFile
{
    version     2.0;
    format      ascii;
    arch        "LSB;label=32;scalar=64";
    class       volScalarField;
    location    "149.99958";
    object      PC3H4;
}
// * * * * * * * * * * * * * * * * * * * * * * * * * * * * * * * * * * * * * //

dimensions      [0 0 0 0 0 0 0];

internalField   nonuniform List<scalar> 
3360
(
1.98928e-17
2.05329e-17
2.14237e-17
2.25133e-17
2.37564e-17
2.5112e-17
2.65434e-17
2.80174e-17
2.95044e-17
3.09781e-17
3.2416e-17
3.37989e-17
3.51108e-17
3.63391e-17
3.74742e-17
3.85094e-17
3.94405e-17
4.02657e-17
4.09855e-17
4.16018e-17
4.21186e-17
4.25406e-17
4.28739e-17
4.31254e-17
4.33023e-17
4.34123e-17
4.34634e-17
8.72646e-17
9.0472e-17
9.4998e-17
1.00634e-16
1.07209e-16
1.1457e-16
1.22584e-16
1.31127e-16
1.40085e-16
1.4935e-16
1.58818e-16
1.68387e-16
1.77958e-16
1.87432e-16
1.96713e-16
2.05706e-16
2.14316e-16
2.22455e-16
2.30035e-16
2.36975e-16
2.432e-16
2.48646e-16
2.53255e-16
2.56982e-16
2.59795e-16
2.61673e-16
2.6261e-16
2.73806e-16
2.85822e-16
3.02897e-16
3.24353e-16
3.49628e-16
3.78216e-16
4.09638e-16
4.43419e-16
4.7908e-16
5.16134e-16
5.54079e-16
5.9242e-16
6.30664e-16
6.68327e-16
7.0494e-16
7.40055e-16
7.73262e-16
8.04191e-16
8.32519e-16
8.57981e-16
8.80372e-16
8.99545e-16
9.15418e-16
9.27964e-16
9.37213e-16
9.43245e-16
9.46181e-16
7.974e-16
8.37005e-16
8.9366e-16
9.6534e-16
1.05035e-15
1.1471e-15
1.25401e-15
1.36943e-15
1.49164e-15
1.61882e-15
1.7491e-15
1.88057e-15
2.01134e-15
2.13957e-15
2.26352e-15
2.38156e-15
2.49228e-15
2.59448e-15
2.68716e-15
2.76962e-15
2.84137e-15
2.90215e-15
2.95193e-15
2.99086e-15
3.01927e-15
3.03762e-15
3.04647e-15
2.32969e-15
2.45463e-15
2.6337e-15
2.86078e-15
3.13068e-15
3.43841e-15
3.77884e-15
4.14654e-15
4.53571e-15
4.94025e-15
5.35384e-15
5.77012e-15
6.18283e-15
6.58602e-15
6.97415e-15
7.34229e-15
7.68616e-15
8.00224e-15
8.2878e-15
8.54088e-15
8.76031e-15
8.94558e-15
9.09686e-15
9.21485e-15
9.30073e-15
9.35606e-15
9.38269e-15
6.869e-15
7.25268e-15
7.80328e-15
8.50211e-15
9.33318e-15
1.0281e-14
1.13295e-14
1.24618e-14
1.36594e-14
1.49033e-14
1.61737e-14
1.74506e-14
1.87148e-14
1.99478e-14
2.11327e-14
2.22545e-14
2.33005e-14
2.42602e-14
2.51256e-14
2.58913e-14
2.6554e-14
2.71127e-14
2.75682e-14
2.7923e-14
2.81809e-14
2.83468e-14
2.84266e-14
2.04042e-14
2.157e-14
2.3243e-14
2.53665e-14
2.78916e-14
3.07708e-14
3.39546e-14
3.73905e-14
4.10223e-14
4.47913e-14
4.86369e-14
5.24988e-14
5.63183e-14
6.00399e-14
6.3613e-14
6.6993e-14
7.01418e-14
7.30287e-14
7.56304e-14
7.79309e-14
7.99212e-14
8.15983e-14
8.29651e-14
8.40294e-14
8.48029e-14
8.53005e-14
8.55397e-14
6.08105e-14
6.43185e-14
6.93549e-14
7.57497e-14
8.3356e-14
9.20303e-14
1.01623e-13
1.11974e-13
1.22914e-13
1.34265e-13
1.45842e-13
1.57465e-13
1.68956e-13
1.80147e-13
1.90888e-13
2.01043e-13
2.10499e-13
2.19165e-13
2.26972e-13
2.33871e-13
2.39838e-13
2.44863e-13
2.48958e-13
2.52144e-13
2.54459e-13
2.55948e-13
2.56664e-13
1.81711e-13
1.92254e-13
2.07387e-13
2.26598e-13
2.49447e-13
2.75499e-13
3.04301e-13
3.35374e-13
3.68202e-13
4.0225e-13
4.36968e-13
4.71808e-13
5.0624e-13
5.39765e-13
5.7193e-13
6.02333e-13
6.30638e-13
6.56572e-13
6.79929e-13
7.00571e-13
7.1842e-13
7.33452e-13
7.45699e-13
7.5523e-13
7.62155e-13
7.66608e-13
7.68748e-13
5.42992e-13
5.74565e-13
6.19893e-13
6.77444e-13
7.4589e-13
8.23931e-13
9.10208e-13
1.00327e-12
1.10159e-12
1.20354e-12
1.30749e-12
1.41177e-12
1.51482e-12
1.61513e-12
1.71135e-12
1.80228e-12
1.88691e-12
1.96444e-12
2.03424e-12
2.09592e-12
2.14923e-12
2.19412e-12
2.23069e-12
2.25914e-12
2.2798e-12
2.29309e-12
2.29948e-12
1.6233e-12
1.7178e-12
1.85345e-12
2.02564e-12
2.23039e-12
2.46378e-12
2.72172e-12
2.99988e-12
3.29364e-12
3.59816e-12
3.90852e-12
4.21981e-12
4.52729e-12
4.82652e-12
5.11345e-12
5.38453e-12
5.63678e-12
5.86779e-12
6.07575e-12
6.25946e-12
6.41825e-12
6.55193e-12
6.6608e-12
6.74551e-12
6.80703e-12
6.84658e-12
6.86559e-12
4.84795e-12
5.13006e-12
5.53496e-12
6.04886e-12
6.65978e-12
7.35597e-12
8.1252e-12
8.95444e-12
9.82987e-12
1.0737e-11
1.16613e-11
1.25879e-11
1.35028e-11
1.43928e-11
1.52459e-11
1.60516e-11
1.6801e-11
1.74871e-11
1.81045e-11
1.86497e-11
1.91207e-11
1.95172e-11
1.984e-11
2.0091e-11
2.02733e-11
2.03905e-11
2.04468e-11
1.44611e-11
1.53017e-11
1.65077e-11
1.80376e-11
1.98554e-11
2.19258e-11
2.4212e-11
2.66749e-11
2.92733e-11
3.19641e-11
3.47035e-11
3.74482e-11
4.01564e-11
4.27892e-11
4.53112e-11
4.76915e-11
4.99044e-11
5.19292e-11
5.37505e-11
5.53581e-11
5.67465e-11
5.79147e-11
5.88654e-11
5.96047e-11
6.01414e-11
6.04863e-11
6.06519e-11
4.3005e-11
4.54975e-11
4.90723e-11
5.3605e-11
5.89874e-11
6.51133e-11
7.18723e-11
7.91478e-11
8.68164e-11
9.47504e-11
1.0282e-10
1.10898e-10
1.18861e-10
1.26594e-10
1.33996e-10
1.40975e-10
1.47458e-10
1.53385e-10
1.58712e-10
1.6341e-10
1.67465e-10
1.70875e-10
1.73648e-10
1.75804e-10
1.77368e-10
1.78372e-10
1.78855e-10
1.27405e-10
1.34753e-10
1.45285e-10
1.58628e-10
1.74456e-10
1.92449e-10
2.12277e-10
2.33591e-10
2.56026e-10
2.79203e-10
3.02743e-10
3.26272e-10
3.49433e-10
3.71896e-10
3.93365e-10
4.13584e-10
4.32342e-10
4.49471e-10
4.6485e-10
4.784e-10
4.90085e-10
4.99902e-10
5.0788e-10
5.14077e-10
5.18571e-10
5.21456e-10
5.2284e-10
3.75162e-10
3.96614e-10
4.27333e-10
4.66204e-10
5.1225e-10
5.64514e-10
6.2201e-10
6.83703e-10
7.48517e-10
8.15348e-10
8.83092e-10
9.50672e-10
1.01707e-09
1.08134e-09
1.14266e-09
1.20031e-09
1.2537e-09
1.30238e-09
1.34602e-09
1.38441e-09
1.41748e-09
1.44523e-09
1.46775e-09
1.48523e-09
1.49789e-09
1.50602e-09
1.50991e-09
1.09596e-09
1.15776e-09
1.24613e-09
1.35778e-09
1.48977e-09
1.63926e-09
1.80331e-09
1.9789e-09
2.16288e-09
2.35209e-09
2.54337e-09
2.73369e-09
2.92018e-09
3.10026e-09
3.27165e-09
3.4324e-09
3.58096e-09
3.71613e-09
3.83706e-09
3.94329e-09
4.03461e-09
4.11113e-09
4.17316e-09
4.22123e-09
4.25602e-09
4.27831e-09
4.28899e-09
3.16717e-09
3.3419e-09
3.59135e-09
3.90578e-09
4.27654e-09
4.69519e-09
5.15319e-09
5.64176e-09
6.15195e-09
6.67481e-09
7.20158e-09
7.72391e-09
8.23408e-09
8.72513e-09
9.19105e-09
9.6268e-09
1.00284e-08
1.03928e-08
1.07182e-08
1.10033e-08
1.12479e-08
1.14525e-08
1.16181e-08
1.17462e-08
1.18388e-08
1.1898e-08
1.19264e-08
9.02449e-09
9.50649e-09
1.0193e-08
1.10559e-08
1.20699e-08
1.32106e-08
1.44535e-08
1.57737e-08
1.71465e-08
1.85474e-08
1.99528e-08
2.13406e-08
2.26907e-08
2.39852e-08
2.52091e-08
2.63498e-08
2.73977e-08
2.83459e-08
2.919e-08
2.99279e-08
3.05596e-08
3.10868e-08
3.15126e-08
3.18416e-08
3.20789e-08
3.22307e-08
3.23032e-08
2.52469e-08
2.65348e-08
2.83643e-08
3.06555e-08
3.33369e-08
3.63396e-08
3.95955e-08
4.30369e-08
4.65974e-08
5.02126e-08
5.38219e-08
5.73692e-08
6.08045e-08
6.40844e-08
6.71726e-08
7.00402e-08
7.26653e-08
7.50329e-08
7.71343e-08
7.89662e-08
8.05305e-08
8.18331e-08
8.28833e-08
8.3693e-08
8.42763e-08
8.46487e-08
8.48264e-08
6.90128e-08
7.23224e-08
7.70089e-08
8.28544e-08
8.96633e-08
9.72488e-08
1.0543e-07
1.14029e-07
1.22876e-07
1.31811e-07
1.40684e-07
1.49361e-07
1.57724e-07
1.65673e-07
1.73125e-07
1.80018e-07
1.86305e-07
1.91957e-07
1.96958e-07
2.01305e-07
2.05009e-07
2.08085e-07
2.10561e-07
2.12466e-07
2.13837e-07
2.1471e-07
2.15127e-07
1.83313e-07
1.9144e-07
2.02909e-07
2.17152e-07
2.33661e-07
2.51954e-07
2.71572e-07
2.92076e-07
3.13054e-07
3.34122e-07
3.54935e-07
3.75185e-07
3.94609e-07
4.12989e-07
4.30152e-07
4.45966e-07
4.60339e-07
4.73219e-07
4.84582e-07
4.94435e-07
5.02808e-07
5.0975e-07
5.15324e-07
5.19607e-07
5.22683e-07
5.24641e-07
5.25574e-07
4.70599e-07
4.89585e-07
5.1629e-07
5.49317e-07
5.87412e-07
6.29404e-07
6.74195e-07
7.20758e-07
7.68142e-07
8.15486e-07
8.62026e-07
9.07097e-07
9.50144e-07
9.90712e-07
1.02845e-06
1.0631e-06
1.0945e-06
1.12256e-06
1.14724e-06
1.1686e-06
1.18671e-06
1.20169e-06
1.21371e-06
1.22292e-06
1.22954e-06
1.23374e-06
1.23574e-06
1.16218e-06
1.20434e-06
1.26346e-06
1.3363e-06
1.41995e-06
1.51175e-06
1.6092e-06
1.71003e-06
1.81217e-06
1.91377e-06
2.01322e-06
2.10915e-06
2.20044e-06
2.28618e-06
2.36568e-06
2.43848e-06
2.50427e-06
2.56291e-06
2.6144e-06
2.65885e-06
2.69649e-06
2.72758e-06
2.75247e-06
2.77154e-06
2.78521e-06
2.79389e-06
2.79801e-06
2.75247e-06
2.84166e-06
2.96644e-06
3.11972e-06
3.29515e-06
3.48695e-06
3.6898e-06
3.8989e-06
4.10995e-06
4.31916e-06
4.52328e-06
4.71959e-06
4.90585e-06
5.08033e-06
5.24175e-06
5.38923e-06
5.52224e-06
5.64058e-06
5.74433e-06
5.83378e-06
5.90939e-06
5.97179e-06
6.02169e-06
6.05989e-06
6.08724e-06
6.1046e-06
6.11285e-06
6.24301e-06
6.42385e-06
6.67642e-06
6.98599e-06
7.33943e-06
7.72482e-06
8.13134e-06
8.54926e-06
8.96997e-06
9.38596e-06
9.79085e-06
1.01793e-05
1.05471e-05
1.0891e-05
1.12085e-05
1.1498e-05
1.17587e-05
1.19903e-05
1.21931e-05
1.23676e-05
1.2515e-05
1.26366e-05
1.27336e-05
1.28079e-05
1.2861e-05
1.28947e-05
1.29107e-05
1.35554e-05
1.39092e-05
1.44027e-05
1.50068e-05
1.56954e-05
1.6445e-05
1.72342e-05
1.80442e-05
1.88582e-05
1.96618e-05
2.04428e-05
2.11911e-05
2.18987e-05
2.25593e-05
2.31686e-05
2.37237e-05
2.42231e-05
2.46663e-05
2.5054e-05
2.53875e-05
2.56689e-05
2.59007e-05
2.60858e-05
2.62273e-05
2.63284e-05
2.63925e-05
2.64229e-05
2.81319e-05
2.88033e-05
2.97396e-05
3.08854e-05
3.2191e-05
3.3612e-05
3.51081e-05
3.66434e-05
3.81864e-05
3.97099e-05
4.11906e-05
4.26097e-05
4.39518e-05
4.52053e-05
4.63617e-05
4.74154e-05
4.83634e-05
4.92051e-05
4.99413e-05
5.05748e-05
5.11093e-05
5.15495e-05
5.1901e-05
5.21696e-05
5.23615e-05
5.24832e-05
5.25409e-05
5.56034e-05
5.68417e-05
5.85699e-05
6.06868e-05
6.31023e-05
6.57354e-05
6.85127e-05
7.13689e-05
7.4246e-05
7.70937e-05
7.98691e-05
8.25363e-05
8.50661e-05
8.74358e-05
8.96285e-05
9.16325e-05
9.3441e-05
9.50511e-05
9.64636e-05
9.76823e-05
9.87133e-05
9.95646e-05
0.000100246
0.000100768
0.000101141
0.000101379
0.000101491
0.00010399
0.000106179
0.000109239
0.000112995
0.000117291
0.000121987
0.000126957
0.000132089
0.000137279
0.00014244
0.000147495
0.000152377
0.000157033
0.000161419
0.000165502
0.000169255
0.000172662
0.000175714
0.000178408
0.000180748
0.000182739
0.000184394
0.000185727
0.000186753
0.000187492
0.000187964
0.00018819
0.000182422
0.000186021
0.000191056
0.000197242
0.00020433
0.000212093
0.000220327
0.000228849
0.000237494
0.000246117
0.000254592
0.00026281
0.00027068
0.000278126
0.000285086
0.000291514
0.000297375
0.000302649
0.000307324
0.000311401
0.000314886
0.000317794
0.000320144
0.000321962
0.000323277
0.00032412
0.000324524
0.00029779
0.000303094
0.000310507
0.000319608
0.000330022
0.000341412
0.000353474
0.000365934
0.000378549
0.000391106
0.000403419
0.00041533
0.000426708
0.000437444
0.000447456
0.000456679
0.00046507
0.000472603
0.000479269
0.00048507
0.00049002
0.000494143
0.000497471
0.000500043
0.000501901
0.00050309
0.00050366
0.000450363
0.000457194
0.000466712
0.000478346
0.000491589
0.000505991
0.000521146
0.000536698
0.000552334
0.000567785
0.000582826
0.000597269
0.000610964
0.000623792
0.000635669
0.000646534
0.000656353
0.000665111
0.000672812
0.000679475
0.000685128
0.000689813
0.000693576
0.000696471
0.000698553
0.000699881
0.000700515
0.000630241
0.000637846
0.000648397
0.00066122
0.000675719
0.000691367
0.000707699
0.000724313
0.000740868
0.000757079
0.000772714
0.00078759
0.000801568
0.000814547
0.00082646
0.000837268
0.000846957
0.000855534
0.000863021
0.000869453
0.000874876
0.000879342
0.000882909
0.000885638
0.000887591
0.000888831
0.00088942
0.000819489
0.000826893
0.000837119
0.000849478
0.000863361
0.000878232
0.000893631
0.000909166
0.000924513
0.000939413
0.00095366
0.000967101
0.000979625
0.000991161
0.00100167
0.00101113
0.00101955
0.00102695
0.00103338
0.00103886
0.00104346
0.00104723
0.00105022
0.0010525
0.00105413
0.00105515
0.00105564
0.000999362
0.0010058
0.00101467
0.00102533
0.00103725
0.00104993
0.00106298
0.00107605
0.00108888
0.00110125
0.001113
0.00112401
0.00113421
0.00114354
0.00115199
0.00115956
0.00116626
0.00117212
0.00117718
0.00118149
0.00118508
0.00118802
0.00119034
0.0011921
0.00119336
0.00119415
0.00119452
0.00115659
0.00116172
0.00116876
0.0011772
0.0011866
0.00119655
0.00120675
0.00121692
0.00122684
0.00123637
0.00124538
0.00125378
0.00126153
0.0012686
0.00127497
0.00128066
0.00128567
0.00129005
0.00129383
0.00129702
0.00129969
0.00130186
0.00130358
0.00130488
0.00130581
0.00130639
0.00130666
0.00128523
0.00128905
0.00129428
0.00130054
0.00130748
0.00131482
0.00132231
0.00132976
0.00133702
0.00134396
0.0013505
0.00135659
0.00136219
0.00136729
0.00137188
0.00137596
0.00137957
0.00138271
0.00138541
0.0013877
0.0013896
0.00139115
0.00139238
0.00139331
0.00139397
0.00139439
0.00139458
0.00138507
0.00138777
0.00139145
0.00139585
0.00140072
0.00140587
0.00141111
0.00141632
0.00142138
0.00142621
0.00143077
0.001435
0.00143888
0.00144242
0.0014456
0.00144843
0.00145092
0.00145309
0.00145496
0.00145654
0.00145786
0.00145894
0.00145979
0.00146043
0.00146089
0.00146118
0.00146131
0.00145909
0.0014609
0.00146337
0.00146632
0.00146958
0.00147302
0.00147653
0.00148
0.00148338
0.0014866
0.00148963
0.00149244
0.00149502
0.00149737
0.00149948
0.00150136
0.00150302
0.00150446
0.00150571
0.00150676
0.00150764
0.00150835
0.00150892
0.00150935
0.00150965
0.00150984
0.00150994
0.00151144
0.00151259
0.00151415
0.00151601
0.00151808
0.00152025
0.00152245
0.00152464
0.00152676
0.00152878
0.00153068
0.00153244
0.00153406
0.00153553
0.00153684
0.00153802
0.00153905
0.00153995
0.00154073
0.00154139
0.00154193
0.00154238
0.00154274
0.001543
0.00154319
0.00154332
0.00154337
0.0015463
0.00154695
0.00154785
0.00154892
0.00155009
0.00155133
0.00155259
0.00155383
0.00155502
0.00155616
0.00155723
0.00155822
0.00155912
0.00155994
0.00156067
0.00156132
0.0015619
0.00156239
0.00156282
0.00156318
0.00156348
0.00156373
0.00156392
0.00156407
0.00156418
0.00156424
0.00156428
0.00156727
0.00156758
0.00156799
0.00156848
0.00156901
0.00156956
0.00157012
0.00157067
0.00157119
0.00157168
0.00157213
0.00157255
0.00157292
0.00157326
0.00157355
0.00157381
0.00157404
0.00157424
0.0015744
0.00157454
0.00157466
0.00157476
0.00157483
0.00157489
0.00157493
0.00157495
0.00157496
0.00157735
0.00157739
0.00157745
0.00157752
0.00157758
0.00157763
0.00157768
0.00157771
0.00157773
0.00157774
0.00157774
0.00157773
0.00157771
0.00157768
0.00157765
0.00157762
0.00157759
0.00157756
0.00157753
0.0015775
0.00157747
0.00157745
0.00157744
0.00157742
0.00157741
0.00157741
0.00157741
0.0015789
0.00157876
0.00157856
0.00157831
0.00157802
0.00157771
0.00157737
0.00157702
0.00157667
0.00157632
0.00157598
0.00157564
0.00157533
0.00157503
0.00157475
0.0015745
0.00157427
0.00157406
0.00157388
0.00157372
0.00157359
0.00157348
0.0015734
0.00157333
0.00157328
0.00157325
0.00157324
0.0015738
0.00157351
0.00157312
0.00157264
0.00157209
0.0015715
0.00157088
0.00157024
0.00156961
0.00156899
0.00156838
0.00156781
0.00156726
0.00156676
0.00156629
0.00156587
0.00156548
0.00156514
0.00156485
0.00156459
0.00156438
0.0015642
0.00156406
0.00156395
0.00156388
0.00156383
0.0015638
0.0015635
0.00156311
0.00156257
0.00156191
0.00156117
0.00156036
0.00155952
0.00155867
0.00155783
0.00155699
0.00155619
0.00155543
0.00155471
0.00155405
0.00155344
0.00155288
0.00155238
0.00155194
0.00155155
0.00155122
0.00155094
0.00155071
0.00155053
0.00155039
0.00155029
0.00155023
0.00155019
0.00154915
0.00154868
0.00154803
0.00154723
0.00154634
0.00154537
0.00154437
0.00154335
0.00154234
0.00154135
0.0015404
0.00153949
0.00153864
0.00153785
0.00153712
0.00153647
0.00153588
0.00153536
0.0015349
0.00153451
0.00153418
0.00153391
0.00153369
0.00153353
0.00153341
0.00153333
0.0015333
0.00153164
0.00153111
0.00153037
0.00152948
0.00152846
0.00152738
0.00152625
0.0015251
0.00152396
0.00152285
0.00152178
0.00152076
0.00151981
0.00151892
0.00151811
0.00151737
0.00151671
0.00151613
0.00151562
0.00151518
0.00151482
0.00151451
0.00151427
0.00151409
0.00151395
0.00151387
0.00151383
0.00151169
0.00151111
0.00151031
0.00150933
0.00150823
0.00150705
0.00150582
0.00150458
0.00150334
0.00150214
0.00150097
0.00149987
0.00149884
0.00149788
0.001497
0.0014962
0.00149549
0.00149486
0.00149431
0.00149384
0.00149344
0.00149311
0.00149285
0.00149265
0.00149251
0.00149241
0.00149237
0.00148986
0.00148924
0.00148839
0.00148735
0.00148619
0.00148493
0.00148363
0.00148231
0.001481
0.00147972
0.00147849
0.00147733
0.00147623
0.00147522
0.00147429
0.00147344
0.00147269
0.00147202
0.00147144
0.00147094
0.00147052
0.00147017
0.0014699
0.00146969
0.00146954
0.00146944
0.00146939
0.0014666
0.00146596
0.00146507
0.00146399
0.00146277
0.00146147
0.00146011
0.00145873
0.00145737
0.00145603
0.00145475
0.00145354
0.0014524
0.00145134
0.00145037
0.0014495
0.00144871
0.00144802
0.00144741
0.00144689
0.00144646
0.0014461
0.00144581
0.00144559
0.00144543
0.00144533
0.00144528
0.00144229
0.00144162
0.00144071
0.0014396
0.00143834
0.001437
0.0014356
0.00143419
0.00143278
0.00143141
0.00143009
0.00142884
0.00142767
0.00142658
0.00142558
0.00142468
0.00142388
0.00142316
0.00142254
0.00142201
0.00142156
0.00142119
0.00142089
0.00142067
0.00142051
0.0014204
0.00142035
0.00141722
0.00141654
0.00141561
0.00141447
0.0014132
0.00141183
0.0014104
0.00140896
0.00140752
0.00140612
0.00140478
0.00140351
0.00140231
0.0014012
0.00140019
0.00139927
0.00139845
0.00139772
0.00139709
0.00139655
0.00139609
0.00139571
0.00139541
0.00139518
0.00139502
0.00139491
0.00139486
0.00139164
0.00139096
0.00139001
0.00138886
0.00138757
0.00138618
0.00138474
0.00138328
0.00138183
0.00138041
0.00137905
0.00137776
0.00137655
0.00137544
0.00137441
0.00137348
0.00137265
0.00137192
0.00137128
0.00137073
0.00137027
0.00136989
0.00136958
0.00136935
0.00136918
0.00136908
0.00136903
0.00136576
0.00136507
0.00136412
0.00136296
0.00136166
0.00136027
0.00135881
0.00135734
0.00135588
0.00135446
0.00135309
0.0013518
0.00135058
0.00134946
0.00134843
0.0013475
0.00134666
0.00134592
0.00134528
0.00134473
0.00134426
0.00134388
0.00134358
0.00134334
0.00134318
0.00134307
0.00134302
0.00133974
0.00133905
0.00133809
0.00133694
0.00133564
0.00133424
0.00133278
0.00133131
0.00132985
0.00132843
0.00132706
0.00132576
0.00132455
0.00132342
0.00132239
0.00132146
0.00132063
0.00131989
0.00131925
0.00131869
0.00131823
0.00131785
0.00131754
0.00131731
0.00131714
0.00131703
0.00131698
0.00131372
0.00131303
0.00131208
0.00131092
0.00130963
0.00130823
0.00130678
0.00130532
0.00130386
0.00130244
0.00130108
0.00129979
0.00129858
0.00129746
0.00129643
0.0012955
0.00129467
0.00129394
0.0012933
0.00129275
0.00129228
0.0012919
0.0012916
0.00129137
0.0012912
0.00129109
0.00129104
0.00128781
0.00128713
0.00128618
0.00128503
0.00128374
0.00128236
0.00128092
0.00127946
0.00127802
0.00127661
0.00127526
0.00127398
0.00127277
0.00127166
0.00127064
0.00126972
0.0012689
0.00126817
0.00126753
0.00126699
0.00126653
0.00126615
0.00126585
0.00126562
0.00126545
0.00126535
0.0012653
0.00126211
0.00126143
0.0012605
0.00125936
0.00125809
0.00125671
0.00125529
0.00125385
0.00125242
0.00125102
0.00124968
0.00124841
0.00124723
0.00124612
0.00124512
0.00124421
0.00124339
0.00124267
0.00124204
0.0012415
0.00124105
0.00124067
0.00124037
0.00124015
0.00123998
0.00123988
0.00123983
0.0012367
0.00123603
0.00123511
0.00123399
0.00123273
0.00123137
0.00122996
0.00122854
0.00122713
0.00122575
0.00122443
0.00122318
0.001222
0.00122092
0.00121992
0.00121902
0.00121822
0.00121751
0.00121689
0.00121635
0.0012159
0.00121554
0.00121524
0.00121502
0.00121486
0.00121475
0.0012147
0.00121165
0.00121099
0.00121008
0.00120897
0.00120773
0.00120639
0.00120501
0.00120361
0.00120221
0.00120086
0.00119956
0.00119832
0.00119717
0.0011961
0.00119512
0.00119423
0.00119344
0.00119274
0.00119213
0.0011916
0.00119116
0.0011908
0.00119051
0.00119029
0.00119013
0.00119003
0.00118998
0.001187
0.00118635
0.00118546
0.00118437
0.00118315
0.00118184
0.00118047
0.00117909
0.00117773
0.00117639
0.00117511
0.0011739
0.00117276
0.00117171
0.00117075
0.00116988
0.0011691
0.00116841
0.00116781
0.0011673
0.00116686
0.00116651
0.00116622
0.00116601
0.00116585
0.00116575
0.0011657
0.00116281
0.00116217
0.00116129
0.00116022
0.00115902
0.00115774
0.0011564
0.00115505
0.0011537
0.0011524
0.00115114
0.00114995
0.00114884
0.00114781
0.00114686
0.00114601
0.00114524
0.00114457
0.00114398
0.00114348
0.00114305
0.0011427
0.00114242
0.00114221
0.00114206
0.00114196
0.00114191
0.0011391
0.00113848
0.00113761
0.00113657
0.0011354
0.00113413
0.00113282
0.0011315
0.00113018
0.0011289
0.00112767
0.00112651
0.00112542
0.00112441
0.00112348
0.00112265
0.0011219
0.00112124
0.00112066
0.00112017
0.00111975
0.00111941
0.00111914
0.00111893
0.00111878
0.00111868
0.00111864
0.00111592
0.00111531
0.00111446
0.00111344
0.00111229
0.00111106
0.00110978
0.00110848
0.00110719
0.00110594
0.00110474
0.0011036
0.00110253
0.00110155
0.00110064
0.00109982
0.00109909
0.00109845
0.00109788
0.0010974
0.00109699
0.00109666
0.00109639
0.00109619
0.00109604
0.00109595
0.00109591
0.00109328
0.00109268
0.00109186
0.00109086
0.00108974
0.00108853
0.00108728
0.00108601
0.00108476
0.00108353
0.00108236
0.00108125
0.00108021
0.00107924
0.00107836
0.00107756
0.00107685
0.00107622
0.00107567
0.0010752
0.0010748
0.00107447
0.00107421
0.00107401
0.00107387
0.00107378
0.00107374
0.0010712
0.00107062
0.00106982
0.00106884
0.00106775
0.00106657
0.00106535
0.00106412
0.0010629
0.0010617
0.00106056
0.00105947
0.00105846
0.00105752
0.00105666
0.00105588
0.00105519
0.00105457
0.00105404
0.00105358
0.00105319
0.00105287
0.00105262
0.00105242
0.00105228
0.0010522
0.00105215
0.00104971
0.00104915
0.00104836
0.00104742
0.00104635
0.00104521
0.00104402
0.00104282
0.00104162
0.00104046
0.00103935
0.00103829
0.00103731
0.00103639
0.00103555
0.0010348
0.00103412
0.00103352
0.001033
0.00103255
0.00103218
0.00103187
0.00103162
0.00103143
0.0010313
0.00103121
0.00103117
0.00102883
0.00102828
0.00102751
0.00102659
0.00102556
0.00102444
0.00102329
0.00102212
0.00102096
0.00101983
0.00101875
0.00101772
0.00101676
0.00101588
0.00101506
0.00101433
0.00101367
0.00101309
0.00101258
0.00101215
0.00101178
0.00101148
0.00101124
0.00101106
0.00101093
0.00101084
0.0010108
0.00100856
0.00100802
0.00100728
0.00100639
0.00100538
0.0010043
0.00100318
0.00100205
0.00100092
0.000999826
0.000998775
0.00099778
0.000996848
0.000995986
0.000995197
0.000994483
0.000993845
0.000993281
0.00099279
0.000992369
0.000992014
0.000991722
0.000991489
0.000991311
0.000991184
0.000991103
0.000991065
0.000988917
0.000988399
0.000987682
0.000986815
0.00098584
0.000984793
0.000983707
0.000982608
0.000981519
0.000980459
0.000979441
0.000978476
0.000977574
0.000976739
0.000975975
0.000975284
0.000974666
0.00097412
0.000973645
0.000973237
0.000972893
0.000972611
0.000972385
0.000972213
0.00097209
0.000972011
0.000971974
0.000969927
0.000969425
0.000968732
0.000967894
0.00096695
0.000965938
0.000964888
0.000963825
0.000962772
0.000961747
0.000960763
0.000959831
0.000958958
0.000958151
0.000957413
0.000956745
0.000956148
0.000955621
0.000955161
0.000954767
0.000954435
0.000954162
0.000953944
0.000953778
0.000953659
0.000953583
0.000953547
0.000951602
0.000951118
0.000950449
0.00094964
0.00094873
0.000947753
0.00094674
0.000945715
0.000944699
0.00094371
0.000942761
0.000941862
0.00094102
0.000940242
0.000939531
0.000938887
0.000938311
0.000937802
0.000937359
0.000936979
0.000936659
0.000936396
0.000936186
0.000936026
0.000935911
0.000935838
0.000935804
0.000933964
0.000933498
0.000932854
0.000932075
0.000931199
0.000930259
0.000929284
0.000928297
0.00092732
0.000926369
0.000925456
0.000924591
0.000923782
0.000923033
0.000922349
0.00092173
0.000921176
0.000920687
0.000920261
0.000919896
0.000919588
0.000919335
0.000919134
0.000918979
0.000918869
0.000918799
0.000918766
0.000917034
0.000916587
0.000915969
0.000915222
0.000914381
0.00091348
0.000912544
0.000911598
0.000910661
0.000909748
0.000908872
0.000908043
0.000907267
0.00090655
0.000905894
0.0009053
0.000904769
0.000904301
0.000903893
0.000903542
0.000903248
0.000903005
0.000902812
0.000902664
0.000902558
0.000902491
0.000902459
0.000900842
0.000900414
0.000899823
0.000899109
0.000898305
0.000897443
0.000896548
0.000895644
0.000894748
0.000893876
0.000893039
0.000892247
0.000891506
0.00089082
0.000890193
0.000889627
0.00088912
0.000888672
0.000888283
0.000887948
0.000887667
0.000887436
0.000887251
0.00088711
0.000887009
0.000886945
0.000886915
0.000885417
0.000885009
0.000884446
0.000883765
0.000883
0.000882179
0.000881328
0.000880467
0.000879614
0.000878784
0.000877988
0.000877235
0.00087653
0.000875878
0.000875282
0.000874743
0.000874261
0.000873836
0.000873466
0.000873148
0.000872881
0.000872661
0.000872485
0.000872351
0.000872256
0.000872195
0.000872166
0.000870792
0.000870406
0.000869872
0.000869227
0.000868502
0.000867724
0.000866918
0.000866103
0.000865296
0.00086451
0.000863756
0.000863043
0.000862376
0.00086176
0.000861196
0.000860687
0.000860231
0.000859829
0.000859479
0.000859179
0.000858926
0.000858718
0.000858553
0.000858426
0.000858336
0.000858278
0.000858251
0.000857006
0.000856643
0.00085614
0.000855533
0.00085485
0.000854117
0.000853358
0.000852591
0.000851832
0.000851093
0.000850384
0.000849714
0.000849087
0.000848507
0.000847978
0.000847499
0.000847071
0.000846693
0.000846364
0.000846083
0.000845845
0.00084565
0.000845495
0.000845376
0.000845291
0.000845237
0.000845211
0.000844102
0.000843761
0.000843291
0.000842723
0.000842085
0.000841401
0.000840691
0.000839975
0.000839265
0.000838575
0.000837914
0.000837288
0.000836703
0.000836163
0.000835669
0.000835223
0.000834824
0.000834472
0.000834166
0.000833903
0.000833682
0.0008335
0.000833356
0.000833245
0.000833166
0.000833115
0.000833092
0.000832121
0.000831805
0.000831369
0.000830843
0.000830251
0.000829617
0.00082896
0.000828296
0.00082764
0.000827001
0.00082639
0.000825811
0.00082527
0.000824771
0.000824314
0.000823902
0.000823534
0.000823209
0.000822926
0.000822684
0.00082248
0.000822312
0.000822178
0.000822076
0.000822003
0.000821957
0.000821935
0.000821106
0.000820816
0.000820416
0.000819933
0.00081939
0.000818808
0.000818206
0.000817598
0.000816996
0.000816412
0.000815852
0.000815322
0.000814828
0.000814371
0.000813954
0.000813577
0.00081324
0.000812944
0.000812685
0.000812464
0.000812278
0.000812125
0.000812003
0.00081191
0.000811843
0.000811801
0.000811781
0.000811093
0.000810831
0.000810468
0.000810029
0.000809537
0.00080901
0.000808464
0.000807914
0.000807369
0.000806841
0.000806334
0.000805855
0.000805408
0.000804996
0.000804619
0.000804279
0.000803975
0.000803708
0.000803475
0.000803275
0.000803107
0.00080297
0.00080286
0.000802776
0.000802716
0.000802678
0.00080266
0.000802111
0.000801875
0.00080155
0.000801158
0.000800718
0.000800247
0.000799759
0.000799267
0.000798781
0.000798309
0.000797857
0.00079743
0.000797032
0.000796664
0.000796329
0.000796026
0.000795756
0.000795517
0.00079531
0.000795133
0.000794984
0.000794861
0.000794763
0.000794689
0.000794636
0.000794602
0.000794586
0.000794168
0.00079396
0.000793673
0.000793327
0.000792939
0.000792524
0.000792094
0.000791661
0.000791233
0.000790818
0.000790421
0.000790046
0.000789696
0.000789373
0.000789079
0.000788813
0.000788576
0.000788368
0.000788186
0.000788031
0.0007879
0.000787793
0.000787707
0.000787642
0.000787595
0.000787566
0.000787552
0.000787252
0.000787072
0.000786823
0.000786522
0.000786185
0.000785824
0.000785452
0.000785076
0.000784705
0.000784345
0.000784001
0.000783677
0.000783374
0.000783095
0.000782841
0.000782611
0.000782407
0.000782226
0.00078207
0.000781935
0.000781823
0.00078173
0.000781657
0.0007816
0.00078156
0.000781535
0.000781522
0.000781326
0.000781172
0.000780958
0.000780701
0.000780412
0.000780104
0.000779785
0.000779464
0.000779147
0.00077884
0.000778547
0.00077827
0.000778012
0.000777774
0.000777557
0.000777362
0.000777188
0.000777034
0.000776901
0.000776787
0.000776691
0.000776612
0.000776549
0.000776502
0.000776467
0.000776446
0.000776435
0.000776326
0.000776195
0.000776015
0.000775798
0.000775554
0.000775294
0.000775026
0.000774755
0.000774488
0.00077423
0.000773983
0.00077375
0.000773533
0.000773333
0.000773151
0.000772987
0.00077284
0.000772711
0.000772599
0.000772504
0.000772423
0.000772357
0.000772305
0.000772264
0.000772236
0.000772218
0.000772209
0.000772172
0.000772064
0.000771914
0.000771734
0.000771531
0.000771316
0.000771093
0.000770868
0.000770647
0.000770433
0.000770228
0.000770036
0.000769856
0.000769691
0.00076954
0.000769404
0.000769284
0.000769177
0.000769085
0.000769006
0.000768939
0.000768885
0.000768842
0.000768808
0.000768785
0.00076877
0.000768763
0.000768792
0.000768704
0.000768583
0.000768437
0.000768273
0.000768099
0.000767919
0.000767738
0.000767559
0.000767387
0.000767222
0.000767068
0.000766924
0.000766791
0.00076667
0.000766562
0.000766465
0.00076638
0.000766307
0.000766244
0.000766191
0.000766147
0.000766113
0.000766086
0.000766067
0.000766055
0.00076605
0.000766143
0.000766076
0.000765983
0.000765871
0.000765747
0.000765615
0.000765479
0.000765342
0.000765209
0.00076508
0.000764958
0.000764844
0.000764738
0.00076464
0.000764552
0.000764473
0.000764403
0.000764341
0.000764288
0.000764242
0.000764204
0.000764173
0.000764148
0.000764129
0.000764116
0.000764107
0.000764103
0.000764234
0.00076419
0.000764129
0.000764057
0.000763977
0.000763894
0.00076381
0.000763727
0.000763649
0.000763575
0.000763508
0.000763448
0.000763393
0.000763345
0.000763302
0.000763265
0.000763233
0.000763205
0.000763181
0.000763161
0.000763145
0.000763131
0.000763121
0.000763113
0.000763107
0.000763104
0.000763102
0.000763129
0.000763111
0.000763086
0.000763057
0.000763025
0.000762992
0.000762959
0.000762927
0.000762897
0.00076287
0.000762844
0.000762821
0.000762801
0.000762783
0.000762767
0.000762753
0.000762742