/*--------------------------------*- C++ -*----------------------------------*\
| =========                 |                                                 |
| \\      /  F ield         | OpenFOAM: The Open Source CFD Toolbox           |
|  \\    /   O peration     | Version:  2106                                  |
|   \\  /    A nd           | Website:  www.openfoam.com                      |
|    \\/     M anipulation  |                                                 |
\*---------------------------------------------------------------------------*/
FoamFile
{
    version     2.0;
    format      ascii;
    arch        "LSB;label=32;scalar=64";
    class       volScalarField;
    location    "79.99952";
    object      C3H3_0;
}
// * * * * * * * * * * * * * * * * * * * * * * * * * * * * * * * * * * * * * //

dimensions      [0 0 0 0 0 0 0];

internalField   nonuniform List<scalar> 
3360
(
1.71225e-19
1.76735e-19
1.84403e-19
1.93782e-19
2.04482e-19
2.16151e-19
2.28473e-19
2.41161e-19
2.5396e-19
2.66646e-19
2.79024e-19
2.90927e-19
3.0222e-19
3.12793e-19
3.22564e-19
3.31475e-19
3.3949e-19
3.46594e-19
3.5279e-19
3.58095e-19
3.62543e-19
3.66176e-19
3.69046e-19
3.7121e-19
3.72733e-19
3.7368e-19
3.7412e-19
7.51129e-19
7.78738e-19
8.17698e-19
8.66216e-19
9.22806e-19
9.86172e-19
1.05515e-18
1.1287e-18
1.20581e-18
1.28556e-18
1.36706e-18
1.44943e-18
1.53182e-18
1.61337e-18
1.69327e-18
1.77068e-18
1.8448e-18
1.91486e-18
1.98011e-18
2.03985e-18
2.09344e-18
2.14032e-18
2.17999e-18
2.21208e-18
2.23629e-18
2.25246e-18
2.26053e-18
2.35681e-18
2.46025e-18
2.60724e-18
2.79193e-18
3.0095e-18
3.25559e-18
3.52608e-18
3.81687e-18
4.12386e-18
4.44282e-18
4.76947e-18
5.09952e-18
5.42874e-18
5.75296e-18
6.06813e-18
6.37042e-18
6.65628e-18
6.92253e-18
7.16639e-18
7.38558e-18
7.57833e-18
7.74339e-18
7.88003e-18
7.98803e-18
8.06765e-18
8.11958e-18
8.14486e-18
6.86383e-18
7.20476e-18
7.69247e-18
8.30952e-18
9.04131e-18
9.87419e-18
1.07945e-17
1.17881e-17
1.28401e-17
1.39349e-17
1.50564e-17
1.61882e-17
1.7314e-17
1.84179e-17
1.94849e-17
2.05011e-17
2.14543e-17
2.2334e-17
2.3132e-17
2.38418e-17
2.44594e-17
2.49827e-17
2.54112e-17
2.57464e-17
2.5991e-17
2.61489e-17
2.62251e-17
2.00538e-17
2.11294e-17
2.26709e-17
2.46257e-17
2.69492e-17
2.95983e-17
3.25289e-17
3.56943e-17
3.90446e-17
4.25272e-17
4.60877e-17
4.96713e-17
5.32243e-17
5.66953e-17
6.00367e-17
6.3206e-17
6.61663e-17
6.88874e-17
7.13458e-17
7.35246e-17
7.54136e-17
7.70087e-17
7.8311e-17
7.93268e-17
8.00662e-17
8.05425e-17
8.07717e-17
5.91295e-17
6.24325e-17
6.71725e-17
7.31885e-17
8.0343e-17
8.85027e-17
9.75295e-17
1.07277e-16
1.17587e-16
1.28296e-16
1.39232e-16
1.50226e-16
1.61109e-16
1.71724e-16
1.81925e-16
1.91583e-16
2.00588e-16
2.0885e-16
2.163e-16
2.22892e-16
2.28598e-16
2.33408e-16
2.37329e-16
2.40383e-16
2.42604e-16
2.44032e-16
2.44719e-16
1.75647e-16
1.85683e-16
2.00086e-16
2.18367e-16
2.40106e-16
2.64892e-16
2.92302e-16
3.21882e-16
3.53149e-16
3.85597e-16
4.18705e-16
4.51953e-16
4.84836e-16
5.16877e-16
5.47639e-16
5.76738e-16
6.03847e-16
6.28702e-16
6.51101e-16
6.70907e-16
6.88042e-16
7.02481e-16
7.14249e-16
7.23412e-16
7.30071e-16
7.34355e-16
7.36415e-16
5.23493e-16
5.53693e-16
5.97053e-16
6.52107e-16
7.17592e-16
7.92271e-16
8.74857e-16
9.63975e-16
1.05816e-15
1.15588e-15
1.25556e-15
1.35562e-15
1.45455e-15
1.55091e-15
1.64338e-15
1.73081e-15
1.81223e-15
1.88684e-15
1.95405e-15
2.01345e-15
2.06482e-15
2.10809e-15
2.14334e-15
2.17077e-15
2.1907e-15
2.20352e-15
2.20968e-15
1.56432e-15
1.65508e-15
1.78536e-15
1.95077e-15
2.14748e-15
2.37177e-15
2.61975e-15
2.88727e-15
3.16991e-15
3.46305e-15
3.76196e-15
4.06192e-15
4.35838e-15
4.64702e-15
4.92395e-15
5.18571e-15
5.42941e-15
5.6527e-15
5.85381e-15
6.03153e-15
6.1852e-15
6.31463e-15
6.42007e-15
6.50214e-15
6.56176e-15
6.6001e-15
6.61853e-15
4.67463e-15
4.94646e-15
5.33672e-15
5.83222e-15
6.42152e-15
7.09342e-15
7.83625e-15
8.63753e-15
9.48401e-15
1.03618e-14
1.12567e-14
1.21547e-14
1.30419e-14
1.39056e-14
1.4734e-14
1.55169e-14
1.62456e-14
1.69131e-14
1.75141e-14
1.80452e-14
1.85042e-14
1.88907e-14
1.92055e-14
1.94505e-14
1.96284e-14
1.97428e-14
1.97978e-14
1.39753e-14
1.4789e-14
1.5957e-14
1.74395e-14
1.92024e-14
2.12118e-14
2.34327e-14
2.58277e-14
2.83569e-14
3.09789e-14
3.36511e-14
3.63314e-14
3.89788e-14
4.15552e-14
4.40258e-14
4.63599e-14
4.85318e-14
5.05208e-14
5.23115e-14
5.38933e-14
5.52604e-14
5.64115e-14
5.73489e-14
5.80783e-14
5.8608e-14
5.89486e-14
5.91122e-14
4.17383e-14
4.41672e-14
4.76535e-14
5.20782e-14
5.73382e-14
6.33326e-14
6.99558e-14
7.70958e-14
8.46335e-14
9.24446e-14
1.00402e-13
1.08381e-13
1.16259e-13
1.23922e-13
1.31268e-13
1.38205e-13
1.44658e-13
1.50565e-13
1.55881e-13
1.60576e-13
1.64632e-13
1.68045e-13
1.70825e-13
1.72987e-13
1.74556e-13
1.75565e-13
1.7605e-13
1.24506e-13
1.31743e-13
1.42127e-13
1.553e-13
1.70952e-13
1.88779e-13
2.08464e-13
2.29671e-13
2.52045e-13
2.75214e-13
2.98801e-13
3.22435e-13
3.45754e-13
3.68424e-13
3.9014e-13
4.10637e-13
4.29691e-13
4.47126e-13
4.62809e-13
4.76651e-13
4.88607e-13
4.98666e-13
5.06852e-13
5.13218e-13
5.17839e-13
5.20809e-13
5.22235e-13
3.70269e-13
3.91731e-13
4.22512e-13
4.61541e-13
5.07887e-13
5.60634e-13
6.18834e-13
6.81481e-13
7.47513e-13
8.15831e-13
8.85318e-13
9.54874e-13
1.02344e-12
1.09003e-12
1.15377e-12
1.21387e-12
1.26969e-12
1.32072e-12
1.3666e-12
1.40705e-12
1.44197e-12
1.47133e-12
1.49521e-12
1.51377e-12
1.52724e-12
1.53589e-12
1.54004e-12
1.09698e-12
1.16025e-12
1.25094e-12
1.36583e-12
1.50212e-12
1.65706e-12
1.82779e-12
2.01133e-12
2.20451e-12
2.40409e-12
2.6068e-12
2.8094e-12
3.00884e-12
3.20227e-12
3.38715e-12
3.56126e-12
3.72278e-12
3.87028e-12
4.00271e-12
4.1194e-12
4.22002e-12
4.30455e-12
4.37326e-12
4.42662e-12
4.46531e-12
4.49016e-12
4.50208e-12
3.23031e-12
3.41503e-12
3.67955e-12
4.01427e-12
4.41077e-12
4.86083e-12
5.35593e-12
5.88717e-12
6.4453e-12
7.02079e-12
7.60415e-12
8.1861e-12
8.75786e-12
9.31134e-12
9.83938e-12
1.03358e-11
1.07956e-11
1.12148e-11
1.15906e-11
1.19212e-11
1.2206e-11
1.24449e-11
1.26389e-11
1.27894e-11
1.28984e-11
1.29684e-11
1.30019e-11
9.43703e-12
9.96919e-12
1.07302e-11
1.16916e-11
1.28283e-11
1.41155e-11
1.55282e-11
1.70403e-11
1.86247e-11
2.0254e-11
2.19012e-11
2.35401e-11
2.51461e-11
2.66969e-11
2.81728e-11
2.95572e-11
3.08365e-11
3.20005e-11
3.3042e-11
3.39567e-11
3.47432e-11
3.54021e-11
3.59363e-11
3.63503e-11
3.66498e-11
3.68418e-11
3.69338e-11
2.72731e-11
2.87778e-11
3.0926e-11
3.36337e-11
3.68265e-11
4.04318e-11
4.43759e-11
4.85833e-11
5.29769e-11
5.74796e-11
6.2016e-11
6.65142e-11
7.09077e-11
7.51366e-11
7.9149e-11
8.29016e-11
8.636e-11
8.94987e-11
9.23003e-11
9.47557e-11
9.68624e-11
9.86242e-11
1.0005e-10
1.01154e-10
1.01951e-10
1.02461e-10
1.02706e-10
7.77176e-11
8.18685e-11
8.77811e-11
9.52123e-11
1.03945e-10
1.13769e-10
1.24472e-10
1.35842e-10
1.47665e-10
1.59729e-10
1.71833e-10
1.83785e-10
1.95412e-10
2.06561e-10
2.17101e-10
2.26925e-10
2.35951e-10
2.44117e-10
2.51387e-10
2.57742e-10
2.63182e-10
2.67722e-10
2.7139e-10
2.74223e-10
2.76267e-10
2.77574e-10
2.78199e-10
2.17452e-10
2.28544e-10
2.443e-10
2.64034e-10
2.87128e-10
3.12989e-10
3.41031e-10
3.70672e-10
4.01338e-10
4.32475e-10
4.63561e-10
4.94114e-10
5.23702e-10
5.51952e-10
5.78551e-10
6.0325e-10
6.25861e-10
6.46254e-10
6.64353e-10
6.80132e-10
6.93606e-10
7.04826e-10
7.13871e-10
7.20846e-10
7.2587e-10
7.29077e-10
7.30609e-10
5.94553e-10
6.23062e-10
6.63431e-10
7.13784e-10
7.72436e-10
8.37778e-10
9.08248e-10
9.82323e-10
1.05854e-09
1.13551e-09
1.21194e-09
1.28669e-09
1.35873e-09
1.4272e-09
1.4914e-09
1.55078e-09
1.60495e-09
1.65364e-09
1.69672e-09
1.73418e-09
1.76608e-09
1.79259e-09
1.81391e-09
1.83033e-09
1.84214e-09
1.84966e-09
1.85325e-09
1.58002e-09
1.65005e-09
1.74887e-09
1.8716e-09
2.01385e-09
2.17147e-09
2.34051e-09
2.51719e-09
2.69795e-09
2.8795e-09
3.05884e-09
3.23334e-09
3.40073e-09
3.55913e-09
3.70703e-09
3.84331e-09
3.96719e-09
4.07819e-09
4.17612e-09
4.26104e-09
4.33321e-09
4.39304e-09
4.44108e-09
4.478e-09
4.50451e-09
4.52139e-09
4.52943e-09
4.06012e-09
4.2238e-09
4.45404e-09
4.73878e-09
5.06721e-09
5.42925e-09
5.81541e-09
6.21685e-09
6.62538e-09
7.03358e-09
7.43484e-09
7.82345e-09
8.19461e-09
8.54441e-09
8.86983e-09
9.16864e-09
9.4394e-09
9.68132e-09
9.89422e-09
1.00784e-08
1.02346e-08
1.03638e-08
1.04674e-08
1.05469e-08
1.06039e-08
1.06402e-08
1.06575e-08
1.00461e-08
1.041e-08
1.09203e-08
1.15491e-08
1.22711e-08
1.30634e-08
1.39045e-08
1.47746e-08
1.5656e-08
1.65328e-08
1.7391e-08
1.82188e-08
1.90064e-08
1.97462e-08
2.04322e-08
2.10603e-08
2.1628e-08
2.21339e-08
2.25782e-08
2.29618e-08
2.32865e-08
2.35548e-08
2.37696e-08
2.39341e-08
2.40521e-08
2.4127e-08
2.41626e-08
2.38826e-08
2.46546e-08
2.57347e-08
2.70613e-08
2.85796e-08
3.02392e-08
3.19944e-08
3.38034e-08
3.5629e-08
3.74386e-08
3.92039e-08
4.09014e-08
4.25119e-08
4.40204e-08
4.54159e-08
4.66906e-08
4.78403e-08
4.88632e-08
4.97599e-08
5.05329e-08
5.11864e-08
5.17256e-08
5.21569e-08
5.2487e-08
5.27234e-08
5.28734e-08
5.29447e-08
5.4553e-08
5.61301e-08
5.83329e-08
6.10328e-08
6.41155e-08
6.74771e-08
7.10232e-08
7.46694e-08
7.83405e-08
8.19715e-08
8.55067e-08
8.88999e-08
9.21139e-08
9.51199e-08
9.78968e-08
1.00431e-07
1.02713e-07
1.04742e-07
1.06519e-07
1.0805e-07
1.09343e-07
1.10409e-07
1.11261e-07
1.11913e-07
1.1238e-07
1.12676e-07
1.12816e-07
1.20043e-07
1.23192e-07
1.27586e-07
1.32968e-07
1.39108e-07
1.45798e-07
1.52851e-07
1.60097e-07
1.67389e-07
1.74597e-07
1.81611e-07
1.88341e-07
1.94713e-07
2.00669e-07
2.0617e-07
2.11188e-07
2.15706e-07
2.19721e-07
2.23237e-07
2.26264e-07
2.2882e-07
2.30928e-07
2.32612e-07
2.339e-07
2.34821e-07
2.35406e-07
2.35683e-07
2.55796e-07
2.62041e-07
2.70761e-07
2.81446e-07
2.93644e-07
3.06943e-07
3.20974e-07
3.35404e-07
3.49938e-07
3.64319e-07
3.78328e-07
3.91783e-07
4.04535e-07
4.1647e-07
4.27501e-07
4.37571e-07
4.46648e-07
4.54719e-07
4.6179e-07
4.67883e-07
4.73031e-07
4.77277e-07
4.8067e-07
4.83267e-07
4.85124e-07
4.86302e-07
4.86862e-07
5.29952e-07
5.42389e-07
5.59779e-07
5.8113e-07
6.05562e-07
6.32277e-07
6.60547e-07
6.89717e-07
7.19201e-07
7.48482e-07
7.77111e-07
8.04709e-07
8.30963e-07
8.55621e-07
8.78495e-07
8.99448e-07
9.18394e-07
9.35293e-07
9.50142e-07
9.6297e-07
9.73835e-07
9.82817e-07
9.9001e-07
9.95524e-07
9.99475e-07
1.00199e-06
1.00318e-06
1.06663e-06
1.09149e-06
1.12635e-06
1.16931e-06
1.21869e-06
1.27296e-06
1.33074e-06
1.39073e-06
1.45178e-06
1.51283e-06
1.57297e-06
1.63137e-06
1.68735e-06
1.74034e-06
1.78986e-06
1.83556e-06
1.87719e-06
1.91458e-06
1.94766e-06
1.97641e-06
2.0009e-06
2.02126e-06
2.03764e-06
2.05026e-06
2.05934e-06
2.06514e-06
2.0679e-06
2.06954e-06
2.11823e-06
2.18673e-06
2.2715e-06
2.36946e-06
2.47777e-06
2.59383e-06
2.7152e-06
2.83962e-06
2.96502e-06
3.08945e-06
3.21121e-06
3.32873e-06
3.4408e-06
3.54635e-06
3.64453e-06
3.73469e-06
3.81633e-06
3.88914e-06
3.95297e-06
4.00781e-06
4.05376e-06
4.09105e-06
4.11999e-06
4.14098e-06
4.15446e-06
4.16094e-06
3.81622e-06
3.90505e-06
4.03015e-06
4.18516e-06
4.36448e-06
4.56316e-06
4.77661e-06
5.00055e-06
5.23099e-06
5.46419e-06
5.69671e-06
5.92541e-06
6.14747e-06
6.36039e-06
6.56201e-06
6.75055e-06
6.92453e-06
7.08284e-06
7.2247e-06
7.34961e-06
7.45738e-06
7.54806e-06
7.62195e-06
7.67953e-06
7.72144e-06
7.74848e-06
7.76152e-06
6.56914e-06
6.71251e-06
6.91432e-06
7.16428e-06
7.45337e-06
7.77338e-06
8.1167e-06
8.47628e-06
8.84552e-06
9.21834e-06
9.58917e-06
9.95295e-06
1.03052e-05
1.06421e-05
1.09602e-05
1.12568e-05
1.15299e-05
1.17777e-05
1.19993e-05
1.2194e-05
1.23617e-05
1.25026e-05
1.26173e-05
1.27065e-05
1.27714e-05
1.28133e-05
1.28335e-05
1.04804e-05
1.06815e-05
1.09637e-05
1.13115e-05
1.17116e-05
1.21516e-05
1.26203e-05
1.31076e-05
1.36039e-05
1.4101e-05
1.45913e-05
1.50683e-05
1.55265e-05
1.59611e-05
1.63683e-05
1.67453e-05
1.70899e-05
1.74005e-05
1.76766e-05
1.79177e-05
1.81244e-05
1.82971e-05
1.84371e-05
1.85456e-05
1.86243e-05
1.86748e-05
1.86992e-05
1.54358e-05
1.56777e-05
1.60152e-05
1.64287e-05
1.69006e-05
1.7415e-05
1.7958e-05
1.85167e-05
1.90801e-05
1.96385e-05
2.01837e-05
2.07087e-05
2.12079e-05
2.16769e-05
2.21123e-05
2.25119e-05
2.2874e-05
2.31979e-05
2.34836e-05
2.37316e-05
2.39426e-05
2.41181e-05
2.42596e-05
2.43687e-05
2.44475e-05
2.44979e-05
2.45221e-05
2.09976e-05
2.12495e-05
2.15992e-05
2.20247e-05
2.25066e-05
2.30274e-05
2.3572e-05
2.41269e-05
2.4681e-05
2.52247e-05
2.57502e-05
2.62514e-05
2.67235e-05
2.71629e-05
2.75673e-05
2.79352e-05
2.82661e-05
2.85599e-05
2.88172e-05
2.9039e-05
2.92267e-05
2.93819e-05
2.95063e-05
2.96019e-05
2.96705e-05
2.97143e-05
2.97353e-05
2.65767e-05
2.68088e-05
2.71296e-05
2.75178e-05
2.79543e-05
2.84226e-05
2.89082e-05
2.93991e-05
2.98849e-05
3.03574e-05
3.08103e-05
3.12386e-05
3.16387e-05
3.20081e-05
3.23456e-05
3.26503e-05
3.29225e-05
3.31626e-05
3.33715e-05
3.35506e-05
3.37014e-05
3.38253e-05
3.39242e-05
3.39999e-05
3.4054e-05
3.40884e-05
3.41047e-05
3.16686e-05
3.18622e-05
3.21288e-05
3.24497e-05
3.28087e-05
3.31914e-05
3.35856e-05
3.39811e-05
3.43698e-05
3.47452e-05
3.51023e-05
3.54376e-05
3.57487e-05
3.6034e-05
3.62928e-05
3.65251e-05
3.67314e-05
3.69122e-05
3.70688e-05
3.72022e-05
3.7314e-05
3.74055e-05
3.74782e-05
3.75336e-05
3.7573e-05
3.7598e-05
3.76099e-05
3.59775e-05
3.61261e-05
3.63301e-05
3.65747e-05
3.6847e-05
3.71356e-05
3.74312e-05
3.7726e-05
3.80139e-05
3.829e-05
3.85511e-05
3.87946e-05
3.9019e-05
3.92235e-05
3.9408e-05
3.95725e-05
3.97177e-05
3.98443e-05
3.99533e-05
4.00457e-05
4.01227e-05
4.01854e-05
4.0235e-05
4.02727e-05
4.02994e-05
4.03162e-05
4.03241e-05
3.94104e-05
3.95162e-05
3.9661e-05
3.98339e-05
4.00254e-05
4.02274e-05
4.0433e-05
4.06367e-05
4.08344e-05
4.10228e-05
4.11995e-05
4.13633e-05
4.15131e-05
4.16486e-05
4.177e-05
4.18775e-05
4.19716e-05
4.20532e-05
4.21229e-05
4.21816e-05
4.22302e-05
4.22695e-05
4.23004e-05
4.23236e-05
4.23401e-05
4.23504e-05
4.23552e-05
4.20111e-05
4.20804e-05
4.21749e-05
4.22872e-05
4.24109e-05
4.25404e-05
4.26713e-05
4.28e-05
4.29236e-05
4.30404e-05
4.31489e-05
4.32483e-05
4.33383e-05
4.34189e-05
4.34902e-05
4.35526e-05
4.36066e-05
4.36529e-05
4.36919e-05
4.37244e-05
4.3751e-05
4.37722e-05
4.37887e-05
4.38009e-05
4.38095e-05
4.38148e-05
4.38172e-05
4.38921e-05
4.39323e-05
4.39869e-05
4.40512e-05
4.41213e-05
4.41939e-05
4.42662e-05
4.43362e-05
4.44023e-05
4.44636e-05
4.45194e-05
4.45694e-05
4.46136e-05
4.46522e-05
4.46854e-05
4.47137e-05
4.47374e-05
4.4757e-05
4.4773e-05
4.47858e-05
4.47959e-05
4.48036e-05
4.48094e-05
4.48134e-05
4.48161e-05
4.48177e-05
4.48184e-05
4.51921e-05
4.521e-05
4.52339e-05
4.52613e-05
4.52903e-05
4.53192e-05
4.53467e-05
4.53719e-05
4.53943e-05
4.54135e-05
4.54294e-05
4.54423e-05
4.54522e-05
4.54595e-05
4.54644e-05
4.54674e-05
4.54687e-05
4.54688e-05
4.54679e-05
4.54663e-05
4.54643e-05
4.54622e-05
4.54602e-05
4.54583e-05
4.54568e-05
4.54557e-05
4.54551e-05
4.60318e-05
4.6033e-05
4.60341e-05
4.60341e-05
4.60327e-05
4.60294e-05
4.60239e-05
4.60162e-05
4.60064e-05
4.59947e-05
4.59814e-05
4.5967e-05
4.59517e-05
4.5936e-05
4.59203e-05
4.59048e-05
4.589e-05
4.58759e-05
4.58628e-05
4.58509e-05
4.58403e-05
4.58312e-05
4.58235e-05
4.58174e-05
4.58129e-05
4.58099e-05
4.58085e-05
4.65135e-05
4.65028e-05
4.64873e-05
4.64677e-05
4.64444e-05
4.64179e-05
4.63888e-05
4.63575e-05
4.63248e-05
4.62911e-05
4.6257e-05
4.62232e-05
4.61901e-05
4.61582e-05
4.61279e-05
4.60994e-05
4.60731e-05
4.60491e-05
4.60275e-05
4.60083e-05
4.59918e-05
4.59777e-05
4.59663e-05
4.59572e-05
4.59506e-05
4.59464e-05
4.59443e-05
4.67237e-05
4.67045e-05
4.66774e-05
4.6644e-05
4.66053e-05
4.65626e-05
4.65169e-05
4.64692e-05
4.64204e-05
4.63715e-05
4.63231e-05
4.62759e-05
4.62305e-05
4.61875e-05
4.61471e-05
4.61098e-05
4.60757e-05
4.60449e-05
4.60175e-05
4.59935e-05
4.59729e-05
4.59555e-05
4.59415e-05
4.59305e-05
4.59225e-05
4.59174e-05
4.59149e-05
4.67311e-05
4.67061e-05
4.66711e-05
4.66281e-05
4.65789e-05
4.65251e-05
4.64681e-05
4.64092e-05
4.63497e-05
4.62904e-05
4.62324e-05
4.61762e-05
4.61227e-05
4.60722e-05
4.60252e-05
4.5982e-05
4.59428e-05
4.59076e-05
4.58764e-05
4.58492e-05
4.5826e-05
4.58066e-05
4.57908e-05
4.57786e-05
4.57698e-05
4.57641e-05
4.57613e-05
4.6589e-05
4.65601e-05
4.65197e-05
4.64704e-05
4.64143e-05
4.63531e-05
4.62887e-05
4.62226e-05
4.61559e-05
4.609e-05
4.60257e-05
4.59638e-05
4.5905e-05
4.58499e-05
4.57987e-05
4.57519e-05
4.57094e-05
4.56715e-05
4.5638e-05
4.56089e-05
4.5584e-05
4.55633e-05
4.55466e-05
4.55337e-05
4.55243e-05
4.55183e-05
4.55154e-05
4.63377e-05
4.63063e-05
4.62626e-05
4.62093e-05
4.61487e-05
4.6083e-05
4.6014e-05
4.59432e-05
4.58723e-05
4.58022e-05
4.57341e-05
4.56688e-05
4.56069e-05
4.5549e-05
4.54955e-05
4.54465e-05
4.54023e-05
4.53628e-05
4.5328e-05
4.52978e-05
4.52721e-05
4.52508e-05
4.52335e-05
4.52202e-05
4.52106e-05
4.52044e-05
4.52014e-05
4.60077e-05
4.59749e-05
4.59292e-05
4.58735e-05
4.58103e-05
4.57419e-05
4.56702e-05
4.5597e-05
4.55236e-05
4.54513e-05
4.53812e-05
4.53141e-05
4.52506e-05
4.51913e-05
4.51366e-05
4.50867e-05
4.50416e-05
4.50014e-05
4.49661e-05
4.49355e-05
4.49094e-05
4.48878e-05
4.48704e-05
4.48569e-05
4.48472e-05
4.4841e-05
4.4838e-05
4.56216e-05
4.5588e-05
4.55413e-05
4.54844e-05
4.542e-05
4.53503e-05
4.52774e-05
4.5203e-05
4.51285e-05
4.50553e-05
4.49844e-05
4.49166e-05
4.48527e-05
4.4793e-05
4.47379e-05
4.46878e-05
4.46426e-05
4.46024e-05
4.4567e-05
4.45364e-05
4.45103e-05
4.44887e-05
4.44714e-05
4.44579e-05
4.44483e-05
4.44421e-05
4.44391e-05
4.51962e-05
4.51623e-05
4.51152e-05
4.5058e-05
4.49933e-05
4.49233e-05
4.48501e-05
4.47756e-05
4.4701e-05
4.46279e-05
4.4557e-05
4.44894e-05
4.44257e-05
4.43662e-05
4.43115e-05
4.42617e-05
4.42169e-05
4.41769e-05
4.41419e-05
4.41115e-05
4.40858e-05
4.40644e-05
4.40472e-05
4.4034e-05
4.40244e-05
4.40183e-05
4.40154e-05
4.47438e-05
4.471e-05
4.46632e-05
4.46062e-05
4.45417e-05
4.44722e-05
4.43995e-05
4.43254e-05
4.42515e-05
4.4179e-05
4.41089e-05
4.4042e-05
4.3979e-05
4.39203e-05
4.38663e-05
4.38172e-05
4.3773e-05
4.37337e-05
4.36991e-05
4.36693e-05
4.3644e-05
4.3623e-05
4.36061e-05
4.35931e-05
4.35837e-05
4.35777e-05
4.35749e-05
4.42738e-05
4.42403e-05
4.4194e-05
4.41376e-05
4.4074e-05
4.40052e-05
4.39335e-05
4.38604e-05
4.37876e-05
4.37161e-05
4.36471e-05
4.35813e-05
4.35194e-05
4.34618e-05
4.34089e-05
4.33607e-05
4.33174e-05
4.32788e-05
4.3245e-05
4.32158e-05
4.3191e-05
4.31705e-05
4.3154e-05
4.31413e-05
4.31321e-05
4.31263e-05
4.31235e-05
4.37928e-05
4.37599e-05
4.37143e-05
4.36588e-05
4.35962e-05
4.35287e-05
4.34582e-05
4.33865e-05
4.3315e-05
4.32449e-05
4.31773e-05
4.31129e-05
4.30523e-05
4.2996e-05
4.29442e-05
4.28971e-05
4.28548e-05
4.28172e-05
4.27842e-05
4.27556e-05
4.27315e-05
4.27115e-05
4.26954e-05
4.2683e-05
4.26741e-05
4.26684e-05
4.26657e-05
4.33059e-05
4.32736e-05
4.32289e-05
4.31746e-05
4.31132e-05
4.30471e-05
4.29781e-05
4.29079e-05
4.2838e-05
4.27695e-05
4.27034e-05
4.26406e-05
4.25814e-05
4.25265e-05
4.24761e-05
4.24302e-05
4.23889e-05
4.23523e-05
4.23201e-05
4.22924e-05
4.22688e-05
4.22494e-05
4.22337e-05
4.22217e-05
4.2213e-05
4.22075e-05
4.22049e-05
4.28167e-05
4.27851e-05
4.27414e-05
4.26883e-05
4.26283e-05
4.25637e-05
4.24963e-05
4.24278e-05
4.23596e-05
4.22928e-05
4.22284e-05
4.21672e-05
4.21096e-05
4.20562e-05
4.20071e-05
4.19625e-05
4.19223e-05
4.18867e-05
4.18554e-05
4.18284e-05
4.18056e-05
4.17867e-05
4.17715e-05
4.17598e-05
4.17514e-05
4.1746e-05
4.17435e-05
4.23279e-05
4.22971e-05
4.22544e-05
4.22025e-05
4.2144e-05
4.2081e-05
4.20153e-05
4.19485e-05
4.18821e-05
4.18171e-05
4.17544e-05
4.16948e-05
4.16389e-05
4.1587e-05
4.15392e-05
4.14959e-05
4.14569e-05
4.14222e-05
4.13919e-05
4.13657e-05
4.13435e-05
4.13252e-05
4.13104e-05
4.12991e-05
4.1291e-05
4.12858e-05
4.12833e-05
4.18412e-05
4.18112e-05
4.17696e-05
4.17191e-05
4.16621e-05
4.16007e-05
4.15367e-05
4.14717e-05
4.14071e-05
4.13438e-05
4.12829e-05
4.1225e-05
4.11707e-05
4.11203e-05
4.10739e-05
4.10318e-05
4.09939e-05
4.09603e-05
4.09309e-05
4.09055e-05
4.08839e-05
4.08661e-05
4.08519e-05
4.08409e-05
4.0833e-05
4.08279e-05
4.08255e-05
4.1358e-05
4.13288e-05
4.12882e-05
4.12391e-05
4.11836e-05
4.11238e-05
4.10615e-05
4.09983e-05
4.09355e-05
4.0874e-05
4.08149e-05
4.07587e-05
4.07059e-05
4.0657e-05
4.0612e-05
4.05711e-05
4.05344e-05
4.05017e-05
4.04732e-05
4.04485e-05
4.04276e-05
4.04104e-05
4.03965e-05
4.03859e-05
4.03782e-05
4.03734e-05
4.0371e-05
4.08791e-05
4.08506e-05
4.08111e-05
4.07633e-05
4.07093e-05
4.06511e-05
4.05906e-05
4.05291e-05
4.0468e-05
4.04083e-05
4.03509e-05
4.02964e-05
4.02452e-05
4.01977e-05
4.0154e-05
4.01143e-05
4.00787e-05
4.0047e-05
4.00193e-05
3.99953e-05
3.99751e-05
3.99584e-05
3.99449e-05
3.99346e-05
3.99272e-05
3.99225e-05
3.99202e-05
4.04048e-05
4.0377e-05
4.03386e-05
4.0292e-05
4.02395e-05
4.01829e-05
4.0124e-05
4.00643e-05
4.00049e-05
3.9947e-05
3.98912e-05
3.98383e-05
3.97886e-05
3.97425e-05
3.97001e-05
3.96615e-05
3.96269e-05
3.95962e-05
3.95693e-05
3.95461e-05
3.95264e-05
3.95102e-05
3.94972e-05
3.94871e-05
3.948e-05
3.94754e-05
3.94732e-05
3.99351e-05
3.99081e-05
3.98707e-05
3.98253e-05
3.97742e-05
3.97192e-05
3.96619e-05
3.96039e-05
3.95462e-05
3.94899e-05
3.94358e-05
3.93844e-05
3.93361e-05
3.92913e-05
3.92501e-05
3.92127e-05
3.91791e-05
3.91492e-05
3.91231e-05
3.91005e-05
3.90814e-05
3.90657e-05
3.9053e-05
3.90433e-05
3.90363e-05
3.90319e-05
3.90298e-05
3.94698e-05
3.94435e-05
3.94071e-05
3.93629e-05
3.93131e-05
3.92596e-05
3.92039e-05
3.91475e-05
3.90914e-05
3.90367e-05
3.89842e-05
3.89342e-05
3.88873e-05
3.88437e-05
3.88037e-05
3.87673e-05
3.87346e-05
3.87056e-05
3.86801e-05
3.86582e-05
3.86397e-05
3.86244e-05
3.86121e-05
3.86026e-05
3.85958e-05
3.85915e-05
3.85895e-05
3.90083e-05
3.89827e-05
3.89472e-05
3.89042e-05
3.88557e-05
3.88036e-05
3.87494e-05
3.86945e-05
3.864e-05
3.85869e-05
3.85357e-05
3.84872e-05
3.84415e-05
3.83991e-05
3.83601e-05
3.83246e-05
3.82928e-05
3.82645e-05
3.82398e-05
3.82184e-05
3.82004e-05
3.81855e-05
3.81735e-05
3.81643e-05
3.81577e-05
3.81535e-05
3.81515e-05
3.85497e-05
3.85247e-05
3.84901e-05
3.84482e-05
3.8401e-05
3.83502e-05
3.82975e-05
3.82441e-05
3.81911e-05
3.81394e-05
3.80896e-05
3.80422e-05
3.79977e-05
3.79563e-05
3.79183e-05
3.78837e-05
3.78526e-05
3.7825e-05
3.78009e-05
3.77801e-05
3.77625e-05
3.7748e-05
3.77363e-05
3.77273e-05
3.77209e-05
3.77168e-05
3.77149e-05
3.8093e-05
3.80686e-05
3.80348e-05
3.79939e-05
3.79479e-05
3.78984e-05
3.78471e-05
3.77951e-05
3.77434e-05
3.76929e-05
3.76443e-05
3.7598e-05
3.75545e-05
3.7514e-05
3.74769e-05
3.74431e-05
3.74127e-05
3.73857e-05
3.73621e-05
3.73418e-05
3.73246e-05
3.73104e-05
3.7299e-05
3.72902e-05
3.7284e-05
3.72799e-05
3.7278e-05
3.76366e-05
3.76128e-05
3.75798e-05
3.754e-05
3.74951e-05
3.74469e-05
3.73968e-05
3.73459e-05
3.72954e-05
3.72459e-05
3.71983e-05
3.71529e-05
3.71103e-05
3.70706e-05
3.70341e-05
3.7001e-05
3.69712e-05
3.69448e-05
3.69216e-05
3.69017e-05
3.68848e-05
3.68709e-05
3.68597e-05
3.68511e-05
3.6845e-05
3.68411e-05
3.68392e-05
3.7179e-05
3.71558e-05
3.71237e-05
3.70847e-05
3.70409e-05
3.69937e-05
3.69445e-05
3.68946e-05
3.68449e-05
3.67963e-05
3.67494e-05
3.67048e-05
3.66628e-05
3.66238e-05
3.65879e-05
3.65553e-05
3.65259e-05
3.64999e-05
3.64772e-05
3.64575e-05
3.64409e-05
3.64272e-05
3.64162e-05
3.64078e-05
3.64017e-05
3.63979e-05
3.6396e-05
3.67189e-05
3.66961e-05
3.66645e-05
3.66262e-05
3.65829e-05
3.65363e-05
3.64878e-05
3.64385e-05
3.63894e-05
3.63414e-05
3.6295e-05
3.62509e-05
3.62094e-05
3.61708e-05
3.61353e-05
3.61031e-05
3.60741e-05
3.60484e-05
3.60258e-05
3.60064e-05
3.599e-05
3.59765e-05
3.59656e-05
3.59573e-05
3.59513e-05
3.59475e-05
3.59456e-05
3.62527e-05
3.62301e-05
3.61988e-05
3.61607e-05
3.61178e-05
3.60715e-05
3.60233e-05
3.59744e-05
3.59256e-05
3.58778e-05
3.58318e-05
3.57879e-05
3.57467e-05
3.57083e-05
3.56731e-05
3.5641e-05
3.56122e-05
3.55866e-05
3.55642e-05
3.55449e-05
3.55286e-05
3.55152e-05
3.55044e-05
3.54961e-05
3.54901e-05
3.54863e-05
3.54845e-05
3.57764e-05
3.57538e-05
3.57225e-05
3.56845e-05
3.56416e-05
3.55954e-05
3.55472e-05
3.54982e-05
3.54495e-05
3.54017e-05
3.53557e-05
3.53119e-05
3.52706e-05
3.52322e-05
3.5197e-05
3.51649e-05
3.51361e-05
3.51105e-05
3.50881e-05
3.50688e-05
3.50525e-05
3.5039e-05
3.50282e-05
3.50199e-05
3.5014e-05
3.50102e-05
3.50084e-05
3.52852e-05
3.52625e-05
3.5231e-05
3.51928e-05
3.51496e-05
3.51031e-05
3.50547e-05
3.50054e-05
3.49563e-05
3.49083e-05
3.48619e-05
3.48178e-05
3.47762e-05
3.47376e-05
3.47021e-05
3.46697e-05
3.46407e-05
3.46149e-05
3.45924e-05
3.45729e-05
3.45565e-05
3.45429e-05
3.4532e-05
3.45237e-05
3.45177e-05
3.45139e-05
3.4512e-05
3.47739e-05
3.47509e-05
3.4719e-05
3.46803e-05
3.46365e-05
3.45894e-05
3.45402e-05
3.44903e-05
3.44405e-05
3.43917e-05
3.43447e-05
3.42998e-05
3.42577e-05
3.42184e-05
3.41824e-05
3.41495e-05
3.412e-05
3.40939e-05
3.40709e-05
3.40512e-05
3.40345e-05
3.40207e-05
3.40096e-05
3.40011e-05
3.39951e-05
3.39912e-05
3.39893e-05
3.42362e-05
3.42127e-05
3.41801e-05
3.41405e-05
3.40958e-05
3.40476e-05
3.39973e-05
3.39461e-05
3.38952e-05
3.38453e-05
3.37971e-05
3.37512e-05
3.3708e-05
3.36678e-05
3.36308e-05
3.35972e-05
3.35669e-05
3.35401e-05
3.35166e-05
3.34963e-05
3.34792e-05
3.34651e-05
3.34537e-05
3.3445e-05
3.34388e-05
3.34348e-05
3.34329e-05
3.36647e-05
3.36404e-05
3.36068e-05
3.35659e-05
3.35198e-05
3.347e-05
3.3418e-05
3.33652e-05
3.33126e-05
3.3261e-05
3.32111e-05
3.31636e-05
3.3119e-05
3.30774e-05
3.30391e-05
3.30043e-05
3.2973e-05
3.29452e-05
3.29208e-05
3.28999e-05
3.28821e-05
3.28675e-05
3.28557e-05
3.28467e-05
3.28402e-05
3.28361e-05
3.28342e-05
3.30506e-05
3.30253e-05
3.29903e-05
3.29477e-05
3.28995e-05
3.28476e-05
3.27934e-05
3.27383e-05
3.26833e-05
3.26294e-05
3.25773e-05
3.25277e-05
3.2481e-05
3.24375e-05
3.23975e-05
3.23611e-05
3.23283e-05
3.22992e-05
3.22738e-05
3.22518e-05
3.22333e-05
3.22179e-05
3.22056e-05
3.21962e-05
3.21894e-05
3.21851e-05
3.21831e-05
3.23839e-05
3.23573e-05
3.23203e-05
3.22755e-05
3.22247e-05
3.217e-05
3.21128e-05
3.20547e-05
3.19967e-05
3.19398e-05
3.18848e-05
3.18324e-05
3.17831e-05
3.17371e-05
3.16948e-05
3.16563e-05
3.16217e-05
3.1591e-05
3.1564e-05
3.15408e-05
3.15212e-05
3.15049e-05
3.14919e-05
3.1482e-05
3.14748e-05
3.14702e-05
3.14681e-05
3.1653e-05
3.16246e-05
3.15853e-05
3.15376e-05
3.14835e-05
3.14252e-05
3.13643e-05
3.13024e-05
3.12405e-05
3.11799e-05
3.11212e-05
3.10653e-05
3.10127e-05
3.09636e-05
3.09185e-05
3.08774e-05
3.08404e-05
3.08075e-05
3.07788e-05
3.0754e-05
3.0733e-05
3.07156e-05
3.07017e-05
3.06911e-05
3.06834e-05
3.06785e-05
3.06762e-05
3.08449e-05
3.08145e-05
3.07722e-05
3.07209e-05
3.06628e-05
3.06001e-05
3.05346e-05
3.04679e-05
3.04014e-05
3.03361e-05
3.0273e-05
3.02128e-05
3.0156e-05
3.01032e-05
3.00545e-05
3.00102e-05
2.99704e-05
2.99349e-05
2.99039e-05
2.98772e-05
2.98546e-05
2.98359e-05
2.98209e-05
2.98094e-05
2.98011e-05
2.97958e-05
2.97933e-05
2.99457e-05
2.99127e-05
2.98669e-05
2.98113e-05
2.97483e-05
2.96803e-05
2.96093e-05
2.9537e-05
2.94648e-05
2.93939e-05
2.93254e-05
2.92601e-05
2.91985e-05
2.91411e-05
2.90883e-05
2.90401e-05
2.89969e-05
2.89584e-05
2.89247e-05
2.88956e-05
2.88711e-05
2.88508e-05
2.88345e-05
2.8822e-05
2.8813e-05
2.88073e-05
2.88046e-05
2.89407e-05
2.89047e-05
2.88548e-05
2.87941e-05
2.87254e-05
2.86512e-05
2.85737e-05
2.84948e-05
2.8416e-05
2.83387e-05
2.82639e-05
2.81926e-05
2.81253e-05
2.80627e-05
2.8005e-05
2.79524e-05
2.79052e-05
2.78632e-05
2.78264e-05
2.77947e-05
2.77678e-05
2.77457e-05
2.77279e-05
2.77143e-05
2.77045e-05
2.76982e-05
2.76953e-05
2.78157e-05
2.77763e-05
2.77216e-05
2.76552e-05
2.758e-05
2.74988e-05
2.7414e-05
2.73276e-05
2.72413e-05
2.71567e-05
2.70748e-05
2.69967e-05
2.69231e-05
2.68545e-05
2.67914e-05
2.67339e-05
2.66822e-05
2.66362e-05
2.6596e-05
2.65613e-05
2.65319e-05
2.65077e-05
2.64882e-05
2.64733e-05
2.64626e-05
2.64558e-05
2.64526e-05
2.65586e-05
2.65154e-05
2.64556e-05
2.63828e-05
2.63005e-05
2.62116e-05
2.61188e-05
2.60242e-05
2.59298e-05
2.58372e-05
2.57476e-05
2.56622e-05
2.55817e-05
2.55067e-05
2.54377e-05
2.53749e-05
2.53184e-05
2.52682e-05
2.52242e-05
2.51863e-05
2.51543e-05
2.51278e-05
2.51066e-05
2.50903e-05
2.50786e-05
2.50712e-05
2.50676e-05
2.51616e-05
2.51145e-05
2.50492e-05
2.49698e-05
2.488e-05
2.47831e-05
2.46819e-05
2.45788e-05
2.4476e-05
2.43751e-05
2.42776e-05
2.41847e-05
2.40971e-05
2.40156e-05
2.39405e-05
2.38722e-05
2.38108e-05
2.37563e-05
2.37086e-05
2.36675e-05
2.36327e-05
2.3604e-05
2.35809e-05
2.35633e-05
2.35506e-05
2.35426e-05
2.35387e-05
2.3624e-05
2.3573e-05
2.35024e-05
2.34165e-05
2.33194e-05
2.32147e-05
2.31053e-05
2.2994e-05
2.2883e-05
2.27742e-05
2.26691e-05
2.25689e-05
2.24746e-05
2.23869e-05
2.23061e-05
2.22327e-05
2.21667e-05
2.21081e-05
2.20568e-05
2.20127e-05
2.19754e-05
2.19445e-05
2.19199e-05
2.1901e-05
2.18874e-05
2.18788e-05
2.18746e-05
2.19558e-05
2.19014e-05
2.18259e-05
2.17343e-05
2.16307e-05
2.1519e-05
2.14025e-05
2.1284e-05
2.11659e-05
2.10502e-05
2.09386e-05
2.08323e-05
2.07322e-05
2.06392e-05
2.05537e-05
2.04759e-05
2.04061e-05
2.03442e-05
2.029e-05
2.02433e-05
2.02039e-05
2.01714e-05
2.01454e-05
2.01255e-05
2.01112e-05
2.01021e-05
2.00977e-05
2.018e-05
2.01229e-05
2.00438e-05
1.99478e-05
1.98394e-05
1.97226e-05
1.96008e-05
1.94771e-05
1.93539e-05
1.92333e-05
1.91171e-05
1.90065e-05
1.89025e-05
1.88059e-05
1.87172e-05
1.86366e-05
1.85643e-05
1.85002e-05
1.84441e-05
1.83959e-05
1.83552e-05
1.83216e-05
1.82948e-05
1.82742e-05
1.82595e-05
1.82501e-05
1.82456e-05
1.83341e-05
1.82756e-05
1.81946e-05
1.80963e-05
1.79855e-05
1.78662e-05
1.77419e-05
1.76158e-05
1.74904e-05
1.73679e-05
1.72498e-05
1.71376e-05
1.70322e-05
1.69344e-05
1.68447e-05
1.67633e-05
1.66902e-05
1.66256e-05
1.65691e-05
1.65206e-05
1.64796e-05
1.64458e-05
1.64188e-05
1.63981e-05
1.63833e-05
1.63739e-05
1.63694e-05
1.64674e-05
1.64091e-05
1.63284e-05
1.62306e-05
1.61203e-05
1.60018e-05
1.58785e-05
1.57535e-05
1.56294e-05
1.55082e-05
1.53917e-05
1.5281e-05
1.51772e-05
1.5081e-05
1.49928e-05
1.49129e-05
1.48413e-05
1.47779e-05
1.47226e-05
1.46751e-05
1.46351e-05
1.46021e-05
1.45757e-05
1.45555e-05
1.45411e-05
1.45319e-05
1.45275e-05
1.46355e-05
1.4579e-05
1.45008e-05
1.44062e-05
1.42996e-05
1.41852e-05
1.40663e-05
1.3946e-05
1.38266e-05
1.37101e-05
1.35983e-05
1.34922e-05
1.33929e-05
1.33009e-05
1.32166e-05
1.31403e-05
1.3072e-05