/*--------------------------------*- C++ -*----------------------------------*\
| =========                 |                                                 |
| \\      /  F ield         | OpenFOAM: The Open Source CFD Toolbox           |
|  \\    /   O peration     | Version:  2106                                  |
|   \\  /    A nd           | Website:  www.openfoam.com                      |
|    \\/     M anipulation  |                                                 |
\*---------------------------------------------------------------------------*/
FoamFile
{
    version     2.0;
    format      ascii;
    arch        "LSB;label=32;scalar=64";
    class       volScalarField;
    location    "79.99952";
    object      C5H6_0;
}
// * * * * * * * * * * * * * * * * * * * * * * * * * * * * * * * * * * * * * //

dimensions      [0 0 0 0 0 0 0];

internalField   nonuniform List<scalar> 
3360
(
2.4933e-17
2.57354e-17
2.6852e-17
2.82177e-17
2.97758e-17
3.1475e-17
3.32692e-17
3.51168e-17
3.69806e-17
3.88279e-17
4.06303e-17
4.23636e-17
4.4008e-17
4.55477e-17
4.69705e-17
4.8268e-17
4.94351e-17
5.04696e-17
5.13717e-17
5.21444e-17
5.2792e-17
5.33211e-17
5.37389e-17
5.40541e-17
5.42758e-17
5.44138e-17
5.44778e-17
1.09376e-16
1.13397e-16
1.1907e-16
1.26135e-16
1.34375e-16
1.43602e-16
1.53647e-16
1.64356e-16
1.75585e-16
1.87198e-16
1.99065e-16
2.1106e-16
2.23057e-16
2.34933e-16
2.46566e-16
2.57838e-16
2.68632e-16
2.78834e-16
2.88335e-16
2.97034e-16
3.04838e-16
3.11664e-16
3.17441e-16
3.22113e-16
3.25639e-16
3.27994e-16
3.29168e-16
3.43189e-16
3.58252e-16
3.79655e-16
4.06549e-16
4.38231e-16
4.74066e-16
5.13452e-16
5.55797e-16
6.00499e-16
6.46945e-16
6.9451e-16
7.42571e-16
7.90511e-16
8.37722e-16
8.83616e-16
9.27634e-16
9.6926e-16
1.00803e-15
1.04354e-15
1.07546e-15
1.10353e-15
1.12756e-15
1.14746e-15
1.16318e-15
1.17478e-15
1.18234e-15
1.18602e-15
9.99483e-16
1.04913e-15
1.12015e-15
1.21e-15
1.31656e-15
1.43784e-15
1.57185e-15
1.71653e-15
1.86972e-15
2.02915e-15
2.19246e-15
2.35726e-15
2.5212e-15
2.68194e-15
2.83731e-15
2.98528e-15
3.12408e-15
3.25219e-15
3.36838e-15
3.47175e-15
3.56168e-15
3.63787e-15
3.70027e-15
3.74908e-15
3.78469e-15
3.80769e-15
3.81879e-15
2.92015e-15
3.07677e-15
3.30124e-15
3.58589e-15
3.92422e-15
4.30998e-15
4.73673e-15
5.19766e-15
5.68552e-15
6.19263e-15
6.7111e-15
7.23293e-15
7.7503e-15
8.25573e-15
8.74229e-15
9.20379e-15
9.63486e-15
1.00311e-14
1.03891e-14
1.07063e-14
1.09814e-14
1.12137e-14
1.14033e-14
1.15512e-14
1.16589e-14
1.17283e-14
1.17616e-14
8.61019e-15
9.09116e-15
9.78137e-15
1.06574e-14
1.16992e-14
1.28874e-14
1.42018e-14
1.56212e-14
1.71225e-14
1.86819e-14
2.02744e-14
2.18752e-14
2.346e-14
2.50057e-14
2.64912e-14
2.78975e-14
2.92087e-14
3.04118e-14
3.14967e-14
3.24566e-14
3.32875e-14
3.39879e-14
3.45589e-14
3.50036e-14
3.53269e-14
3.5535e-14
3.5635e-14
2.55769e-14
2.70384e-14
2.91357e-14
3.17977e-14
3.49632e-14
3.85725e-14
4.25639e-14
4.68712e-14
5.14241e-14
5.6149e-14
6.09701e-14
6.58115e-14
7.05998e-14
7.52654e-14
7.97449e-14
8.39822e-14
8.79297e-14
9.15489e-14
9.48106e-14
9.76947e-14
1.0019e-13
1.02292e-13
1.04006e-13
1.0534e-13
1.0631e-13
1.06934e-13
1.07234e-13
7.62288e-14
8.06265e-14
8.69403e-14
9.49571e-14
1.04493e-13
1.15367e-13
1.27393e-13
1.4037e-13
1.54085e-13
1.68315e-13
1.82829e-13
1.974e-13
2.11806e-13
2.25837e-13
2.39302e-13
2.52033e-13
2.63889e-13
2.74753e-13
2.8454e-13
2.9319e-13
3.0067e-13
3.06971e-13
3.12104e-13
3.16099e-13
3.19001e-13
3.20868e-13
3.21765e-13
2.27789e-13
2.41006e-13
2.59977e-13
2.84063e-13
3.12707e-13
3.45368e-13
3.81477e-13
4.20432e-13
4.61589e-13
5.04275e-13
5.47801e-13
5.91481e-13
6.34648e-13
6.7668e-13
7.17004e-13
7.55122e-13
7.90608e-13
8.23122e-13
8.52407e-13
8.78286e-13
9.00663e-13
9.1951e-13
9.34864e-13
9.46814e-13
9.55496e-13
9.61079e-13
9.63762e-13
6.807e-13
7.20282e-13
7.77111e-13
8.49263e-13
9.35075e-13
1.03291e-12
1.14108e-12
1.25776e-12
1.38102e-12
1.50884e-12
1.63916e-12
1.76991e-12
1.89911e-12
2.02487e-12
2.14551e-12
2.25951e-12
2.36562e-12
2.46281e-12
2.55034e-12
2.62766e-12
2.6945e-12
2.75079e-12
2.79663e-12
2.8323e-12
2.85821e-12
2.87487e-12
2.88287e-12
2.03503e-12
2.15352e-12
2.32358e-12
2.53947e-12
2.79617e-12
3.08877e-12
3.41217e-12
3.76092e-12
4.12922e-12
4.51101e-12
4.90013e-12
5.29042e-12
5.67593e-12
6.0511e-12
6.41085e-12
6.75073e-12
7.06699e-12
7.35663e-12
7.61738e-12
7.84771e-12
8.04679e-12
8.21441e-12
8.35091e-12
8.45712e-12
8.53425e-12
8.58385e-12
8.60768e-12
6.07775e-12
6.43144e-12
6.93909e-12
7.5834e-12
8.34935e-12
9.22222e-12
1.01867e-11
1.12264e-11
1.2324e-11
1.34614e-11
1.46202e-11
1.5782e-11
1.69291e-11
1.80451e-11
1.91147e-11
2.01249e-11
2.10645e-11
2.19247e-11
2.26988e-11
2.33823e-11
2.3973e-11
2.44701e-11
2.48748e-11
2.51896e-11
2.54181e-11
2.55651e-11
2.56357e-11
1.813e-11
1.91839e-11
2.06959e-11
2.26141e-11
2.48933e-11
2.74892e-11
3.03557e-11
3.34438e-11
3.67017e-11
4.00754e-11
4.35102e-11
4.69516e-11
5.03473e-11
5.36484e-11
5.68106e-11
5.97952e-11
6.25699e-11
6.51087e-11
6.73923e-11
6.9408e-11
7.11489e-11
7.26136e-11
7.38057e-11
7.47327e-11
7.54056e-11
7.5838e-11
7.60457e-11
5.39169e-11
5.70421e-11
6.15243e-11
6.72076e-11
7.39562e-11
8.16371e-11
9.01119e-11
9.92342e-11
1.0885e-10
1.18798e-10
1.28916e-10
1.39045e-10
1.49029e-10
1.58726e-10
1.68006e-10
1.76758e-10
1.84887e-10
1.92318e-10
1.98998e-10
2.04889e-10
2.09974e-10
2.14249e-10
2.17727e-10
2.20429e-10
2.2239e-10
2.2365e-10
2.24255e-10
1.59736e-10
1.6895e-10
1.82156e-10
1.98886e-10
2.18732e-10
2.41293e-10
2.66155e-10
2.9288e-10
3.21011e-10
3.50073e-10
3.7959e-10
4.09093e-10
4.38135e-10
4.66301e-10
4.93221e-10
5.18575e-10
5.42095e-10
5.63573e-10
5.82857e-10
5.99849e-10
6.14501e-10
6.2681e-10
6.36815e-10
6.44586e-10
6.5022e-10
6.53838e-10
6.55574e-10
4.70379e-10
4.97277e-10
5.35795e-10
5.84535e-10
6.42273e-10
7.07808e-10
7.79902e-10
8.5726e-10
9.38532e-10
1.02233e-09
1.10728e-09
1.19202e-09
1.27528e-09
1.35587e-09
1.43277e-09
1.50505e-09
1.572e-09
1.63304e-09
1.68776e-09
1.73591e-09
1.77738e-09
1.81217e-09
1.84042e-09
1.86233e-09
1.87821e-09
1.8884e-09
1.89328e-09
1.37414e-09
1.45164e-09
1.56245e-09
1.70245e-09
1.86796e-09
2.05541e-09
2.26112e-09
2.4813e-09
2.71201e-09
2.94927e-09
3.18913e-09
3.42778e-09
3.66164e-09
3.88746e-09
4.10238e-09
4.30396e-09
4.49025e-09
4.65974e-09
4.8114e-09
4.9446e-09
5.05912e-09
5.15507e-09
5.23286e-09
5.29315e-09
5.33677e-09
5.36472e-09
5.37812e-09
3.97118e-09
4.19028e-09
4.50308e-09
4.89737e-09
5.36229e-09
5.88728e-09
6.4616e-09
7.07426e-09
7.71404e-09
8.36971e-09
9.03028e-09
9.6853e-09
1.03251e-08
1.09408e-08
1.15251e-08
1.20716e-08
1.25752e-08
1.30322e-08
1.34402e-08
1.37977e-08
1.41045e-08
1.4361e-08
1.45687e-08
1.47293e-08
1.48454e-08
1.49198e-08
1.49553e-08
1.13156e-08
1.192e-08
1.27809e-08
1.3863e-08
1.51346e-08
1.65651e-08
1.81237e-08
1.97793e-08
2.15009e-08
2.32576e-08
2.50201e-08
2.67604e-08
2.84535e-08
3.0077e-08
3.16118e-08
3.30423e-08
3.43565e-08
3.55456e-08
3.66042e-08
3.75296e-08
3.83217e-08
3.89828e-08
3.95169e-08
3.99295e-08
4.02271e-08
4.04174e-08
4.05084e-08
3.16563e-08
3.32714e-08
3.55657e-08
3.84391e-08
4.18018e-08
4.55675e-08
4.96507e-08
5.39667e-08
5.84319e-08
6.29659e-08
6.74923e-08
7.19411e-08
7.62494e-08
8.03629e-08
8.42359e-08
8.78323e-08
9.11246e-08
9.40939e-08
9.67293e-08
9.90268e-08
1.00989e-07
1.02622e-07
1.03939e-07
1.04955e-07
1.05686e-07
1.06153e-07
1.06376e-07
8.65296e-08
9.06805e-08
9.65581e-08
1.03889e-07
1.12429e-07
1.21943e-07
1.32203e-07
1.42989e-07
1.54086e-07
1.65292e-07
1.76421e-07
1.87305e-07
1.97794e-07
2.07763e-07
2.17111e-07
2.25756e-07
2.33642e-07
2.40731e-07
2.47003e-07
2.52456e-07
2.57101e-07
2.6096e-07
2.64065e-07
2.66455e-07
2.68174e-07
2.6927e-07
2.69792e-07
2.29814e-07
2.40008e-07
2.54393e-07
2.7226e-07
2.92968e-07
3.15915e-07
3.40524e-07
3.66246e-07
3.92562e-07
4.18992e-07
4.45102e-07
4.70506e-07
4.94874e-07
5.17933e-07
5.39465e-07
5.59304e-07
5.77337e-07
5.93496e-07
6.07752e-07
6.20113e-07
6.30618e-07
6.39326e-07
6.4632e-07
6.51693e-07
6.55553e-07
6.58009e-07
6.59179e-07
5.89803e-07
6.13622e-07
6.47127e-07
6.88565e-07
7.36362e-07
7.89054e-07
8.4526e-07
9.03691e-07
9.63157e-07
1.02258e-06
1.08099e-06
1.13756e-06
1.19159e-06
1.24251e-06
1.28989e-06
1.33339e-06
1.3728e-06
1.40802e-06
1.43901e-06
1.46583e-06
1.48856e-06
1.50737e-06
1.52245e-06
1.53403e-06
1.54233e-06
1.5476e-06
1.55011e-06
1.45565e-06
1.50855e-06
1.58274e-06
1.67416e-06
1.77917e-06
1.8944e-06
2.01676e-06
2.14338e-06
2.27165e-06
2.39927e-06
2.52422e-06
2.64476e-06
2.75948e-06
2.86725e-06
2.96719e-06
3.05872e-06
3.14144e-06
3.21519e-06
3.27995e-06
3.33587e-06
3.38321e-06
3.42233e-06
3.45365e-06
3.47765e-06
3.49484e-06
3.50576e-06
3.51096e-06
3.44333e-06
3.55523e-06
3.71182e-06
3.9042e-06
4.12445e-06
4.3653e-06
4.62013e-06
4.8829e-06
5.14822e-06
5.41134e-06
5.66816e-06
5.91525e-06
6.1498e-06
6.36963e-06
6.57308e-06
6.75904e-06
6.92683e-06
7.07619e-06
7.20718e-06
7.32015e-06
7.41569e-06
7.49455e-06
7.55765e-06
7.60596e-06
7.64056e-06
7.66253e-06
7.67297e-06
7.79413e-06
8.02062e-06
8.33703e-06
8.72495e-06
9.16801e-06
9.6513e-06
1.01613e-05
1.06858e-05
1.12141e-05
1.17366e-05
1.22454e-05
1.27337e-05
1.31962e-05
1.36286e-05
1.4028e-05
1.43923e-05
1.47203e-05
1.50118e-05
1.5267e-05
1.54868e-05
1.56723e-05
1.58253e-05
1.59476e-05
1.60411e-05
1.6108e-05
1.61504e-05
1.61705e-05
1.68726e-05
1.73126e-05
1.79263e-05
1.86774e-05
1.95335e-05
2.04652e-05
2.1446e-05
2.24524e-05
2.34637e-05
2.44618e-05
2.54315e-05
2.63606e-05
2.72389e-05
2.80588e-05
2.88149e-05
2.95037e-05
3.01233e-05
3.06732e-05
3.11541e-05
3.15679e-05
3.1917e-05
3.22046e-05
3.24342e-05
3.26097e-05
3.27352e-05
3.28148e-05
3.28525e-05
3.4844e-05
3.56641e-05
3.68071e-05
3.82046e-05
3.97956e-05
4.15254e-05
4.33444e-05
4.5209e-05
4.70805e-05
4.89261e-05
5.07177e-05
5.24327e-05
5.40527e-05
5.55641e-05
5.6957e-05
5.8225e-05
5.93649e-05
6.0376e-05
6.12599e-05
6.202e-05
6.26609e-05
6.31886e-05
6.36098e-05
6.39316e-05
6.41616e-05
6.43073e-05
6.43764e-05
6.8399e-05
6.98713e-05
7.19233e-05
7.44319e-05
7.72877e-05
8.03924e-05
8.36575e-05
8.70047e-05
9.03651e-05
9.36797e-05
9.68984e-05
9.99804e-05
0.000102893
0.000105611
0.000108117
0.000110399
0.000112452
0.000114273
0.000115865
0.000117235
0.00011839
0.000119341
0.000120101
0.000120681
0.000121095
0.000121358
0.000121483
0.000126964
0.000129491
0.000133016
0.000137326
0.000142237
0.000147581
0.000153207
0.000158982
0.000164787
0.000170522
0.0001761
0.000181449
0.000186514
0.000191249
0.000195623
0.000199613
0.000203207
0.000206402
0.000209201
0.000211611
0.000213647
0.000215326
0.000216668
0.000217694
0.000218429
0.000218894
0.000219115
0.000221152
0.000225213
0.000230876
0.000237806
0.000245706
0.000254307
0.00026337
0.000272681
0.000282053
0.000291322
0.00030035
0.000309022
0.000317244
0.000324943
0.000332065
0.000338573
0.000344445
0.000349672
0.000354257
0.000358212
0.000361557
0.000364318
0.000366527
0.000368218
0.000369428
0.000370196
0.00037056
0.000358817
0.000364735
0.000372982
0.000383061
0.000394535
0.000407009
0.000420133
0.000433593
0.000447117
0.000460469
0.000473451
0.000485898
0.000497678
0.00050869
0.00051886
0.000528136
0.000536493
0.00054392
0.000550424
0.000556026
0.000560758
0.000564658
0.000567774
0.000570157
0.000571861
0.000572941
0.000573454
0.000540066
0.000547689
0.000558286
0.000571195
0.000585833
0.000601677
0.000618265
0.000635192
0.000652109
0.00066872
0.000684782
0.000700099
0.000714519
0.000727927
0.000740246
0.000751429
0.000761454
0.000770324
0.000778059
0.000784695
0.000790278
0.000794865
0.000798519
0.000801305
0.000803292
0.00080455
0.000805145
0.000754194
0.000762795
0.000774707
0.000789153
0.000805445
0.000822974
0.000841208
0.000859689
0.000878031
0.000895917
0.000913091
0.000929355
0.000944564
0.000958614
0.000971444
0.000983022
0.000993344
0.00100243
0.00101032
0.00101705
0.00102269
0.00102731
0.00103098
0.00103377
0.00103575
0.00103701
0.0010376
0.000981957
0.000990541
0.00100239
0.00101669
0.00103274
0.00104991
0.00106766
0.00108553
0.00110315
0.00112023
0.00113652
0.00115186
0.00116612
0.00117922
0.00119112
0.0012018
0.00121129
0.00121961
0.0012268
0.00123292
0.00123804
0.00124221
0.00124552
0.00124803
0.00124981
0.00125094
0.00125147
0.00120274
0.00121049
0.00122116
0.001234
0.00124835
0.00126363
0.00127936
0.00129511
0.00131058
0.0013255
0.00133967
0.00135295
0.00136525
0.00137651
0.0013867
0.00139583
0.00140391
0.00141098
0.00141708
0.00142227
0.00142659
0.00143012
0.00143291
0.00143503
0.00143653
0.00143748
0.00143793
0.0014013
0.00140781
0.00141675
0.00142749
0.00143945
0.00145215
0.00146519
0.00147822
0.00149097
0.00150324
0.00151486
0.00152573
0.00153577
0.00154495
0.00155325
0.00156068
0.00156724
0.00157298
0.00157792
0.00158213
0.00158564
0.0015885
0.00159076
0.00159248
0.0015937
0.00159447
0.00159483
0.00157008
0.00157527
0.0015824
0.00159095
0.00160047
0.00161057
0.00162091
0.00163124
0.00164133
0.00165103
0.00166021
0.00166879
0.00167672
0.00168396
0.0016905
0.00169635
0.00170152
0.00170604
0.00170995
0.00171326
0.00171603
0.00171829
0.00172008
0.00172144
0.0017224
0.00172301
0.0017233
0.00170767
0.00171168
0.00171719
0.00172379
0.00173114
0.00173892
0.0017469
0.00175486
0.00176264
0.00177012
0.00177719
0.00178381
0.00178992
0.0017955
0.00180055
0.00180507
0.00180906
0.00181256
0.00181558
0.00181814
0.00182029
0.00182204
0.00182343
0.00182449
0.00182524
0.00182571
0.00182594
0.00181628
0.00181931
0.00182347
0.00182846
0.00183401
0.00183989
0.00184592
0.00185194
0.00185782
0.00186347
0.00186883
0.00187384
0.00187846
0.00188269
0.00188652
0.00188995
0.00189298
0.00189564
0.00189794
0.00189989
0.00190153
0.00190286
0.00190392
0.00190473
0.0019053
0.00190567
0.00190584
0.00189962
0.00190187
0.00190496
0.00190865
0.00191277
0.00191714
0.00192161
0.00192607
0.00193044
0.00193464
0.00193862
0.00194234
0.00194578
0.00194893
0.00195177
0.00195433
0.00195659
0.00195857
0.00196028
0.00196174
0.00196296
0.00196396
0.00196476
0.00196536
0.00196579
0.00196606
0.00196619
0.00196169
0.00196332
0.00196556
0.00196825
0.00197123
0.0019744
0.00197764
0.00198088
0.00198405
0.00198709
0.00198998
0.00199267
0.00199517
0.00199745
0.00199952
0.00200137
0.00200301
0.00200445
0.0020057
0.00200676
0.00200764
0.00200837
0.00200895
0.00200939
0.0020097
0.0020099
0.00201
0.00200616
0.00200731
0.00200888
0.00201077
0.00201286
0.00201508
0.00201736
0.00201962
0.00202184
0.00202397
0.00202598
0.00202787
0.00202961
0.0020312
0.00203264
0.00203393
0.00203508
0.00203608
0.00203695
0.00203768
0.0020383
0.00203881
0.00203921
0.00203952
0.00203974
0.00203988
0.00203994
0.0020362
0.00203697
0.00203801
0.00203926
0.00204065
0.00204212
0.00204362
0.00204512
0.00204658
0.00204798
0.0020493
0.00205053
0.00205167
0.0020527
0.00205364
0.00205448
0.00205522
0.00205587
0.00205643
0.00205691
0.00205731
0.00205764
0.0020579
0.0020581
0.00205824
0.00205833
0.00205837
0.00205445
0.00205491
0.00205553
0.00205628
0.00205711
0.00205798
0.00205886
0.00205973
0.00206058
0.00206139
0.00206216
0.00206286
0.00206351
0.0020641
0.00206463
0.0020651
0.00206552
0.00206588
0.0020662
0.00206646
0.00206668
0.00206687
0.00206701
0.00206712
0.0020672
0.00206725
0.00206727
0.00206306
0.00206328
0.00206356
0.0020639
0.00206428
0.00206466
0.00206505
0.00206542
0.00206578
0.00206611
0.00206642
0.0020667
0.00206695
0.00206717
0.00206737
0.00206755
0.0020677
0.00206783
0.00206794
0.00206803
0.00206811
0.00206817
0.00206822
0.00206826
0.00206829
0.0020683
0.00206831
0.0020638
0.00206381
0.00206383
0.00206384
0.00206384
0.00206383
0.00206381
0.00206378
0.00206374
0.00206368
0.00206362
0.00206355
0.00206348
0.0020634
0.00206333
0.00206326
0.00206319
0.00206313
0.00206308
0.00206303
0.00206299
0.00206295
0.00206292
0.0020629
0.00206288
0.00206287
0.00206287
0.00205809
0.00205794
0.00205773
0.00205747
0.00205717
0.00205684
0.00205649
0.00205613
0.00205575
0.00205538
0.00205502
0.00205466
0.00205432
0.002054
0.00205371
0.00205344
0.00205319
0.00205297
0.00205278
0.00205261
0.00205247
0.00205236
0.00205226
0.00205219
0.00205214
0.00205211
0.0020521
0.00204709
0.00204681
0.00204642
0.00204594
0.00204539
0.0020448
0.00204417
0.00204354
0.00204289
0.00204226
0.00204164
0.00204105
0.0020405
0.00203998
0.0020395
0.00203906
0.00203867
0.00203832
0.00203801
0.00203775
0.00203753
0.00203735
0.0020372
0.00203709
0.00203701
0.00203696
0.00203694
0.00203176
0.00203137
0.00203083
0.00203017
0.00202942
0.0020286
0.00202776
0.00202689
0.00202603
0.00202518
0.00202436
0.00202357
0.00202284
0.00202215
0.00202152
0.00202095
0.00202043
0.00201997
0.00201958
0.00201923
0.00201895
0.00201871
0.00201852
0.00201837
0.00201827
0.0020182
0.00201817
0.00201287
0.00201239
0.00201173
0.00201091
0.00201
0.00200901
0.00200798
0.00200692
0.00200588
0.00200485
0.00200386
0.00200292
0.00200203
0.00200121
0.00200045
0.00199977
0.00199915
0.00199861
0.00199813
0.00199772
0.00199738
0.0019971
0.00199687
0.0019967
0.00199658
0.0019965
0.00199646
0.00199108
0.00199052
0.00198975
0.00198882
0.00198776
0.00198663
0.00198544
0.00198424
0.00198304
0.00198187
0.00198074
0.00197966
0.00197866
0.00197772
0.00197686
0.00197608
0.00197538
0.00197477
0.00197423
0.00197377
0.00197338
0.00197306
0.0019728
0.00197261
0.00197247
0.00197238
0.00197234
0.00196691
0.00196629
0.00196544
0.0019644
0.00196324
0.00196198
0.00196067
0.00195934
0.00195802
0.00195672
0.00195548
0.0019543
0.00195319
0.00195216
0.00195122
0.00195036
0.0019496
0.00194892
0.00194833
0.00194782
0.0019474
0.00194705
0.00194677
0.00194655
0.0019464
0.0019463
0.00194626
0.00194081
0.00194015
0.00193922
0.00193811
0.00193685
0.00193549
0.00193408
0.00193264
0.00193122
0.00192983
0.00192849
0.00192722
0.00192603
0.00192493
0.00192392
0.001923
0.00192218
0.00192145
0.00192082
0.00192028
0.00191982
0.00191944
0.00191914
0.00191891
0.00191875
0.00191865
0.0019186
0.00191316
0.00191246
0.00191148
0.00191029
0.00190896
0.00190752
0.00190602
0.00190451
0.001903
0.00190153
0.00190012
0.00189878
0.00189752
0.00189636
0.00189529
0.00189432
0.00189345
0.00189269
0.00189202
0.00189145
0.00189097
0.00189057
0.00189026
0.00189001
0.00188984
0.00188973
0.00188968
0.00188428
0.00188354
0.00188251
0.00188127
0.00187988
0.00187838
0.00187681
0.00187523
0.00187366
0.00187213
0.00187065
0.00186925
0.00186794
0.00186673
0.00186561
0.00186461
0.00186371
0.00186291
0.00186221
0.00186162
0.00186112
0.0018607
0.00186038
0.00186012
0.00185994
0.00185983
0.00185978
0.00185442
0.00185365
0.0018526
0.00185131
0.00184987
0.00184831
0.0018467
0.00184506
0.00184344
0.00184186
0.00184033
0.00183889
0.00183754
0.00183628
0.00183514
0.0018341
0.00183317
0.00183234
0.00183163
0.00183101
0.0018305
0.00183007
0.00182973
0.00182947
0.00182929
0.00182917
0.00182911
0.00182382
0.00182303
0.00182195
0.00182063
0.00181915
0.00181756
0.0018159
0.00181422
0.00181256
0.00181094
0.00180938
0.0018079
0.00180651
0.00180523
0.00180405
0.00180299
0.00180204
0.0018012
0.00180046
0.00179984
0.00179931
0.00179887
0.00179852
0.00179826
0.00179807
0.00179795
0.00179789
0.00179267
0.00179187
0.00179076
0.00178942
0.00178791
0.00178629
0.0017846
0.00178289
0.0017812
0.00177955
0.00177796
0.00177645
0.00177504
0.00177374
0.00177254
0.00177146
0.00177049
0.00176964
0.00176889
0.00176825
0.00176772
0.00176727
0.00176692
0.00176665
0.00176646
0.00176634
0.00176628
0.00176114
0.00176032
0.0017592
0.00175784
0.00175631
0.00175467
0.00175296
0.00175123
0.00174952
0.00174784
0.00174624
0.00174471
0.00174328
0.00174196
0.00174075
0.00173966
0.00173868
0.00173782
0.00173706
0.00173641
0.00173587
0.00173542
0.00173507
0.00173479
0.0017346
0.00173447
0.00173442
0.00172936
0.00172855
0.00172741
0.00172604
0.0017245
0.00172284
0.00172112
0.00171938
0.00171765
0.00171596
0.00171434
0.0017128
0.00171137
0.00171004
0.00170882
0.00170771
0.00170673
0.00170586
0.0017051
0.00170445
0.0017039
0.00170345
0.00170309
0.00170281
0.00170262
0.00170249
0.00170243
0.00169748
0.00169666
0.00169552
0.00169414
0.00169259
0.00169093
0.0016892
0.00168745
0.00168571
0.00168402
0.00168239
0.00168085
0.0016794
0.00167807
0.00167685
0.00167574
0.00167475
0.00167388
0.00167312
0.00167246
0.00167191
0.00167146
0.0016711
0.00167082
0.00167063
0.0016705
0.00167044
0.00166559
0.00166477
0.00166363
0.00166225
0.0016607
0.00165903
0.0016573
0.00165555
0.00165381
0.00165211
0.00165049
0.00164895
0.0016475
0.00164617
0.00164494
0.00164384
0.00164285
0.00164197
0.00164121
0.00164056
0.00164001
0.00163956
0.0016392
0.00163892
0.00163872
0.0016386
0.00163854
0.0016338
0.00163297
0.00163184
0.00163046
0.00162891
0.00162725
0.00162552
0.00162377
0.00162204
0.00162035
0.00161872
0.00161719
0.00161575
0.00161441
0.0016132
0.00161209
0.00161111
0.00161023
0.00160948
0.00160882
0.00160828
0.00160783
0.00160747
0.00160719
0.00160699
0.00160687
0.00160681
0.00160218
0.00160136
0.00160023
0.00159886
0.00159732
0.00159566
0.00159395
0.00159221
0.00159048
0.0015888
0.00158719
0.00158566
0.00158422
0.0015829
0.00158169
0.00158059
0.00157961
0.00157874
0.00157799
0.00157734
0.0015768
0.00157635
0.00157599
0.00157572
0.00157552
0.0015754
0.00157534
0.00157083
0.00157002
0.00156889
0.00156753
0.001566
0.00156436
0.00156265
0.00156093
0.00155922
0.00155755
0.00155595
0.00155443
0.00155301
0.00155169
0.00155049
0.0015494
0.00154843
0.00154757
0.00154682
0.00154618
0.00154564
0.0015452
0.00154484
0.00154457
0.00154438
0.00154426
0.0015442
0.00153981
0.001539
0.00153789
0.00153655
0.00153503
0.0015334
0.00153172
0.00153001
0.00152831
0.00152666
0.00152508
0.00152358
0.00152217
0.00152087
0.00151968
0.0015186
0.00151764
0.00151679
0.00151605
0.00151542
0.00151488
0.00151444
0.00151409
0.00151382
0.00151363
0.00151351
0.00151345
0.0015092
0.0015084
0.0015073
0.00150597
0.00150448
0.00150287
0.0015012
0.00149951
0.00149784
0.00149621
0.00149465
0.00149317
0.00149178
0.0014905
0.00148932
0.00148826
0.00148731
0.00148647
0.00148574
0.00148511
0.00148459
0.00148415
0.00148381
0.00148354
0.00148336
0.00148324
0.00148318
0.00147906
0.00147827
0.00147719
0.00147588
0.00147441
0.00147282
0.00147118
0.00146952
0.00146787
0.00146627
0.00146473
0.00146327
0.0014619
0.00146064
0.00145948
0.00145844
0.0014575
0.00145668
0.00145596
0.00145534
0.00145483
0.0014544
0.00145406
0.0014538
0.00145361
0.00145349
0.00145344
0.00144946
0.00144869
0.00144762
0.00144634
0.00144489
0.00144333
0.00144172
0.00144009
0.00143847
0.0014369
0.00143538
0.00143395
0.00143261
0.00143137
0.00143024
0.00142921
0.00142829
0.00142748
0.00142678
0.00142617
0.00142566
0.00142525
0.00142491
0.00142466
0.00142448
0.00142436
0.0014243
0.00142047
0.00141972
0.00141868
0.00141742
0.001416
0.00141447
0.00141289
0.0014113
0.00140971
0.00140817
0.00140669
0.00140529
0.00140398
0.00140276
0.00140165
0.00140065
0.00139975
0.00139896
0.00139827
0.00139768
0.00139718
0.00139677
0.00139644
0.00139619
0.00139602
0.0013959
0.00139585
0.00139217
0.00139144
0.00139042
0.00138919
0.0013878
0.00138632
0.00138478
0.00138322
0.00138167
0.00138016
0.00137872
0.00137735
0.00137607
0.00137489
0.00137381
0.00137283
0.00137195
0.00137118
0.00137051
0.00136993
0.00136945
0.00136905
0.00136873
0.00136848
0.00136831
0.0013682
0.00136815
0.00136464
0.00136393
0.00136294
0.00136174
0.00136039
0.00135894
0.00135744
0.00135593
0.00135443
0.00135296
0.00135156
0.00135023
0.00134899
0.00134784
0.00134678
0.00134583
0.00134498
0.00134423
0.00134358
0.00134302
0.00134255
0.00134216
0.00134185
0.00134162
0.00134145
0.00134134
0.00134129
0.00133796
0.00133727
0.00133631
0.00133515
0.00133384
0.00133244
0.00133099
0.00132952
0.00132807
0.00132665
0.00132529
0.00132401
0.0013228
0.00132169
0.00132068
0.00131976
0.00131893
0.00131821
0.00131758
0.00131704
0.00131658
0.00131621
0.00131591
0.00131568
0.00131552
0.00131541
0.00131536
0.00131223
0.00131156
0.00131064
0.00130952
0.00130826
0.00130691
0.00130551
0.0013041
0.0013027
0.00130133
0.00130002
0.00129879
0.00129763
0.00129656
0.00129558
0.0012947
0.0012939
0.00129321
0.0012926
0.00129208
0.00129164
0.00129128
0.001291
0.00129078
0.00129062
0.00129052
0.00129047
0.00128755
0.0012869
0.00128602
0.00128495
0.00128374
0.00128245
0.00128111
0.00127975
0.00127841
0.00127711
0.00127586
0.00127467
0.00127356
0.00127254
0.00127161
0.00127076
0.00127001
0.00126934
0.00126876
0.00126826
0.00126784
0.0012675
0.00126723
0.00126702
0.00126687
0.00126677
0.00126673
0.00126402
0.00126341
0.00126257
0.00126155
0.0012604
0.00125917
0.0012579
0.00125661
0.00125533
0.00125409
0.0012529
0.00125178
0.00125073
0.00124976
0.00124887
0.00124807
0.00124735
0.00124672
0.00124617
0.0012457
0.0012453
0.00124498
0.00124472
0.00124452
0.00124438
0.00124429
0.00124425
0.00124178
0.0012412
0.0012404
0.00123944
0.00123836
0.0012372
0.001236
0.00123478
0.00123358
0.00123241
0.00123129
0.00123023
0.00122925
0.00122833
0.0012275
0.00122674
0.00122607
0.00122548
0.00122496
0.00122452
0.00122415
0.00122384
0.0012236
0.00122341
0.00122328
0.00122319
0.00122315
0.00122093
0.00122039
0.00121965
0.00121875
0.00121774
0.00121666
0.00121553
0.0012144
0.00121328
0.00121219
0.00121115
0.00121016
0.00120924
0.00120839
0.00120762
0.00120691
0.00120629
0.00120574
0.00120526
0.00120485
0.0012045
0.00120422
0.00120399
0.00120382
0.00120369
0.00120362
0.00120358
0.00120162
0.00120112
0.00120043
0.0011996
0.00119867
0.00119767
0.00119664
0.00119559
0.00119456
0.00119356
0.0011926
0.00119169
0.00119084
0.00119006
0.00118935
0.00118871
0.00118813
0.00118763
0.00118719
0.00118681
0.00118649
0.00118623
0.00118602
0.00118587
0.00118575
0.00118568
0.00118565
0.00118396
0.0011835
0.00118288
0.00118212
0.00118127
0.00118037
0.00117942
0.00117848
0.00117754
0.00117663
0.00117576
0.00117494
0.00117417
0.00117346
0.00117282
0.00117224
0.00117172
0.00117126
0.00117086
0.00117052
0.00117024
0.00117
0.00116982
0.00116967
0.00116957
0.00116951
0.00116948
0.00116806
0.00116765
0.00116709
0.00116642
0.00116566
0.00116485
0.00116401
0.00116316
0.00116232
0.00116151
0.00116074
0.00116001
0.00115932
0.0011587
0.00115812
0.00115761
0.00115715
0.00115674
0.00115639
0.00115609
0.00115584
0.00115563
0.00115546
0.00115534
0.00115525
0.00115519
0.00115516
0.00115401
0.00115366
0.00115317
0.00115257
0.00115191
0.0011512
0.00115046
0.00114972
0.00114899
0.00114828
0.00114761
0.00114697
0.00114638
0.00114583
0.00114533
0.00114489
0.00114449
0.00114413
0.00114383
0.00114357
0.00114335
0.00114317
0.00114303
0.00114292
0.00114284
0.00114279
0.00114277
0.00114187
0.00114157
0.00114115
0.00114064
0.00114007
0.00113946
0.00113883
0.0011382
0.00113758
0.00113698
0.00113641
0.00113586
0.00113536
0.0011349
0.00113448
0.0011341
0.00113376
0.00113346
0.00113321
0.00113299
0.0011328
0.00113265
0.00113253
0.00113244
0.00113238
0.00113233
0.00113232
0.00113165
0.0011314
0.00113105
0.00113062
0.00113015
0.00112964
0.00112912
0.0011286
0.00112809
0.00112759
0.00112711
0.00112667
0.00112625
0.00112587
0.00112553
0.00112522
0.00112494
0.0011247
0.00112449
0.00112431
0.00112416
0.00112404
0.00112394
0.00112386
0.00112381
0.00112378
0.00112376
0.0011233
0.00112309
0.00112281
0.00112247
0.00112209
0.00112168
0.00112127
0.00112085
0.00112044
0.00112004
0.00111966
0.00111931
0.00111898
0.00111867
0.0011184
0.00111816
0.00111794
0.00111775
0.00111758
0.00111744
0.00111732
0.00111722
0.00111715
0.00111709
0.00111705
0.00111702
0.00111701
0.00111671
0.00111655
0.00111633
0.00111606
0.00111577
0.00111546
0.00111513
0.00111481
0.0011145
0.00111419
0.0011139
0.00111363
0.00111338
0.00111315
0.00111294
0.00111275
0.00111259
0.00111244
0.00111232
0.00111221
0.00111212
0.00111205
0.00111199
0.00111195
0.00111192
0.0011119
0.00111189
0.00111171
0.00111159
0.00111143
0.00111123
0.00111101
0.00111078
0.00111054
0.0011103
0.00111007
0.00110985
0.00110964
0.00110944
0.00110926
0.00110909
0.00110894
0.0011088
0.00110868
0.00110858
0.00110849
0.00110841
0.00110835
0.0011083
0.00110825
0.00110822
0.0011082
0.00110819
0.00110818
0.00110808
0.00110799
0.00110788
0.00110774
0.00110758
0.00110742
0.00110725
0.00110709
0.00110692
0.00110677
0.00110662
0.00110648
0.00110635
0.00110624
0.00110613
0.00110604
0.00110596
0.00110589
0.00110583
0.00110577
0.00110573
0.00110569
0.00110567
0.00110564
0.00110563
0.00110562
0.00110562
0.00110556
0.0011055
0.00110542
0.00110533
0.00110523
0.00110512
0.001105
0.00110489
0.00110478
0.00110468
0.00110458
0.00110449
0.0011044
0.00110433
0.00110426
0.0011042
0.00110414
0.0011041
0.00110406
0.00110402
0.00110399
0.00110397
0.00110395
0.00110394
0.00110393
0.00110392
0.00110392
0.00110388
0.00110385
0.0011038
0.00110373
0.00110367
0.0011036
0.00110352
0.00110345
0.00110338
0.00110332
0.00110325
0.00110319
0.00110314
0.00110309
0.00110305
0.00110301
0.00110297
0.00110294
0.00110292
0.00110289
0.00110288
0.00110286
0.00110285
0.00110284
0.00110284
0.00110283
0.00110283
0.0011028
0.00110278
0.00110275
0.00110271
0.00110267
0.00110262
0.00110257
0.00110253
0.00110248
0.00110244
0.0011024
0.00110236
0.00110233
0.0011023
0.00110227
0.00110224
0.00110222
0.0011022
0.00110219
0.00110217
0.00110216
0.00110215
0.00110214
0.00110214
0.00110213
0.00110213
0.00110213
0.00110211
0.00110209
0.00110207
0.00110205
0.00110202
0.00110199
0.00110196
0.00110193
0.0011019
0.00110187
0.00110184
0.00110182
0.00110179
0.00110177
0.00110175
0.00110174
0.00110172
0.00110171
0.0011017
0.00110169
0.00110168
0.00110167
0.00110167
0.00110166
0.00110166
0.00110166
0.00110166
0.00110164
0.00110163
0.00110161
0.00110159
0.00110157
0.00110155
0.00110153
0.00110151
0.00110149
0.00110147
0.00110145
0.00110143
0.00110141
0.0011014
0.00110138
0.00110137
0.00110136
0.00110135
0.00110134
0.00110133
0.00110133
0.00110132
0.00110132
0.00110131
0.00110131
0.00110131
0.00110131
0.0011013
0.00110129
0.00110128
0.00110126
0.00110125
0.00110123
0.00110121
0.0011012
0.00110118
0.00110116
0.00110115
0.00110113
0.00110112
0.0011011
0.00110109
0.00110108
0.00110107
0.00110106
0.00110106
0.00110105
0.00110105
0.00110104
0.00110104
0.00110104
0.00110103
0.00110103
0.00110103
0.00110102
0.00110101
0.00110101
0.00110099
0.00110098
0.00110097
0.00110095
0.00110094
0.00110092
0.00110091
0.00110089
0.00110088
0.00110087
0.00110085
0.00110084
0.00110083
0.00110083
0.00110082
0.00110081
0.00110081
0.0011008
0.0011008
0.00110079
0.00110079