/*--------------------------------*- C++ -*----------------------------------*\
| =========                 |                                                 |
| \\      /  F ield         | OpenFOAM: The Open Source CFD Toolbox           |
|  \\    /   O peration     | Version:  2106                                  |
|   \\  /    A nd           | Website:  www.openfoam.com                      |
|    \\/     M anipulation  |                                                 |
\*---------------------------------------------------------------------------*/
FoamFile
{
    version     2.0;
    format      ascii;
    arch        "LSB;label=32;scalar=64";
    class       volScalarField;
    location    "79.99952";
    object      C6H5_0;
}
// * * * * * * * * * * * * * * * * * * * * * * * * * * * * * * * * * * * * * //

dimensions      [0 0 0 0 0 0 0];

internalField   nonuniform List<scalar> 
3360
(
1.31038e-22
1.35256e-22
1.41124e-22
1.48303e-22
1.56492e-22
1.65424e-22
1.74854e-22
1.84565e-22
1.94362e-22
2.04071e-22
2.13545e-22
2.22656e-22
2.31299e-22
2.39391e-22
2.4687e-22
2.5369e-22
2.59825e-22
2.65262e-22
2.70004e-22
2.74065e-22
2.77469e-22
2.8025e-22
2.82446e-22
2.84103e-22
2.85268e-22
2.85993e-22
2.8633e-22
5.74872e-22
5.96004e-22
6.25825e-22
6.62961e-22
7.06276e-22
7.54777e-22
8.07578e-22
8.63868e-22
9.22891e-22
9.83934e-22
1.04631e-21
1.10936e-21
1.17242e-21
1.23485e-21
1.296e-21
1.35525e-21
1.41198e-21
1.46561e-21
1.51555e-21
1.56128e-21
1.6023e-21
1.63818e-21
1.66854e-21
1.6931e-21
1.71164e-21
1.72401e-21
1.73019e-21
1.80394e-21
1.88312e-21
1.99564e-21
2.13702e-21
2.30357e-21
2.49195e-21
2.699e-21
2.9216e-21
3.1566e-21
3.40077e-21
3.65081e-21
3.90347e-21
4.15549e-21
4.40368e-21
4.64494e-21
4.87635e-21
5.09517e-21
5.29899e-21
5.48566e-21
5.65346e-21
5.80101e-21
5.92736e-21
6.03196e-21
6.11463e-21
6.17559e-21
6.21533e-21
6.23468e-21
5.25433e-21
5.51534e-21
5.88872e-21
6.36113e-21
6.92138e-21
7.55903e-21
8.26361e-21
9.0243e-21
9.82971e-21
1.06679e-20
1.15266e-20
1.23931e-20
1.3255e-20
1.41001e-20
1.4917e-20
1.5695e-20
1.64248e-20
1.70983e-20
1.77092e-20
1.82527e-20
1.87256e-20
1.91262e-20
1.94543e-20
1.97109e-20
1.98981e-20
2.00191e-20
2.00774e-20
1.53536e-20
1.61772e-20
1.73575e-20
1.88543e-20
2.06333e-20
2.26618e-20
2.49058e-20
2.73296e-20
2.9895e-20
3.25616e-20
3.5288e-20
3.8032e-20
4.07526e-20
4.34104e-20
4.59691e-20
4.83959e-20
5.06627e-20
5.27464e-20
5.46288e-20
5.62972e-20
5.77437e-20
5.89651e-20
5.99624e-20
6.07402e-20
6.13063e-20
6.16711e-20
6.18466e-20
4.52778e-20
4.78073e-20
5.14372e-20
5.60444e-20
6.15235e-20
6.77723e-20
7.46853e-20
8.21499e-20
9.0046e-20
9.82471e-20
1.06623e-19
1.15042e-19
1.23377e-19
1.31506e-19
1.39319e-19
1.46715e-19
1.53612e-19
1.59939e-19
1.65645e-19
1.70694e-19
1.75064e-19
1.78747e-19
1.81751e-19
1.8409e-19
1.8579e-19
1.86884e-19
1.8741e-19
1.34521e-19
1.42209e-19
1.5324e-19
1.67242e-19
1.83893e-19
2.02878e-19
2.23873e-19
2.4653e-19
2.70479e-19
2.95333e-19
3.20692e-19
3.46159e-19
3.71347e-19
3.95889e-19
4.19452e-19
4.41741e-19
4.62506e-19
4.81545e-19
4.98702e-19
5.13874e-19
5.26999e-19
5.38059e-19
5.47073e-19
5.54092e-19
5.59192e-19
5.62474e-19
5.64052e-19
4.00989e-19
4.24125e-19
4.57341e-19
4.99516e-19
5.49682e-19
6.06892e-19
6.70159e-19
7.38431e-19
8.10585e-19
8.85447e-19
9.61809e-19
1.03847e-18
1.11426e-18
1.18807e-18
1.25892e-18
1.3259e-18
1.38827e-18
1.44543e-18
1.49692e-18
1.54243e-18
1.58179e-18
1.61494e-18
1.64194e-18
1.66296e-18
1.67823e-18
1.68805e-18
1.69277e-18
1.19845e-18
1.26799e-18
1.36781e-18
1.49454e-18
1.64526e-18
1.81712e-18
2.00712e-18
2.21209e-18
2.42866e-18
2.65326e-18
2.88229e-18
3.11213e-18
3.33928e-18
3.56045e-18
3.77264e-18
3.97321e-18
4.15994e-18
4.33103e-18
4.48513e-18
4.62131e-18
4.73906e-18
4.83824e-18
4.91903e-18
4.98191e-18
5.02759e-18
5.05697e-18
5.07109e-18
3.58189e-18
3.7902e-18
4.08927e-18
4.46897e-18
4.92057e-18
5.43547e-18
6.00473e-18
6.61878e-18
7.26747e-18
7.94017e-18
8.626e-18
9.31413e-18
9.99406e-18
1.0656e-17
1.12908e-17
1.18908e-17
1.24493e-17
1.29608e-17
1.34214e-17
1.38284e-17
1.41802e-17
1.44764e-17
1.47177e-17
1.49054e-17
1.50418e-17
1.51294e-17
1.51716e-17
1.07102e-17
1.13339e-17
1.2229e-17
1.33653e-17
1.47165e-17
1.62566e-17
1.79589e-17
1.97945e-17
2.17331e-17
2.37428e-17
2.5791e-17
2.78454e-17
2.98747e-17
3.18495e-17
3.37431e-17
3.55322e-17
3.71969e-17
3.87215e-17
4.00941e-17
4.13066e-17
4.23545e-17
4.32368e-17
4.39553e-17
4.45144e-17
4.49204e-17
4.51815e-17
4.53069e-17
3.19919e-17
3.38538e-17
3.65263e-17
3.99181e-17
4.39504e-17
4.85456e-17
5.36229e-17
5.90964e-17
6.48748e-17
7.08628e-17
7.69634e-17
8.308e-17
8.91194e-17
9.49943e-17
1.00626e-16
1.05944e-16
1.10891e-16
1.15419e-16
1.19495e-16
1.23094e-16
1.26203e-16
1.2882e-16
1.30951e-16
1.32609e-16
1.33812e-16
1.34585e-16
1.34957e-16
9.54467e-17
1.00995e-16
1.08956e-16
1.19056e-16
1.31056e-16
1.44723e-16
1.59816e-16
1.76075e-16
1.93229e-16
2.10993e-16
2.29079e-16
2.47199e-16
2.65079e-16
2.82461e-16
2.99112e-16
3.14828e-16
3.29438e-16
3.42806e-16
3.54831e-16
3.65444e-16
3.74611e-16
3.82324e-16
3.88601e-16
3.93482e-16
3.97025e-16
3.99302e-16
4.00396e-16
2.83891e-16
3.00345e-16
3.23943e-16
3.53866e-16
3.89399e-16
4.2984e-16
4.74463e-16
5.22495e-16
5.73125e-16
6.25507e-16
6.78787e-16
7.3212e-16
7.84695e-16
8.35757e-16
8.84626e-16
9.3071e-16
9.73515e-16
1.01265e-15
1.04782e-15
1.07884e-15
1.10562e-15
1.12813e-15
1.14644e-15
1.16068e-15
1.171e-15
1.17764e-15
1.18082e-15
8.41215e-16
8.89708e-16
9.59209e-16
1.04726e-15
1.15171e-15
1.27046e-15
1.40132e-15
1.54199e-15
1.69006e-15
1.84304e-15
1.99842e-15
2.15372e-15
2.30659e-15
2.45486e-15
2.59657e-15
2.73003e-15
2.85384e-15
2.9669e-15
3.06841e-15
3.15786e-15
3.23498e-15
3.29978e-15
3.35244e-15
3.39334e-15
3.423e-15
3.44204e-15
3.45117e-15
2.47797e-15
2.61935e-15
2.82179e-15
3.07797e-15
3.38144e-15
3.72589e-15
4.10482e-15
4.51142e-15
4.93859e-15
5.37904e-15
5.82552e-15
6.2709e-15
6.70848e-15
7.13206e-15
7.53616e-15
7.91606e-15
8.26789e-15
8.58865e-15
8.8762e-15
9.12921e-15
9.34708e-15
9.52989e-15
9.67831e-15
9.79345e-15
9.87687e-15
9.93038e-15
9.95604e-15
7.2453e-15
7.65111e-15
8.23139e-15
8.96437e-15
9.83083e-15
1.0812e-14
1.18886e-14
1.30407e-14
1.42478e-14
1.54888e-14
1.67433e-14
1.79913e-14
1.9214e-14
2.03944e-14
2.15177e-14
2.25711e-14
2.35444e-14
2.44298e-14
2.5222e-14
2.59176e-14
2.65156e-14
2.70166e-14
2.74227e-14
2.77374e-14
2.79651e-14
2.8111e-14
2.81809e-14
2.09866e-14
2.21238e-14
2.37464e-14
2.57907e-14
2.81995e-14
3.09175e-14
3.38887e-14
3.70556e-14
4.03599e-14
4.37435e-14
4.71496e-14
5.05242e-14
5.38176e-14
5.69852e-14
5.99885e-14
6.27954e-14
6.53805e-14
6.77252e-14
6.98169e-14
7.16492e-14
7.32205e-14
7.45341e-14
7.55969e-14
7.6419e-14
7.70129e-14
7.7393e-14
7.75749e-14
6.01273e-14
6.32003e-14
6.75706e-14
7.30521e-14
7.94783e-14
8.6688e-14
9.4521e-14
1.02817e-13
1.11416e-13
1.20164e-13
1.28913e-13
1.37526e-13
1.45879e-13
1.53866e-13
1.61396e-13
1.68396e-13
1.74812e-13
1.80603e-13
1.85748e-13
1.90237e-13
1.94073e-13
1.9727e-13
1.9985e-13
2.0184e-13
2.03274e-13
2.04191e-13
2.04629e-13
1.70047e-13
1.779e-13
1.89003e-13
2.02825e-13
2.18883e-13
2.36719e-13
2.55886e-13
2.75953e-13
2.96509e-13
3.17169e-13
3.37582e-13
3.57439e-13
3.76472e-13
3.94463e-13
4.1124e-13
4.26673e-13
4.40677e-13
4.53203e-13
4.64235e-13
4.73784e-13
4.81886e-13
4.88593e-13
4.93973e-13
4.98103e-13
5.01067e-13
5.02953e-13
5.03851e-13
4.72393e-13
4.90778e-13
5.16497e-13
5.48062e-13
5.84114e-13
6.23378e-13
6.64664e-13
7.06878e-13
7.49043e-13
7.90311e-13
8.29977e-13
8.6748e-13
9.02401e-13
9.34455e-13
9.63476e-13
9.89402e-13
1.01225e-12
1.03212e-12
1.04914e-12
1.06349e-12
1.07535e-12
1.08494e-12
1.09246e-12
1.09811e-12
1.10209e-12
1.10458e-12
1.10574e-12
1.2687e-12
1.30585e-12
1.35677e-12
1.41754e-12
1.48456e-12
1.55455e-12
1.6246e-12
1.69226e-12
1.75557e-12
1.81307e-12
1.8638e-12
1.90728e-12
1.94341e-12
1.97244e-12
1.99486e-12
2.01137e-12
2.02274e-12
2.02983e-12
2.0335e-12
2.03454e-12
2.03373e-12
2.03172e-12
2.02911e-12
2.02639e-12
2.02395e-12
2.02211e-12
2.02111e-12
3.16518e-12
3.22128e-12
3.29479e-12
3.37703e-12
3.46009e-12
3.53718e-12
3.60291e-12
3.65344e-12
3.68645e-12
3.70109e-12
3.69775e-12
3.67782e-12
3.6434e-12
3.59706e-12
3.5416e-12
3.47984e-12
3.4145e-12
3.34809e-12
3.28284e-12
3.2207e-12
3.16331e-12
3.11201e-12
3.06788e-12
3.03175e-12
3.0042e-12
2.98566e-12
2.97635e-12
6.83495e-12
6.87039e-12
6.90764e-12
6.93419e-12
6.93952e-12
6.91613e-12
6.85988e-12
6.76992e-12
6.64814e-12
6.49855e-12
6.32642e-12
6.13766e-12
5.93823e-12
5.73371e-12
5.52909e-12
5.32868e-12
5.13605e-12
4.95412e-12
4.78524e-12
4.6313e-12
4.49377e-12
4.37385e-12
4.2725e-12
4.19047e-12
4.12837e-12
4.08667e-12
4.0657e-12
1.2057e-11
1.20016e-11
1.19095e-11
1.17748e-11
1.15947e-11
1.137e-11
1.11049e-11
1.08066e-11
1.04833e-11
1.01439e-11
9.7966e-12
9.44853e-12
9.10569e-12
8.77281e-12
8.45354e-12
8.15065e-12
7.86628e-12
7.60211e-12
7.35956e-12
7.13988e-12
6.94421e-12
6.77367e-12
6.62931e-12
6.51214e-12
6.42312e-12
6.36308e-12
6.33277e-12
1.87215e-11
1.8616e-11
1.84575e-11
1.82472e-11
1.79877e-11
1.76837e-11
1.73412e-11
1.69672e-11
1.65685e-11
1.61518e-11
1.57232e-11
1.52889e-11
1.48544e-11
1.44253e-11
1.40064e-11
1.36024e-11
1.32176e-11
1.28558e-11
1.25204e-11
1.22145e-11
1.19407e-11
1.17014e-11
1.14985e-11
1.13338e-11
1.12088e-11
1.11247e-11
1.10823e-11
3.04053e-11
3.03745e-11
3.03115e-11
3.02043e-11
3.00451e-11
2.98296e-11
2.95586e-11
2.92374e-11
2.88736e-11
2.84764e-11
2.80548e-11
2.76174e-11
2.71718e-11
2.67249e-11
2.62827e-11
2.58505e-11
2.54331e-11
2.50352e-11
2.46611e-11
2.43153e-11
2.40016e-11
2.37238e-11
2.34857e-11
2.32903e-11
2.31406e-11
2.3039e-11
2.29875e-11
5.44666e-11
5.48002e-11
5.52455e-11
5.57615e-11
5.63146e-11
5.68787e-11
5.74326e-11
5.79606e-11
5.8451e-11
5.88949e-11
5.92855e-11
5.96183e-11
5.98903e-11
6.01007e-11
6.02502e-11
6.03416e-11
6.03794e-11
6.03696e-11
6.03196e-11
6.02379e-11
6.01337e-11
6.00168e-11
5.9897e-11
5.97839e-11
5.96869e-11
5.96147e-11
5.95751e-11
1.13758e-10
1.15733e-10
1.18495e-10
1.2189e-10
1.25784e-10
1.30059e-10
1.34605e-10
1.39326e-10
1.4413e-10
1.48933e-10
1.53659e-10
1.58239e-10
1.62614e-10
1.66732e-10
1.70551e-10
1.74041e-10
1.77181e-10
1.79958e-10
1.8237e-10
1.84423e-10
1.86129e-10
1.87508e-10
1.88584e-10
1.89382e-10
1.89935e-10
1.90271e-10
1.90424e-10
2.77779e-10
2.85822e-10
2.97257e-10
3.11608e-10
3.28469e-10
3.47468e-10
3.68243e-10
3.90442e-10
4.13708e-10
4.37686e-10
4.62022e-10
4.86368e-10
5.10389e-10
5.33769e-10
5.56217e-10
5.77472e-10
5.97308e-10
6.15538e-10
6.32015e-10
6.46633e-10
6.59326e-10
6.70062e-10
6.78844e-10
6.85706e-10
6.90709e-10
6.93937e-10
6.95493e-10
7.40333e-10
7.68669e-10
8.09358e-10
8.61078e-10
9.22744e-10
9.93351e-10
1.07189e-09
1.15729e-09
1.24841e-09
1.34403e-09
1.44284e-09
1.54348e-09
1.64457e-09
1.74473e-09
1.84259e-09
1.93687e-09
2.02638e-09
2.11006e-09
2.18698e-09
2.25635e-09
2.31757e-09
2.3702e-09
2.41394e-09
2.44869e-09
2.47445e-09
2.49133e-09
2.49958e-09
1.99122e-09
2.07724e-09
2.20121e-09
2.35951e-09
2.54921e-09
2.76763e-09
3.01197e-09
3.2792e-09
3.56598e-09
3.86857e-09
4.18293e-09
4.50476e-09
4.82956e-09
5.15278e-09
5.46995e-09
5.77674e-09
6.06911e-09
6.3434e-09
6.59638e-09
6.82534e-09
7.02808e-09
7.20296e-09
7.34885e-09
7.465e-09
7.55128e-09
7.60799e-09
7.63581e-09
5.07416e-09
5.29114e-09
5.60327e-09
6.0008e-09
6.47567e-09
7.02024e-09
7.62661e-09
8.28636e-09
8.99034e-09
9.72865e-09
1.04908e-08
1.1266e-08
1.2043e-08
1.28112e-08
1.356e-08
1.42797e-08
1.49613e-08
1.5597e-08
1.618e-08
1.6705e-08
1.71676e-08
1.75646e-08
1.78941e-08
1.81555e-08
1.83489e-08
1.84755e-08
1.85376e-08
1.17341e-08
1.21781e-08
1.28127e-08
1.36141e-08
1.45616e-08
1.56359e-08
1.68173e-08
1.8086e-08
1.94215e-08
2.08029e-08
2.22094e-08
2.36203e-08
2.50158e-08
2.63773e-08
2.76878e-08
2.89321e-08
3.00971e-08
3.11717e-08
3.21472e-08
3.30171e-08
3.3777e-08
3.44235e-08
3.4956e-08
3.53753e-08
3.56837e-08
3.58846e-08
3.59825e-08
2.38853e-08
2.46159e-08
2.56513e-08
2.69443e-08
2.84535e-08
3.01399e-08
3.19662e-08
3.3896e-08
3.58942e-08
3.79273e-08
3.99636e-08
4.19736e-08
4.39308e-08
4.58118e-08
4.75961e-08
4.9267e-08
5.08109e-08
5.22175e-08
5.34796e-08
5.45929e-08
5.55554e-08
5.63675e-08
5.70306e-08
5.75485e-08
5.79266e-08
5.81712e-08
5.82897e-08
4.23739e-08
4.33564e-08
4.47369e-08
4.64421e-08
4.8407e-08
5.05718e-08
5.28809e-08
5.52831e-08
5.77312e-08
6.01828e-08
6.26e-08
6.49497e-08
6.7204e-08
6.93396e-08
7.1338e-08
7.31852e-08
7.4871e-08
7.63892e-08
7.77365e-08
7.89127e-08
7.99198e-08
8.07618e-08
8.14444e-08
8.19744e-08
8.23587e-08
8.26057e-08
8.27246e-08
6.61699e-08
6.72822e-08
6.88336e-08
7.07317e-08
7.28947e-08
7.52484e-08
7.77265e-08
8.02698e-08
8.28264e-08
8.53517e-08
8.7808e-08
9.01645e-08
9.23965e-08
9.44851e-08
9.64166e-08
9.81819e-08
9.97759e-08
1.01197e-07
1.02446e-07
1.03526e-07
1.04443e-07
1.05204e-07
1.05815e-07
1.06286e-07
1.06625e-07
1.06842e-07
1.06946e-07
9.28082e-08
9.39033e-08
9.54215e-08
9.72645e-08
9.93455e-08
1.01587e-07
1.03922e-07
1.06292e-07
1.08647e-07
1.10947e-07
1.13159e-07
1.15258e-07
1.17225e-07
1.19047e-07
1.20715e-07
1.22225e-07
1.23576e-07
1.2477e-07
1.25812e-07
1.26705e-07
1.27459e-07
1.28079e-07
1.28574e-07
1.28954e-07
1.29225e-07
1.29398e-07
1.29481e-07
1.19539e-07
1.20502e-07
1.21832e-07
1.23435e-07
1.25232e-07
1.27151e-07
1.29132e-07
1.31124e-07
1.33085e-07
1.34981e-07
1.36787e-07
1.38485e-07
1.4006e-07
1.41506e-07
1.42817e-07
1.43994e-07
1.45039e-07
1.45954e-07
1.46746e-07
1.4742e-07
1.47984e-07
1.48445e-07
1.48811e-07
1.4909e-07
1.49288e-07
1.49413e-07
1.49473e-07
1.4423e-07
1.45002e-07
1.46062e-07
1.47334e-07
1.48749e-07
1.50249e-07
1.51785e-07
1.53316e-07
1.54809e-07
1.56239e-07
1.57588e-07
1.58843e-07
1.59997e-07
1.61045e-07
1.61987e-07
1.62824e-07
1.63558e-07
1.64196e-07
1.64743e-07
1.65203e-07
1.65585e-07
1.65894e-07
1.66138e-07
1.66321e-07
1.6645e-07
1.66531e-07
1.66569e-07
1.65672e-07
1.66238e-07
1.67013e-07
1.67936e-07
1.68956e-07
1.70029e-07
1.71116e-07
1.72189e-07
1.73225e-07
1.74205e-07
1.75119e-07
1.75958e-07
1.76719e-07
1.77401e-07
1.78004e-07
1.78533e-07
1.7899e-07
1.7938e-07
1.79709e-07
1.79981e-07
1.80203e-07
1.8038e-07
1.80516e-07
1.80617e-07
1.80687e-07
1.80729e-07
1.80749e-07
1.83455e-07
1.8383e-07
1.84341e-07
1.84945e-07
1.85605e-07
1.86291e-07
1.86978e-07
1.87644e-07
1.88276e-07
1.88863e-07
1.89398e-07
1.89878e-07
1.90303e-07
1.90673e-07
1.9099e-07
1.91259e-07
1.91483e-07
1.91666e-07
1.91814e-07
1.9193e-07
1.9202e-07
1.92088e-07
1.92136e-07
1.92169e-07
1.9219e-07
1.92202e-07
1.92207e-07
1.97719e-07
1.97931e-07
1.98217e-07
1.98548e-07
1.98903e-07
1.99263e-07
1.99611e-07
1.99937e-07
2.00232e-07
2.00493e-07
2.00716e-07
2.00902e-07
2.01052e-07
2.01169e-07
2.01255e-07
2.01314e-07
2.01351e-07
2.01369e-07
2.01373e-07
2.01365e-07
2.0135e-07
2.01331e-07
2.0131e-07
2.01289e-07
2.01272e-07
2.01259e-07
2.01252e-07
2.08829e-07
2.08909e-07
2.09012e-07
2.09124e-07
2.09234e-07
2.09331e-07
2.0941e-07
2.09464e-07
2.09493e-07
2.09495e-07
2.09472e-07
2.09426e-07
2.0936e-07
2.09277e-07
2.09182e-07
2.09078e-07
2.0897e-07
2.0886e-07
2.08751e-07
2.08648e-07
2.08552e-07
2.08466e-07
2.08391e-07
2.0833e-07
2.08283e-07
2.08252e-07
2.08236e-07
2.17244e-07
2.17221e-07
2.17182e-07
2.17124e-07
2.17043e-07
2.16939e-07
2.16809e-07
2.16656e-07
2.1648e-07
2.16285e-07
2.16073e-07
2.15851e-07
2.1562e-07
2.15387e-07
2.15154e-07
2.14927e-07
2.14708e-07
2.14501e-07
2.14309e-07
2.14133e-07
2.13977e-07
2.1384e-07
2.13726e-07
2.13634e-07
2.13565e-07
2.1352e-07
2.13497e-07
2.2344e-07
2.23338e-07
2.23192e-07
2.23006e-07
2.22782e-07
2.22525e-07
2.22239e-07
2.2193e-07
2.21601e-07
2.21258e-07
2.20907e-07
2.20553e-07
2.20201e-07
2.19856e-07
2.19522e-07
2.19204e-07
2.18904e-07
2.18626e-07
2.18372e-07
2.18144e-07
2.17942e-07
2.1777e-07
2.17626e-07
2.17512e-07
2.17427e-07
2.17371e-07
2.17343e-07
2.27846e-07
2.27687e-07
2.27462e-07
2.2718e-07
2.26851e-07
2.26482e-07
2.26082e-07
2.25658e-07
2.25218e-07
2.24768e-07
2.24315e-07
2.23866e-07
2.23426e-07
2.23e-07
2.22593e-07
2.22209e-07
2.21851e-07
2.21522e-07
2.21224e-07
2.20957e-07
2.20724e-07
2.20526e-07
2.20361e-07
2.20231e-07
2.20135e-07
2.20072e-07
2.20041e-07
2.30832e-07
2.30631e-07
2.30348e-07
2.29998e-07
2.29593e-07
2.29143e-07
2.28661e-07
2.28155e-07
2.27634e-07
2.27108e-07
2.26583e-07
2.26066e-07
2.25564e-07
2.25081e-07
2.24623e-07
2.24193e-07
2.23795e-07
2.2343e-07
2.23101e-07
2.22808e-07
2.22553e-07
2.22336e-07
2.22157e-07
2.22016e-07
2.21912e-07
2.21844e-07
2.21811e-07
2.32696e-07
2.32466e-07
2.32143e-07
2.31744e-07
2.31285e-07
2.30779e-07
2.30239e-07
2.29676e-07
2.291e-07
2.2852e-07
2.27945e-07
2.27382e-07
2.26837e-07
2.26316e-07
2.25823e-07
2.25362e-07
2.24936e-07
2.24547e-07
2.24197e-07
2.23887e-07
2.23617e-07
2.23388e-07
2.232e-07
2.23052e-07
2.22942e-07
2.22871e-07
2.22836e-07
2.33681e-07
2.3343e-07
2.33079e-07
2.32647e-07
2.32151e-07
2.31607e-07
2.31028e-07
2.30426e-07
2.29813e-07
2.29198e-07
2.2859e-07
2.27996e-07
2.27423e-07
2.26876e-07
2.26361e-07
2.2588e-07
2.25436e-07
2.25032e-07
2.24669e-07
2.24348e-07
2.24069e-07
2.23833e-07
2.23639e-07
2.23486e-07
2.23373e-07
2.233e-07
2.23264e-07
2.33976e-07
2.33712e-07
2.33342e-07
2.32889e-07
2.32369e-07
2.318e-07
2.31195e-07
2.30569e-07
2.29932e-07
2.29294e-07
2.28666e-07
2.28053e-07
2.27463e-07
2.26901e-07
2.26372e-07
2.2588e-07
2.25426e-07
2.25013e-07
2.24643e-07
2.24315e-07
2.24032e-07
2.23791e-07
2.23594e-07
2.23438e-07
2.23324e-07
2.2325e-07
2.23213e-07
2.3373e-07
2.33458e-07
2.33077e-07
2.3261e-07
2.32076e-07
2.31492e-07
2.30872e-07
2.30232e-07
2.29581e-07
2.28931e-07
2.28291e-07
2.27669e-07
2.2707e-07
2.265e-07
2.25965e-07
2.25467e-07
2.25008e-07
2.24591e-07
2.24218e-07
2.23888e-07
2.23602e-07
2.2336e-07
2.23161e-07
2.23005e-07
2.2289e-07
2.22816e-07
2.22779e-07
2.3306e-07
2.32783e-07
2.32397e-07
2.31923e-07
2.31381e-07
2.3079e-07
2.30163e-07
2.29516e-07
2.2886e-07
2.28205e-07
2.2756e-07
2.26934e-07
2.26332e-07
2.25761e-07
2.25223e-07
2.24724e-07
2.24265e-07
2.23848e-07
2.23474e-07
2.23144e-07
2.22858e-07
2.22617e-07
2.22418e-07
2.22262e-07
2.22148e-07
2.22073e-07
2.22037e-07
2.32058e-07
2.31779e-07
2.3139e-07
2.30914e-07
2.30371e-07
2.29777e-07
2.29149e-07
2.28501e-07
2.27844e-07
2.27189e-07
2.26545e-07
2.2592e-07
2.2532e-07
2.2475e-07
2.24215e-07
2.23718e-07
2.23261e-07
2.22846e-07
2.22475e-07
2.22147e-07
2.21863e-07
2.21623e-07
2.21426e-07
2.21271e-07
2.21157e-07
2.21083e-07
2.21047e-07
2.30793e-07
2.30515e-07
2.30127e-07
2.29652e-07
2.2911e-07
2.28519e-07
2.27893e-07
2.27248e-07
2.26595e-07
2.25944e-07
2.25305e-07
2.24684e-07
2.24089e-07
2.23524e-07
2.22994e-07
2.22502e-07
2.22049e-07
2.21638e-07
2.2127e-07
2.20946e-07
2.20665e-07
2.20427e-07
2.20232e-07
2.20079e-07
2.19967e-07
2.19894e-07
2.19858e-07
2.29323e-07
2.29047e-07
2.28662e-07
2.2819e-07
2.27653e-07
2.27066e-07
2.26447e-07
2.25808e-07
2.25161e-07
2.24517e-07
2.23885e-07
2.23272e-07
2.22684e-07
2.22126e-07
2.21602e-07
2.21116e-07
2.2067e-07
2.20264e-07
2.19901e-07
2.19581e-07
2.19304e-07
2.1907e-07
2.18878e-07
2.18727e-07
2.18616e-07
2.18544e-07
2.18508e-07
2.2769e-07
2.27417e-07
2.27036e-07
2.2657e-07
2.26039e-07
2.2546e-07
2.24848e-07
2.24218e-07
2.2358e-07
2.22945e-07
2.22322e-07
2.21717e-07
2.21138e-07
2.20589e-07
2.20073e-07
2.19595e-07
2.19155e-07
2.18756e-07
2.18399e-07
2.18084e-07
2.17811e-07
2.17581e-07
2.17392e-07
2.17243e-07
2.17134e-07
2.17063e-07
2.17029e-07
2.25929e-07
2.25659e-07
2.25284e-07
2.24825e-07
2.24302e-07
2.23731e-07
2.23129e-07
2.22508e-07
2.21881e-07
2.21256e-07
2.20643e-07
2.20049e-07
2.1948e-07
2.1894e-07
2.18434e-07
2.17964e-07
2.17532e-07
2.1714e-07
2.16789e-07
2.1648e-07
2.16212e-07
2.15985e-07
2.158e-07
2.15654e-07
2.15547e-07
2.15477e-07
2.15443e-07
2.24065e-07
2.23801e-07
2.23431e-07
2.2298e-07
2.22465e-07
2.21905e-07
2.21313e-07
2.20703e-07
2.20087e-07
2.19474e-07
2.18872e-07
2.18289e-07
2.17731e-07
2.17201e-07
2.16705e-07
2.16243e-07
2.15819e-07
2.15435e-07
2.15091e-07
2.14787e-07
2.14524e-07
2.14302e-07
2.1412e-07
2.13977e-07
2.13872e-07
2.13804e-07
2.1377e-07
2.2212e-07
2.2186e-07
2.21498e-07
2.21054e-07
2.20549e-07
2.19999e-07
2.19418e-07
2.1882e-07
2.18216e-07
2.17615e-07
2.17025e-07
2.16454e-07
2.15906e-07
2.15387e-07
2.149e-07
2.14448e-07
2.14033e-07
2.13656e-07
2.13319e-07
2.13021e-07
2.12764e-07
2.12546e-07
2.12367e-07
2.12227e-07
2.12124e-07
2.12057e-07
2.12024e-07
2.20108e-07
2.19853e-07
2.19497e-07
2.19063e-07
2.18568e-07
2.18028e-07
2.17459e-07
2.16873e-07
2.1628e-07
2.15691e-07
2.15114e-07
2.14554e-07
2.14018e-07
2.1351e-07
2.13033e-07
2.1259e-07
2.12183e-07
2.11814e-07
2.11484e-07
2.11192e-07
2.1094e-07
2.10727e-07
2.10552e-07
2.10414e-07
2.10314e-07
2.10248e-07
2.10216e-07
2.1804e-07
2.1779e-07
2.17441e-07
2.17015e-07
2.1653e-07
2.16001e-07
2.15443e-07
2.14869e-07
2.14289e-07
2.13712e-07
2.13147e-07
2.12599e-07
2.12074e-07
2.11577e-07
2.1111e-07
2.10676e-07
2.10277e-07
2.09916e-07
2.09592e-07
2.09307e-07
2.0906e-07
2.08851e-07
2.0868e-07
2.08545e-07
2.08446e-07
2.08382e-07
2.0835e-07
2.15921e-07
2.15676e-07
2.15334e-07
2.14917e-07
2.14441e-07
2.13924e-07
2.13377e-07
2.12815e-07
2.12247e-07
2.11682e-07
2.11129e-07
2.10593e-07
2.10079e-07
2.09591e-07
2.09134e-07
2.08709e-07
2.08319e-07
2.07965e-07
2.07648e-07
2.07368e-07
2.07126e-07
2.06921e-07
2.06754e-07
2.06622e-07
2.06525e-07
2.06462e-07
2.06431e-07
2.13755e-07
2.13515e-07
2.1318e-07
2.12771e-07
2.12305e-07
2.11797e-07
2.11262e-07
2.10711e-07
2.10155e-07
2.09602e-07
2.0906e-07
2.08535e-07
2.08031e-07
2.07554e-07
2.07106e-07
2.0669e-07
2.06307e-07
2.0596e-07
2.05649e-07
2.05375e-07
2.05138e-07
2.04938e-07
2.04773e-07
2.04644e-07
2.04549e-07
2.04487e-07
2.04457e-07
2.1154e-07
2.11304e-07
2.10976e-07
2.10575e-07
2.10118e-07
2.0962e-07
2.09096e-07
2.08556e-07
2.08011e-07
2.07469e-07
2.06938e-07
2.06423e-07
2.05929e-07
2.05461e-07
2.05022e-07
2.04613e-07
2.04238e-07
2.03898e-07
2.03593e-07
2.03325e-07
2.03092e-07
2.02895e-07
2.02734e-07
2.02607e-07
2.02514e-07
2.02453e-07
2.02423e-07
2.09271e-07
2.0904e-07
2.08717e-07
2.08323e-07
2.07875e-07
2.07387e-07
2.06872e-07
2.06343e-07
2.05808e-07
2.05277e-07
2.04755e-07
2.0425e-07
2.03765e-07
2.03305e-07
2.02874e-07
2.02473e-07
2.02105e-07
2.01771e-07
2.01471e-07
2.01207e-07
2.00979e-07
2.00786e-07
2.00627e-07
2.00503e-07
2.00411e-07
2.00351e-07
2.00322e-07
2.06939e-07
2.06712e-07
2.06395e-07
2.06008e-07
2.05567e-07
2.05088e-07
2.04582e-07
2.04062e-07
2.03537e-07
2.03014e-07
2.02501e-07
2.02004e-07
2.01528e-07
2.01075e-07
2.00651e-07
2.00257e-07
1.99894e-07
1.99565e-07
1.99271e-07
1.99011e-07
1.98786e-07
1.98596e-07
1.9844e-07
1.98318e-07
1.98228e-07
1.98169e-07
1.98141e-07
2.04532e-07
2.04308e-07
2.03996e-07
2.03615e-07
2.03181e-07
2.02709e-07
2.02212e-07
2.01699e-07
2.01182e-07
2.00666e-07
2.00161e-07
1.99671e-07
1.99201e-07
1.98755e-07
1.98336e-07
1.97947e-07
1.9759e-07
1.97266e-07
1.96975e-07
1.96719e-07
1.96497e-07
1.9631e-07
1.96156e-07
1.96035e-07
1.95946e-07
1.95889e-07
1.9586e-07
2.02032e-07
2.01811e-07
2.01503e-07
2.01127e-07
2.00699e-07
2.00233e-07
1.99741e-07
1.99234e-07
1.98722e-07
1.98212e-07
1.97712e-07
1.97227e-07
1.96762e-07
1.96321e-07
1.95907e-07
1.95522e-07
1.95169e-07
1.94848e-07
1.94561e-07
1.94308e-07
1.94088e-07
1.93903e-07
1.93751e-07
1.93631e-07
1.93543e-07
1.93486e-07
1.93458e-07
1.99418e-07
1.99199e-07
1.98894e-07
1.9852e-07
1.98095e-07
1.97632e-07
1.97144e-07
1.9664e-07
1.96132e-07
1.95626e-07
1.95129e-07
1.94647e-07
1.94185e-07
1.93747e-07
1.93336e-07
1.92954e-07
1.92603e-07
1.92284e-07
1.91999e-07
1.91748e-07
1.9153e-07
1.91346e-07
1.91195e-07
1.91076e-07
1.90989e-07
1.90932e-07
1.90905e-07
1.96658e-07
1.96439e-07
1.96134e-07
1.95762e-07
1.95338e-07
1.94875e-07
1.94388e-07
1.93885e-07
1.93377e-07
1.92872e-07
1.92376e-07
1.91895e-07
1.91434e-07
1.90997e-07
1.90587e-07
1.90206e-07
1.89856e-07
1.89538e-07
1.89253e-07
1.89003e-07
1.88786e-07
1.88602e-07
1.88452e-07
1.88333e-07
1.88246e-07
1.8819e-07
1.88162e-07
1.93712e-07
1.93492e-07
1.93186e-07
1.92812e-07
1.92386e-07
1.91922e-07
1.91432e-07
1.90928e-07
1.90418e-07
1.8991e-07
1.89413e-07
1.8893e-07
1.88467e-07
1.88029e-07
1.87617e-07
1.87234e-07
1.86883e-07
1.86565e-07
1.86279e-07
1.86028e-07
1.8581e-07
1.85626e-07
1.85476e-07
1.85357e-07
1.8527e-07
1.85213e-07
1.85186e-07
1.90533e-07
1.90311e-07
1.90002e-07
1.89624e-07
1.89193e-07
1.88724e-07
1.88229e-07
1.87719e-07
1.87203e-07
1.8669e-07
1.86187e-07
1.857e-07
1.85233e-07
1.84789e-07
1.84373e-07
1.83987e-07
1.83633e-07
1.83311e-07
1.83024e-07
1.8277e-07
1.8255e-07
1.82365e-07
1.82213e-07
1.82093e-07
1.82006e-07
1.81949e-07
1.81921e-07
1.87067e-07
1.86841e-07
1.86526e-07
1.8614e-07
1.85701e-07
1.85223e-07
1.84719e-07
1.842e-07
1.83675e-07
1.83153e-07
1.82641e-07
1.82144e-07
1.81669e-07
1.81218e-07
1.80795e-07
1.80402e-07
1.80042e-07
1.79715e-07
1.79422e-07
1.79165e-07
1.78942e-07
1.78753e-07
1.78599e-07
1.78478e-07
1.78389e-07
1.78331e-07
1.78303e-07
1.83248e-07
1.83015e-07
1.82691e-07
1.82296e-07
1.81845e-07
1.81354e-07
1.80836e-07
1.80302e-07
1.79763e-07
1.79227e-07
1.78702e-07
1.78192e-07
1.77705e-07
1.77242e-07
1.76808e-07
1.76406e-07
1.76036e-07
1.75702e-07
1.75402e-07
1.75138e-07
1.7491e-07
1.74717e-07
1.74559e-07
1.74436e-07
1.74345e-07
1.74285e-07
1.74256e-07
1.79e-07
1.78759e-07
1.78423e-07
1.78013e-07
1.77546e-07
1.77037e-07
1.765e-07
1.75948e-07
1.75389e-07
1.74834e-07
1.7429e-07
1.73763e-07
1.73258e-07
1.7278e-07
1.72331e-07
1.71915e-07
1.71534e-07
1.71188e-07
1.70878e-07
1.70606e-07
1.70371e-07
1.70172e-07
1.70009e-07
1.69881e-07
1.69788e-07
1.69727e-07
1.69697e-07
1.74238e-07
1.73986e-07
1.73635e-07
1.73206e-07
1.72717e-07
1.72185e-07
1.71624e-07
1.71047e-07
1.70463e-07
1.69884e-07
1.69315e-07
1.68765e-07
1.68238e-07
1.67739e-07
1.67271e-07
1.66838e-07
1.6644e-07
1.6608e-07
1.65758e-07
1.65474e-07
1.65229e-07
1.65023e-07
1.64853e-07
1.64721e-07
1.64623e-07
1.6456e-07
1.64529e-07
1.68868e-07
1.68602e-07
1.68232e-07
1.67779e-07
1.67264e-07
1.66703e-07
1.66111e-07
1.65502e-07
1.64888e-07
1.64277e-07
1.63679e-07
1.63099e-07
1.62545e-07
1.6202e-07
1.61528e-07
1.61073e-07
1.60655e-07
1.60277e-07
1.59939e-07
1.59641e-07
1.59385e-07
1.59168e-07
1.58991e-07
1.58852e-07
1.5875e-07
1.58684e-07
1.58652e-07
1.62788e-07
1.62506e-07
1.62112e-07
1.61631e-07
1.61083e-07
1.60487e-07
1.59858e-07
1.59212e-07
1.58559e-07
1.57911e-07
1.57277e-07
1.56663e-07
1.56075e-07
1.55519e-07
1.54999e-07
1.54517e-07
1.54075e-07
1.53675e-07
1.53318e-07
1.53004e-07
1.52733e-07
1.52505e-07
1.52318e-07
1.52172e-07
1.52065e-07
1.51995e-07
1.51961e-07
1.55897e-07
1.55594e-07
1.55173e-07
1.54658e-07
1.54072e-07
1.53435e-07
1.52764e-07
1.52073e-07
1.51377e-07
1.50685e-07
1.50008e-07
1.49354e-07
1.48728e-07
1.48136e-07
1.47582e-07
1.4707e-07
1.466e-07
1.46175e-07
1.45797e-07
1.45464e-07
1.45176e-07
1.44934e-07
1.44737e-07
1.44582e-07
1.44468e-07
1.44395e-07
1.44359e-07
1.48096e-07
1.47771e-07
1.47319e-07
1.46766e-07
1.46138e-07
1.45454e-07
1.44734e-07
1.43995e-07
1.43249e-07
1.42509e-07
1.41785e-07
1.41085e-07
1.40416e-07
1.39785e-07
1.39194e-07
1.38647e-07
1.38147e-07
1.37695e-07
1.37292e-07
1.36937e-07
1.36632e-07
1.36375e-07
1.36165e-07
1.36001e-07
1.35881e-07
1.35803e-07
1.35765e-07
1.39309e-07
1.3896e-07
1.38474e-07
1.3788e-07
1.37205e-07
1.36472e-07
1.357e-07
1.34907e-07
1.34108e-07
1.33316e-07
1.32542e-07
1.31795e-07
1.31081e-07
1.30407e-07
1.29777e-07
1.29194e-07
1.28662e-07
1.28181e-07
1.27753e-07
1.27377e-07
1.27053e-07
1.2678e-07
1.26558e-07
1.26384e-07
1.26257e-07
1.26174e-07
1.26134e-07
1.29492e-07
1.29118e-07
1.28597e-07
1.27962e-07
1.2724e-07
1.26456e-07
1.25631e-07
1.24784e-07
1.23932e-07
1.23088e-07
1.22264e-07
1.21469e-07
1.2071e-07
1.19994e-07
1.19326e-07
1.18709e-07
1.18145e-07
1.17637e-07
1.17184e-07
1.16787e-07
1.16445e-07
1.16157e-07
1.15923e-07
1.1574e-07
1.15606e-07
1.15519e-07
1.15477e-07
1.18659e-07
1.18261e-07
1.17707e-07
1.17032e-07
1.16266e-07
1.15434e-07
1.1456e-07
1.13664e-07
1.12763e-07
1.11872e-07
1.11002e-07
1.10164e-07
1.09365e-07
1.08613e-07
1.07911e-07
1.07264e-07
1.06673e-07
1.0614e-07
1.05666e-07
1.05251e-07
1.04895e-07
1.04595e-07
1.0435e-07
1.04159e-07
1.0402e-07
1.0393e-07
1.03886e-07
1.06902e-07
1.06484e-07
1.05903e-07
1.05195e-07
1.04392e-07
1.03522e-07
1.02609e-07
1.01674e-07
1.00735e-07
9.98069e-08
9.89029e-08
9.80329e-08
9.72051e-08
9.64261e-08
9.57005e-08
9.50319e-08
9.44226e-08
9.3874e-08
9.33865e-08
9.296e-08
9.25936e-08
9.22861e-08
9.20356e-08
9.18402e-08
9.16976e-08
9.16052e-08
9.15604e-08
9.44181e-08
9.39874e-08
9.33892e-08
9.26613e-08
9.18365e-08
9.09437e-08
9.00083e-08
8.90519e-08
8.80931e-08
8.71473e-08
8.62274e-08
8.53435e-08
8.4504e-08
8.37151e-08
8.29815e-08
8.23066e-08
8.16925e-08
8.11403e-08
8.06504e-08
8.02222e-08
7.98548e-08
7.95468e-08
7.92963e-08
7.9101e-08
7.89586e-08
7.88664e-08
7.88218e-08
8.15219e-08
8.10892e-08
8.04889e-08
7.97594e-08
7.89339e-08
7.80419e-08
7.7109e-08
7.61571e-08
7.52047e-08
7.42672e-08
7.33571e-08
7.24846e-08
7.16574e-08
7.08817e-08
7.01618e-08
6.95007e-08
6.89003e-08
6.83613e-08
6.78838e-08
6.74673e-08
6.71104e-08
6.68115e-08
6.65687e-08
6.63798e-08
6.62421e-08
6.61531e-08
6.61101e-08
6.86398e-08
6.82191e-08
6.76361e-08
6.69286e-08
6.61295e-08
6.52679e-08
6.43687e-08
6.34534e-08
6.25398e-08
6.16427e-08
6.07741e-08
5.99434e-08
5.91579e-08
5.8423e-08
5.77425e-08
5.71191e-08
5.65541e-08
5.60481e-08
5.56007e-08
5.52111e-08
5.48779e-08
5.45994e-08
5.43735e-08
5.41979e-08
5.40702e-08
5.39878e-08
5.39479e-08
5.62759e-08
5.58827e-08
5.53386e-08
5.46795e-08
5.39367e-08
5.31378e-08
5.23063e-08
5.14622e-08
5.06223e-08
4.97999e-08
4.90061e-08
4.82492e-08
4.75356e-08
4.687e-08
4.62555e-08
4.56941e-08
4.51867e-08
4.47334e-08
4.43337e-08
4.39864e-08
4.36901e-08
4.3443e-08
4.3243e-08
4.30878e-08
4.29752e-08
4.29025e-08
4.28675e-08
4.49425e-08
4.45916e-08
4.4107e-08
4.35211e-08
4.28626e-08
4.21563e-08
4.14235e-08
4.06822e-08
3.9947e-08
3.92298e-08
3.854e-08
3.78847e-08
3.72691e-08
3.6697e-08
3.61707e-08
3.56916e-08
3.526e-08
3.48757e-08
3.45379e-08
3.42453e-08
3.39964e-08
3.37895e-08
3.36224e-08
3.34931e-08
3.33995e-08
3.33393e-08
3.33103e-08
3.50693e-08
3.47719e-08
3.4362e-08
3.38677e-08
3.33137e-08
3.27215e-08
3.21093e-08
3.14923e-08
3.08829e-08
3.02909e-08
2.97239e-08
2.91877e-08
2.86861e-08
2.82221e-08
2.7797e-08
2.74117e-08
2.70662e-08
2.67598e-08