/*--------------------------------*- C++ -*----------------------------------*\
| =========                 |                                                 |
| \\      /  F ield         | OpenFOAM: The Open Source CFD Toolbox           |
|  \\    /   O peration     | Version:  2106                                  |
|   \\  /    A nd           | Website:  www.openfoam.com                      |
|    \\/     M anipulation  |                                                 |
\*---------------------------------------------------------------------------*/
FoamFile
{
    version     2.0;
    format      ascii;
    arch        "LSB;label=32;scalar=64";
    class       volScalarField;
    location    "79.99952";
    object      CH3COCH3_0;
}
// * * * * * * * * * * * * * * * * * * * * * * * * * * * * * * * * * * * * * //

dimensions      [0 0 0 0 0 0 0];

internalField   nonuniform List<scalar> 
3360
(
0.0136842
0.0136842
0.0136842
0.0136842
0.0136842
0.0136842
0.0136842
0.0136842
0.0136842
0.0136842
0.0136842
0.0136842
0.0136842
0.0136842
0.0136842
0.0136842
0.0136842
0.0136842
0.0136842
0.0136842
0.0136842
0.0136842
0.0136842
0.0136842
0.0136842
0.0136842
0.0136842
0.0136842
0.0136842
0.0136842
0.0136842
0.0136842
0.0136842
0.0136842
0.0136842
0.0136842
0.0136842
0.0136842
0.0136842
0.0136842
0.0136842
0.0136842
0.0136842
0.0136842
0.0136842
0.0136842
0.0136842
0.0136842
0.0136842
0.0136842
0.0136842
0.0136842
0.0136842
0.0136842
0.0136842
0.0136842
0.0136842
0.0136842
0.0136842
0.0136842
0.0136842
0.0136842
0.0136842
0.0136842
0.0136842
0.0136842
0.0136842
0.0136842
0.0136842
0.0136842
0.0136842
0.0136842
0.0136842
0.0136842
0.0136842
0.0136842
0.0136842
0.0136842
0.0136842
0.0136842
0.0136842
0.0136842
0.0136842
0.0136842
0.0136842
0.0136842
0.0136842
0.0136842
0.0136842
0.0136842
0.0136842
0.0136842
0.0136842
0.0136842
0.0136842
0.0136842
0.0136842
0.0136842
0.0136842
0.0136842
0.0136842
0.0136842
0.0136842
0.0136842
0.0136842
0.0136842
0.0136842
0.0136842
0.0136842
0.0136842
0.0136842
0.0136842
0.0136842
0.0136842
0.0136842
0.0136842
0.0136842
0.0136842
0.0136842
0.0136842
0.0136842
0.0136842
0.0136842
0.0136842
0.0136842
0.0136842
0.0136842
0.0136842
0.0136842
0.0136842
0.0136842
0.0136842
0.0136842
0.0136842
0.0136842
0.0136842
0.0136842
0.0136842
0.0136842
0.0136842
0.0136842
0.0136842
0.0136842
0.0136842
0.0136842
0.0136842
0.0136842
0.0136842
0.0136842
0.0136842
0.0136842
0.0136842
0.0136842
0.0136842
0.0136842
0.0136842
0.0136842
0.0136842
0.0136842
0.0136842
0.0136842
0.0136842
0.0136842
0.0136842
0.0136842
0.0136842
0.0136842
0.0136842
0.0136842
0.0136842
0.0136842
0.0136842
0.0136842
0.0136842
0.0136842
0.0136842
0.0136842
0.0136842
0.0136842
0.0136842
0.0136842
0.0136842
0.0136842
0.0136842
0.0136842
0.0136842
0.0136842
0.0136842
0.0136842
0.0136842
0.0136842
0.0136842
0.0136842
0.0136842
0.0136842
0.0136842
0.0136842
0.0136842
0.0136842
0.0136842
0.0136842
0.0136842
0.0136842
0.0136842
0.0136842
0.0136842
0.0136842
0.0136842
0.0136842
0.0136842
0.0136842
0.0136842
0.0136842
0.0136842
0.0136842
0.0136842
0.0136842
0.0136842
0.0136842
0.0136842
0.0136842
0.0136842
0.0136842
0.0136842
0.0136842
0.0136842
0.0136842
0.0136842
0.0136842
0.0136842
0.0136842
0.0136842
0.0136842
0.0136842
0.0136842
0.0136842
0.0136842
0.0136842
0.0136842
0.0136842
0.0136842
0.0136842
0.0136842
0.0136842
0.0136842
0.0136842
0.0136842
0.0136842
0.0136842
0.0136842
0.0136842
0.0136842
0.0136842
0.0136842
0.0136842
0.0136842
0.0136842
0.0136842
0.0136842
0.0136842
0.0136842
0.0136842
0.0136842
0.0136842
0.0136842
0.0136842
0.0136842
0.0136842
0.0136842
0.0136842
0.0136842
0.0136842
0.0136842
0.0136842
0.0136842
0.0136842
0.0136842
0.0136842
0.0136842
0.0136842
0.0136842
0.0136842
0.0136842
0.0136842
0.0136842
0.0136842
0.0136842
0.0136842
0.0136842
0.0136842
0.0136842
0.0136842
0.0136842
0.0136842
0.0136842
0.0136842
0.0136842
0.0136842
0.0136842
0.0136842
0.0136842
0.0136842
0.0136842
0.0136842
0.0136842
0.0136842
0.0136842
0.0136842
0.0136842
0.0136842
0.0136842
0.0136842
0.0136842
0.0136842
0.0136842
0.0136842
0.0136842
0.0136842
0.0136842
0.0136842
0.0136842
0.0136842
0.0136842
0.0136842
0.0136842
0.0136842
0.0136842
0.0136842
0.0136842
0.0136842
0.0136842
0.0136842
0.0136842
0.0136842
0.0136842
0.0136842
0.0136842
0.0136842
0.0136842
0.0136842
0.0136842
0.0136842
0.0136842
0.0136842
0.0136842
0.0136842
0.0136842
0.0136842
0.0136842
0.0136842
0.0136842
0.0136842
0.0136842
0.0136842
0.0136842
0.0136842
0.0136842
0.0136842
0.0136842
0.0136842
0.0136842
0.0136842
0.0136842
0.0136842
0.0136842
0.0136842
0.0136842
0.0136842
0.0136842
0.0136842
0.0136842
0.0136842
0.0136842
0.0136842
0.0136842
0.0136842
0.0136842
0.0136842
0.0136842
0.0136842
0.0136842
0.0136842
0.0136842
0.0136842
0.0136842
0.0136842
0.0136842
0.0136842
0.0136842
0.0136842
0.0136842
0.0136842
0.0136842
0.0136842
0.0136842
0.0136842
0.0136842
0.0136842
0.0136842
0.0136842
0.0136842
0.0136842
0.0136842
0.0136842
0.0136842
0.0136842
0.0136842
0.0136842
0.0136842
0.0136842
0.0136842
0.0136842
0.0136842
0.0136842
0.0136842
0.0136842
0.0136842
0.0136842
0.0136842
0.0136842
0.0136842
0.0136842
0.0136842
0.0136842
0.0136842
0.0136842
0.0136842
0.0136842
0.0136842
0.0136842
0.0136842
0.0136842
0.0136842
0.0136842
0.0136842
0.0136842
0.0136842
0.0136842
0.0136842
0.0136842
0.0136842
0.0136842
0.0136842
0.0136842
0.0136842
0.0136842
0.0136842
0.0136842
0.0136842
0.0136842
0.0136842
0.0136842
0.0136842
0.0136842
0.0136842
0.0136842
0.0136842
0.0136842
0.0136842
0.0136842
0.0136842
0.0136842
0.0136842
0.0136842
0.0136842
0.0136842
0.0136842
0.0136842
0.0136842
0.0136842
0.0136842
0.0136842
0.0136842
0.0136842
0.0136842
0.0136842
0.0136842
0.0136842
0.0136842
0.0136842
0.0136842
0.0136842
0.0136842
0.0136842
0.0136842
0.0136842
0.0136842
0.0136842
0.0136842
0.0136842
0.0136842
0.0136842
0.0136842
0.0136842
0.0136842
0.0136842
0.0136841
0.0136841
0.0136841
0.0136841
0.0136841
0.0136841
0.0136841
0.0136841
0.0136841
0.0136841
0.0136841
0.0136841
0.0136841
0.0136841
0.0136841
0.0136841
0.0136841
0.0136841
0.0136841
0.0136841
0.0136841
0.0136841
0.0136841
0.0136841
0.0136841
0.0136841
0.0136841
0.0136841
0.0136841
0.013684
0.013684
0.013684
0.013684
0.013684
0.013684
0.013684
0.013684
0.013684
0.013684
0.013684
0.013684
0.013684
0.013684
0.013684
0.013684
0.013684
0.013684
0.013684
0.013684
0.0136839
0.0136839
0.0136839
0.0136839
0.0136839
0.0136838
0.0136838
0.0136838
0.0136838
0.0136837
0.0136837
0.0136837
0.0136837
0.0136837
0.0136837
0.0136837
0.0136837
0.0136836
0.0136836
0.0136836
0.0136836
0.0136836
0.0136837
0.0136837
0.0136837
0.0136836
0.0136836
0.0136835
0.0136835
0.0136834
0.0136834
0.0136833
0.0136833
0.0136832
0.0136832
0.0136831
0.0136831
0.013683
0.013683
0.013683
0.0136829
0.0136829
0.0136829
0.0136829
0.0136829
0.0136828
0.0136828
0.0136828
0.0136828
0.013683
0.0136829
0.0136829
0.0136828
0.0136827
0.0136826
0.0136824
0.0136823
0.0136822
0.0136821
0.0136819
0.0136818
0.0136817
0.0136816
0.0136815
0.0136814
0.0136813
0.0136813
0.0136812
0.0136811
0.0136811
0.0136811
0.013681
0.013681
0.013681
0.013681
0.013681
0.0136812
0.0136811
0.0136809
0.0136807
0.0136805
0.0136803
0.01368
0.0136797
0.0136795
0.0136792
0.0136789
0.0136787
0.0136785
0.0136782
0.013678
0.0136778
0.0136777
0.0136775
0.0136774
0.0136773
0.0136772
0.0136771
0.013677
0.013677
0.0136769
0.0136769
0.0136769
0.013677
0.0136768
0.0136765
0.0136761
0.0136756
0.0136751
0.0136746
0.013674
0.0136735
0.0136729
0.0136724
0.0136719
0.0136714
0.0136709
0.0136705
0.0136701
0.0136698
0.0136695
0.0136692
0.013669
0.0136688
0.0136686
0.0136685
0.0136684
0.0136683
0.0136683
0.0136682
0.013668
0.0136675
0.0136668
0.013666
0.0136651
0.0136641
0.013663
0.013662
0.0136609
0.0136598
0.0136587
0.0136577
0.0136567
0.0136558
0.013655
0.0136543
0.0136536
0.013653
0.0136524
0.013652
0.0136516
0.0136513
0.013651
0.0136508
0.0136507
0.0136506
0.0136506
0.013649
0.0136481
0.0136468
0.0136453
0.0136435
0.0136416
0.0136395
0.0136374
0.0136353
0.0136333
0.0136313
0.0136293
0.0136275
0.0136258
0.0136242
0.0136228
0.0136215
0.0136204
0.0136194
0.0136185
0.0136178
0.0136172
0.0136167
0.0136163
0.0136161
0.0136159
0.0136158
0.0136114
0.0136097
0.0136074
0.0136044
0.0136011
0.0135975
0.0135937
0.0135899
0.0135859
0.0135821
0.0135784
0.0135748
0.0135714
0.0135683
0.0135654
0.0135627
0.0135603
0.0135582
0.0135564
0.0135548
0.0135535
0.0135523
0.0135515
0.0135508
0.0135503
0.01355
0.0135499
0.0135408
0.0135377
0.0135334
0.0135281
0.0135221
0.0135156
0.0135088
0.0135017
0.0134947
0.0134877
0.0134809
0.0134745
0.0134683
0.0134626
0.0134573
0.0134525
0.0134482
0.0134443
0.013441
0.0134381
0.0134356
0.0134336
0.013432
0.0134308
0.0134299
0.0134293
0.013429
0.0134159
0.0134105
0.013403
0.0133939
0.0133834
0.013372
0.01336
0.0133477
0.0133353
0.013323
0.0133111
0.0132996
0.0132887
0.0132785
0.0132691
0.0132604
0.0132526
0.0132457
0.0132396
0.0132343
0.0132299
0.0132262
0.0132233
0.013221
0.0132194
0.0132183
0.0132178
0.0132107
0.0132018
0.0131895
0.0131744
0.0131571
0.0131383
0.0131184
0.0130979
0.0130772
0.0130567
0.0130367
0.0130174
0.0129991
0.0129818
0.0129658
0.012951
0.0129377
0.0129258
0.0129153
0.0129062
0.0128984
0.012892
0.0128869
0.0128829
0.01288
0.0128782
0.0128774
0.0129001
0.0128867
0.012868
0.0128451
0.0128189
0.0127903
0.0127602
0.0127291
0.0126978
0.0126667
0.0126363
0.012607
0.0125792
0.0125529
0.0125286
0.0125062
0.012486
0.0124678
0.0124518
0.012438
0.0124262
0.0124164
0.0124085
0.0124025
0.0123981
0.0123953
0.012394
0.0124701
0.0124518
0.0124262
0.012395
0.0123595
0.0123208
0.0122801
0.0122384
0.0121964
0.0121548
0.0121144
0.0120756
0.0120388
0.0120043
0.0119723
0.0119431
0.0119167
0.0118932
0.0118725
0.0118546
0.0118395
0.0118269
0.0118168
0.0118091
0.0118035
0.0118
0.0117983
0.0119262
0.0119039
0.0118728
0.011835
0.0117921
0.0117457
0.0116971
0.0116474
0.0115978
0.0115491
0.0115019
0.0114569
0.0114144
0.0113748
0.0113384
0.0113052
0.0112755
0.011249
0.0112259
0.011206
0.0111892
0.0111753
0.0111643
0.0111558
0.0111497
0.0111458
0.011144
0.0112958
0.0112713
0.0112374
0.0111962
0.0111497
0.0110996
0.0110475
0.0109946
0.010942
0.0108906
0.0108412
0.0107943
0.0107504
0.0107097
0.0106724
0.0106387
0.0106085
0.0105819
0.0105587
0.0105388
0.010522
0.0105083
0.0104973
0.010489
0.010483
0.0104792
0.0104774
0.0106191
0.0105944
0.0105604
0.0105192
0.0104729
0.0104233
0.0103718
0.0103199
0.0102685
0.0102186
0.0101708
0.0101256
0.0100835
0.0100446
0.0100092
0.00997721
0.00994873
0.00992366
0.00990189
0.00988329
0.00986768
0.00985488
0.0098447
0.00983695
0.00983142
0.00982792
0.00982627
0.00993515
0.00991188
0.00987979
0.00984107
0.00979767
0.00975128
0.00970335
0.0096551
0.00960752
0.00956143
0.00951743
0.00947598
0.00943741
0.00940192
0.00936964
0.00934059
0.00931476
0.00929205
0.00927237
0.00925557
0.00924149
0.00922996
0.0092208
0.00921383
0.00920886
0.00920572
0.00920423
0.00927315
0.00925204
0.00922296
0.00918792
0.00914871
0.00910685
0.00906367
0.00902027
0.00897755
0.00893622
0.00889681
0.00885974
0.00882528
0.00879361
0.00876482
0.00873893
0.00871592
0.00869571
0.00867819
0.00866324
0.00865072
0.00864046
0.00863232
0.00862611
0.00862169
0.0086189
0.00861757
0.00865
0.00863126
0.00860544
0.00857434
0.00853955
0.00850244
0.00846417
0.00842572
0.00838788
0.00835127
0.00831638
0.00828356
0.00825305
0.008225
0.0081995
0.00817657
0.00815618
0.00813826
0.00812273
0.00810947
0.00809835
0.00808924
0.00808201
0.00807649
0.00807256
0.00807007
0.00806889
0.00807295
0.00805643
0.00803366
0.00800624
0.00797555
0.00794281
0.00790903
0.00787508
0.00784165
0.0078093
0.00777844
0.00774939
0.00772237
0.00769752
0.00767491
0.00765456
0.00763645
0.00762053
0.00760672
0.00759492
0.00758502
0.0075769
0.00757045
0.00756553
0.00756202
0.0075598
0.00755874
0.00754306
0.00752847
0.00750837
0.00748415
0.00745702
0.00742805
0.00739815
0.00736808
0.00733844
0.00730973
0.00728232
0.0072565
0.00723246
0.00721033
0.00719017
0.00717202
0.00715585
0.00714163
0.00712927
0.00711871
0.00710985
0.00710257
0.00709679
0.00709237
0.00708922
0.00708722
0.00708628
0.0070581
0.00704515
0.00702729
0.00700576
0.00698163
0.00695585
0.00692921
0.00690239
0.00687594
0.00685029
0.00682579
0.00680268
0.00678115
0.0067613
0.00674322
0.00672692
0.00671238
0.00669959
0.00668847
0.00667896
0.00667097
0.00666441
0.00665918
0.0066552
0.00665235
0.00665055
0.00664969
0.00661443
0.00660284
0.00658685
0.00656757
0.00654594
0.00652281
0.0064989
0.0064748
0.00645102
0.00642794
0.00640587
0.00638504
0.00636561
0.0063477
0.00633136
0.00631662
0.00630347
0.00629189
0.00628181
0.00627319
0.00626595
0.00626
0.00625526
0.00625164
0.00624905
0.00624741
0.00624663
0.006208
0.00619754
0.00618312
0.00616571
0.00614617
0.00612527
0.00610364
0.00608183
0.00606029
0.00603937
0.00601936
0.00600045
0.00598281
0.00596653
0.00595167
0.00593826
0.0059263
0.00591575
0.00590657
0.00589871
0.00589211
0.00588668
0.00588235
0.00587905
0.00587669
0.00587519
0.00587448
0.00583489
0.00582539
0.00581228
0.00579645
0.00577868
0.00575965
0.00573996
0.00572009
0.00570045
0.00568138
0.00566311
0.00564585
0.00562973
0.00561485
0.00560127
0.005589
0.00557805
0.0055684
0.00555999
0.00555279
0.00554674
0.00554176
0.0055378
0.00553477
0.0055326
0.00553123
0.00553057
0.00549151
0.00548282
0.00547083
0.00545635
0.00544009
0.00542267
0.00540464
0.00538643
0.00536843
0.00535094
0.00533418
0.00531834
0.00530354
0.00528987
0.00527739
0.00526612
0.00525605
0.00524717
0.00523944
0.00523282
0.00522724
0.00522267
0.00521901
0.00521622
0.00521423
0.00521296
0.00521236
0.00517468
0.0051667
0.00515567
0.00514236
0.0051274
0.00511137
0.00509477
0.00507801
0.00506144
0.00504532
0.00502987
0.00501527
0.00500163
0.00498902
0.00497751
0.0049671
0.00495781
0.00494961
0.00494247
0.00493636
0.00493121
0.00492698
0.00492361
0.00492103
0.00491918
0.00491802
0.00491746
0.00488162
0.00487425
0.00486407
0.00485177
0.00483795
0.00482315
0.0048078
0.00479231
0.00477698
0.00476207
0.00474779
0.00473428
0.00472165
0.00470998
0.00469932
0.00468969
0.00468108
0.00467349
0.00466687
0.00466121
0.00465644
0.00465252
0.00464939
0.004647
0.00464529
0.00464421
0.00464369
0.0046099
0.00460307
0.00459363
0.00458223
0.00456942
0.00455569
0.00454146
0.00452709
0.00451287
0.00449904
0.00448578
0.00447324
0.00446151
0.00445068
0.00444078
0.00443184
0.00442384
0.00441679
0.00441064
0.00440538
0.00440095
0.0043973
0.0043944
0.00439218
0.00439059
0.00438958
0.0043891
0.0043574
0.00435105
0.00434228
0.00433168
0.00431977
0.004307
0.00429377
0.0042804
0.00426717
0.0042543
0.00424196
0.00423028
0.00421937
0.00420929
0.00420007
0.00419174
0.0041843
0.00417773
0.004172
0.0041671
0.00416297
0.00415958
0.00415687
0.0041548
0.00415332
0.00415238
0.00415194
0.00412229
0.00411637
0.0041082
0.00409832
0.00408721
0.00407531
0.00406297
0.0040505
0.00403816
0.00402616
0.00401465
0.00400375
0.00399357
0.00398417
0.00397556
0.00396779
0.00396084
0.00395471
0.00394937
0.00394479
0.00394094
0.00393777
0.00393525
0.00393331
0.00393193
0.00393106
0.00393064
0.00390296
0.00389743
0.0038898
0.00388056
0.00387019
0.00385906
0.00384753
0.00383588
0.00382435
0.00381313
0.00380237
0.00379219
0.00378267
0.00377387
0.00376583
0.00375856
0.00375207
0.00374633
0.00374134
0.00373706
0.00373346
0.00373049
0.00372813
0.00372632
0.00372503
0.00372421
0.00372382
0.003698
0.00369282
0.00368568
0.00367703
0.00366732
0.00365691
0.00364611
0.0036352
0.00362441
0.0036139
0.00360382
0.00359429
0.00358538
0.00357714
0.00356961
0.0035628
0.00355671
0.00355134
0.00354666
0.00354265
0.00353928
0.0035365
0.00353429
0.0035326
0.00353139
0.00353062
0.00353025
0.00350616
0.00350131
0.00349461
0.0034865
0.0034774
0.00346763
0.00345751
0.00344728
0.00343715
0.0034273
0.00341785
0.00340891
0.00340055
0.00339282
0.00338575
0.00337937
0.00337366
0.00336862
0.00336423
0.00336047
0.0033573
0.0033547
0.00335262
0.00335103
0.0033499
0.00334918
0.00334884
0.00332635
0.0033218
0.0033155
0.00330789
0.00329934
0.00329017
0.00328066
0.00327106
0.00326155
0.00325229
0.00324342
0.00323502
0.00322716
0.0032199
0.00321327
0.00320727
0.00320191
0.00319717
0.00319305
0.00318952
0.00318654
0.00318409
0.00318214
0.00318065
0.00317959
0.00317891
0.00317859
0.00315759
0.00315331
0.00314739
0.00314024
0.0031322
0.00312358
0.00311464
0.0031056
0.00309666
0.00308796
0.00307961
0.00307171
0.00306432
0.0030575
0.00305126
0.00304561
0.00304057
0.00303612
0.00303224
0.00302892
0.00302612
0.00302382
0.00302198
0.00302058
0.00301958
0.00301894
0.00301864
0.00299902
0.00299499
0.00298942
0.00298269
0.00297512
0.002967
0.00295859
0.00295008
0.00294166
0.00293347
0.00292561
0.00291817
0.00291122
0.00290479
0.00289891
0.0028936
0.00288885
0.00288466
0.00288101
0.00287788
0.00287524
0.00287308
0.00287135
0.00287003
0.00286908
0.00286848
0.0028682
0.00284986
0.00284606
0.00284081
0.00283447
0.00282734
0.00281969
0.00281176
0.00280374
0.00279581
0.00278808
0.00278068
0.00277367
0.00276712
0.00276106
0.00275552
0.00275051
0.00274603
0.00274208
0.00273864
0.00273569
0.00273321
0.00273117
0.00272954
0.00272829
0.0027274
0.00272684
0.00272657
0.00270941
0.00270583
0.00270088
0.0026949
0.00268817
0.00268095
0.00267347
0.00266591
0.00265843
0.00265115
0.00264416
0.00263755
0.00263137
0.00262565
0.00262043
0.0026157
0.00261148
0.00260775
0.00260451
0.00260172
0.00259938
0.00259746
0.00259592
0.00259474
0.0025939
0.00259337
0.00259312
0.00257706
0.00257368
0.002569
0.00256335
0.002557
0.00255019
0.00254313
0.002536
0.00252893
0.00252206
0.00251546
0.00250922
0.00250338
0.00249799
0.00249305
0.00248859
0.00248461
0.00248109
0.00247803
0.0024754
0.00247319
0.00247137
0.00246992
0.00246881
0.00246802
0.00246751
0.00246727
0.00245223
0.00244904
0.00244462
0.00243929
0.00243329
0.00242685
0.00242018
0.00241344
0.00240677
0.00240027
0.00239404
0.00238815
0.00238263
0.00237754
0.00237288
0.00236866
0.0023649
0.00236157
0.00235868
0.0023562
0.00235411
0.00235239
0.00235102
0.00234997
0.00234922
0.00234875
0.00234852
0.00233443
0.00233141
0.00232723
0.00232219
0.00231652
0.00231044
0.00230414
0.00229776
0.00229146
0.00228532
0.00227943
0.00227385
0.00226864
0.00226382
0.00225942
0.00225544
0.00225188
0.00224874
0.002246
0.00224365
0.00224168
0.00224005
0.00223876
0.00223777
0.00223706
0.00223661
0.0022364
0.00222318
0.00222033
0.00221638
0.00221161
0.00220625
0.0022005
0.00219454
0.00218851
0.00218255
0.00217674
0.00217117
0.0021659
0.00216098
0.00215642
0.00215225
0.00214849
0.00214512
0.00214215
0.00213956
0.00213735
0.00213548
0.00213394
0.00213272
0.00213178
0.00213111
0.00213069
0.00213049
0.00211809
0.00211539
0.00211166
0.00210715
0.00210208
0.00209664
0.002091
0.0020853
0.00207965
0.00207416
0.00206889
0.00206391
0.00205925
0.00205494
0.002051
0.00204743
0.00204425
0.00204144
0.00203899
0.00203689
0.00203513
0.00203367
0.00203251
0.00203163
0.002031
0.00203059
0.0020304
0.00201878
0.00201623
0.0020127
0.00200843
0.00200363
0.00199848
0.00199314
0.00198775
0.00198241
0.00197721
0.00197223
0.00196751
0.0019631
0.00195902
0.00195529
0.00195192
0.00194891
0.00194625
0.00194394
0.00194195
0.00194028
0.00193891
0.00193781
0.00193697
0.00193637
0.00193599
0.00193581
0.00192492
0.0019225
0.00191916
0.00191512
0.00191058
0.00190571
0.00190066
0.00189555
0.0018905
0.00188558
0.00188086
0.0018764
0.00187223
0.00186837
0.00186484
0.00186165
0.0018588
0.00185629
0.00185409
0.00185222
0.00185063
0.00184933
0.0018483
0.0018475
0.00184694
0.00184658
0.00184641
0.0018362
0.00183391
0.00183075
0.00182692
0.00182263
0.00181802
0.00181324
0.00180841
0.00180363
0.00179898
0.00179452
0.00179029
0.00178634
0.00178269
0.00177936
0.00177634
0.00177364
0.00177126
0.00176919
0.00176741
0.00176592
0.00176469
0.00176371
0.00176296
0.00176242
0.00176208
0.00176192
0.00175236
0.00175019
0.0017472
0.00174359
0.00173952
0.00173516
0.00173064
0.00172607
0.00172155
0.00171715
0.00171293
0.00170894
0.0017052
0.00170175
0.00169859
0.00169574
0.00169319
0.00169094
0.00168898
0.0016873
0.00168588
0.00168472
0.00168379
0.00168308
0.00168258
0.00168226
0.0016821
0.00167316
0.00167111
0.00166829
0.00166487
0.00166102
0.0016569
0.00165263
0.00164831
0.00164404
0.00163988
0.00163589
0.00163211
0.00162858
0.00162532
0.00162234
0.00161964
0.00161723
0.0016151
0.00161325
0.00161166
0.00161032
0.00160923
0.00160835
0.00160768
0.0016072
0.0016069
0.00160675
0.0015984
0.00159647
0.0015938
0.00159057
0.00158694
0.00158304
0.00157901
0.00157493
0.00157089
0.00156696
0.00156319
0.00155963
0.00155629
0.00155321
0.0015504
0.00154785
0.00154557
0.00154357
0.00154182
0.00154032
0.00153906
0.00153802
0.00153719
0.00153656
0.00153611
0.00153582
0.00153568
0.0015279
0.00152608
0.00152356
0.00152051
0.00151708
0.00151341
0.0015096
0.00150576
0.00150195
0.00149824
0.00149469
0.00149132
0.00148818
0.00148527
0.00148262
0.00148022
0.00147807
0.00147618
0.00147453
0.00147311
0.00147192
0.00147095
0.00147017
0.00146957
0.00146914
0.00146887
0.00146874
0.00146152
0.0014598
0.00145742
0.00145455
0.00145132
0.00144786
0.00144428
0.00144065
0.00143707
0.00143358
0.00143023
0.00142706
0.0014241
0.00142137
0.00141887
0.00141661
0.00141459
0.0014128
0.00141125
0.00140992
0.0014088
0.00140788
0.00140715
0.00140659
0.00140619
0.00140593
0.00140581
0.00139912
0.00139751
0.00139527
0.00139257
0.00138954
0.00138629
0.00138292
0.00137951
0.00137614
0.00137286
0.00136972
0.00136674
0.00136396
0.00136139
0.00135904
0.00135692
0.00135503
0.00135335
0.00135189
0.00135064
0.00134959
0.00134873
0.00134804
0.00134751
0.00134714
0.0013469
0.00134679
0.00134063
0.00133911
0.00133702
0.00133449
0.00133164
0.0013286
0.00132544
0.00132224
0.00131909
0.00131601
0.00131307
0.00131028
0.00130768
0.00130527
0.00130307
0.00130109
0.00129931
0.00129774
0.00129638
0.00129521
0.00129423
0.00129342
0.00129277
0.00129228
0.00129193
0.0012917
0.0012916
0.00128596
0.00128455
0.00128259
0.00128023
0.00127757
0.00127472
0.00127177
0.00126879
0.00126584
0.00126298
0.00126023
0.00125763
0.0012552
0.00125295
0.0012509
0.00124905
0.00124739
0.00124593
0.00124466
0.00124357
0.00124265
0.0012419
0.0012413
0.00124084
0.00124051
0.0012403
0.0012402
0.00123509
0.00123377
0.00123195
0.00122975
0.00122728
0.00122464
0.00122189
0.00121913
0.00121639
0.00121372
0.00121117
0.00120875
0.0012065
0.00120441
0.00120251
0.00120079
0.00119925
0.0011979
0.00119672
0.00119571
0.00119486
0.00119416
0.0011936
0.00119317
0.00119287
0.00119268
0.00119258
0.00118799
0.00118677
0.00118509
0.00118306
0.00118077
0.00117832
0.00117579
0.00117323
0.0011707
0.00116824
0.00116588
0.00116365
0.00116157
0.00115965
0.00115789
0.0011563
0.00115489
0.00115364
0.00115255
0.00115162
0.00115083
0.00115019
0.00114968
0.00114928
0.001149
0.00114883
0.00114874
0.00114467
0.00114355
0.001142
0.00114013
0.00113804
0.00113579
0.00113347
0.00113112
0.0011288
0.00112654
0.00112438
0.00112234
0.00112043
0.00111867
0.00111706
0.00111561
0.00111432
0.00111317
0.00111218
0.00111132
0.00111061
0.00111002
0.00110955
0.00110919
0.00110894
0.00110877
0.0011087
0.00110514
0.00110412
0.00110271
0.00110101
0.0010991
0.00109706
0.00109495
0.00109281
0.0010907
0.00108866
0.00108669
0.00108484
0.00108311
0.00108151
0.00108006
0.00107874
0.00107756
0.00107653
0.00107563
0.00107486
0.00107421
0.00107367
0.00107325
0.00107293
0.00107269
0.00107255
0.00107248
0.00106943
0.00106852
0.00106725
0.00106572
0.001064
0.00106217
0.00106026
0.00105835
0.00105645
0.00105461
0.00105285
0.00105119
0.00104964
0.00104821
0.0010469
0.00104572
0.00104467
0.00104374
0.00104294
0.00104225
0.00104166
0.00104119
0.00104081
0.00104052
0.00104031
0.00104018
0.00104012
0.00103758
0.00103677
0.00103564
0.00103428
0.00103276
0.00103113
0.00102944
0.00102774
0.00102606
0.00102444
0.00102288
0.00102141
0.00102004
0.00101877
0.00101762
0.00101658
0.00101565
0.00101483
0.00101412
0.00101351
0.001013
0.00101258
0.00101225
0.00101199
0.00101181
0.0010117
0.00101164
0.0010096
0.00100889
0.0010079
0.00100672
0.00100539
0.00100396
0.00100249
0.00100101
0.000999552
0.000998135
0.000996781
0.000995504
0.000994313
0.000993216
0.000992217
0.000991315
0.000990512
0.000989804
0.00098919
0.000988664
0.000988222
0.000987859
0.000987571
0.00098735
0.000987193
0.000987093
0.000987046
0.00098547
0.000984859
0.000984017
0.000983001
0.000981864
0.000980648
0.000979393
0.00097813
0.000976885
0.000975679
0.000974527
0.000973441
0.00097243
0.000971499
0.000970652
0.000969888
0.000969208
0.000968609
0.000968089
0.000967645
0.000967272
0.000966966
0.000966722
0.000966536
0.000966403
0.000966319
0.000966279
0.000965131
0.00096462
0.000963917
0.000963069
0.000962121
0.000961108
0.000960064
0.000959014
0.00095798
0.00095698
0.000956025
0.000955127
0.000954291
0.000953522
0.000952823
0.000952194
0.000951633
0.000951141
0.000950713
0.000950348
0.000950042
0.00094979
0.00094959
0.000949438
0.000949329
0.00094926
0.000949228
0.000948453
0.000948039
0.000947469
0.000946784
0.000946017
0.000945199
0.000944357
0.000943511
0.000942679
0.000941875
0.00094111
0.00094039
0.000939721
0.000939107
0.000938549
0.000938047
0.000937601
0.000937209
0.000936869
0.000936579
0.000936336
0.000936137
0.000935979
0.000935858
0.000935772
0.000935717
0.000935691
0.000935225
0.000934902
0.000934457
0.000933922
0.000933324
0.000932688
0.000932034
0.000931378
0.000930734
0.000930113
0.000929522
0.000928968
0.000928454
0.000927982
0.000927554
0.00092717
0.000926829
0.00092653
0.00092627
0.00092605
0.000925864
0.000925713
0.000925593
0.000925501
0.000925436
0.000925394
0.000925375
0.000925142
0.0009249
0.000924567
0.000924168
0.000923723
0.00092325
0.000922764
0.000922278
0.000921802
0.000921344
0.000920909
0.000920501
0.000920124
0.000919779
0.000919467
0.000919187
0.000918938
0.000918721
0.000918533
0.000918373
0.000918239
0.000918129
0.000918042
0.000917976
0.000917929
0.000917899
0.000917885
0.000917808
0.000917636
0.000917401
0.000917118
0.000916803
0.00091647
0.000916128
0.000915787
0.000915454
0.000915134
0.000914831
0.000914549
0.000914287
0.000914049
0.000913833
0.00091364
0.00091347
0.000913321
0.000913192
0.000913083
0.000912991
0.000912917
0.000912858
0.000912813
0.000912781
0.00091276
0.000912751
0.00091276
0.000912645
0.000912488
0.0009123
0.000912091
0.000911871
0.000911645
0.000911421
0.000911202
0.000910993
0.000910795
0.000910611
0.000910442
0.000910287
0.000910148
0.000910024
0.000909915
0.000909819
0.000909737
0.000909667
0.000909609
0.000909562
0.000909524
0.000909496
0.000909476
0.000909463
0.000909457
0.000909497
0.000909426
0.000909328
0.000909212
0.000909083
0.000908947
0.000908809
0.000908672
0.000908538
0.000908411
0.000908292
0.000908181
0.000908079
0.000907986
0.000907903
0.000907829
0.000907764
0.000907708
0.000907659
0.000907618
0.000907584
0.000907556
0.000907534
0.000907517
0.000907506
0.000907498
0.000907495
0.000907531
0.00090749
0.000907435
0.000907368
0.000907295
0.000907218
0.00090714
0.000907063
0.000906988
0.000906917
0.00090685
0.000906788
0.000906732
0.000906681
0.000906635
0.000906595
0.000906559
0.000906528
0.000906502
0.00090648
0.000906461
0.000906446
0.000906434
0.000906425
0.000906419
0.000906415
0.000906413
0.000906433
0.000906411
0.000906382
0.000906347
0.000906309
0.000906269
0.000906228
0.000906188
0.00090615
0.000906113
0.000906079
0.000906047
0.000906019
0.000905993
0.00090597
0.000905949
0.000905931
0.000905916
0.000905902
0.000905891
0.000905882
0.000905875
0.000905869
0.000905864
0.000905861
0.000905859
0.000905858
0.000905861
0.000905851
0.000905837
0.00090582
0.000905802
0.000905782
0.000905763
0.000905743
0.000905725
0.000905707
0.000905691
0.000905676
0.000905662
0.00090565
0.000905639
0.000905629
0.00090562
0.000905613
0.000905607
0.000905601
0.000905597
0.000905593
0.00090559
0.000905588
0.000905587
0.000905586
0.000905585
0.000905579
0.000905575
0.000905568
0.000905561
0.000905552
0.000905544
0.000905535
0.000905526
0.000905517
0.000905509
0.000905502
0.000905495
0.000905489
0.000905483
0.000905478
0.000905473
0.000905469
0.000905466
0.000905463
0.000905461
0.000905459
0.000905457
0.000905456
0.000905455
0.000905454
0.000905454
0.000905453
0.000905444
0.000905442
0.000905439
0.000905436
0.000905432
0.000905428
0.000905424
0.000905421
0.000905417
0.000905413
0.00090541
0.000905407
0.000905404
0.000905401
0.000905399
0.000905397
0.000905395
0.000905394
0.000905393
0.000905392
0.000905391
0.00090539
0.000905389
0.000905389
0.000905389
0.000905388
0.000905388
0.000905379
0.000905378
0.000905377
0.000905375
0.000905374
0.000905372
0.000905371
0.000905369
0.000905368
0.000905366
0.000905365
0.000905364
0.000905363
0.000905362
0.000905361
0.00090536
0.000905359
0.000905359
0.000905358
0.000905358
0.000905358
0.000905357
0.000905357
0.000905357
0.000905357
0.000905357
0.000905357
0.000905347
0.000905347
0.000905347
0.000905347
0.000905346
0.000905346
0.000905345
0.000905345
0.000905345
0.000905345
0.000905344
0.000905344
0.000905344
0.000905344
0.000905344
0.000905344
0.000905344
0.000905344
0.000905344
0.000905344
0.000905344
0.000905344
0.000905344
0.000905344
0.000905344
0.000905344
0.000905344
0.000905334
0.000905334
0.000905335
0.000905335
0.000905335
0.000905336
0.000905336
0.000905336
0.000905337
0.000905337
0.000905338
0.000905339
0.000905339
0.00090534
0.00090534
0.000905341
0.000905341
0.000905342
0.000905342
0.000905342
0.000905343
0.000905343
0.000905343
0.000905343
0.000905343
0.000905343
0.000905343
0.000905332
0.000905332
0.000905333
0.000905334
0.000905335
0.000905335
0.000905336
0.000905337
0.000905339
0.00090534
0.000905341
0.000905342
0.000905343
0.000905344
0.000905345
0.000905346
0.000905346
0.000905347
0.000905348
0.000905348
0.000905349
0.000905349
0.00090535
0.00090535
0.00090535
0.00090535
0.00090535
0.000905337
0.000905338
0.000905338
0.000905339
0.000905341
0.000905342
0.000905343
0.000905345
0.000905346
0.000905348
0.000905349
0.000905351
0.000905352
0.000905354
0.000905355
0.000905356
0.000905357
0.000905358
0.000905359
0.00090536
0.000905361
0.000905361
0.000905362
0.000905362
0.000905362
0.000905362
0.000905362
0.000905347
0.000905348
0.000905349
0.00090535
0.000905351
0.000905353
0.000905355
0.000905357
0.000905359
0.00090536
0.000905362