/*--------------------------------*- C++ -*----------------------------------*\
| =========                 |                                                 |
| \\      /  F ield         | OpenFOAM: The Open Source CFD Toolbox           |
|  \\    /   O peration     | Version:  2106                                  |
|   \\  /    A nd           | Website:  www.openfoam.com                      |
|    \\/     M anipulation  |                                                 |
\*---------------------------------------------------------------------------*/
FoamFile
{
    version     2.0;
    format      ascii;
    arch        "LSB;label=32;scalar=64";
    class       volScalarField;
    location    "110.00000";
    object      A1C2H3_0;
}
// * * * * * * * * * * * * * * * * * * * * * * * * * * * * * * * * * * * * * //

dimensions      [0 0 0 0 0 0 0];

internalField   nonuniform List<scalar> 
3360
(
4.75391e-22
4.90691e-22
5.11983e-22
5.38027e-22
5.67739e-22
6.00142e-22
6.34357e-22
6.6959e-22
7.05132e-22
7.4036e-22
7.7473e-22
8.07785e-22
8.39144e-22
8.68505e-22
8.95638e-22
9.20383e-22
9.42639e-22
9.62366e-22
9.79571e-22
9.94305e-22
1.00666e-21
1.01675e-21
1.02471e-21
1.03072e-21
1.03495e-21
1.03758e-21
1.0388e-21
2.0855e-21
2.16217e-21
2.27035e-21
2.40508e-21
2.56222e-21
2.73818e-21
2.92974e-21
3.13396e-21
3.3481e-21
3.56956e-21
3.79588e-21
4.02462e-21
4.25341e-21
4.47989e-21
4.70175e-21
4.91672e-21
5.12256e-21
5.31712e-21
5.49832e-21
5.66423e-21
5.81305e-21
5.94323e-21
6.05341e-21
6.14252e-21
6.20977e-21
6.25467e-21
6.27707e-21
6.5439e-21
6.83115e-21
7.23932e-21
7.75222e-21
8.35641e-21
9.03982e-21
9.79095e-21
1.05985e-20
1.1451e-20
1.23368e-20
1.3244e-20
1.41605e-20
1.50748e-20
1.59753e-20
1.68505e-20
1.76901e-20
1.8484e-20
1.92234e-20
1.99006e-20
2.05094e-20
2.10447e-20
2.15031e-20
2.18826e-20
2.21825e-20
2.24037e-20
2.25479e-20
2.26181e-20
1.90589e-20
2.00057e-20
2.13601e-20
2.30737e-20
2.5106e-20
2.74191e-20
2.99749e-20
3.27344e-20
3.5656e-20
3.86966e-20
4.18114e-20
4.49547e-20
4.80814e-20
5.11473e-20
5.41106e-20
5.6933e-20
5.95803e-20
6.20237e-20
6.42399e-20
6.62115e-20
6.79269e-20
6.93801e-20
7.05703e-20
7.15013e-20
7.21806e-20
7.26192e-20
7.28308e-20
5.56864e-20
5.86734e-20
6.29546e-20
6.83837e-20
7.48366e-20
8.21941e-20
9.03336e-20
9.91251e-20
1.0843e-19
1.18103e-19
1.27992e-19
1.37945e-19
1.47813e-19
1.57454e-19
1.66735e-19
1.75538e-19
1.8376e-19
1.91318e-19
1.98147e-19
2.04198e-19
2.09445e-19
2.13876e-19
2.17493e-19
2.20315e-19
2.22368e-19
2.23691e-19
2.24328e-19
1.64202e-19
1.73376e-19
1.86541e-19
2.0325e-19
2.23122e-19
2.45785e-19
2.70857e-19
2.9793e-19
3.26568e-19
3.56312e-19
3.86689e-19
4.17225e-19
4.47455e-19
4.7694e-19
5.05275e-19
5.32102e-19
5.57114e-19
5.80064e-19
6.0076e-19
6.19071e-19
6.34919e-19
6.4828e-19
6.59173e-19
6.67657e-19
6.73824e-19
6.77793e-19
6.79701e-19
4.87797e-19
5.15674e-19
5.55679e-19
6.06456e-19
6.66838e-19
7.35687e-19
8.11823e-19
8.93987e-19
9.80839e-19
1.07097e-18
1.16294e-18
1.25529e-18
1.34663e-18
1.43564e-18
1.52109e-18
1.60192e-18
1.67723e-18
1.74627e-18
1.8085e-18
1.86352e-18
1.91112e-18
1.95123e-18
1.98392e-18
2.00937e-18
2.02787e-18
2.03977e-18
2.04549e-18
1.4539e-18
1.53779e-18
1.65823e-18
1.81116e-18
1.99306e-18
2.20051e-18
2.42992e-18
2.67748e-18
2.93911e-18
3.21057e-18
3.48747e-18
3.76545e-18
4.04027e-18
4.30794e-18
4.56482e-18
4.80771e-18
5.03388e-18
5.24116e-18
5.42787e-18
5.5929e-18
5.73561e-18
5.85581e-18
5.95374e-18
6.02996e-18
6.08533e-18
6.12094e-18
6.13806e-18
4.34483e-18
4.59696e-18
4.95888e-18
5.41836e-18
5.96482e-18
6.5879e-18
7.27679e-18
8.01996e-18
8.80515e-18
9.61951e-18
1.04499e-17
1.12832e-17
1.21068e-17
1.29087e-17
1.36781e-17
1.44053e-17
1.50824e-17
1.57027e-17
1.62614e-17
1.67552e-17
1.71821e-17
1.75417e-17
1.78346e-17
1.80626e-17
1.82283e-17
1.83348e-17
1.8386e-17
1.29844e-17
1.37395e-17
1.48237e-17
1.62002e-17
1.78374e-17
1.9704e-17
2.17677e-17
2.39938e-17
2.63455e-17
2.87843e-17
3.12706e-17
3.37653e-17
3.62303e-17
3.86299e-17
4.09316e-17
4.31067e-17
4.51313e-17
4.69858e-17
4.86557e-17
5.01311e-17
5.14065e-17
5.24805e-17
5.33551e-17
5.40358e-17
5.45301e-17
5.4848e-17
5.50007e-17
3.88205e-17
4.10811e-17
4.43258e-17
4.84448e-17
5.33424e-17
5.89253e-17
6.50957e-17
7.17497e-17
7.87769e-17
8.60618e-17
9.34863e-17
1.00933e-16
1.08289e-16
1.15448e-16
1.22312e-16
1.28797e-16
1.34832e-16
1.40359e-16
1.45334e-16
1.49729e-16
1.53528e-16
1.56726e-16
1.59331e-16
1.61358e-16
1.62829e-16
1.63776e-16
1.64231e-16
1.15946e-16
1.22695e-16
1.32381e-16
1.44675e-16
1.5929e-16
1.75945e-16
1.94347e-16
2.14186e-16
2.3513e-16
2.56833e-16
2.78945e-16
3.01114e-16
3.23004e-16
3.44298e-16
3.64709e-16
3.83985e-16
4.01915e-16
4.1833e-16
4.33101e-16
4.46146e-16
4.57416e-16
4.66902e-16
4.74625e-16
4.80633e-16
4.84994e-16
4.87798e-16
4.89145e-16
3.4589e-16
3.66e-16
3.94851e-16
4.31454e-16
4.74945e-16
5.24479e-16
5.79177e-16
6.38105e-16
7.00273e-16
7.64654e-16
8.30198e-16
8.9587e-16
9.6067e-16
1.02366e-15
1.08401e-15
1.14097e-15
1.19392e-15
1.24237e-15
1.28595e-15
1.32441e-15
1.35763e-15
1.38559e-15
1.40834e-15
1.42603e-15
1.43887e-15
1.44712e-15
1.45109e-15
1.0287e-15
1.08834e-15
1.17387e-15
1.28232e-15
1.41111e-15
1.55768e-15
1.71941e-15
1.89349e-15
2.07699e-15
2.26684e-15
2.45993e-15
2.65322e-15
2.84377e-15
3.02883e-15
3.20594e-15
3.37296e-15
3.52809e-15
3.66992e-15
3.7974e-15
3.90983e-15
4.00687e-15
4.08847e-15
4.15483e-15
4.20642e-15
4.24384e-15
4.26788e-15
4.27942e-15
3.04785e-15
3.22369e-15
3.4757e-15
3.79497e-15
4.17371e-15
4.60427e-15
5.07874e-15
5.58879e-15
6.12565e-15
6.6803e-15
7.24363e-15
7.80669e-15
8.36096e-15
8.89852e-15
9.41231e-15
9.89619e-15
1.03451e-14
1.0755e-14
1.11231e-14
1.14474e-14
1.1727e-14
1.1962e-14
1.21529e-14
1.23012e-14
1.24088e-14
1.24778e-14
1.25109e-14
8.97561e-15
9.48896e-15
1.02241e-14
1.11543e-14
1.22562e-14
1.35069e-14
1.48829e-14
1.63593e-14
1.79105e-14
1.95099e-14
2.11312e-14
2.27486e-14
2.43376e-14
2.58759e-14
2.73435e-14
2.87232e-14
3.00011e-14
3.11662e-14
3.22106e-14
3.31296e-14
3.39211e-14
3.45852e-14
3.51243e-14
3.55426e-14
3.58457e-14
3.60401e-14
3.61333e-14
2.62226e-14
2.77016e-14
2.98166e-14
3.24886e-14
3.56476e-14
3.92252e-14
4.31516e-14
4.73541e-14
5.17576e-14
5.62862e-14
6.08645e-14
6.54196e-14
6.98835e-14
7.41938e-14
7.8296e-14
8.21438e-14
8.56997e-14
8.8935e-14
9.18298e-14
9.43724e-14
9.65583e-14
9.83898e-14
9.98747e-14
1.01025e-13
1.01858e-13
1.02392e-13
1.02647e-13
7.57866e-14
7.99686e-14
8.59391e-14
9.34648e-14
1.02339e-13
1.1236e-13
1.23322e-13
1.35016e-13
1.47228e-13
1.59744e-13
1.72353e-13
1.84856e-13
1.97068e-13
2.08822e-13
2.19975e-13
2.30406e-13
2.40019e-13
2.48744e-13
2.56531e-13
2.63356e-13
2.69212e-13
2.7411e-13
2.78073e-13
2.8114e-13
2.83357e-13
2.84775e-13
2.85454e-13
2.15967e-13
2.27504e-13
2.43938e-13
2.64592e-13
2.88865e-13
3.1617e-13
3.45921e-13
3.77525e-13
4.10387e-13
4.43921e-13
4.77564e-13
5.10786e-13
5.43106e-13
5.74097e-13
6.03395e-13
6.30703e-13
6.5579e-13
6.7849e-13
6.98698e-13
7.16363e-13
7.31485e-13
7.44106e-13
7.54301e-13
7.62176e-13
7.67859e-13
7.71492e-13
7.73228e-13
6.04262e-13
6.35091e-13
6.78885e-13
7.33733e-13
7.97922e-13
8.69804e-13
9.47747e-13
1.03013e-12
1.11537e-12
1.20192e-12
1.28832e-12
1.37325e-12
1.45549e-12
1.53401e-12
1.60795e-12
1.6766e-12
1.73945e-12
1.79614e-12
1.84644e-12
1.8903e-12
1.92776e-12
1.95894e-12
1.98408e-12
2.00347e-12
2.01744e-12
2.02635e-12
2.03061e-12
1.65204e-12
1.73127e-12
1.84346e-12
1.9834e-12
2.1464e-12
2.328e-12
2.52385e-12
2.72972e-12
2.94153e-12
3.15544e-12
3.36787e-12
3.5756e-12
3.77582e-12
3.96612e-12
4.14454e-12
4.30957e-12
4.46009e-12
4.5954e-12
4.71513e-12
4.81923e-12
4.90789e-12
4.98156e-12
5.04082e-12
5.08644e-12
5.11925e-12
5.14017e-12
5.15014e-12
4.38941e-12
4.58395e-12
4.8585e-12
5.19949e-12
5.59469e-12
6.03261e-12
6.50224e-12
6.99309e-12
7.49528e-12
7.99963e-12
8.49786e-12
8.98263e-12
9.44763e-12
9.88765e-12
1.02985e-11
1.06771e-11
1.10212e-11
1.13295e-11
1.16016e-11
1.18374e-11
1.20379e-11
1.22041e-11
1.23375e-11
1.24401e-11
1.25137e-11
1.25606e-11
1.25829e-11
1.12743e-11
1.17287e-11
1.23679e-11
1.31584e-11
1.40701e-11
1.50752e-11
1.61472e-11
1.72615e-11
1.83955e-11
1.95285e-11
2.06423e-11
2.17209e-11
2.2751e-11
2.37218e-11
2.46249e-11
2.54542e-11
2.62055e-11
2.68769e-11
2.74676e-11
2.79787e-11
2.84121e-11
2.87707e-11
2.90582e-11
2.92787e-11
2.94369e-11
2.95375e-11
2.95854e-11
2.78713e-11
2.88799e-11
3.02942e-11
3.20367e-11
3.40378e-11
3.62334e-11
3.8564e-11
4.09752e-11
4.34175e-11
4.58467e-11
4.82244e-11
5.05178e-11
5.26999e-11
5.47493e-11
5.66496e-11
5.83894e-11
5.99616e-11
6.13629e-11
6.25934e-11
6.36557e-11
6.4555e-11
6.52979e-11
6.58926e-11
6.63483e-11
6.66748e-11
6.68822e-11
6.69808e-11
6.61474e-11
6.82791e-11
7.12611e-11
7.49234e-11
7.91142e-11
8.36949e-11
8.85384e-11
9.35299e-11
9.85665e-11
1.03558e-10
1.08427e-10
1.13108e-10
1.17549e-10
1.21708e-10
1.25554e-10
1.29068e-10
1.32236e-10
1.35055e-10
1.37525e-10
1.39655e-10
1.41455e-10
1.42941e-10
1.44128e-10
1.45037e-10
1.45688e-10
1.46101e-10
1.46298e-10
1.50662e-10
1.54977e-10
1.61e-10
1.68381e-10
1.76804e-10
1.85983e-10
1.95662e-10
2.05607e-10
2.15613e-10
2.25503e-10
2.35125e-10
2.44354e-10
2.5309e-10
2.61255e-10
2.68792e-10
2.75665e-10
2.81852e-10
2.87349e-10
2.92161e-10
2.96304e-10
2.99802e-10
3.02686e-10
3.0499e-10
3.06752e-10
3.08013e-10
3.08812e-10
3.09192e-10
3.29882e-10
3.38306e-10
3.50053e-10
3.64421e-10
3.80788e-10
3.98592e-10
4.17324e-10
4.36535e-10
4.55828e-10
4.74863e-10
4.9335e-10
5.11055e-10
5.27788e-10
5.43406e-10
5.57807e-10
5.70923e-10
5.8272e-10
5.9319e-10
6.02348e-10
6.10227e-10
6.16875e-10
6.22352e-10
6.26726e-10
6.3007e-10
6.32461e-10
6.33977e-10
6.34697e-10
6.96357e-10
7.12361e-10
7.34661e-10
7.61913e-10
7.92925e-10
8.26622e-10
8.62042e-10
8.9833e-10
9.34739e-10
9.70629e-10
1.00546e-09
1.03879e-09
1.07028e-09
1.09965e-09
1.12671e-09
1.15135e-09
1.17351e-09
1.19316e-09
1.21035e-09
1.22514e-09
1.23761e-09
1.24788e-09
1.25608e-09
1.26235e-09
1.26683e-09
1.26967e-09
1.27102e-09
1.42178e-09
1.45161e-09
1.49316e-09
1.54394e-09
1.60171e-09
1.66448e-09
1.73045e-09
1.79804e-09
1.86587e-09
1.93274e-09
1.99765e-09
2.05979e-09
2.1185e-09
2.17329e-09
2.22381e-09
2.26982e-09
2.31121e-09
2.34794e-09
2.38008e-09
2.40773e-09
2.43107e-09
2.4503e-09
2.46566e-09
2.4774e-09
2.4858e-09
2.49113e-09
2.49366e-09
2.8147e-09
2.86952e-09
2.94592e-09
3.03933e-09
3.14567e-09
3.26131e-09
3.38296e-09
3.50772e-09
3.63306e-09
3.75679e-09
3.87705e-09
3.99233e-09
4.1014e-09
4.20333e-09
4.29744e-09
4.38328e-09
4.46059e-09
4.52931e-09
4.5895e-09
4.64136e-09
4.68517e-09
4.72132e-09
4.75022e-09
4.77234e-09
4.78818e-09
4.79823e-09
4.803e-09
5.40582e-09
5.50495e-09
5.6432e-09
5.81236e-09
6.00515e-09
6.21504e-09
6.43616e-09
6.66328e-09
6.8918e-09
7.11777e-09
7.33779e-09
7.54906e-09
7.74932e-09
7.93679e-09
8.11018e-09
8.2686e-09
8.41153e-09
8.53877e-09
8.6504e-09
8.74672e-09
8.82822e-09
8.89554e-09
8.94944e-09
8.99074e-09
9.02034e-09
9.03915e-09
9.04809e-09
1.00493e-08
1.02234e-08
1.04663e-08
1.07637e-08
1.11028e-08
1.14723e-08
1.18619e-08
1.22623e-08
1.26656e-08
1.30648e-08
1.34538e-08
1.38277e-08
1.41824e-08
1.45148e-08
1.48224e-08
1.51038e-08
1.53578e-08
1.55842e-08
1.57829e-08
1.59545e-08
1.60998e-08
1.62199e-08
1.63161e-08
1.63899e-08
1.64428e-08
1.64765e-08
1.64925e-08
1.79934e-08
1.82849e-08
1.86914e-08
1.91888e-08
1.97558e-08
2.03733e-08
2.10239e-08
2.16923e-08
2.23651e-08
2.30305e-08
2.36786e-08
2.43011e-08
2.48913e-08
2.54441e-08
2.59554e-08
2.64227e-08
2.68445e-08
2.72201e-08
2.75497e-08
2.78343e-08
2.80751e-08
2.82742e-08
2.84336e-08
2.85558e-08
2.86435e-08
2.86992e-08
2.87257e-08
3.08531e-08
3.1311e-08
3.1949e-08
3.27289e-08
3.36166e-08
3.45816e-08
3.55967e-08
3.66378e-08
3.76836e-08
3.87161e-08
3.97198e-08
4.06822e-08
4.1593e-08
4.24445e-08
4.3231e-08
4.39488e-08
4.45957e-08
4.5171e-08
4.56753e-08
4.61102e-08
4.64779e-08
4.67816e-08
4.70246e-08
4.72109e-08
4.73443e-08
4.74291e-08
4.74695e-08
5.04609e-08
5.11335e-08
5.20695e-08
5.32116e-08
5.45091e-08
5.59169e-08
5.73944e-08
5.89062e-08
6.04214e-08
6.19138e-08
6.33615e-08
6.47465e-08
6.60546e-08
6.72752e-08
6.84007e-08
6.9426e-08
7.03486e-08
7.1168e-08
7.18853e-08
7.25032e-08
7.30252e-08
7.34558e-08
7.38002e-08
7.40639e-08
7.42527e-08
7.43727e-08
7.44297e-08
7.86701e-08
7.95989e-08
8.08899e-08
8.24629e-08
8.42469e-08
8.61785e-08
8.82018e-08
9.02676e-08
9.23339e-08
9.4365e-08
9.63312e-08
9.82089e-08
9.99793e-08
1.01629e-07
1.03147e-07
1.04528e-07
1.0577e-07
1.06871e-07
1.07835e-07
1.08663e-07
1.09363e-07
1.0994e-07
1.10401e-07
1.10754e-07
1.11007e-07
1.11168e-07
1.11244e-07
1.17206e-07
1.18425e-07
1.20118e-07
1.22179e-07
1.24513e-07
1.27036e-07
1.29675e-07
1.32365e-07
1.35051e-07
1.37688e-07
1.40237e-07
1.42668e-07
1.44957e-07
1.47087e-07
1.49046e-07
1.50827e-07
1.52426e-07
1.53844e-07
1.55083e-07
1.56149e-07
1.57048e-07
1.57789e-07
1.58382e-07
1.58835e-07
1.59159e-07
1.59365e-07
1.59463e-07
1.67603e-07
1.69142e-07
1.71279e-07
1.73876e-07
1.76815e-07
1.79989e-07
1.83305e-07
1.86682e-07
1.90051e-07
1.93354e-07
1.96544e-07
1.99584e-07
2.02444e-07
2.05104e-07
2.07549e-07
2.0977e-07
2.11764e-07
2.13531e-07
2.15075e-07
2.16402e-07
2.17522e-07
2.18445e-07
2.19183e-07
2.19747e-07
2.20151e-07
2.20408e-07
2.2053e-07
2.31209e-07
2.33096e-07
2.35713e-07
2.38892e-07
2.42488e-07
2.46369e-07
2.5042e-07
2.54543e-07
2.58653e-07
2.62681e-07
2.66569e-07
2.70271e-07
2.73754e-07
2.76991e-07
2.79965e-07
2.82666e-07
2.8509e-07
2.87238e-07
2.89115e-07
2.90729e-07
2.9209e-07
2.93212e-07
2.94108e-07
2.94794e-07
2.95285e-07
2.95597e-07
2.95745e-07
3.09206e-07
3.11466e-07
3.14599e-07
3.18406e-07
3.22708e-07
3.27349e-07
3.32192e-07
3.37119e-07
3.42028e-07
3.46837e-07
3.51477e-07
3.55894e-07
3.60048e-07
3.63908e-07
3.67453e-07
3.70673e-07
3.73562e-07
3.76122e-07
3.78358e-07
3.80281e-07
3.81903e-07
3.83239e-07
3.84307e-07
3.85125e-07
3.8571e-07
3.86081e-07
3.86258e-07
4.02634e-07
4.05292e-07
4.08978e-07
4.13453e-07
4.18511e-07
4.23965e-07
4.29655e-07
4.3544e-07
4.41204e-07
4.46847e-07
4.52292e-07
4.57474e-07
4.62345e-07
4.66871e-07
4.71028e-07
4.74802e-07
4.78188e-07
4.81188e-07
4.83809e-07
4.86062e-07
4.87963e-07
4.89529e-07
4.90781e-07
4.91738e-07
4.92424e-07
4.9286e-07
4.93067e-07
5.12411e-07
5.15493e-07
5.19764e-07
5.24951e-07
5.30809e-07
5.37126e-07
5.43714e-07
5.50411e-07
5.57081e-07
5.6361e-07
5.69908e-07
5.759e-07
5.81532e-07
5.86764e-07
5.91569e-07
5.95931e-07
5.99844e-07
6.03311e-07
6.06339e-07
6.08942e-07
6.11138e-07
6.12947e-07
6.14393e-07
6.155e-07
6.16292e-07
6.16795e-07
6.17035e-07
6.39353e-07
6.4288e-07
6.47769e-07
6.53705e-07
6.60408e-07
6.67634e-07
6.75168e-07
6.82824e-07
6.90449e-07
6.97911e-07
7.05106e-07
7.11951e-07
7.18384e-07
7.24359e-07
7.29845e-07
7.34825e-07
7.39292e-07
7.43248e-07
7.46704e-07
7.49675e-07
7.52181e-07
7.54246e-07
7.55896e-07
7.57159e-07
7.58063e-07
7.58637e-07
7.5891e-07
7.84181e-07
7.88175e-07
7.93711e-07
8.00431e-07
8.08018e-07
8.16195e-07
8.24719e-07
8.3338e-07
8.42002e-07
8.5044e-07
8.58573e-07
8.6631e-07
8.73579e-07
8.8033e-07
8.86527e-07
8.92152e-07
8.97197e-07
9.01665e-07
9.05567e-07
9.08921e-07
9.1175e-07
9.14082e-07
9.15944e-07
9.1737e-07
9.18391e-07
9.19039e-07
9.19347e-07
9.47538e-07
9.52019e-07
9.58228e-07
9.65764e-07
9.74271e-07
9.83438e-07
9.92992e-07
1.0027e-06
1.01236e-06
1.02181e-06
1.03092e-06
1.03958e-06
1.04772e-06
1.05527e-06
1.06221e-06
1.0685e-06
1.07415e-06
1.07914e-06
1.08351e-06
1.08726e-06
1.09043e-06
1.09303e-06
1.09512e-06
1.09671e-06
1.09785e-06
1.09858e-06
1.09892e-06
1.13e-06
1.13498e-06
1.14189e-06
1.15027e-06
1.15973e-06
1.16992e-06
1.18054e-06
1.19133e-06
1.20206e-06
1.21256e-06
1.22268e-06
1.2323e-06
1.24133e-06
1.24972e-06
1.25742e-06
1.2644e-06
1.27066e-06
1.27621e-06
1.28105e-06
1.28522e-06
1.28873e-06
1.29162e-06
1.29393e-06
1.2957e-06
1.29696e-06
1.29777e-06
1.29815e-06
1.33208e-06
1.33759e-06
1.34521e-06
1.35446e-06
1.36491e-06
1.37615e-06
1.38787e-06
1.39977e-06
1.41161e-06
1.42318e-06
1.43434e-06
1.44494e-06
1.4549e-06
1.46414e-06
1.47263e-06
1.48032e-06
1.48722e-06
1.49333e-06
1.49866e-06
1.50325e-06
1.50711e-06
1.5103e-06
1.51284e-06
1.51479e-06
1.51618e-06
1.51707e-06
1.51749e-06
1.55425e-06
1.56029e-06
1.56866e-06
1.5788e-06
1.59025e-06
1.60258e-06
1.61543e-06
1.62847e-06
1.64144e-06
1.65412e-06
1.66634e-06
1.67795e-06
1.68886e-06
1.69898e-06
1.70827e-06
1.71669e-06
1.72424e-06
1.73093e-06
1.73676e-06
1.74178e-06
1.74601e-06
1.74949e-06
1.75228e-06
1.75441e-06
1.75593e-06
1.7569e-06
1.75736e-06
1.79694e-06
1.80352e-06
1.81264e-06
1.82371e-06
1.83619e-06
1.84963e-06
1.86362e-06
1.87783e-06
1.89196e-06
1.90578e-06
1.91909e-06
1.93173e-06
1.94361e-06
1.95462e-06
1.96473e-06
1.9739e-06
1.98212e-06
1.98939e-06
1.99574e-06
2.0012e-06
2.0058e-06
2.00959e-06
2.01262e-06
2.01493e-06
2.01659e-06
2.01764e-06
2.01814e-06
2.06053e-06
2.06767e-06
2.07756e-06
2.08956e-06
2.10309e-06
2.11767e-06
2.13284e-06
2.14824e-06
2.16356e-06
2.17853e-06
2.19294e-06
2.20664e-06
2.2195e-06
2.23143e-06
2.24238e-06
2.2523e-06
2.2612e-06
2.26908e-06
2.27595e-06
2.28186e-06
2.28684e-06
2.29094e-06
2.29422e-06
2.29672e-06
2.29852e-06
2.29966e-06
2.3002e-06
2.34538e-06
2.35309e-06
2.36377e-06
2.37672e-06
2.39132e-06
2.40705e-06
2.42342e-06
2.44004e-06
2.45656e-06
2.4727e-06
2.48825e-06
2.50302e-06
2.51688e-06
2.52975e-06
2.54154e-06
2.55224e-06
2.56183e-06
2.57032e-06
2.57772e-06
2.58409e-06
2.58945e-06
2.59387e-06
2.5974e-06
2.6001e-06
2.60203e-06
2.60326e-06
2.60385e-06
2.65182e-06
2.6601e-06
2.67158e-06
2.6855e-06
2.7012e-06
2.7181e-06
2.73569e-06
2.75354e-06
2.77128e-06
2.78862e-06
2.80532e-06
2.82118e-06
2.83606e-06
2.84987e-06
2.86254e-06
2.87402e-06
2.88431e-06
2.89341e-06
2.90136e-06
2.90819e-06
2.91395e-06
2.91869e-06
2.92248e-06
2.92537e-06
2.92745e-06
2.92876e-06
2.92939e-06
2.98015e-06
2.98902e-06
3.00132e-06
3.01622e-06
3.03302e-06
3.05111e-06
3.06994e-06
3.08904e-06
3.10803e-06
3.12658e-06
3.14444e-06
3.16141e-06
3.17733e-06
3.1921e-06
3.20564e-06
3.21792e-06
3.22892e-06
3.23865e-06
3.24715e-06
3.25445e-06
3.2606e-06
3.26567e-06
3.26972e-06
3.27282e-06
3.27503e-06
3.27644e-06
3.27711e-06
3.33066e-06
3.34013e-06
3.35324e-06
3.36914e-06
3.38707e-06
3.40636e-06
3.42644e-06
3.44682e-06
3.46706e-06
3.48685e-06
3.50589e-06
3.52398e-06
3.54095e-06
3.55669e-06
3.57112e-06
3.5842e-06
3.59593e-06
3.6063e-06
3.61535e-06
3.62313e-06
3.62968e-06
3.63508e-06
3.6394e-06
3.64269e-06
3.64505e-06
3.64655e-06
3.64727e-06
3.70361e-06
3.71368e-06
3.72763e-06
3.74453e-06
3.7636e-06
3.78412e-06
3.80547e-06
3.82712e-06
3.84865e-06
3.86967e-06
3.88991e-06
3.90913e-06
3.92717e-06
3.94389e-06
3.95922e-06
3.97312e-06
3.98557e-06
3.99659e-06
4.00621e-06
4.01447e-06
4.02143e-06
4.02716e-06
4.03174e-06
4.03525e-06
4.03775e-06
4.03935e-06
4.0401e-06
4.09923e-06
4.10991e-06
4.1247e-06
4.14263e-06
4.16285e-06
4.1846e-06
4.20723e-06
4.23019e-06
4.25301e-06
4.27529e-06
4.29674e-06
4.3171e-06
4.33621e-06
4.35393e-06
4.37017e-06
4.3849e-06
4.39809e-06
4.40976e-06
4.41995e-06
4.42869e-06
4.43607e-06
4.44214e-06
4.44699e-06
4.4507e-06
4.45335e-06
4.45504e-06
4.45584e-06
4.51776e-06
4.52906e-06
4.5447e-06
4.56366e-06
4.58504e-06
4.60804e-06
4.63197e-06
4.65624e-06
4.68035e-06
4.70391e-06
4.72658e-06
4.7481e-06
4.7683e-06
4.78702e-06
4.80418e-06
4.81974e-06
4.83368e-06
4.84601e-06
4.85676e-06
4.866e-06
4.87379e-06
4.88021e-06
4.88533e-06
4.88925e-06
4.89205e-06
4.89383e-06
4.89468e-06
4.95938e-06
4.9713e-06
4.98781e-06
5.00781e-06
5.03036e-06
5.05462e-06
5.07986e-06
5.10545e-06
5.13089e-06
5.15572e-06
5.17962e-06
5.20232e-06
5.2236e-06
5.24334e-06
5.26143e-06
5.27783e-06
5.29252e-06
5.30551e-06
5.31685e-06
5.32659e-06
5.3348e-06
5.34155e-06
5.34695e-06
5.35108e-06
5.35403e-06
5.35591e-06
5.3568e-06
5.42429e-06
5.43684e-06
5.45421e-06
5.47526e-06
5.49899e-06
5.52452e-06
5.55108e-06
5.57801e-06
5.60477e-06
5.6309e-06
5.65604e-06
5.67991e-06
5.7023e-06
5.72306e-06
5.74209e-06
5.75933e-06
5.77478e-06
5.78844e-06
5.80037e-06
5.8106e-06
5.81923e-06
5.82634e-06
5.83201e-06
5.83635e-06
5.83946e-06
5.84143e-06
5.84237e-06
5.91263e-06
5.92581e-06
5.94405e-06
5.96616e-06
5.99109e-06
6.01789e-06
6.04578e-06
6.07406e-06
6.10215e-06
6.12959e-06
6.15598e-06
6.18104e-06
6.20454e-06
6.22632e-06
6.24629e-06
6.26439e-06
6.2806e-06
6.29493e-06
6.30744e-06
6.31819e-06
6.32724e-06
6.3347e-06
6.34065e-06
6.3452e-06
6.34846e-06
6.35053e-06
6.35151e-06
6.42454e-06
6.43835e-06
6.45747e-06
6.48065e-06
6.50677e-06
6.53486e-06
6.56409e-06
6.59372e-06
6.62315e-06
6.65189e-06
6.67955e-06
6.70579e-06
6.73041e-06
6.75323e-06
6.77415e-06
6.7931e-06
6.81008e-06
6.82509e-06
6.83819e-06
6.84944e-06
6.85892e-06
6.86673e-06
6.87296e-06
6.87773e-06
6.88114e-06
6.88331e-06
6.88434e-06
6.9601e-06
6.97456e-06
6.99456e-06
7.01881e-06
7.04613e-06
7.07552e-06
7.10608e-06
7.13707e-06
7.16786e-06
7.19791e-06
7.22683e-06
7.25427e-06
7.28001e-06
7.30387e-06
7.32573e-06
7.34555e-06
7.3633e-06
7.37899e-06
7.39269e-06
7.40444e-06
7.41435e-06
7.42251e-06
7.42903e-06
7.43401e-06
7.43758e-06
7.43984e-06
7.44092e-06
7.5194e-06
7.53449e-06
7.55538e-06
7.5807e-06
7.60923e-06
7.63991e-06
7.67182e-06
7.70418e-06
7.73631e-06
7.76769e-06
7.79787e-06
7.82651e-06
7.85337e-06
7.87827e-06
7.90109e-06
7.92177e-06
7.94029e-06
7.95666e-06
7.97095e-06
7.98322e-06
7.99356e-06
8.00207e-06
8.00887e-06
8.01407e-06
8.01779e-06
8.02015e-06
8.02127e-06
8.10244e-06
8.11817e-06
8.13995e-06
8.16633e-06
8.19607e-06
8.22805e-06
8.26131e-06
8.29503e-06
8.32852e-06
8.36121e-06
8.39266e-06
8.4225e-06
8.45049e-06
8.47643e-06
8.5002e-06
8.52174e-06
8.54103e-06
8.55809e-06
8.57297e-06
8.58575e-06
8.59652e-06
8.60538e-06
8.61246e-06
8.61788e-06
8.62175e-06
8.62421e-06
8.62538e-06
8.70918e-06
8.72555e-06
8.74822e-06
8.77567e-06
8.80662e-06
8.83989e-06
8.8745e-06
8.90958e-06
8.94441e-06
8.97842e-06
9.01113e-06
9.04218e-06
9.07129e-06
9.09826e-06
9.12298e-06
9.14538e-06
9.16544e-06
9.18318e-06
9.19866e-06
9.21195e-06
9.22314e-06
9.23236e-06
9.23972e-06
9.24535e-06
9.24938e-06
9.25194e-06
9.25315e-06
9.33953e-06
9.35654e-06
9.38008e-06
9.40861e-06
9.44075e-06
9.47532e-06
9.51126e-06
9.54769e-06
9.58387e-06
9.61919e-06
9.65316e-06
9.6854e-06
9.71562e-06
9.74363e-06
9.7693e-06
9.79255e-06
9.81338e-06
9.83179e-06
9.84786e-06
9.86165e-06
9.87327e-06
9.88284e-06
9.89048e-06
9.89632e-06
9.90051e-06
9.90316e-06
9.90442e-06
9.99329e-06
1.00109e-05
1.00354e-05
1.00649e-05
1.00983e-05
1.01341e-05
1.01714e-05
1.02092e-05
1.02467e-05
1.02833e-05
1.03185e-05
1.03519e-05
1.03833e-05
1.04123e-05
1.04389e-05
1.0463e-05
1.04846e-05
1.05037e-05
1.05203e-05
1.05346e-05
1.05466e-05
1.05566e-05
1.05645e-05
1.05705e-05
1.05749e-05
1.05776e-05
1.05789e-05
1.06702e-05
1.06885e-05
1.07137e-05
1.07444e-05
1.07789e-05
1.0816e-05
1.08546e-05
1.08937e-05
1.09325e-05
1.09704e-05
1.10068e-05
1.10414e-05
1.10738e-05
1.11039e-05
1.11314e-05
1.11563e-05
1.11787e-05
1.11984e-05
1.12156e-05
1.12304e-05
1.12429e-05
1.12531e-05
1.12613e-05
1.12676e-05
1.12721e-05
1.12749e-05
1.12763e-05
1.13698e-05
1.13887e-05
1.14148e-05
1.14465e-05
1.14821e-05
1.15205e-05
1.15603e-05
1.16007e-05
1.16408e-05
1.168e-05
1.17176e-05
1.17534e-05
1.17869e-05
1.18179e-05
1.18463e-05
1.18721e-05
1.18951e-05
1.19155e-05
1.19333e-05
1.19486e-05
1.19615e-05
1.1972e-05
1.19805e-05
1.1987e-05
1.19916e-05
1.19945e-05
1.19959e-05
1.20915e-05
1.2111e-05
1.2138e-05
1.21706e-05
1.22074e-05
1.2247e-05
1.22881e-05
1.23297e-05
1.23711e-05
1.24115e-05
1.24503e-05
1.24871e-05
1.25217e-05
1.25537e-05
1.2583e-05
1.26095e-05
1.26333e-05
1.26543e-05
1.26726e-05
1.26884e-05
1.27016e-05
1.27125e-05
1.27213e-05
1.27279e-05
1.27327e-05
1.27357e-05
1.27372e-05
1.28347e-05
1.28547e-05
1.28825e-05
1.29161e-05
1.29539e-05
1.29947e-05
1.3037e-05
1.30799e-05
1.31224e-05
1.3164e-05
1.32039e-05
1.32418e-05
1.32773e-05
1.33103e-05
1.33404e-05
1.33677e-05
1.33922e-05
1.34138e-05
1.34326e-05
1.34488e-05
1.34625e-05
1.34737e-05
1.34826e-05
1.34895e-05
1.34944e-05
1.34975e-05
1.3499e-05
1.35981e-05
1.36187e-05
1.36472e-05
1.36818e-05
1.37207e-05
1.37625e-05
1.38059e-05
1.385e-05
1.38937e-05
1.39363e-05
1.39774e-05
1.40163e-05
1.40527e-05
1.40865e-05
1.41175e-05
1.41455e-05
1.41706e-05
1.41928e-05
1.42121e-05
1.42287e-05
1.42427e-05
1.42542e-05
1.42634e-05
1.42705e-05
1.42755e-05
1.42787e-05
1.42802e-05
1.43806e-05
1.44017e-05
1.4431e-05
1.44663e-05
1.45062e-05
1.4549e-05
1.45936e-05
1.46387e-05
1.46834e-05
1.47271e-05
1.47691e-05
1.4809e-05
1.48463e-05
1.48809e-05
1.49126e-05
1.49413e-05
1.4967e-05
1.49897e-05
1.50095e-05
1.50265e-05
1.50408e-05
1.50526e-05
1.5062e-05
1.50692e-05
1.50744e-05
1.50776e-05
1.50792e-05
1.51805e-05
1.52021e-05
1.52319e-05
1.52681e-05
1.53088e-05
1.53526e-05
1.53981e-05
1.54442e-05
1.54899e-05
1.55345e-05
1.55774e-05
1.56181e-05
1.56562e-05
1.56915e-05
1.57239e-05
1.57532e-05
1.57794e-05
1.58026e-05
1.58228e-05
1.58401e-05
1.58548e-05
1.58668e-05
1.58764e-05
1.58837e-05
1.5889e-05
1.58923e-05
1.58939e-05
1.59956e-05
1.60176e-05
1.6048e-05
1.60849e-05
1.61263e-05
1.61709e-05
1.62172e-05
1.62642e-05
1.63107e-05
1.63562e-05
1.63998e-05
1.64412e-05
1.648e-05
1.6516e-05
1.65489e-05
1.65787e-05
1.66054e-05
1.6629e-05
1.66495e-05
1.66672e-05
1.6682e-05
1.66943e-05
1.6704e-05
1.67115e-05
1.67169e-05
1.67202e-05
1.67219e-05
1.68234e-05
1.68457e-05
1.68766e-05
1.6914e-05
1.69561e-05
1.70013e-05
1.70483e-05
1.70959e-05
1.71431e-05
1.71892e-05
1.72335e-05
1.72755e-05
1.73148e-05
1.73513e-05
1.73846e-05
1.74148e-05
1.74419e-05
1.74658e-05
1.74866e-05
1.75045e-05
1.75196e-05
1.7532e-05
1.75418e-05
1.75494e-05
1.75548e-05
1.75583e-05
1.75599e-05
1.76605e-05
1.76831e-05
1.77143e-05
1.77521e-05
1.77946e-05
1.78403e-05
1.78878e-05
1.79359e-05
1.79836e-05
1.80301e-05
1.80749e-05
1.81172e-05
1.8157e-05
1.81937e-05
1.82274e-05
1.82579e-05
1.82852e-05
1.83093e-05
1.83303e-05
1.83483e-05
1.83635e-05
1.8376e-05
1.8386e-05
1.83936e-05
1.83991e-05
1.84025e-05
1.84042e-05
1.85031e-05
1.85258e-05
1.85572e-05
1.85952e-05
1.8638e-05
1.86839e-05
1.87316e-05
1.878e-05
1.88279e-05
1.88747e-05
1.89196e-05
1.89622e-05
1.9002e-05
1.9039e-05
1.90728e-05
1.91033e-05
1.91307e-05
1.91549e-05
1.9176e-05
1.91941e-05
1.92093e-05
1.92219e-05
1.92319e-05
1.92395e-05
1.9245e-05
1.92485e-05
1.92501e-05
1.93464e-05
1.93691e-05
1.94005e-05
1.94384e-05
1.94812e-05
1.95271e-05
1.95748e-05
1.96231e-05
1.9671e-05
1.97177e-05
1.97625e-05
1.9805e-05
1.98448e-05
1.98816e-05
1.99154e-05
1.99459e-05
1.99732e-05
1.99973e-05
2.00183e-05
2.00364e-05
2.00516e-05
2.00641e-05
2.0074e-05
2.00817e-05
2.00871e-05
2.00906e-05
2.00922e-05
2.01847e-05
2.02073e-05
2.02384e-05
2.02761e-05
2.03186e-05
2.03642e-05
2.04115e-05
2.04594e-05
2.05069e-05
2.05531e-05
2.05976e-05
2.06397e-05
2.06791e-05
2.07156e-05
2.0749e-05
2.07792e-05
2.08062e-05
2.08301e-05
2.08509e-05
2.08688e-05
2.08838e-05
2.08962e-05
2.0906e-05
2.09136e-05
2.0919e-05
2.09224e-05
2.0924e-05
2.10116e-05
2.10338e-05
2.10645e-05
2.11016e-05
2.11434e-05
2.11882e-05
2.12348e-05
2.12819e-05
2.13286e-05
2.13741e-05
2.14178e-05
2.14591e-05
2.14978e-05
2.15337e-05
2.15664e-05
2.15961e-05
2.16226e-05
2.1646e-05
2.16664e-05
2.16839e-05
2.16987e-05
2.17108e-05
2.17205e-05
2.17279e-05
2.17331e-05
2.17365e-05
2.17381e-05
2.18195e-05
2.18411e-05
2.1871e-05
2.19072e-05
2.1948e-05
2.19917e-05
2.2037e-05
2.20829e-05
2.21283e-05
2.21726e-05
2.22151e-05
2.22553e-05
2.22929e-05
2.23277e-05
2.23596e-05
2.23884e-05
2.24141e-05
2.24368e-05
2.24566e-05
2.24736e-05
2.24879e-05
2.24997e-05
2.2509e-05
2.25162e-05
2.25213e-05
2.25246e-05
2.25261e-05
2.26e-05
2.26209e-05
2.26498e-05
2.26846e-05
2.27239e-05
2.27659e-05
2.28096e-05
2.28537e-05
2.28974e-05
2.29399e-05
2.29807e-05
2.30194e-05
2.30555e-05
2.30889e-05
2.31194e-05
2.3147e-05
2.31717e-05
2.31935e-05
2.32125e-05
2.32287e-05
2.32424e-05
2.32537e-05
2.32626e-05
2.32695e-05
2.32744e-05
2.32775e-05
2.3279e-05
2.33443e-05
2.33641e-05
2.33916e-05
2.34247e-05
2.34619e-05
2.35019e-05
2.35433e-05
2.35851e-05
2.36265e-05
2.36668e-05
2.37054e-05
2.3742e-05
2.37762e-05
2.38077e-05
2.38366e-05
2.38627e-05
2.38859e-05
2.39065e-05
2.39244e-05
2.39397e-05
2.39526e-05
2.39632e-05
2.39717e-05
2.39782e-05
2.39828e-05
2.39857e-05
2.39871e-05
2.40428e-05
2.40614e-05
2.4087e-05
2.4118e-05
2.41527e-05
2.419e-05
2.42286e-05
2.42676e-05
2.43062e-05
2.43437e-05
2.43796e-05
2.44136e-05
2.44453e-05
2.44746e-05
2.45014e-05
2.45256e-05
2.45472e-05
2.45663e-05
2.45828e-05
2.4597e-05
2.4609e-05
2.46188e-05
2.46266e-05
2.46326e-05
2.46369e-05
2.46396e-05
2.46408e-05
2.46863e-05
2.47033e-05
2.47268e-05
2.47551e-05
2.4787e-05
2.48211e-05
2.48563e-05
2.48919e-05
2.49271e-05
2.49613e-05
2.49941e-05
2.5025e-05
2.50539e-05
2.50805e-05
2.51048e-05
2.51268e-05
2.51464e-05
2.51636e-05
2.51787e-05
2.51915e-05
2.52023e-05
2.52112e-05
2.52183e-05
2.52237e-05
2.52276e-05
2.523e-05
2.52312e-05
2.52662e-05
2.52814e-05
2.53024e-05
2.53278e-05
2.53562e-05
2.53866e-05
2.54181e-05
2.54498e-05
2.54812e-05
2.55116e-05
2.55407e-05
2.55681e-05
2.55937e-05
2.56173e-05
2.56389e-05
2.56583e-05
2.56756e-05
2.56909e-05
2.57041e-05
2.57155e-05
2.5725e-05
2.57328e-05
2.57391e-05
2.57438e-05
2.57472e-05
2.57494e-05
2.57504e-05
2.57754e-05
2.57887e-05
2.58069e-05
2.5829e-05
2.58537e-05
2.58801e-05
2.59073e-05
2.59348e-05
2.59619e-05
2.59881e-05
2.60132e-05
2.60369e-05
2.60589e-05
2.60792e-05
2.60977e-05
2.61144e-05
2.61292e-05
2.61423e-05
2.61536e-05
2.61633e-05
2.61715e-05
2.61782e-05
2.61835e-05
2.61875e-05
2.61904e-05
2.61923e-05
2.61932e-05
2.62092e-05
2.62203e-05
2.62357e-05
2.62542e-05
2.62749e-05
2.62971e-05
2.63199e-05
2.63429e-05
2.63655e-05
2.63874e-05
2.64083e-05
2.64279e-05
2.64462e-05
2.64631e-05
2.64784e-05
2.64922e-05
2.65044e-05
2.65152e-05
2.65246e-05
2.65326e-05
2.65393e-05
2.65448e-05
2.65492e-05
2.65525e-05
2.65549e-05
2.65564e-05
2.65571e-05
2.65657e-05
2.65748e-05
2.65872e-05
2.66022e-05
2.66189e-05
2.66367e-05
2.66551e-05
2.66735e-05
2.66917e-05
2.67092e-05
2.67258e-05
2.67415e-05
2.67561e-05
2.67695e-05
2.67816e-05
2.67925e-05
2.68022e-05
2.68108e-05
2.68181e-05
2.68244e-05
2.68297e-05
2.68341e-05
2.68375e-05
2.68401e-05
2.6842e-05
2.68432e-05
2.68437e-05
2.68471e-05
2.68541e-05
2.68636e-05
2.68752e-05
2.68881e-05
2.69017e-05
2.69158e-05
2.69299e-05
2.69438e-05
2.69571e-05
2.69698e-05
2.69817e-05
2.69927e-05
2.70028e-05
2.7012e-05