/*--------------------------------*- C++ -*----------------------------------*\
| =========                 |                                                 |
| \\      /  F ield         | OpenFOAM: The Open Source CFD Toolbox           |
|  \\    /   O peration     | Version:  2106                                  |
|   \\  /    A nd           | Website:  www.openfoam.com                      |
|    \\/     M anipulation  |                                                 |
\*---------------------------------------------------------------------------*/
FoamFile
{
    version     2.0;
    format      ascii;
    arch        "LSB;label=32;scalar=64";
    class       volScalarField;
    location    "110.00000";
    object      A2_0;
}
// * * * * * * * * * * * * * * * * * * * * * * * * * * * * * * * * * * * * * //

dimensions      [0 0 0 0 0 0 0];

internalField   nonuniform List<scalar> 
3360
(
7.30839e-20
7.54361e-20
7.87094e-20
8.27133e-20
8.7281e-20
9.22625e-20
9.75226e-20
1.02939e-19
1.08403e-19
1.13819e-19
1.19103e-19
1.24184e-19
1.29005e-19
1.33519e-19
1.3769e-19
1.41494e-19
1.44916e-19
1.47949e-19
1.50594e-19
1.52859e-19
1.54758e-19
1.56309e-19
1.57534e-19
1.58458e-19
1.59108e-19
1.59512e-19
1.597e-19
3.20613e-19
3.32399e-19
3.49031e-19
3.69744e-19
3.93902e-19
4.20953e-19
4.50402e-19
4.81798e-19
5.14718e-19
5.48765e-19
5.83557e-19
6.18722e-19
6.53895e-19
6.88713e-19
7.22821e-19
7.55869e-19
7.87514e-19
8.17424e-19
8.45281e-19
8.70787e-19
8.93667e-19
9.13679e-19
9.30617e-19
9.44316e-19
9.54655e-19
9.61559e-19
9.65001e-19
1.00602e-18
1.05018e-18
1.11293e-18
1.19178e-18
1.28467e-18
1.38973e-18
1.50521e-18
1.62936e-18
1.76042e-18
1.8966e-18
2.03605e-18
2.17696e-18
2.31752e-18
2.45595e-18
2.59051e-18
2.71957e-18
2.84162e-18
2.95529e-18
3.05941e-18
3.153e-18
3.2353e-18
3.30577e-18
3.36411e-18
3.41022e-18
3.44422e-18
3.46639e-18
3.47718e-18
2.93e-18
3.07556e-18
3.28378e-18
3.54722e-18
3.85966e-18
4.21525e-18
4.60818e-18
5.0324e-18
5.48156e-18
5.949e-18
6.42785e-18
6.91109e-18
7.39176e-18
7.86309e-18
8.31866e-18
8.75255e-18
9.15954e-18
9.53517e-18
9.87588e-18
1.0179e-17
1.04427e-17
1.06661e-17
1.08491e-17
1.09922e-17
1.10966e-17
1.11641e-17
1.11966e-17
8.56091e-18
9.02012e-18
9.67829e-18
1.05129e-17
1.1505e-17
1.26361e-17
1.38874e-17
1.52389e-17
1.66694e-17
1.81564e-17
1.96767e-17
2.12069e-17
2.2724e-17
2.42061e-17
2.56329e-17
2.69862e-17
2.82503e-17
2.94122e-17
3.04619e-17
3.13923e-17
3.2199e-17
3.28801e-17
3.34362e-17
3.38699e-17
3.41857e-17
3.43891e-17
3.44869e-17
2.52436e-17
2.66539e-17
2.86778e-17
3.12466e-17
3.43015e-17
3.77856e-17
4.16401e-17
4.58021e-17
5.02047e-17
5.47774e-17
5.94475e-17
6.41419e-17
6.87893e-17
7.33221e-17
7.76782e-17
8.18023e-17
8.56476e-17
8.91758e-17
9.23575e-17
9.51724e-17
9.76089e-17
9.9663e-17
1.01338e-16
1.02642e-16
1.0359e-16
1.042e-16
1.04493e-16
7.49911e-17
7.92769e-17
8.54269e-17
9.32331e-17
1.02516e-16
1.131e-16
1.24805e-16
1.37437e-16
1.50789e-16
1.64645e-16
1.78783e-16
1.92982e-16
2.07024e-16
2.20707e-16
2.33844e-16
2.46271e-16
2.57848e-16
2.68462e-16
2.78028e-16
2.86487e-16
2.93804e-16
2.99971e-16
3.04996e-16
3.08909e-16
3.11753e-16
3.13583e-16
3.14463e-16
2.23514e-16
2.36411e-16
2.54927e-16
2.78437e-16
3.06402e-16
3.38294e-16
3.73562e-16
4.1162e-16
4.51843e-16
4.93575e-16
5.36144e-16
5.78879e-16
6.21128e-16
6.62278e-16
7.0177e-16
7.3911e-16
7.73881e-16
8.05746e-16
8.34451e-16
8.59822e-16
8.8176e-16
9.0024e-16
9.15294e-16
9.27012e-16
9.35524e-16
9.40999e-16
9.4363e-16
6.6795e-16
7.06711e-16
7.62351e-16
8.32989e-16
9.16999e-16
1.01279e-15
1.11869e-15
1.23294e-15
1.35365e-15
1.47885e-15
1.60651e-15
1.73462e-15
1.86124e-15
1.98452e-15
2.10279e-15
2.21459e-15
2.31868e-15
2.41404e-15
2.49994e-15
2.57585e-15
2.64148e-15
2.69676e-15
2.7418e-15
2.77685e-15
2.80231e-15
2.81869e-15
2.82656e-15
1.99614e-15
2.11224e-15
2.27891e-15
2.49053e-15
2.74222e-15
3.02919e-15
3.34645e-15
3.68868e-15
4.05021e-15
4.42513e-15
4.80737e-15
5.19089e-15
5.56984e-15
5.93874e-15
6.29259e-15
6.62699e-15
6.93823e-15
7.22334e-15
7.48006e-15
7.70688e-15
7.90295e-15
8.06805e-15
8.20252e-15
8.30716e-15
8.38316e-15
8.43202e-15
8.45551e-15
5.96804e-15
6.31557e-15
6.81441e-15
7.44763e-15
8.20057e-15
9.05884e-15
1.00074e-14
1.10304e-14
1.21107e-14
1.32307e-14
1.43721e-14
1.55169e-14
1.66478e-14
1.77483e-14
1.88036e-14
1.98006e-14
2.07283e-14
2.1578e-14
2.23429e-14
2.30185e-14
2.36025e-14
2.40942e-14
2.44947e-14
2.48062e-14
2.50325e-14
2.5178e-14
2.52479e-14
1.7825e-14
1.88625e-14
2.03515e-14
2.22415e-14
2.44883e-14
2.70488e-14
2.98779e-14
3.29277e-14
3.61475e-14
3.94841e-14
4.28834e-14
4.62916e-14
4.96568e-14
5.29304e-14
5.60683e-14
5.90317e-14
6.17882e-14
6.43116e-14
6.65826e-14
6.8588e-14
7.03206e-14
7.1779e-14
7.29662e-14
7.38898e-14
7.45603e-14
7.49914e-14
7.51984e-14
5.31752e-14
5.62667e-14
6.07022e-14
6.63293e-14
7.30154e-14
8.06305e-14
8.90395e-14
9.80987e-14
1.07656e-13
1.17554e-13
1.2763e-13
1.37726e-13
1.47688e-13
1.57373e-13
1.6665e-13
1.75406e-13
1.83546e-13
1.90994e-13
1.97694e-13
2.03608e-13
2.08715e-13
2.13013e-13
2.1651e-13
2.1923e-13
2.21204e-13
2.22473e-13
2.23082e-13
1.58147e-13
1.67315e-13
1.80464e-13
1.97137e-13
2.16936e-13
2.39469e-13
2.64332e-13
2.91095e-13
3.19305e-13
3.48491e-13
3.78177e-13
4.07892e-13
4.37185e-13
4.65635e-13
4.92863e-13
5.18539e-13
5.42389e-13
5.64193e-13
5.8379e-13
6.01076e-13
6.15994e-13
6.28538e-13
6.38741e-13
6.46671e-13
6.52424e-13
6.5612e-13
6.57895e-13
4.6856e-13
4.95592e-13
5.34335e-13
5.83418e-13
6.41643e-13
7.07835e-13
7.80778e-13
8.59189e-13
9.41723e-13
1.02699e-12
1.11359e-12
1.20016e-12
1.28537e-12
1.36801e-12
1.447e-12
1.52139e-12
1.5904e-12
1.65342e-12
1.71e-12
1.75986e-12
1.80285e-12
1.83896e-12
1.86832e-12
1.89112e-12
1.90765e-12
1.91827e-12
1.92336e-12
1.37986e-12
1.45878e-12
1.57179e-12
1.71479e-12
1.8842e-12
2.07648e-12
2.28801e-12
2.51499e-12
2.75345e-12
2.99934e-12
3.24859e-12
3.49724e-12
3.74153e-12
3.97802e-12
4.20364e-12
4.41575e-12
4.6122e-12
4.79131e-12
4.95188e-12
5.09317e-12
5.21483e-12
5.31693e-12
5.39982e-12
5.46413e-12
5.51072e-12
5.54061e-12
5.55494e-12
4.03132e-12
4.25869e-12
4.58384e-12
4.99462e-12
5.48026e-12
6.03027e-12
6.63389e-12
7.27995e-12
7.95693e-12
8.65313e-12
9.35696e-12
1.00573e-11
1.07435e-11
1.14061e-11
1.20368e-11
1.26283e-11
1.3175e-11
1.36724e-11
1.41174e-11
1.45083e-11
1.48443e-11
1.51259e-11
1.53542e-11
1.55311e-11
1.56591e-11
1.57411e-11
1.57804e-11
1.1651e-11
1.22939e-11
1.32118e-11
1.43688e-11
1.5733e-11
1.72735e-11
1.89588e-11
2.07566e-11
2.2634e-11
2.45581e-11
2.64966e-11
2.84187e-11
3.02961e-11
3.21032e-11
3.38178e-11
3.54214e-11
3.68992e-11
3.82405e-11
3.94377e-11
4.04869e-11
4.13872e-11
4.21401e-11
4.27494e-11
4.3221e-11
4.35617e-11
4.37798e-11
4.38842e-11
3.32014e-11
3.49751e-11
3.75015e-11
4.06769e-11
4.44084e-11
4.86061e-11
5.31799e-11
5.80385e-11
6.30905e-11
6.82459e-11
7.3418e-11
7.85254e-11
8.34941e-11
8.82584e-11
9.27626e-11
9.69608e-11
1.00818e-10
1.04307e-10
1.07414e-10
1.1013e-10
1.12455e-10
1.14395e-10
1.15962e-10
1.17173e-10
1.18046e-10
1.18605e-10
1.18872e-10
9.28955e-11
9.7635e-11
1.04368e-10
1.128e-10
1.22668e-10
1.33719e-10
1.45701e-10
1.58367e-10
1.71471e-10
1.84776e-10
1.9806e-10
2.11115e-10
2.23759e-10
2.35831e-10
2.47197e-10
2.57752e-10
2.67414e-10
2.76128e-10
2.83862e-10
2.90605e-10
2.96363e-10
3.01157e-10
3.05022e-10
3.08003e-10
3.1015e-10
3.1152e-10
3.12174e-10
2.53973e-10
2.66153e-10
2.83401e-10
3.04915e-10
3.29974e-10
3.57892e-10
3.88001e-10
4.1965e-10
4.52214e-10
4.85099e-10
5.17757e-10
5.49693e-10
5.80473e-10
6.09728e-10
6.37158e-10
6.62529e-10
6.8567e-10
7.06472e-10
7.24879e-10
7.40882e-10
7.54513e-10
7.65837e-10
7.74949e-10
7.81962e-10
7.87007e-10
7.90222e-10
7.91755e-10
6.74789e-10
7.04698e-10
7.46907e-10
7.99328e-10
8.60085e-10
9.27409e-10
9.99609e-10
1.07507e-09
1.15228e-09
1.22981e-09
1.30641e-09
1.38094e-09
1.45243e-09
1.52007e-09
1.58324e-09
1.64144e-09
1.69434e-09
1.74174e-09
1.78356e-09
1.81983e-09
1.85064e-09
1.87619e-09
1.89671e-09
1.91247e-09
1.9238e-09
1.931e-09
1.93444e-09
1.73317e-09
1.80303e-09
1.9013e-09
2.02283e-09
2.163e-09
2.31751e-09
2.48232e-09
2.65364e-09
2.82798e-09
3.00218e-09
3.1734e-09
3.33923e-09
3.4976e-09
3.64686e-09
3.7857e-09
3.91319e-09
4.02871e-09
4.13193e-09
4.22275e-09
4.30133e-09
4.36795e-09
4.42309e-09
4.46729e-09
4.5012e-09
4.52552e-09
4.54099e-09
4.54834e-09
4.28438e-09
4.43944e-09
4.65688e-09
4.92478e-09
5.23243e-09
5.56999e-09
5.92832e-09
6.29904e-09
6.67453e-09
7.04803e-09
7.4136e-09
7.76621e-09
8.10172e-09
8.41682e-09
8.709e-09
8.9765e-09
9.21824e-09
9.43371e-09
9.6229e-09
9.78624e-09
9.92451e-09
1.00387e-08
1.01302e-08
1.02003e-08
1.02505e-08
1.02823e-08
1.02975e-08
1.01672e-08
1.0495e-08
1.09534e-08
1.15165e-08
1.21608e-08
1.28651e-08
1.36098e-08
1.43773e-08
1.51517e-08
1.59193e-08
1.66679e-08
1.73878e-08
1.80706e-08
1.87102e-08
1.93017e-08
1.9842e-08
2.03293e-08
2.07627e-08
2.11426e-08
2.14702e-08
2.1747e-08
2.19754e-08
2.21581e-08
2.22979e-08
2.2398e-08
2.24615e-08
2.24917e-08
2.31537e-08
2.38169e-08
2.4743e-08
2.58776e-08
2.71725e-08
2.85838e-08
3.00718e-08
3.16009e-08
3.31395e-08
3.46603e-08
3.614e-08
3.75593e-08
3.89027e-08
4.01584e-08
4.13176e-08
4.23747e-08
4.33264e-08
4.41719e-08
4.49121e-08
4.55493e-08
4.60875e-08
4.6531e-08
4.68855e-08
4.71566e-08
4.73505e-08
4.74735e-08
4.75319e-08
5.06817e-08
5.19759e-08
5.37805e-08
5.5988e-08
5.85027e-08
6.1238e-08
6.41163e-08
6.70682e-08
7.00328e-08
7.29577e-08
7.57987e-08
7.85194e-08
8.1091e-08
8.34912e-08
8.57043e-08
8.77201e-08
8.95332e-08
9.11423e-08
9.25498e-08
9.37607e-08
9.47824e-08
9.56242e-08
9.62964e-08
9.68103e-08
9.71778e-08
9.74108e-08
9.75214e-08
1.06937e-07
1.09389e-07
1.12807e-07
1.16983e-07
1.21735e-07
1.26898e-07
1.32324e-07
1.37882e-07
1.43458e-07
1.48954e-07
1.54286e-07
1.59388e-07
1.64207e-07
1.687e-07
1.72841e-07
1.7661e-07
1.79998e-07
1.83003e-07
1.85631e-07
1.87891e-07
1.89796e-07
1.91366e-07
1.92619e-07
1.93577e-07
1.94261e-07
1.94695e-07
1.94901e-07
2.18139e-07
2.22681e-07
2.29006e-07
2.36732e-07
2.45518e-07
2.55058e-07
2.6508e-07
2.7534e-07
2.85628e-07
2.95762e-07
3.05593e-07
3.14995e-07
3.23871e-07
3.32147e-07
3.39771e-07
3.46709e-07
3.52944e-07
3.58474e-07
3.63308e-07
3.67465e-07
3.70971e-07
3.73858e-07
3.76162e-07
3.77923e-07
3.79182e-07
3.7998e-07
3.80358e-07
4.30975e-07
4.39212e-07
4.50683e-07
4.64691e-07
4.8062e-07
4.97914e-07
5.16078e-07
5.34673e-07
5.53318e-07
5.71686e-07
5.89502e-07
6.06542e-07
6.22631e-07
6.37633e-07
6.51454e-07
6.64033e-07
6.75339e-07
6.85367e-07
6.94133e-07
7.01672e-07
7.0803e-07
7.13266e-07
7.17447e-07
7.20641e-07
7.22925e-07
7.24373e-07
7.2506e-07
8.24112e-07
8.38695e-07
8.59002e-07
8.83801e-07
9.12001e-07
9.42621e-07
9.74784e-07
1.00771e-06
1.04074e-06
1.07328e-06
1.10485e-06
1.13505e-06
1.16356e-06
1.19016e-06
1.21467e-06
1.23698e-06
1.25704e-06
1.27484e-06
1.2904e-06
1.30378e-06
1.31506e-06
1.32436e-06
1.33179e-06
1.33746e-06
1.34151e-06
1.34409e-06
1.34531e-06
1.51911e-06
1.54402e-06
1.57871e-06
1.62107e-06
1.66923e-06
1.72151e-06
1.77643e-06
1.83264e-06
1.88901e-06
1.94455e-06
1.99842e-06
2.04996e-06
2.09863e-06
2.14402e-06
2.18584e-06
2.22392e-06
2.25815e-06
2.28851e-06
2.31507e-06
2.3379e-06
2.35717e-06
2.37304e-06
2.38571e-06
2.39539e-06
2.40232e-06
2.40671e-06
2.40879e-06
2.68124e-06
2.72162e-06
2.77782e-06
2.84641e-06
2.92433e-06
3.00886e-06
3.09758e-06
3.18833e-06
3.27925e-06
3.36876e-06
3.45554e-06
3.5385e-06
3.61679e-06
3.68977e-06
3.75699e-06
3.81815e-06
3.87312e-06
3.92187e-06
3.96448e-06
4.00113e-06
4.03204e-06
4.0575e-06
4.07783e-06
4.09336e-06
4.10447e-06
4.11152e-06
4.11486e-06
4.50026e-06
4.56147e-06
4.64657e-06
4.75032e-06
4.86805e-06
4.9956e-06
5.12926e-06
5.2658e-06
5.40242e-06
5.53674e-06
5.66678e-06
5.79096e-06
5.90803e-06
6.01705e-06
6.11737e-06
6.20859e-06
6.29052e-06
6.36314e-06
6.4266e-06
6.48115e-06
6.52716e-06
6.56504e-06
6.59528e-06
6.6184e-06
6.63493e-06
6.64541e-06
6.65039e-06
7.1548e-06
7.24114e-06
7.36107e-06
7.50709e-06
7.67254e-06
7.8515e-06
8.03874e-06
8.2297e-06
8.42045e-06
8.60771e-06
8.78875e-06
8.96139e-06
9.12395e-06
9.27516e-06
9.41419e-06
9.54049e-06
9.65385e-06
9.75428e-06
9.842e-06
9.91739e-06
9.98094e-06
1.00333e-05
1.00751e-05
1.0107e-05
1.01298e-05
1.01443e-05
1.01512e-05
1.07786e-05
1.08925e-05
1.10506e-05
1.12429e-05
1.14604e-05
1.16954e-05
1.19409e-05
1.21908e-05
1.24402e-05
1.26846e-05
1.29206e-05
1.31453e-05
1.33567e-05
1.35532e-05
1.37337e-05
1.38975e-05
1.40445e-05
1.41747e-05
1.42883e-05
1.4386e-05
1.44683e-05
1.4536e-05
1.45901e-05
1.46315e-05
1.46611e-05
1.46799e-05
1.46888e-05
1.54438e-05
1.55858e-05
1.57829e-05
1.60222e-05
1.62927e-05
1.65846e-05
1.68891e-05
1.71988e-05
1.75073e-05
1.78094e-05
1.81008e-05
1.83781e-05
1.86387e-05
1.88807e-05
1.91028e-05
1.93044e-05
1.94852e-05
1.96452e-05
1.97849e-05
1.99049e-05
2.00061e-05
2.00893e-05
2.01558e-05
2.02067e-05
2.0243e-05
2.02661e-05
2.02771e-05
2.11628e-05
2.13322e-05
2.15669e-05
2.18518e-05
2.21736e-05
2.25204e-05
2.28819e-05
2.32492e-05
2.36149e-05
2.39727e-05
2.43175e-05
2.46454e-05
2.49534e-05
2.52392e-05
2.55015e-05
2.57395e-05
2.59528e-05
2.61415e-05
2.63063e-05
2.64478e-05
2.65671e-05
2.66654e-05
2.67438e-05
2.68038e-05
2.68467e-05
2.68739e-05
2.68869e-05
2.79021e-05
2.8097e-05
2.8367e-05
2.86946e-05
2.90644e-05
2.94627e-05
2.98777e-05
3.0299e-05
3.07182e-05
3.11281e-05
3.15229e-05
3.18982e-05
3.22505e-05
3.25774e-05
3.28773e-05
3.31493e-05
3.3393e-05
3.36087e-05
3.3797e-05
3.39587e-05
3.4095e-05
3.42072e-05
3.42968e-05
3.43653e-05
3.44144e-05
3.44455e-05
3.44603e-05
3.55983e-05
3.58167e-05
3.61192e-05
3.64861e-05
3.69e-05
3.73457e-05
3.78097e-05
3.82807e-05
3.87491e-05
3.92069e-05
3.96477e-05
4.00665e-05
4.04596e-05
4.08243e-05
4.11588e-05
4.1462e-05
4.17337e-05
4.19742e-05
4.2184e-05
4.23643e-05
4.25162e-05
4.26413e-05
4.27412e-05
4.28176e-05
4.28723e-05
4.2907e-05
4.29235e-05
4.41733e-05
4.44131e-05
4.47451e-05
4.51477e-05
4.56018e-05
4.60905e-05
4.65992e-05
4.71153e-05
4.76284e-05
4.81298e-05
4.86124e-05
4.90709e-05
4.95011e-05
4.99e-05
5.02659e-05
5.05976e-05
5.08948e-05
5.11577e-05
5.13872e-05
5.15842e-05
5.17504e-05
5.18872e-05
5.19964e-05
5.20799e-05
5.21397e-05
5.21777e-05
5.21958e-05
5.35441e-05
5.38032e-05
5.41619e-05
5.45968e-05
5.50871e-05
5.56147e-05
5.61638e-05
5.67207e-05
5.72742e-05
5.78149e-05
5.83353e-05
5.88296e-05
5.92932e-05
5.97232e-05
6.01174e-05
6.04747e-05
6.07949e-05
6.10781e-05
6.13252e-05
6.15375e-05
6.17164e-05
6.18637e-05
6.19814e-05
6.20714e-05
6.21358e-05
6.21767e-05
6.21961e-05
6.36293e-05
6.39058e-05
6.42885e-05
6.47525e-05
6.52755e-05
6.58381e-05
6.64235e-05
6.70172e-05
6.76071e-05
6.81832e-05
6.87375e-05
6.92639e-05
6.97577e-05
7.02155e-05
7.06351e-05
7.10155e-05
7.13563e-05
7.16577e-05
7.19207e-05
7.21466e-05
7.2337e-05
7.24937e-05
7.26189e-05
7.27147e-05
7.27832e-05
7.28267e-05
7.28474e-05
7.43527e-05
7.46448e-05
7.50491e-05
7.55391e-05
7.60915e-05
7.66856e-05
7.73036e-05
7.79303e-05
7.85528e-05
7.91607e-05
7.97456e-05
8.03008e-05
8.08215e-05
8.13043e-05
8.17467e-05
8.21477e-05
8.25069e-05
8.28247e-05
8.31019e-05
8.33399e-05
8.35406e-05
8.37058e-05
8.38377e-05
8.39386e-05
8.40108e-05
8.40567e-05
8.40785e-05
8.56444e-05
8.59505e-05
8.63743e-05
8.68877e-05
8.74664e-05
8.80888e-05
8.87361e-05
8.93923e-05
9.00441e-05
9.06804e-05
9.12926e-05
9.18737e-05
9.24185e-05
9.29236e-05
9.33865e-05
9.38059e-05
9.41816e-05
9.45139e-05
9.48038e-05
9.50528e-05
9.52626e-05
9.54353e-05
9.55732e-05
9.56788e-05
9.57543e-05
9.58022e-05
9.5825e-05
9.74418e-05
9.77606e-05
9.82017e-05
9.87362e-05
9.93385e-05
9.99862e-05
0.00010066
0.000101342
0.00010202
0.000102682
0.000103319
0.000103923
0.000104489
0.000105014
0.000105496
0.000105932
0.000106322
0.000106667
0.000106968
0.000107227
0.000107445
0.000107625
0.000107768
0.000107877
0.000107956
0.000108006
0.000108029
0.000109689
0.000110019
0.000110476
0.000111029
0.000111653
0.000112323
0.00011302
0.000113726
0.000114428
0.000115112
0.000115771
0.000116396
0.000116982
0.000117524
0.000118022
0.000118472
0.000118876
0.000119233
0.000119544
0.000119812
0.000120037
0.000120222
0.00012037
0.000120484
0.000120565
0.000120616
0.000120641
0.000122337
0.000122677
0.000123147
0.000123718
0.00012436
0.000125051
0.000125769
0.000126496
0.000127219
0.000127924
0.000128602
0.000129245
0.000129848
0.000130407
0.000130919
0.000131383
0.000131798
0.000132165
0.000132486
0.000132761
0.000132993
0.000133183
0.000133336
0.000133452
0.000133536
0.000133589
0.000133614
0.00013534
0.000135689
0.000136173
0.000136758
0.000137417
0.000138126
0.000138863
0.00013961
0.000140351
0.000141074
0.00014177
0.00014243
0.000143048
0.000143621
0.000144146
0.000144622
0.000145048
0.000145424
0.000145753
0.000146035
0.000146272
0.000146468
0.000146624
0.000146743
0.000146829
0.000146883
0.000146909
0.000148661
0.000149019
0.000149513
0.000150112
0.000150787
0.000151512
0.000152265
0.000153029
0.000153787
0.000154527
0.000155238
0.000155913
0.000156545
0.000157131
0.000157667
0.000158153
0.000158589
0.000158973
0.000159309
0.000159597
0.00015984
0.00016004
0.000160199
0.000160322
0.000160409
0.000160464
0.000160491
0.000162265
0.00016263
0.000163134
0.000163745
0.000164434
0.000165173
0.000165942
0.000166721
0.000167494
0.000168248
0.000168973
0.000169661
0.000170306
0.000170903
0.00017145
0.000171946
0.000172389
0.000172782
0.000173124
0.000173417
0.000173665
0.000173869
0.000174031
0.000174156
0.000174245
0.000174301
0.000174328
0.000176121
0.000176493
0.000177006
0.000177628
0.000178328
0.000179081
0.000179863
0.000180656
0.000181442
0.00018221
0.000182947
0.000183647
0.000184303
0.00018491
0.000185467
0.000185971
0.000186422
0.000186821
0.000187168
0.000187467
0.000187719
0.000187926
0.000188091
0.000188217
0.000188308
0.000188365
0.000188393
0.000190202
0.000190579
0.000191101
0.000191733
0.000192444
0.000193208
0.000194003
0.000194807
0.000195606
0.000196385
0.000197134
0.000197844
0.00019851
0.000199126
0.000199691
0.000200202
0.00020066
0.000201065
0.000201418
0.000201721
0.000201976
0.000202186
0.000202354
0.000202483
0.000202574
0.000202633
0.00020266
0.000204484
0.000204866
0.000205395
0.000206035
0.000206756
0.000207531
0.000208336
0.000209152
0.000209961
0.000210751
0.00021151
0.000212229
0.000212904
0.000213528
0.000214101
0.000214619
0.000215083
0.000215493
0.00021585
0.000216157
0.000216416
0.000216629
0.000216799
0.000216928
0.000217021
0.00021708
0.000217109
0.000218944
0.000219331
0.000219866
0.000220514
0.000221244
0.000222028
0.000222843
0.000223668
0.000224487
0.000225286
0.000226054
0.000226782
0.000227464
0.000228096
0.000228675
0.000229199
0.000229668
0.000230083
0.000230445
0.000230755
0.000231017
0.000231232
0.000231404
0.000231535
0.000231629
0.000231689
0.000231717
0.000233562
0.000233953
0.000234494
0.000235149
0.000235887
0.000236679
0.000237503
0.000238337
0.000239164
0.000239972
0.000240747
0.000241483
0.000242172
0.000242811
0.000243395
0.000243925
0.000244399
0.000244818
0.000245183
0.000245497
0.000245761
0.000245978
0.000246152
0.000246284
0.000246379
0.00024644
0.000246468
0.000248321
0.000248716
0.000249262
0.000249923
0.000250668
0.000251468
0.000252299
0.00025314
0.000253976
0.00025479
0.000255573
0.000256315
0.000257011
0.000257655
0.000258245
0.000258779
0.000259257
0.00025968
0.000260049
0.000260365
0.000260631
0.000260851
0.000261026
0.00026116
0.000261256
0.000261316
0.000261345
0.000263204
0.000263602
0.000264153
0.00026482
0.00026557
0.000266377
0.000267214
0.000268063
0.000268905
0.000269726
0.000270515
0.000271263
0.000271964
0.000272614
0.000273208
0.000273747
0.000274228
0.000274654
0.000275026
0.000275345
0.000275613
0.000275834
0.000276011
0.000276145
0.000276242
0.000276303
0.000276332
0.000278196
0.000278597
0.000279152
0.000279823
0.000280579
0.000281391
0.000282235
0.00028309
0.000283937
0.000284764
0.000285559
0.000286312
0.000287018
0.000287672
0.000288271
0.000288813
0.000289298
0.000289726
0.0002901
0.000290421
0.000290692
0.000290914
0.000291092
0.000291227
0.000291325
0.000291386
0.000291416
0.000293283
0.000293686
0.000294244
0.00029492
0.00029568
0.000296497
0.000297346
0.000298206
0.000299059
0.000299891
0.00030069
0.000301448
0.000302158
0.000302816
0.000303418
0.000303963
0.000304451
0.000304882
0.000305259
0.000305581
0.000305853
0.000306077
0.000306256
0.000306392
0.00030649
0.000306552
0.000306581
0.00030845
0.000308856
0.000309416
0.000310096
0.00031086
0.000311682
0.000312535
0.000313399
0.000314257
0.000315093
0.000315896
0.000316658
0.000317372
0.000318033
0.000318638
0.000319186
0.000319676
0.000320109
0.000320487
0.000320812
0.000321085
0.00032131
0.000321489
0.000321626
0.000321725
0.000321787
0.000321816
0.000323685
0.000324092
0.000324656
0.000325338
0.000326106
0.000326931
0.000327788
0.000328656
0.000329517
0.000330357
0.000331164
0.000331929
0.000332645
0.000333309
0.000333917
0.000334467
0.000334959
0.000335394
0.000335774
0.000336099
0.000336373
0.000336599
0.000336779
0.000336917
0.000337016
0.000337078
0.000337108
0.000338975
0.000339384
0.000339949
0.000340634
0.000341405
0.000342233
0.000343093
0.000343964
0.000344828
0.00034567
0.00034648
0.000347247
0.000347966
0.000348632
0.000349242
0.000349794
0.000350288
0.000350724
0.000351105
0.000351431
0.000351707
0.000351933
0.000352114
0.000352252
0.000352351
0.000352414
0.000352443
0.000354307
0.000354717
0.000355284
0.00035597
0.000356743
0.000357573
0.000358436
0.000359309
0.000360175
0.00036102
0.000361831
0.000362601
0.000363322
0.000363989
0.0003646
0.000365153
0.000365648
0.000366086
0.000366467
0.000366795
0.00036707
0.000367297
0.000367479
0.000367617
0.000367716
0.000367779
0.000367809
0.000369666
0.000370077
0.000370645
0.000371333
0.000372107
0.000372939
0.000373803
0.000374678
0.000375545
0.000376391
0.000377204
0.000377975
0.000378697
0.000379365
0.000379977
0.000380531
0.000381027
0.000381465
0.000381847
0.000382175
0.000382451
0.000382679
0.00038286
0.000382999
0.000383098
0.000383161
0.000383191
0.00038504
0.000385451
0.00038602
0.000386708
0.000387483
0.000388316
0.00038918
0.000390056
0.000390924
0.000391771
0.000392584
0.000393355
0.000394077
0.000394746
0.000395358
0.000395913
0.000396409
0.000396847
0.000397229
0.000397557
0.000397834
0.000398061
0.000398243
0.000398381
0.000398481
0.000398544
0.000398574
0.000400412
0.000400823
0.000401392
0.00040208
0.000402855
0.000403687
0.000404551
0.000405426
0.000406295
0.000407141
0.000407954
0.000408725
0.000409447
0.000410115
0.000410727
0.000411281
0.000411777
0.000412215
0.000412597
0.000412925
0.000413201
0.000413428
0.000413609
0.000413748
0.000413847
0.00041391
0.00041394
0.000415764
0.000416175
0.000416743
0.00041743
0.000418204
0.000419035
0.000419898
0.000420772
0.000421639
0.000422484
0.000423296
0.000424065
0.000424786
0.000425453
0.000426064
0.000426617
0.000427112
0.00042755
0.000427931
0.000428258
0.000428534
0.00042876
0.000428941
0.00042908
0.000429179
0.000429242
0.000429271
0.000431078
0.000431487
0.000432054
0.000432739
0.000433511
0.00043434
0.000435201
0.000436072
0.000436936
0.000437779
0.000438589
0.000439356
0.000440074
0.00044074
0.000441349
0.0004419
0.000442393
0.000442829
0.000443209
0.000443535
0.00044381
0.000444036
0.000444216
0.000444354
0.000444453
0.000444515
0.000444545
0.000446329
0.000446737
0.000447301
0.000447984
0.000448752
0.000449578
0.000450435
0.000451303
0.000452163
0.000453002
0.000453808
0.000454571
0.000455287
0.000455949
0.000456555
0.000457103
0.000457594
0.000458028
0.000458406
0.000458731
0.000459004
0.000459229
0.000459408
0.000459546
0.000459644
0.000459706
0.000459736
0.000461492
0.000461898
0.000462458
0.000463137
0.000463901
0.000464721
0.000465573
0.000466435
0.00046729
0.000468124
0.000468924
0.000469683
0.000470394
0.000471052
0.000471654
0.000472199
0.000472686
0.000473117
0.000473493
0.000473815
0.000474086
0.00047431
0.000474488
0.000474624
0.000474722
0.000474783
0.000474813
0.000476536
0.000476938
0.000477494
0.000478167
0.000478925
0.000479738
0.000480583
0.000481438
0.000482286
0.000483112
0.000483906
0.000484658
0.000485362
0.000486014
0.000486611
0.000487151
0.000487634
0.000488061
0.000488433
0.000488752
0.000489021
0.000489242
0.000489419
0.000489554
0.00048965
0.000489712
0.000489741
0.000491423
0.000491821
0.000492371
0.000493037
0.000493786
0.000494591
0.000495426
0.000496272
0.00049711
0.000497927
0.000498712
0.000499455
0.000500151
0.000500796
0.000501385
0.000501919
0.000502396
0.000502818
0.000503186
0.000503501
0.000503767
0.000503986
0.00050416
0.000504293
0.000504389
0.000504449
0.000504478
0.00050611
0.000506503
0.000507045
0.000507702
0.000508441
0.000509234
0.000510058
0.000510891
0.000511718
0.000512523
0.000513296
0.000514029
0.000514714
0.000515349
0.00051593
0.000516456
0.000516926
0.000517341
0.000517703
0.000518014
0.000518275
0.000518491
0.000518662
0.000518794
0.000518887
0.000518947
0.000518975
0.000520549
0.000520934
0.000521467
0.000522112
0.000522838
0.000523617
0.000524426
0.000525244
0.000526056
0.000526846
0.000527605
0.000528324
0.000528997
0.000529619
0.000530189
0.000530705
0.000531166
0.000531573
0.000531928
0.000532233
0.000532489
0.0005327
0.000532869
0.000532997
0.000533089
0.000533148
0.000533176
0.000534679
0.000535056
0.000535577
0.000536208
0.000536918
0.000537679
0.00053847
0.00053927
0.000540062
0.000540834
0.000541576
0.000542278
0.000542935
0.000543543
0.000544099
0.000544602
0.000545052
0.00054545
0.000545796
0.000546094
0.000546344
0.00054655
0.000546714
0.000546839
0.000546929
0.000546986
0.000547013
0.000548434
0.000548801
0.000549308
0.000549922
0.000550612
0.000551352
0.00055212
0.000552897
0.000553667
0.000554418
0.000555137
0.000555819
0.000556457
0.000557047
0.000557587
0.000558075
0.000558512
0.000558898
0.000559234
0.000559522
0.000559764
0.000559964
0.000560123
0.000560245
0.000560332
0.000560387
0.000560413
0.00056174
0.000562094
0.000562584
0.000563177
0.000563843
0.000564558
0.0005653
0.00056605
0.000566793
0.000567516
0.00056821
0.000568868
0.000569483
0.000570051
0.000570571
0.000571042
0.000571462
0.000571834
0.000572157
0.000572435
0.000572668
0.000572861
0.000573014
0.000573131
0.000573215
0.000573268
0.000573293
0.000574512
0.000574852
0.000575321
0.000575889
0.000576527
0.000577212
0.000577922
0.00057864
0.000579351
0.000580043
0.000580707
0.000581336
0.000581923
0.000582467
0.000582964
0.000583413
0.000583815
0.00058417
0.000584479
0.000584743
0.000584966
0.00058515
0.000585296
0.000585408
0.000585488
0.000585538
0.000585562
0.000586661
0.000586983
0.000587429
0.000587968
0.000588574
0.000589223
0.000589897
0.000590577
0.000591251
0.000591907
0.000592535
0.00059313
0.000593687
0.000594201
0.000594671
0.000595096
0.000595475
0.000595811
0.000596102
0.000596353
0.000596563
0.000596736
0.000596875
0.00059698
0.000597056
0.000597103
0.000597126
0.000598093
0.000598396
0.000598814
0.00059932
0.000599888
0.000600497
0.000601129
0.000601766
0.000602398
0.000603012
0.0006036
0.000604157
0.000604677
0.000605158
0.000605597
0.000605994
0.000606349
0.000606662
0.000606934
0.000607168
0.000607364
0.000607526
0.000607655
0.000607753
0.000607823
0.000607868
0.000607889
0.000608715
0.000608996
0.000609384
0.000609852
0.000610379
0.000610942
0.000611527
0.000612116
0.000612699
0.000613267
0.00061381
0.000614324
0.000614804
0.000615247
0.000615652
0.000616017
0.000616344
0.000616632
0.000616883
0.000617098
0.000617279
0.000617427
0.000617546
0.000617636
0.000617701
0.000617742
0.000617762
0.000618443
0.000618699
0.000619053
0.000619481
0.000619961
0.000620474
0.000621006
0.000621543
0.000622074
0.00062259
0.000623083
0.00062355
0.000623986
0.000624388
0.000624755
0.000625087
0.000625383
0.000625644
0.000625871
0.000626066
0.000626229
0.000626364
0.000626471
0.000626553
0.000626611
0.000626648
0.000626666
0.000627204
0.000627434
0.000627752
0.000628135
0.000628565
0.000629025
0.000629501
0.000629981
0.000630456
0.000630917
0.000631357
0.000631774
0.000632162
0.000632521
0.000632848
0.000633143
0.000633406
0.000633639
0.000633841
0.000634014
0.000634159
0.000634279
0.000634374
0.000634446
0.000634498
0.000634531
0.000634547
0.000634949
0.000635152
0.000635431
0.000635768
0.000636146
0.00063655
0.000636969
0.00063739
0.000637806
0.000638209
0.000638595
0.00063896
0.000639299
0.000639612
0.000639898
0.000640156
0.000640386
0.000640588
0.000640764
0.000640915
0.000641041
0.000641145
0.000641228
0.000641292
0.000641337
0.000641365
0.000641379
0.00064166
0.000641835
0.000642075
0.000642366
0.000642691
0.000643039
0.000643399
0.000643761
0.000644118
0.000644465
0.000644796
0.000645108
0.000645399
0.000645667
0.000645911
0.000646131
0.000646327
0.0006465
0.000646651
0.000646779
0.000646887
0.000646976
0.000647047
0.0006471
0.000647139
0.000647163
0.000647175
0.000647355
0.000647503
0.000647706
0.000647951
0.000648226
0.000648519
0.000648822
0.000649127
0.000649428
0.000649719
0.000649997
0.000650259
0.000650503
0.000650728
0.000650932
0.000651117
0.000651281
0.000651426
0.000651551
0.000651659
0.000651749
0.000651823
0.000651882
0.000651927
0.000651959
0.00065198
0.00065199
0.000652093
0.000652215
0.000652384
0.000652587
0.000652815
0.000653057
0.000653308
0.00065356
0.000653808
0.000654049
0.000654278
0.000654494
0.000654695
0.00065488
0.000655049
0.0006552
0.000655335
0.000655454
0.000655558
0.000655646
0.00065572
0.000655781
0.00065583
0.000655866
0.000655893
0.00065591
0.000655918
0.00065597
0.00065607
0.000656207
0.000656373
0.000656559
0.000656757
0.000656961
0.000657167
0.000657369
0.000657565
0.000657752
0.000657928
0.000658091
0.000658242
0.000658379
0.000658502
0.000658612
0.000658709
0.000658793
0.000658865
0.000658925
0.000658975
0.000659014
0.000659044
0.000659065
0.000659079
0.000659086
0.000659108
0.000659189
0.000659301
0.000659435
0.000659586
0.000659746
0.000659912
0.000660079
0.000660243
0.000660402
0.000660553
0.000660696
0.000660829
0.000660951
0.000661062
0.000661162
0.000661252
0.00066133
0.000661398
0.000661457
0.000661506
0.000661546
0.000661578
0.000661602
0.00066162
0.000661631
0.000661636
0.000661644
0.00066171
0.000661801
0.00066191
0.000662033
0.000662164
0.000662299
0.000662435
0.000662569
0.000662699
0.000662822
0.000662939
0.000663048
0.000663148
0.000663239