/*--------------------------------*- C++ -*----------------------------------*\
| =========                 |                                                 |
| \\      /  F ield         | OpenFOAM: The Open Source CFD Toolbox           |
|  \\    /   O peration     | Version:  2106                                  |
|   \\  /    A nd           | Website:  www.openfoam.com                      |
|    \\/     M anipulation  |                                                 |
\*---------------------------------------------------------------------------*/
FoamFile
{
    version     2.0;
    format      ascii;
    arch        "LSB;label=32;scalar=64";
    class       volScalarField;
    location    "110.00000";
    object      C2H3;
}
// * * * * * * * * * * * * * * * * * * * * * * * * * * * * * * * * * * * * * //

dimensions      [0 0 0 0 0 0 0];

internalField   nonuniform List<scalar> 
3360
(
7.57103e-20
7.81471e-20
8.15382e-20
8.56861e-20
9.04181e-20
9.55789e-20
1.01028e-19
1.06639e-19
1.123e-19
1.17911e-19
1.23385e-19
1.28649e-19
1.33644e-19
1.3832e-19
1.42641e-19
1.46582e-19
1.50127e-19
1.53269e-19
1.56009e-19
1.58355e-19
1.60323e-19
1.61929e-19
1.63198e-19
1.64156e-19
1.64829e-19
1.65248e-19
1.65443e-19
3.32142e-19
3.44353e-19
3.61583e-19
3.83041e-19
4.08069e-19
4.36094e-19
4.66604e-19
4.99129e-19
5.33234e-19
5.68507e-19
6.04551e-19
6.40983e-19
6.77422e-19
7.13493e-19
7.48829e-19
7.83066e-19
8.1585e-19
8.46837e-19
8.75697e-19
9.0212e-19
9.25824e-19
9.46557e-19
9.64105e-19
9.78297e-19
9.89007e-19
9.9616e-19
9.99726e-19
1.04224e-18
1.08799e-18
1.153e-18
1.23469e-18
1.33092e-18
1.43977e-18
1.55941e-18
1.68803e-18
1.82382e-18
1.9649e-18
2.10939e-18
2.25538e-18
2.401e-18
2.54441e-18
2.68383e-18
2.81754e-18
2.94399e-18
3.06176e-18
3.16963e-18
3.26659e-18
3.35185e-18
3.42487e-18
3.48531e-18
3.53308e-18
3.56831e-18
3.59127e-18
3.60246e-18
3.03562e-18
3.18643e-18
3.40216e-18
3.67511e-18
3.99882e-18
4.36725e-18
4.77436e-18
5.21389e-18
5.67926e-18
6.16358e-18
6.6597e-18
7.16039e-18
7.65841e-18
8.14676e-18
8.61877e-18
9.06833e-18
9.49001e-18
9.8792e-18
1.02322e-17
1.05462e-17
1.08195e-17
1.1051e-17
1.12406e-17
1.13888e-17
1.1497e-17
1.15669e-17
1.16006e-17
8.87e-18
9.34581e-18
1.00278e-17
1.08926e-17
1.19205e-17
1.30924e-17
1.4389e-17
1.57894e-17
1.72716e-17
1.88124e-17
2.03877e-17
2.19732e-17
2.35451e-17
2.50808e-17
2.65592e-17
2.79614e-17
2.92712e-17
3.04752e-17
3.15629e-17
3.25269e-17
3.33627e-17
3.40684e-17
3.46447e-17
3.50941e-17
3.54213e-17
3.5632e-17
3.57334e-17
2.61565e-17
2.76179e-17
2.97151e-17
3.23769e-17
3.55424e-17
3.91527e-17
4.31467e-17
4.74595e-17
5.20215e-17
5.67598e-17
6.1599e-17
6.64635e-17
7.12792e-17
7.59762e-17
8.04901e-17
8.47637e-17
8.87482e-17
9.24042e-17
9.57011e-17
9.86181e-17
1.01143e-16
1.03271e-16
1.05007e-16
1.06358e-16
1.07341e-16
1.07973e-16
1.08277e-16
7.77081e-17
8.21493e-17
8.85224e-17
9.66117e-17
1.06231e-16
1.172e-16
1.29329e-16
1.42419e-16
1.56255e-16
1.70614e-16
1.85265e-16
1.99979e-16
2.14531e-16
2.2871e-16
2.42324e-16
2.55202e-16
2.67199e-16
2.78198e-16
2.88111e-16
2.96877e-16
3.0446e-16
3.1085e-16
3.16058e-16
3.20114e-16
3.23061e-16
3.24957e-16
3.25868e-16
2.31627e-16
2.44992e-16
2.64181e-16
2.88546e-16
3.17526e-16
3.50577e-16
3.87127e-16
4.26568e-16
4.68252e-16
5.11501e-16
5.55617e-16
5.99905e-16
6.43689e-16
6.86335e-16
7.27263e-16
7.6596e-16
8.01995e-16
8.35019e-16
8.64767e-16
8.91059e-16
9.13795e-16
9.32947e-16
9.48549e-16
9.60692e-16
9.69514e-16
9.75188e-16
9.77915e-16
6.92239e-16
7.32411e-16
7.90075e-16
8.63284e-16
9.50351e-16
1.04963e-15
1.15939e-15
1.2778e-15
1.4029e-15
1.53265e-15
1.66496e-15
1.79774e-15
1.92896e-15
2.05673e-15
2.17931e-15
2.29518e-15
2.40305e-15
2.50189e-15
2.59091e-15
2.66958e-15
2.73761e-15
2.7949e-15
2.84158e-15
2.8779e-15
2.90429e-15
2.92127e-15
2.92942e-15
2.06886e-15
2.18919e-15
2.36194e-15
2.58127e-15
2.84213e-15
3.13956e-15
3.46839e-15
3.82309e-15
4.19781e-15
4.5864e-15
4.98257e-15
5.38007e-15
5.77284e-15
6.15518e-15
6.52192e-15
6.86851e-15
7.1911e-15
7.4866e-15
7.75268e-15
7.98776e-15
8.19098e-15
8.3621e-15
8.50146e-15
8.60991e-15
8.68868e-15
8.73932e-15
8.76366e-15
6.18588e-15
6.5461e-15
7.06314e-15
7.71948e-15
8.4999e-15
9.38951e-15
1.03727e-14
1.1433e-14
1.25528e-14
1.37136e-14
1.48966e-14
1.60833e-14
1.72554e-14
1.83961e-14
1.94898e-14
2.05232e-14
2.14848e-14
2.23654e-14
2.31582e-14
2.38585e-14
2.44638e-14
2.49735e-14
2.53885e-14
2.57114e-14
2.59459e-14
2.60967e-14
2.61691e-14
1.8477e-14
1.95524e-14
2.10959e-14
2.30549e-14
2.53838e-14
2.80379e-14
3.09703e-14
3.41316e-14
3.7469e-14
4.09274e-14
4.44509e-14
4.79835e-14
5.14716e-14
5.48647e-14
5.8117e-14
6.11886e-14
6.40456e-14
6.6661e-14
6.90148e-14
7.10932e-14
7.2889e-14
7.44005e-14
7.5631e-14
7.65882e-14
7.72831e-14
7.77298e-14
7.79444e-14
5.51253e-14
5.83299e-14
6.29277e-14
6.87605e-14
7.56911e-14
8.35846e-14
9.23009e-14
1.01691e-13
1.11598e-13
1.21857e-13
1.32301e-13
1.42765e-13
1.53091e-13
1.63128e-13
1.72744e-13
1.81819e-13
1.90256e-13
1.97975e-13
2.04919e-13
2.11048e-13
2.16341e-13
2.20794e-13
2.24419e-13
2.27237e-13
2.29283e-13
2.30597e-13
2.31229e-13
1.63968e-13
1.73471e-13
1.87101e-13
2.04384e-13
2.24906e-13
2.48263e-13
2.74034e-13
3.01774e-13
3.31013e-13
3.61263e-13
3.92031e-13
4.22828e-13
4.53187e-13
4.82672e-13
5.1089e-13
5.37499e-13
5.62214e-13
5.84809e-13
6.05117e-13
6.23028e-13
6.38486e-13
6.51483e-13
6.62054e-13
6.70269e-13
6.7623e-13
6.80059e-13
6.81897e-13
4.85905e-13
5.13925e-13
5.54084e-13
6.0496e-13
6.6531e-13
7.33916e-13
8.09516e-13
8.90781e-13
9.76317e-13
1.06468e-12
1.15443e-12
1.24413e-12
1.33242e-12
1.41805e-12
1.49989e-12
1.57696e-12
1.64846e-12
1.71374e-12
1.77236e-12
1.824e-12
1.86853e-12
1.90594e-12
1.93634e-12
1.95995e-12
1.97707e-12
1.98806e-12
1.99333e-12
1.43148e-12
1.51328e-12
1.63041e-12
1.77862e-12
1.95418e-12
2.15344e-12
2.37264e-12
2.60782e-12
2.85489e-12
3.10963e-12
3.36784e-12
3.6254e-12
3.87843e-12
4.12336e-12
4.35701e-12
4.57666e-12
4.78007e-12
4.96551e-12
5.13173e-12
5.27798e-12
5.4039e-12
5.50956e-12
5.59532e-12
5.66185e-12
5.71004e-12
5.74095e-12
5.75577e-12
4.18519e-12
4.42082e-12
4.75777e-12
5.1834e-12
5.68656e-12
6.25634e-12
6.88158e-12
7.55069e-12
8.25172e-12
8.97256e-12
9.70119e-12
1.0426e-11
1.11363e-11
1.18219e-11
1.24744e-11
1.30863e-11
1.36517e-11
1.4166e-11
1.46261e-11
1.50301e-11
1.53774e-11
1.56683e-11
1.59041e-11
1.60867e-11
1.62189e-11
1.63035e-11
1.63441e-11
1.21133e-11
1.27794e-11
1.37303e-11
1.49287e-11
1.63415e-11
1.79365e-11
1.96809e-11
2.15412e-11
2.34833e-11
2.54731e-11
2.74771e-11
2.94637e-11
3.14034e-11
3.32699e-11
3.50402e-11
3.66954e-11
3.82203e-11
3.96037e-11
4.08381e-11
4.19194e-11
4.28468e-11
4.36221e-11
4.42492e-11
4.47341e-11
4.50844e-11
4.53084e-11
4.54155e-11
3.46165e-11
3.64542e-11
3.90711e-11
4.23587e-11
4.62205e-11
5.05624e-11
5.52907e-11
6.03103e-11
6.55265e-11
7.0846e-11
7.61791e-11
8.14419e-11
8.65582e-11
9.14606e-11
9.6092e-11
1.00406e-10
1.04365e-10
1.07946e-10
1.1113e-10
1.13912e-10
1.16291e-10
1.18274e-10
1.19875e-10
1.2111e-10
1.22e-10
1.22568e-10
1.22839e-10
9.73673e-11
1.02282e-10
1.09259e-10
1.17989e-10
1.28197e-10
1.39614e-10
1.51979e-10
1.65032e-10
1.78518e-10
1.9219e-10
2.0582e-10
2.19195e-10
2.32128e-10
2.44456e-10
2.56044e-10
2.66787e-10
2.76604e-10
2.85443e-10
2.93274e-10
3.00088e-10
3.05896e-10
3.10721e-10
3.14603e-10
3.17589e-10
3.19735e-10
3.21101e-10
3.21751e-10
2.68642e-10
2.81318e-10
2.99245e-10
3.21568e-10
3.47519e-10
3.76362e-10
4.07389e-10
4.3991e-10
4.7327e-10
5.06851e-10
5.40088e-10
5.72476e-10
6.0358e-10
6.33033e-10
6.60544e-10
6.85891e-10
7.08919e-10
7.29535e-10
7.47702e-10
7.63428e-10
7.76764e-10
7.87793e-10
7.96624e-10
8.03386e-10
8.08224e-10
8.1129e-10
8.12744e-10
7.23796e-10
7.55268e-10
7.99588e-10
8.54473e-10
9.17861e-10
9.87806e-10
1.06246e-09
1.14007e-09
1.219e-09
1.29777e-09
1.37506e-09
1.44972e-09
1.52079e-09
1.58751e-09
1.6493e-09
1.70575e-09
1.7566e-09
1.80175e-09
1.84121e-09
1.87509e-09
1.90359e-09
1.92697e-09
1.94554e-09
1.95964e-09
1.96965e-09
1.97594e-09
1.97889e-09
1.89134e-09
1.96681e-09
2.07268e-09
2.20314e-09
2.35293e-09
2.51714e-09
2.69117e-09
2.87075e-09
3.05199e-09
3.23144e-09
3.40608e-09
3.57338e-09
3.73132e-09
3.87833e-09
4.01328e-09
4.13547e-09
4.24453e-09
4.34045e-09
4.42344e-09
4.49396e-09
4.55262e-09
4.60019e-09
4.6375e-09
4.66546e-09
4.68503e-09
4.69713e-09
4.70273e-09
4.74166e-09
4.91706e-09
5.16276e-09
5.46499e-09
5.81141e-09
6.19067e-09
6.5923e-09
7.00675e-09
7.42546e-09
7.84087e-09
8.24651e-09
8.63692e-09
9.00768e-09
9.35529e-09
9.67713e-09
9.97136e-09
1.02369e-08
1.04731e-08
1.068e-08
1.08582e-08
1.10084e-08
1.11318e-08
1.123e-08
1.13047e-08
1.13576e-08
1.13907e-08
1.14063e-08
1.12985e-08
1.16911e-08
1.22417e-08
1.29205e-08
1.37015e-08
1.45611e-08
1.5478e-08
1.64331e-08
1.74093e-08
1.83913e-08
1.93655e-08
2.03196e-08
2.12426e-08
2.21246e-08
2.29568e-08
2.37316e-08
2.44428e-08
2.50856e-08
2.5657e-08
2.61556e-08
2.65812e-08
2.69354e-08
2.72207e-08
2.74404e-08
2.75987e-08
2.76997e-08
2.7748e-08
2.59658e-08
2.67968e-08
2.79571e-08
2.93769e-08
3.09912e-08
3.27361e-08
3.45481e-08
3.63644e-08
3.81243e-08
3.97722e-08
4.12614e-08
4.25568e-08
4.36381e-08
4.44994e-08
4.51481e-08
4.56025e-08
4.58877e-08
4.60326e-08
4.60671e-08
4.60202e-08
4.59181e-08
4.57845e-08
4.56396e-08
4.55005e-08
4.53814e-08
4.52936e-08
4.52463e-08
5.72327e-08
5.83889e-08
5.98984e-08
6.15751e-08
6.32489e-08
6.47774e-08
6.60545e-08
6.70156e-08
6.7635e-08
6.79195e-08
6.78983e-08
6.76142e-08
6.71159e-08
6.64528e-08
6.56715e-08
6.48134e-08
6.39155e-08
6.30101e-08
6.21253e-08
6.12849e-08
6.05091e-08
5.98148e-08
5.92158e-08
5.87231e-08
5.83456e-08
5.80898e-08
5.79605e-08
9.35244e-08
9.38951e-08
9.42975e-08
9.46191e-08
9.47738e-08
9.4707e-08
9.43881e-08
9.38134e-08
9.29994e-08
9.19754e-08
9.07784e-08
8.94481e-08
8.80245e-08
8.65454e-08
8.50458e-08
8.35573e-08
8.21077e-08
8.07218e-08
7.94208e-08
7.82231e-08
7.71444e-08
7.61978e-08
7.5394e-08
7.47417e-08
7.42473e-08
7.39154e-08
7.37489e-08
1.21973e-07
1.22099e-07
1.22197e-07
1.22197e-07
1.22048e-07
1.21715e-07
1.21182e-07
1.20452e-07
1.19537e-07
1.1846e-07
1.17247e-07
1.15928e-07
1.14535e-07
1.13095e-07
1.11638e-07
1.10192e-07
1.08779e-07
1.07423e-07
1.06145e-07
1.04962e-07
1.03891e-07
1.02947e-07
1.02141e-07
1.01483e-07
1.00983e-07
1.00646e-07
1.00476e-07
1.49907e-07
1.50474e-07
1.51203e-07
1.52e-07
1.52789e-07
1.5351e-07
1.54124e-07
1.54605e-07
1.54942e-07
1.55133e-07
1.55183e-07
1.55104e-07
1.54908e-07
1.54611e-07
1.5423e-07
1.53781e-07
1.53284e-07
1.52756e-07
1.52215e-07
1.51678e-07
1.51162e-07
1.50683e-07
1.50254e-07
1.49888e-07
1.49599e-07
1.49396e-07
1.49291e-07
1.82672e-07
1.84229e-07
1.8636e-07
1.88905e-07
1.91733e-07
1.9473e-07
1.97807e-07
2.00892e-07
2.03929e-07
2.06875e-07
2.09695e-07
2.12366e-07
2.14871e-07
2.17186e-07
2.19297e-07
2.21195e-07
2.22876e-07
2.24339e-07
2.25591e-07
2.26638e-07
2.27493e-07
2.28169e-07
2.28684e-07
2.29055e-07
2.29303e-07
2.29448e-07
2.29511e-07
2.23486e-07
2.26372e-07
2.30388e-07
2.35296e-07
2.40895e-07
2.46998e-07
2.53442e-07
2.60087e-07
2.66812e-07
2.7351e-07
2.80089e-07
2.86469e-07
2.9258e-07
2.98363e-07
3.03768e-07
3.08757e-07
3.133e-07
3.17378e-07
3.20981e-07
3.24107e-07
3.26763e-07
3.28961e-07
3.3072e-07
3.32066e-07
3.33027e-07
3.33633e-07
3.33919e-07
2.75015e-07
2.79204e-07
2.8505e-07
2.92215e-07
3.00406e-07
3.09363e-07
3.18852e-07
3.2867e-07
3.38633e-07
3.4858e-07
3.58369e-07
3.67875e-07
3.76991e-07
3.85627e-07
3.93708e-07
4.01178e-07
4.07992e-07
4.14121e-07
4.19551e-07
4.24278e-07
4.28309e-07
4.31662e-07
4.34362e-07
4.36442e-07
4.37938e-07
4.38892e-07
4.39349e-07
3.36156e-07
3.41129e-07
3.48061e-07
3.56542e-07
3.66214e-07
3.76758e-07
3.87889e-07
3.99357e-07
4.1094e-07
4.22446e-07
4.33708e-07
4.44585e-07
4.54958e-07
4.64731e-07
4.7383e-07
4.82197e-07
4.89794e-07
4.966e-07
5.02606e-07
5.07817e-07
5.12249e-07
5.15928e-07
5.18884e-07
5.21159e-07
5.22794e-07
5.23837e-07
5.24336e-07
4.01244e-07
4.06279e-07
4.13278e-07
4.21805e-07
4.31481e-07
4.41967e-07
4.52965e-07
4.64215e-07
4.75494e-07
4.8661e-07
4.97405e-07
5.07749e-07
5.17536e-07
5.26688e-07
5.35145e-07
5.42868e-07
5.49833e-07
5.56034e-07
5.61475e-07
5.66171e-07
5.70145e-07
5.73428e-07
5.76057e-07
5.78072e-07
5.79515e-07
5.80432e-07
5.80867e-07
4.6243e-07
4.66899e-07
4.73088e-07
4.80593e-07
4.89058e-07
4.98171e-07
5.0766e-07
5.17291e-07
5.26868e-07
5.3623e-07
5.45246e-07
5.53813e-07
5.61854e-07
5.69314e-07
5.76156e-07
5.82358e-07
5.87915e-07
5.9283e-07
5.97117e-07
6.00796e-07
6.03895e-07
6.06444e-07
6.08476e-07
6.10027e-07
6.11135e-07
6.11837e-07
6.1217e-07
5.13329e-07
5.16881e-07
5.21782e-07
5.27696e-07
5.34328e-07
5.41422e-07
5.48755e-07
5.56142e-07
5.63432e-07
5.70502e-07
5.77256e-07
5.83625e-07
5.89557e-07
5.95019e-07
5.99993e-07
6.04471e-07
6.08458e-07
6.11964e-07
6.15004e-07
6.176e-07
6.19776e-07
6.21558e-07
6.22973e-07
6.2405e-07
6.24817e-07
6.25302e-07
6.25531e-07
5.5106e-07
5.53626e-07
5.57152e-07
5.61388e-07
5.66112e-07
5.71132e-07
5.76288e-07
5.81444e-07
5.86494e-07
5.91355e-07
5.95965e-07
6.00278e-07
6.04266e-07
6.07913e-07
6.1121e-07
6.1416e-07
6.16769e-07
6.1905e-07
6.21018e-07
6.2269e-07
6.24084e-07
6.25221e-07
6.26121e-07
6.26803e-07
6.27288e-07
6.27593e-07
6.27737e-07
5.75927e-07
5.77615e-07
5.79928e-07
5.82693e-07
5.85758e-07
5.88994e-07
5.92293e-07
5.95568e-07
5.98749e-07
6.01787e-07
6.04643e-07
6.07293e-07
6.09723e-07
6.11927e-07
6.13905e-07
6.1566e-07
6.17202e-07
6.1854e-07
6.19686e-07
6.20654e-07
6.21457e-07
6.22108e-07
6.2262e-07
6.23007e-07
6.23281e-07
6.23452e-07
6.23533e-07
5.90017e-07
5.91012e-07
5.92367e-07
5.93977e-07
5.95748e-07
5.97601e-07
5.99471e-07
6.01307e-07
6.03071e-07
6.04734e-07
6.06278e-07
6.07693e-07
6.08974e-07
6.10119e-07
6.11133e-07
6.12022e-07
6.12792e-07
6.13452e-07
6.1401e-07
6.14476e-07
6.14857e-07
6.15163e-07
6.15402e-07
6.1558e-07
6.15705e-07
6.15782e-07
6.15818e-07
5.95938e-07
5.96422e-07
5.97076e-07
5.97842e-07
5.98671e-07
5.99522e-07
6.00362e-07
6.01166e-07
6.01917e-07
6.02604e-07
6.03221e-07
6.03766e-07
6.0424e-07
6.04646e-07
6.0499e-07
6.05277e-07
6.05514e-07
6.05706e-07
6.0586e-07
6.0598e-07
6.06073e-07
6.06143e-07
6.06194e-07
6.06229e-07
6.06252e-07
6.06266e-07
6.06271e-07
5.96086e-07
5.96214e-07
5.96378e-07
5.96556e-07
5.96732e-07
5.9689e-07
5.97019e-07
5.97114e-07
5.97171e-07
5.97191e-07
5.97176e-07
5.9713e-07
5.97059e-07
5.96966e-07
5.96858e-07
5.96741e-07
5.9662e-07
5.96498e-07
5.96381e-07
5.9627e-07
5.9617e-07
5.96082e-07
5.96008e-07
5.95948e-07
5.95903e-07
5.95873e-07
5.95858e-07
5.92369e-07
5.92257e-07
5.92091e-07
5.91876e-07
5.91614e-07
5.91308e-07
5.90963e-07
5.90586e-07
5.90183e-07
5.89761e-07
5.89329e-07
5.88893e-07
5.88461e-07
5.88041e-07
5.87636e-07
5.87254e-07
5.86898e-07
5.86571e-07
5.86276e-07
5.86014e-07
5.85788e-07
5.85596e-07
5.85439e-07
5.85317e-07
5.85227e-07
5.85169e-07
5.85141e-07
5.86191e-07
5.85922e-07
5.85542e-07
5.8507e-07
5.84522e-07
5.83916e-07
5.83264e-07
5.82581e-07
5.81881e-07
5.81174e-07
5.80473e-07
5.79787e-07
5.79125e-07
5.78494e-07
5.779e-07
5.77348e-07
5.76841e-07
5.76383e-07
5.75974e-07
5.75616e-07
5.75309e-07
5.75051e-07
5.74842e-07
5.74679e-07
5.74561e-07
5.74485e-07
5.74448e-07
5.78531e-07
5.78162e-07
5.77646e-07
5.77012e-07
5.76285e-07
5.75489e-07
5.74645e-07
5.73771e-07
5.72884e-07
5.72e-07
5.71132e-07
5.7029e-07
5.69484e-07
5.68723e-07
5.68011e-07
5.67353e-07
5.66754e-07
5.66214e-07
5.65735e-07
5.65317e-07
5.6496e-07
5.64661e-07
5.64419e-07
5.64231e-07
5.64095e-07
5.64008e-07
5.63965e-07
5.70047e-07
5.69618e-07
5.6902e-07
5.68287e-07
5.67452e-07
5.66542e-07
5.65582e-07
5.64593e-07
5.63595e-07
5.62605e-07
5.61637e-07
5.60702e-07
5.59812e-07
5.58973e-07
5.58191e-07
5.57472e-07
5.56817e-07
5.5623e-07
5.55709e-07
5.55256e-07
5.54868e-07
5.54545e-07
5.54284e-07
5.54081e-07
5.53934e-07
5.5384e-07
5.53795e-07
5.61172e-07
5.60709e-07
5.60064e-07
5.59276e-07
5.5838e-07
5.57405e-07
5.5638e-07
5.55327e-07
5.54267e-07
5.53219e-07
5.52195e-07
5.5121e-07
5.50273e-07
5.49392e-07
5.48573e-07
5.4782e-07
5.47136e-07
5.46522e-07
5.45979e-07
5.45507e-07
5.45103e-07
5.44767e-07
5.44494e-07
5.44284e-07
5.44131e-07
5.44033e-07
5.43986e-07
5.52184e-07
5.51703e-07
5.51035e-07
5.50219e-07
5.49293e-07
5.48287e-07
5.47229e-07
5.46146e-07
5.45057e-07
5.43981e-07
5.42932e-07
5.41924e-07
5.40966e-07
5.40066e-07
5.39229e-07
5.38461e-07
5.37764e-07
5.37139e-07
5.36586e-07
5.36105e-07
5.35694e-07
5.35352e-07
5.35075e-07
5.3486e-07
5.34705e-07
5.34605e-07
5.34557e-07
5.43255e-07
5.42768e-07
5.42091e-07
5.41266e-07
5.40329e-07
5.39313e-07
5.38246e-07
5.37153e-07
5.36056e-07
5.34973e-07
5.33918e-07
5.32904e-07
5.31941e-07
5.31037e-07
5.30197e-07
5.29426e-07
5.28726e-07
5.28099e-07
5.27545e-07
5.27062e-07
5.2665e-07
5.26307e-07
5.26029e-07
5.25814e-07
5.25658e-07
5.25557e-07
5.25509e-07
5.34489e-07
5.34003e-07
5.33328e-07
5.32505e-07
5.31571e-07
5.30558e-07
5.29495e-07
5.28408e-07
5.27316e-07
5.26238e-07
5.25189e-07
5.24181e-07
5.23224e-07
5.22325e-07
5.21491e-07
5.20725e-07
5.2003e-07
5.19407e-07
5.18856e-07
5.18376e-07
5.17967e-07
5.17625e-07
5.17349e-07
5.17135e-07
5.1698e-07
5.1688e-07
5.16832e-07
5.25948e-07
5.25467e-07
5.24799e-07
5.23986e-07
5.23063e-07
5.22062e-07
5.21012e-07
5.19938e-07
5.1886e-07
5.17796e-07
5.1676e-07
5.15766e-07
5.14821e-07
5.13935e-07
5.13111e-07
5.12355e-07
5.11669e-07
5.11054e-07
5.1051e-07
5.10036e-07
5.09632e-07
5.09294e-07
5.09021e-07
5.08809e-07
5.08655e-07
5.08557e-07
5.08509e-07
5.17661e-07
5.17189e-07
5.16533e-07
5.15733e-07
5.14826e-07
5.13843e-07
5.12812e-07
5.11757e-07
5.10698e-07
5.09652e-07
5.08635e-07
5.07658e-07
5.0673e-07
5.05859e-07
5.0505e-07
5.04307e-07
5.03633e-07
5.03028e-07
5.02493e-07
5.02027e-07
5.01629e-07
5.01296e-07
5.01027e-07
5.00819e-07
5.00667e-07
5.0057e-07
5.00523e-07
5.09644e-07
5.09182e-07
5.08539e-07
5.07756e-07
5.06868e-07
5.05906e-07
5.04897e-07
5.03863e-07
5.02827e-07
5.01803e-07
5.00807e-07
4.9985e-07
4.98942e-07
4.98088e-07
4.97296e-07
4.96568e-07
4.95906e-07
4.95313e-07
4.94788e-07
4.94331e-07
4.9394e-07
4.93614e-07
4.9335e-07
4.93145e-07
4.92996e-07
4.929e-07
4.92854e-07
5.01898e-07
5.01447e-07
5.00819e-07
5.00055e-07
4.99187e-07
4.98247e-07
4.97261e-07
4.96252e-07
4.95239e-07
4.94239e-07
4.93266e-07
4.92331e-07
4.91442e-07
4.90608e-07
4.89833e-07
4.8912e-07
4.88473e-07
4.87893e-07
4.87379e-07
4.86931e-07
4.86548e-07
4.86228e-07
4.85969e-07
4.85768e-07
4.85622e-07
4.85528e-07
4.85482e-07
4.94419e-07
4.93978e-07
4.93366e-07
4.9262e-07
4.91775e-07
4.90858e-07
4.89896e-07
4.88911e-07
4.87923e-07
4.86947e-07
4.85997e-07
4.85084e-07
4.84217e-07
4.83402e-07
4.82645e-07
4.81949e-07
4.81316e-07
4.80748e-07
4.80246e-07
4.79808e-07
4.79433e-07
4.79119e-07
4.78865e-07
4.78668e-07
4.78525e-07
4.78433e-07
4.78388e-07
4.87196e-07
4.86766e-07
4.8617e-07
4.85444e-07
4.84619e-07
4.83726e-07
4.82788e-07
4.81828e-07
4.80865e-07
4.79913e-07
4.78987e-07
4.78096e-07
4.7725e-07
4.76454e-07
4.75715e-07
4.75035e-07
4.74417e-07
4.73862e-07
4.73371e-07
4.72942e-07
4.72576e-07
4.72269e-07
4.72021e-07
4.71827e-07
4.71687e-07
4.71597e-07
4.71553e-07
4.80217e-07
4.79799e-07
4.79218e-07
4.78511e-07
4.77707e-07
4.76837e-07
4.75923e-07
4.74988e-07
4.74049e-07
4.73121e-07
4.72218e-07
4.71349e-07
4.70524e-07
4.69748e-07
4.69026e-07
4.68362e-07
4.67759e-07
4.67217e-07
4.66736e-07
4.66317e-07
4.65959e-07
4.65659e-07
4.65415e-07
4.65226e-07
4.65089e-07
4.65e-07
4.64957e-07
4.73469e-07
4.73062e-07
4.72496e-07
4.71807e-07
4.71024e-07
4.70176e-07
4.69286e-07
4.68375e-07
4.67459e-07
4.66555e-07
4.65674e-07
4.64827e-07
4.64021e-07
4.63264e-07
4.6256e-07
4.61912e-07
4.61322e-07
4.60793e-07
4.60323e-07
4.59913e-07
4.59563e-07
4.59269e-07
4.59031e-07
4.58846e-07
4.58711e-07
4.58624e-07
4.58582e-07
4.66935e-07
4.66538e-07
4.65987e-07
4.65316e-07
4.64554e-07
4.63727e-07
4.6286e-07
4.61971e-07
4.61079e-07
4.60197e-07
4.59338e-07
4.58511e-07
4.57725e-07
4.56986e-07
4.56298e-07
4.55665e-07
4.55089e-07
4.54572e-07
4.54113e-07
4.53712e-07
4.53369e-07
4.53082e-07
4.52849e-07
4.52667e-07
4.52535e-07
4.5245e-07
4.52409e-07
4.60599e-07
4.60212e-07
4.59675e-07
4.59021e-07
4.58278e-07
4.57472e-07
4.56626e-07
4.5576e-07
4.54889e-07
4.54029e-07
4.5319e-07
4.52384e-07
4.51616e-07
4.50894e-07
4.50222e-07
4.49604e-07
4.49041e-07
4.48535e-07
4.48086e-07
4.47694e-07
4.47358e-07
4.47077e-07
4.46848e-07
4.46671e-07
4.46542e-07
4.46458e-07
4.46418e-07
4.54442e-07
4.54066e-07
4.53542e-07
4.52903e-07
4.52178e-07
4.51392e-07
4.50567e-07
4.49721e-07
4.48871e-07
4.48031e-07
4.47213e-07
4.46424e-07
4.45675e-07
4.44969e-07
4.44312e-07
4.43708e-07
4.43157e-07
4.42662e-07
4.42222e-07
4.41839e-07
4.4151e-07
4.41234e-07
4.4101e-07
4.40836e-07
4.40709e-07
4.40627e-07
4.40588e-07
4.48446e-07
4.48078e-07
4.47567e-07
4.46943e-07
4.46236e-07
4.45468e-07
4.44661e-07
4.43835e-07
4.43005e-07
4.42184e-07
4.41383e-07
4.40613e-07
4.3988e-07
4.39189e-07
4.38547e-07
4.37955e-07
4.37415e-07
4.3693e-07
4.365e-07
4.36124e-07
4.35801e-07
4.35531e-07
4.35312e-07
4.35141e-07
4.35016e-07
4.34936e-07
4.34897e-07
4.42588e-07
4.42229e-07
4.41729e-07
4.41119e-07
4.40427e-07
4.39676e-07
4.38888e-07
4.38079e-07
4.37267e-07
4.36463e-07
4.3568e-07
4.34925e-07
4.34207e-07
4.33531e-07
4.32901e-07
4.32321e-07
4.31793e-07
4.31317e-07
4.30895e-07
4.30526e-07
4.30209e-07
4.29944e-07
4.29728e-07
4.2956e-07
4.29438e-07
4.29359e-07
4.29321e-07
4.36845e-07
4.36493e-07
4.36003e-07
4.35406e-07
4.34728e-07
4.33993e-07
4.3322e-07
4.32428e-07
4.31632e-07
4.30844e-07
4.30076e-07
4.29336e-07
4.28632e-07
4.27968e-07
4.2735e-07
4.26781e-07
4.26262e-07
4.25795e-07
4.2538e-07
4.25017e-07
4.24706e-07
4.24445e-07
4.24233e-07
4.24068e-07
4.23947e-07
4.23869e-07
4.23832e-07
4.31189e-07
4.30843e-07
4.30363e-07
4.29777e-07
4.29112e-07
4.2839e-07
4.27631e-07
4.26853e-07
4.26071e-07
4.25298e-07
4.24543e-07
4.23816e-07
4.23123e-07
4.22471e-07
4.21863e-07
4.21303e-07
4.20793e-07
4.20333e-07
4.19924e-07
4.19567e-07
4.19261e-07
4.19004e-07
4.18794e-07
4.18632e-07
4.18513e-07
4.18436e-07
4.18399e-07
4.25588e-07
4.25248e-07
4.24776e-07
4.24199e-07
4.23545e-07
4.22834e-07
4.22088e-07
4.21322e-07
4.20552e-07
4.1979e-07
4.19047e-07
4.1833e-07
4.17648e-07
4.17005e-07
4.16406e-07
4.15853e-07
4.15349e-07
4.14896e-07
4.14493e-07
4.1414e-07
4.13837e-07
4.13583e-07
4.13377e-07
4.13216e-07
4.13098e-07
4.13022e-07
4.12986e-07
4.20007e-07
4.19672e-07
4.19205e-07
4.18637e-07
4.1799e-07
4.17289e-07
4.16552e-07
4.15796e-07
4.15035e-07
4.14282e-07
4.13547e-07
4.12839e-07
4.12165e-07
4.11529e-07
4.10936e-07
4.10389e-07
4.09891e-07
4.09442e-07
4.09043e-07
4.08694e-07
4.08394e-07
4.08142e-07
4.07937e-07
4.07778e-07
4.07661e-07
4.07586e-07
4.0755e-07
4.14403e-07
4.14071e-07
4.13608e-07
4.13045e-07
4.12405e-07
4.11709e-07
4.10978e-07
4.10229e-07
4.09474e-07
4.08728e-07
4.07999e-07
4.07296e-07
4.06627e-07
4.05995e-07
4.05407e-07
4.04864e-07
4.04369e-07
4.03922e-07
4.03526e-07
4.03179e-07
4.02881e-07
4.0263e-07
4.02427e-07
4.02268e-07
4.02152e-07
4.02077e-07
4.02041e-07
4.08725e-07
4.08394e-07
4.07934e-07
4.07373e-07
4.06735e-07
4.06043e-07
4.05315e-07
4.04568e-07
4.03816e-07
4.03072e-07
4.02346e-07
4.01645e-07
4.00977e-07
4.00348e-07
3.99761e-07
3.99219e-07
3.98724e-07
3.98279e-07
3.97883e-07
3.97536e-07
3.97238e-07
3.96988e-07
3.96785e-07
3.96626e-07
3.9651e-07
3.96435e-07
3.96399e-07
4.02913e-07
4.02582e-07
4.02121e-07
4.01559e-07
4.00921e-07
4.00228e-07
3.99498e-07
3.9875e-07
3.97997e-07
3.97251e-07
3.96522e-07
3.9582e-07
3.9515e-07
3.94518e-07
3.93929e-07
3.93386e-07
3.92889e-07
3.92442e-07
3.92044e-07
3.91696e-07
3.91397e-07
3.91146e-07
3.90941e-07
3.90782e-07
3.90665e-07
3.9059e-07
3.90554e-07
3.96895e-07
3.96562e-07
3.96098e-07
3.95532e-07
3.94888e-07
3.94189e-07
3.93453e-07
3.92699e-07
3.91939e-07
3.91186e-07
3.90451e-07
3.89741e-07
3.89065e-07
3.88427e-07
3.87832e-07
3.87283e-07
3.86781e-07
3.86329e-07
3.85927e-07
3.85575e-07
3.85273e-07
3.85019e-07
3.84812e-07
3.84651e-07
3.84533e-07
3.84457e-07
3.8442e-07
3.90588e-07
3.90249e-07
3.89778e-07
3.89203e-07
3.88549e-07
3.87839e-07
3.87091e-07
3.86324e-07
3.85551e-07
3.84786e-07
3.84038e-07
3.83316e-07
3.82628e-07
3.81979e-07
3.81373e-07
3.80814e-07
3.80303e-07
3.79843e-07
3.79433e-07
3.79075e-07
3.78766e-07
3.78508e-07
3.78297e-07
3.78132e-07
3.78012e-07
3.77935e-07
3.77897e-07
3.8389e-07
3.83543e-07
3.8306e-07
3.82471e-07
3.81801e-07
3.81072e-07
3.80306e-07
3.79519e-07
3.78726e-07
3.77941e-07
3.77174e-07
3.76433e-07
3.75727e-07
3.7506e-07
3.74438e-07
3.73863e-07
3.73339e-07
3.72866e-07
3.72446e-07
3.72077e-07
3.7176e-07
3.71494e-07
3.71278e-07
3.71109e-07
3.70985e-07
3.70905e-07
3.70867e-07
3.76683e-07
3.76324e-07
3.75825e-07
3.75215e-07
3.74521e-07
3.73767e-07
3.72974e-07
3.72159e-07
3.71338e-07
3.70525e-07
3.69729e-07
3.68962e-07
3.6823e-07
3.67539e-07
3.66894e-07
3.66298e-07
3.65754e-07
3.65264e-07
3.64828e-07
3.64446e-07
3.64117e-07
3.63841e-07
3.63617e-07
3.63441e-07
3.63313e-07
3.6323e-07
3.6319e-07
3.68829e-07
3.68454e-07
3.67932e-07
3.67294e-07
3.66569e-07
3.6578e-07
3.6495e-07
3.64098e-07
3.63239e-07
3.62387e-07
3.61555e-07
3.60751e-07
3.59985e-07
3.59261e-07
3.58586e-07
3.57962e-07
3.57393e-07
3.56879e-07
3.56422e-07
3.56022e-07
3.55677e-07
3.55388e-07
3.55153e-07
3.54969e-07
3.54835e-07
3.54748e-07
3.54706e-07
3.60168e-07
3.59771e-07
3.5922e-07
3.58546e-07
3.57779e-07
3.56946e-07
3.56069e-07
3.55167e-07
3.54259e-07
3.53358e-07
3.52478e-07
3.51628e-07
3.50817e-07
3.50052e-07
3.49337e-07
3.48677e-07
3.48074e-07
3.47531e-07
3.47047e-07
3.46624e-07
3.46259e-07
3.45954e-07
3.45705e-07
3.4551e-07
3.45368e-07
3.45277e-07
3.45232e-07
3.50517e-07
3.50094e-07
3.49505e-07
3.48786e-07
3.47968e-07
3.47078e-07
3.46141e-07
3.45178e-07
3.44208e-07
3.43246e-07
3.42305e-07
3.41397e-07
3.4053e-07
3.39712e-07
3.38948e-07
3.38243e-07
3.37599e-07
3.37018e-07
3.36501e-07
3.36049e-07
3.3566e-07
3.35333e-07
3.35067e-07
3.3486e-07
3.34708e-07
3.3461e-07
3.34563e-07
3.39676e-07
3.39221e-07
3.38586e-07
3.37811e-07
3.36928e-07
3.35969e-07
3.34959e-07
3.33921e-07
3.32875e-07
3.31837e-07
3.30823e-07
3.29844e-07
3.28909e-07
3.28027e-07
3.27203e-07
3.26443e-07
3.25749e-07
3.25123e-07
3.24566e-07
3.24078e-07
3.23659e-07
3.23306e-07
3.2302e-07
3.22796e-07
3.22633e-07
3.22527e-07
3.22476e-07
3.27427e-07
3.26932e-07
3.26243e-07
3.254e-07
3.24442e-07
3.23399e-07
3.22301e-07
3.21173e-07
3.20037e-07
3.18909e-07
3.17807e-07
3.16743e-07
3.15728e-07
3.1477e-07
3.13875e-07
3.13049e-07
3.12295e-07
3.11615e-07
3.11011e-07
3.10481e-07
3.10026e-07
3.09644e-07
3.09333e-07
3.0909e-07
3.08914e-07
3.08799e-07
3.08744e-07
3.13546e-07
3.13005e-07
3.12251e-07
3.1133e-07
3.10282e-07
3.09143e-07
3.07943e-07
3.0671e-07
3.05468e-07
3.04237e-07
3.03033e-07
3.01871e-07
3.00762e-07
2.99716e-07
2.98739e-07
2.97838e-07
2.97015e-07
2.96273e-07
2.95614e-07
2.95036e-07
2.9454e-07
2.94123e-07
2.93784e-07
2.9352e-07
2.93327e-07
2.93202e-07
2.93142e-07
2.97817e-07
2.97223e-07
2.96396e-07
2.95387e-07
2.94238e-07
2.92989e-07
2.91674e-07
2.90323e-07
2.88962e-07
2.87613e-07
2.86294e-07
2.85022e-07
2.83809e-07
2.82664e-07
2.81596e-07
2.8061e-07
2.7971e-07
2.789e-07
2.78179e-07
2.77548e-07
2.77006e-07
2.76551e-07
2.76181e-07
2.75893e-07
2.75682e-07
2.75546e-07
2.7548e-07
2.80058e-07
2.79406e-07
2.78499e-07
2.77392e-07
2.76133e-07
2.74764e-07
2.73323e-07
2.71844e-07
2.70354e-07
2.68878e-07
2.67436e-07
2.66045e-07
2.64718e-07
2.63468e-07
2.62301e-07
2.61225e-07
2.60243e-07
2.59359e-07
2.58573e-07
2.57885e-07
2.57294e-07
2.56799e-07
2.56396e-07
2.56082e-07
2.55853e-07
2.55705e-07
2.55633e-07
2.6015e-07
2.59438e-07
2.58448e-07
2.57239e-07
2.55864e-07
2.54371e-07
2.528e-07
2.51188e-07
2.49565e-07
2.47958e-07
2.46389e-07
2.44876e-07
2.43434e-07
2.42076e-07
2.40809e-07
2.39641e-07
2.38577e-07
2.37618e-07
2.36766e-07
2.36021e-07
2.35382e-07
2.34846e-07
2.3441e-07
2.3407e-07
2.33822e-07
2.33662e-07
2.33585e-07
2.38087e-07
2.37316e-07
2.36243e-07
2.34935e-07
2.33448e-07
2.31833e-07
2.30137e-07
2.28396e-07
2.26646e-07
2.24913e-07
2.23223e-07
2.21595e-07
2.20045e-07
2.18585e-07
2.17225e-07
2.15972e-07
2.1483e-07
2.13802e-07
2.1289e-07
2.12093e-07
2.11409e-07
2.10835e-07
2.10369e-07
2.10006e-07
2.09741e-07
2.0957e-07
2.09488e-07
2.14021e-07
2.13197e-07
2.12052e-07
2.10655e-07
2.0907e-07
2.0735e-07
2.05543e-07
2.03692e-07
2.01833e-07
1.99994e-07
1.98203e-07
1.96478e-07
1.94838e-07
1.93295e-07
1.91858e-07
1.90536e-07
1.89332e-07
1.88249e-07
1.87289e-07
1.8645e-07
1.85731e-07
1.85128e-07
1.84639e-07
1.84258e-07
1.8398e-07
1.83801e-07
1.83714e-07
1.88318e-07
1.87455e-07
1.86255e-07
1.84794e-07
1.83137e-07
1.81342e-07
1.79459e-07
1.77532e-07
1.75598e-07
1.73689e-07
1.7183e-07
1.70044e-07
1.68348e-07
1.66753e-07
1.65271e-07
1.63908e-07
1.62668e-07
1.61555e-07
1.60568e-07
1.59707e-07
1.58969e-07
1.58351e-07
1.5785e-07
1.5746e-07
1.57176e-07
1.56993e-07
1.56904e-07
1.61592e-07
1.60711e-07
1.59488e-07
1.58e-07
1.56314e-07
1.54491e-07
1.52581e-07
1.50629e-07
1.48675e-07
1.46748e-07
1.44876e-07
1.4308e-07
1.41377e-07
1.39779e-07
1.38295e-07
1.36933e-07
1.35696e-07
1.34586e-07
1.33604e-07
1.32747e-07
1.32015e-07
1.31402e-07
1.30904e-07
1.30518e-07
1.30237e-07
1.30056e-07
1.29968e-07
1.34711e-07
1.33841e-07
1.32636e-07
1.31171e-07
1.29514e-07
1.27725e-07
1.25855e-07
1.23948e-07
1.22043e-07
1.20169e-07
1.18352e-07
1.16612e-07
1.14965e-07
1.13424e-07
1.11995e-07
1.10686e-07
1.09499e-07
1.08437e-07
1.07497e-07
1.06679e-07
1.0598e-07
1.05397e-07
1.04924e-07
1.04556e-07
1.04289e-07
1.04117e-07
1.04034e-07
1.08742e-07
1.07918e-07
1.06778e-07
1.05395e-07
1.03835e-07
1.02153e-07
1.004e-07
9.86172e-08
9.684e-08
9.5097e-08
9.34118e-08
9.18025e-08
9.02833e-08
8.88645e-08
8.75533e-08
8.63543e-08
8.52699e-08
8.43006e-08
8.34455e-08
8.27026e-08
8.20687e-08
8.15401e-08
8.11123e-08
8.07806e-08
8.05399e-08
8.03849e-08
8.03101e-08
8.48244e-08
8.40827e-08
8.30572e-08
8.1816e-08
8.04186e-08
7.89172e-08
7.73567e-08
7.57749e-08
7.42031e-08
7.26669e-08
7.11864e-08
6.97773e-08
6.84515e-08
6.72171e-08
6.60798e-08
6.50429e-08
6.41077e-08
6.3274e-08
6.25403e-08
6.19043e-08
6.13629e-08
6.09122e-08
6.05483e-08
6.02665e-08
6.00624e-08
5.99311e-08
5.98679e-08
6.39825e-08
6.33518e-08
6.24815e-08
6.14307e-08
6.02512e-08
5.89883e-08
5.76803e-08
5.63595e-08
5.50522e-08
5.37796e-08
5.25582e-08
5.14003e-08
5.03151e-08
4.93086e-08
4.83848e-08