/*--------------------------------*- C++ -*----------------------------------*\
| =========                 |                                                 |
| \\      /  F ield         | OpenFOAM: The Open Source CFD Toolbox           |
|  \\    /   O peration     | Version:  2106                                  |
|   \\  /    A nd           | Website:  www.openfoam.com                      |
|    \\/     M anipulation  |                                                 |
\*---------------------------------------------------------------------------*/
FoamFile
{
    version     2.0;
    format      ascii;
    arch        "LSB;label=32;scalar=64";
    class       volScalarField;
    location    "110.00000";
    object      C2H4;
}
// * * * * * * * * * * * * * * * * * * * * * * * * * * * * * * * * * * * * * //

dimensions      [0 0 0 0 0 0 0];

internalField   nonuniform List<scalar> 
3360
(
3.31506e-19
3.42175e-19
3.57023e-19
3.75185e-19
3.95904e-19
4.185e-19
4.42359e-19
4.66928e-19
4.91713e-19
5.16278e-19
5.40246e-19
5.63296e-19
5.85163e-19
6.05638e-19
6.24559e-19
6.41814e-19
6.57334e-19
6.7109e-19
6.83088e-19
6.93362e-19
7.01976e-19
7.0901e-19
7.14567e-19
7.18759e-19
7.21707e-19
7.23542e-19
7.24393e-19
1.45429e-18
1.50775e-18
1.58319e-18
1.67714e-18
1.78672e-18
1.90943e-18
2.04301e-18
2.18541e-18
2.33474e-18
2.48917e-18
2.64699e-18
2.8065e-18
2.96604e-18
3.12397e-18
3.27869e-18
3.42859e-18
3.57213e-18
3.7078e-18
3.83416e-18
3.94985e-18
4.05363e-18
4.14441e-18
4.22124e-18
4.28338e-18
4.33027e-18
4.36159e-18
4.3772e-18
4.56328e-18
4.76358e-18
5.04821e-18
5.40587e-18
5.82719e-18
6.30375e-18
6.82755e-18
7.39068e-18
7.98517e-18
8.60286e-18
9.23543e-18
9.8746e-18
1.05122e-17
1.114e-17
1.17504e-17
1.23358e-17
1.28894e-17
1.34051e-17
1.38773e-17
1.43018e-17
1.46751e-17
1.49948e-17
1.52594e-17
1.54686e-17
1.56228e-17
1.57234e-17
1.57723e-17
1.32903e-17
1.39506e-17
1.48951e-17
1.609e-17
1.75072e-17
1.91202e-17
2.09024e-17
2.28267e-17
2.4864e-17
2.69843e-17
2.91563e-17
3.13483e-17
3.35286e-17
3.56665e-17
3.77329e-17
3.97011e-17
4.15471e-17
4.3251e-17
4.47964e-17
4.61712e-17
4.73674e-17
4.83808e-17
4.92108e-17
4.986e-17
5.03337e-17
5.06396e-17
5.07871e-17
3.88317e-17
4.09147e-17
4.39001e-17
4.7686e-17
5.21858e-17
5.73163e-17
6.29922e-17
6.91228e-17
7.56114e-17
8.23564e-17
8.92523e-17
9.61931e-17
1.03075e-16
1.09797e-16
1.16269e-16
1.22407e-16
1.28141e-16
1.33412e-16
1.38173e-16
1.42393e-16
1.46052e-16
1.49142e-16
1.51664e-16
1.53632e-16
1.55064e-16
1.55986e-16
1.5643e-16
1.14503e-16
1.209e-16
1.3008e-16
1.41732e-16
1.55589e-16
1.71393e-16
1.88876e-16
2.07755e-16
2.27725e-16
2.48466e-16
2.69649e-16
2.90942e-16
3.12023e-16
3.32583e-16
3.52342e-16
3.71049e-16
3.88491e-16
4.04494e-16
4.18926e-16
4.31694e-16
4.42746e-16
4.52063e-16
4.59659e-16
4.65575e-16
4.69875e-16
4.72643e-16
4.73973e-16
3.40153e-16
3.59593e-16
3.87489e-16
4.22897e-16
4.65003e-16
5.13013e-16
5.66105e-16
6.234e-16
6.83963e-16
7.46814e-16
8.10944e-16
8.75347e-16
9.39042e-16
1.00111e-15
1.06069e-15
1.11706e-15
1.16957e-15
1.21772e-15
1.26111e-15
1.29948e-15
1.33267e-15
1.36064e-15
1.38343e-15
1.40118e-15
1.41408e-15
1.42238e-15
1.42637e-15
1.01384e-15
1.07234e-15
1.15632e-15
1.26296e-15
1.38981e-15
1.53447e-15
1.69444e-15
1.86707e-15
2.04951e-15
2.2388e-15
2.43189e-15
2.62573e-15
2.81737e-15
3.00402e-15
3.18315e-15
3.35253e-15
3.51024e-15
3.65478e-15
3.78498e-15
3.90006e-15
3.99957e-15
4.08339e-15
4.15168e-15
4.20483e-15
4.24344e-15
4.26827e-15
4.28021e-15
3.02975e-15
3.20556e-15
3.45794e-15
3.77834e-15
4.1594e-15
4.59389e-15
5.07426e-15
5.59249e-15
6.14002e-15
6.70789e-15
7.28695e-15
7.86805e-15
8.44235e-15
9.00153e-15
9.53801e-15
1.00451e-14
1.05172e-14
1.09498e-14
1.13394e-14
1.16837e-14
1.19814e-14
1.22322e-14
1.24365e-14
1.25955e-14
1.2711e-14
1.27852e-14
1.28209e-14
9.05425e-15
9.58084e-15
1.03369e-14
1.12967e-14
1.24384e-14
1.374e-14
1.51791e-14
1.67314e-14
1.83712e-14
2.00718e-14
2.18056e-14
2.35452e-14
2.52641e-14
2.69374e-14
2.85424e-14
3.00592e-14
3.14709e-14
3.27641e-14
3.39286e-14
3.49574e-14
3.58467e-14
3.65956e-14
3.72056e-14
3.76802e-14
3.80249e-14
3.82465e-14
3.83531e-14
2.70702e-14
2.86465e-14
3.09092e-14
3.37814e-14
3.71966e-14
4.10896e-14
4.53924e-14
5.00323e-14
5.49325e-14
6.00124e-14
6.51896e-14
7.03825e-14
7.55119e-14
8.05037e-14
8.52903e-14
8.98126e-14
9.40207e-14
9.78745e-14
1.01344e-13
1.04409e-13
1.07058e-13
1.09288e-13
1.11104e-13
1.12517e-13
1.13544e-13
1.14204e-13
1.14521e-13
8.08512e-14
8.55571e-14
9.23114e-14
1.00884e-13
1.11075e-13
1.22689e-13
1.35521e-13
1.49355e-13
1.63959e-13
1.79094e-13
1.94512e-13
2.09972e-13
2.25236e-13
2.40084e-13
2.54317e-13
2.67759e-13
2.80262e-13
2.91708e-13
3.02008e-13
3.11104e-13
3.18963e-13
3.25578e-13
3.30963e-13
3.35152e-13
3.38194e-13
3.40149e-13
3.41088e-13
2.41193e-13
2.55216e-13
2.75335e-13
3.00858e-13
3.31185e-13
3.65726e-13
4.03868e-13
4.44959e-13
4.8831e-13
5.33203e-13
5.78908e-13
6.24702e-13
6.69888e-13
7.13815e-13
7.55894e-13
7.95611e-13
8.32534e-13
8.66318e-13
8.96707e-13
9.2353e-13
9.46696e-13
9.66188e-13
9.82052e-13
9.94388e-13
1.00334e-12
1.0091e-12
1.01186e-12
7.17323e-13
7.58908e-13
8.18549e-13
8.94174e-13
9.83977e-13
1.08618e-12
1.19896e-12
1.32035e-12
1.4483e-12
1.58069e-12
1.71534e-12
1.85012e-12
1.98299e-12
2.11203e-12
2.23553e-12
2.352e-12
2.46017e-12
2.55907e-12
2.64796e-12
2.72637e-12
2.79403e-12
2.85093e-12
2.89721e-12
2.93318e-12
2.95927e-12
2.97604e-12
2.98409e-12
2.12527e-12
2.24788e-12
2.42361e-12
2.64624e-12
2.91034e-12
3.21057e-12
3.54143e-12
3.89708e-12
4.27144e-12
4.6582e-12
5.05102e-12
5.44365e-12
5.83014e-12
6.20499e-12
6.56326e-12
6.90068e-12
7.2137e-12
7.49955e-12
7.75619e-12
7.98233e-12
8.17733e-12
8.34116e-12
8.47431e-12
8.57772e-12
8.65271e-12
8.70086e-12
8.72396e-12
6.25858e-12
6.61654e-12
7.12913e-12
7.77777e-12
8.54615e-12
9.4183e-12
1.03778e-11
1.14073e-11
1.24889e-11
1.36042e-11
1.47347e-11
1.58625e-11
1.69706e-11
1.80433e-11
1.90666e-11
2.00287e-11
2.09198e-11
2.17322e-11
2.24605e-11
2.31013e-11
2.36532e-11
2.41163e-11
2.44922e-11
2.47839e-11
2.49952e-11
2.51308e-11
2.51958e-11
1.82841e-11
1.93154e-11
2.07902e-11
2.26533e-11
2.48561e-11
2.73507e-11
3.00886e-11
3.30189e-11
3.60895e-11
3.92473e-11
4.24397e-11
4.5616e-11
4.87286e-11
5.17342e-11
5.45947e-11
5.72777e-11
5.97572e-11
6.20132e-11
6.40317e-11
6.58046e-11
6.73289e-11
6.8606e-11
6.96414e-11
7.04438e-11
7.10244e-11
7.13965e-11
7.15747e-11
5.284e-11
5.5756e-11
5.99189e-11
6.51664e-11
7.13539e-11
7.8341e-11
8.59848e-11
9.41389e-11
1.02654e-10
1.11381e-10
1.20173e-10
1.28891e-10
1.37406e-10
1.45602e-10
1.53378e-10
1.60652e-10
1.67355e-10
1.73438e-10
1.78868e-10
1.83627e-10
1.8771e-10
1.91125e-10
1.93888e-10
1.96027e-10
1.97572e-10
1.98562e-10
1.99035e-10
1.50558e-10
1.58602e-10
1.7006e-10
1.8446e-10
2.01383e-10
2.2042e-10
2.41162e-10
2.63197e-10
2.86108e-10
3.09489e-10
3.32945e-10
3.56107e-10
3.78641e-10
4.00247e-10
4.20674e-10
4.39713e-10
4.57204e-10
4.7303e-10
4.87119e-10
4.99435e-10
5.09978e-10
5.18776e-10
5.25884e-10
5.31375e-10
5.35336e-10
5.37869e-10
5.39079e-10
4.21156e-10
4.42645e-10
4.73171e-10
5.11403e-10
5.56145e-10
6.0625e-10
6.60579e-10
7.18006e-10
7.77419e-10
8.37746e-10
8.97972e-10
9.57166e-10
1.01449e-09
1.06922e-09
1.12076e-09
1.16861e-09
1.21241e-09
1.25192e-09
1.28698e-09
1.31755e-09
1.34365e-09
1.36539e-09
1.38291e-09
1.39642e-09
1.40616e-09
1.41237e-09
1.41534e-09
1.15092e-09
1.20612e-09
1.28428e-09
1.38177e-09
1.49533e-09
1.62184e-09
1.75828e-09
1.9017e-09
2.04925e-09
2.19826e-09
2.34624e-09
2.49094e-09
2.6304e-09
2.76295e-09
2.88723e-09
3.00217e-09
3.10701e-09
3.20125e-09
3.28463e-09
3.35713e-09
3.41888e-09
3.47018e-09
3.51145e-09
3.54322e-09
3.56607e-09
3.58063e-09
3.58758e-09
3.05533e-09
3.19072e-09
3.38178e-09
3.61905e-09
3.89405e-09
4.19876e-09
4.52552e-09
4.86703e-09
5.2164e-09
5.56726e-09
5.91383e-09
6.25102e-09
6.57445e-09
6.88047e-09
7.1662e-09
7.42946e-09
7.66874e-09
7.88313e-09
8.07227e-09
8.23627e-09
8.37563e-09
8.49116e-09
8.58393e-09
8.65521e-09
8.7064e-09
8.73899e-09
8.75451e-09
7.8348e-09
8.1503e-09
8.59404e-09
9.14277e-09
9.77561e-09
1.04731e-08
1.1217e-08
1.19902e-08
1.27769e-08
1.35629e-08
1.43353e-08
1.50833e-08
1.57976e-08
1.64706e-08
1.70966e-08
1.76714e-08
1.81921e-08
1.86573e-08
1.90667e-08
1.94207e-08
1.97209e-08
1.99693e-08
2.01685e-08
2.03212e-08
2.04308e-08
2.05005e-08
2.05336e-08
1.93087e-08
2.00055e-08
2.09825e-08
2.21859e-08
2.35677e-08
2.50835e-08
2.66921e-08
2.83559e-08
3.00406e-08
3.1716e-08
3.33553e-08
3.49361e-08
3.64399e-08
3.78517e-08
3.91606e-08
4.03587e-08
4.14412e-08
4.24058e-08
4.32526e-08
4.39836e-08
4.46022e-08
4.51133e-08
4.55223e-08
4.58357e-08
4.60602e-08
4.62028e-08
4.62706e-08
4.55674e-08
4.70256e-08
4.90649e-08
5.15686e-08
5.44323e-08
5.75608e-08
6.08673e-08
6.42729e-08
6.77074e-08
7.11094e-08
7.44261e-08
7.76132e-08
8.06351e-08
8.3464e-08
8.60793e-08
8.84671e-08
9.06195e-08
9.25336e-08
9.42108e-08
9.5656e-08
9.68773e-08
9.78847e-08
9.86901e-08
9.93065e-08
9.97476e-08
1.00028e-07
1.00161e-07
1.02785e-07
1.05681e-07
1.0972e-07
1.14665e-07
1.20303e-07
1.26439e-07
1.329e-07
1.39531e-07
1.46192e-07
1.52766e-07
1.59153e-07
1.65269e-07
1.7105e-07
1.76445e-07
1.81418e-07
1.85948e-07
1.90021e-07
1.93635e-07
1.96795e-07
1.99514e-07
2.01808e-07
2.03698e-07
2.05207e-07
2.0636e-07
2.07185e-07
2.07708e-07
2.07957e-07
2.2152e-07
2.26983e-07
2.34588e-07
2.43873e-07
2.54427e-07
2.65878e-07
2.77896e-07
2.90188e-07
3.025e-07
3.14616e-07
3.26355e-07
3.37571e-07
3.48149e-07
3.58004e-07
3.67075e-07
3.75324e-07
3.82733e-07
3.893e-07
3.95038e-07
3.9997e-07
4.04129e-07
4.07553e-07
4.10285e-07
4.12373e-07
4.13866e-07
4.14812e-07
4.15261e-07
4.557e-07
4.65583e-07
4.7933e-07
4.96094e-07
5.15124e-07
5.35749e-07
5.57369e-07
5.79459e-07
6.01565e-07
6.23299e-07
6.44342e-07
6.64433e-07
6.8337e-07
7.01002e-07
7.17223e-07
7.31967e-07
7.45205e-07
7.56934e-07
7.67179e-07
7.75983e-07
7.83403e-07
7.89511e-07
7.94384e-07
7.98107e-07
8.00768e-07
8.02455e-07
8.03255e-07
8.97999e-07
9.15521e-07
9.39892e-07
9.69607e-07
1.00333e-06
1.03988e-06
1.07818e-06
1.11731e-06
1.15646e-06
1.19495e-06
1.23221e-06
1.26778e-06
1.3013e-06
1.33252e-06
1.36123e-06
1.38732e-06
1.41075e-06
1.4315e-06
1.44963e-06
1.4652e-06
1.47833e-06
1.48913e-06
1.49775e-06
1.50433e-06
1.50903e-06
1.51201e-06
1.51343e-06
1.70394e-06
1.73457e-06
1.77718e-06
1.82915e-06
1.88816e-06
1.95213e-06
2.0192e-06
2.08776e-06
2.15638e-06
2.22388e-06
2.28926e-06
2.3517e-06
2.41058e-06
2.46542e-06
2.51588e-06
2.56176e-06
2.60295e-06
2.63946e-06
2.67135e-06
2.69875e-06
2.72185e-06
2.74086e-06
2.75603e-06
2.76761e-06
2.77589e-06
2.78114e-06
2.78363e-06
3.11611e-06
3.16864e-06
3.24175e-06
3.33097e-06
3.43236e-06
3.54237e-06
3.65784e-06
3.77598e-06
3.89438e-06
4.01097e-06
4.12403e-06
4.23213e-06
4.33418e-06
4.42933e-06
4.51697e-06
4.59673e-06
4.66841e-06
4.73199e-06
4.78756e-06
4.83534e-06
4.87563e-06
4.9088e-06
4.93528e-06
4.95551e-06
4.96997e-06
4.97913e-06
4.98347e-06
5.47393e-06
5.56095e-06
5.68213e-06
5.83011e-06
5.99841e-06
6.18119e-06
6.37324e-06
6.56996e-06
6.76733e-06
6.96192e-06
7.15084e-06
7.3317e-06
7.50263e-06
7.66218e-06
7.80932e-06
7.94336e-06
8.06394e-06
8.17099e-06
8.26463e-06
8.34522e-06
8.41322e-06
8.46924e-06
8.51397e-06
8.54816e-06
8.5726e-06
8.58809e-06
8.59544e-06
9.18408e-06
9.32028e-06
9.50994e-06
9.74155e-06
1.00049e-05
1.0291e-05
1.05915e-05
1.08993e-05
1.12081e-05
1.15126e-05
1.18082e-05
1.20913e-05
1.23587e-05
1.26084e-05
1.28387e-05
1.30485e-05
1.32372e-05
1.34048e-05
1.35513e-05
1.36775e-05
1.37839e-05
1.38716e-05
1.39416e-05
1.39951e-05
1.40334e-05
1.40576e-05
1.40691e-05
1.46359e-05
1.48333e-05
1.5108e-05
1.5443e-05
1.58234e-05
1.62359e-05
1.66686e-05
1.7111e-05
1.75542e-05
1.79903e-05
1.8413e-05
1.8817e-05
1.91981e-05
1.95533e-05
1.98804e-05
2.0178e-05
2.04453e-05
2.06824e-05
2.08895e-05
2.10676e-05
2.12177e-05
2.13413e-05
2.14399e-05
2.15153e-05
2.15691e-05
2.16032e-05
2.16193e-05
2.20878e-05
2.23504e-05
2.27152e-05
2.31594e-05
2.36626e-05
2.42068e-05
2.47761e-05
2.53565e-05
2.59362e-05
2.6505e-05
2.70547e-05
2.75786e-05
2.80716e-05
2.853e-05
2.8951e-05
2.93332e-05
2.96759e-05
2.99792e-05
3.02438e-05
3.0471e-05
3.06623e-05
3.08196e-05
3.0945e-05
3.10407e-05
3.11091e-05
3.11524e-05
3.1173e-05
3.15846e-05
3.19068e-05
3.23536e-05
3.28964e-05
3.35098e-05
3.41713e-05
3.48614e-05
3.55629e-05
3.62613e-05
3.69446e-05
3.76031e-05
3.8229e-05
3.88165e-05
3.93613e-05
3.98607e-05
4.03131e-05
4.07181e-05
4.1076e-05
4.13878e-05
4.16552e-05
4.18802e-05
4.2065e-05
4.22123e-05
4.23247e-05
4.24049e-05
4.24558e-05
4.24799e-05
4.29582e-05
4.33276e-05
4.38392e-05
4.44596e-05
4.51593e-05
4.59123e-05
4.66957e-05
4.74903e-05
4.82796e-05
4.905e-05
4.97909e-05
5.04936e-05
5.11521e-05
5.17617e-05
5.23196e-05
5.28245e-05
5.32759e-05
5.36744e-05
5.40214e-05
5.43188e-05
5.45688e-05
5.47743e-05
5.49379e-05
5.50628e-05
5.5152e-05
5.52085e-05
5.52353e-05
5.5901e-05
5.63036e-05
5.68608e-05
5.75356e-05
5.82955e-05
5.91121e-05
5.99605e-05
6.08196e-05
6.16717e-05
6.25024e-05
6.33001e-05
6.40559e-05
6.47634e-05
6.54178e-05
6.60163e-05
6.65575e-05
6.70412e-05
6.74681e-05
6.78397e-05
6.81581e-05
6.84259e-05
6.86459e-05
6.88212e-05
6.89549e-05
6.90505e-05
6.9111e-05
6.91398e-05
7.00591e-05
7.04829e-05
7.10689e-05
7.17783e-05
7.25765e-05
7.34336e-05
7.43233e-05
7.52235e-05
7.61157e-05
7.69849e-05
7.78192e-05
7.86093e-05
7.93485e-05
8.0032e-05
8.06571e-05
8.12222e-05
8.17273e-05
8.2173e-05
8.25611e-05
8.28936e-05
8.31733e-05
8.34032e-05
8.35864e-05
8.37263e-05
8.38262e-05
8.38896e-05
8.39197e-05
8.50996e-05
8.55355e-05
8.61382e-05
8.68675e-05
8.76879e-05
8.85685e-05
8.94823e-05
9.04066e-05
9.13226e-05
9.22147e-05
9.30708e-05
9.38816e-05
9.464e-05
9.53414e-05
9.59828e-05
9.65628e-05
9.70813e-05
9.75389e-05
9.79374e-05
9.82789e-05
9.85663e-05
9.88025e-05
9.89909e-05
9.91348e-05
9.92376e-05
9.93028e-05
9.93338e-05
0.000100742
0.000101184
0.000101795
0.000102534
0.000103366
0.000104258
0.000105184
0.000106121
0.000107049
0.000107954
0.000108821
0.000109643
0.000110412
0.000111124
0.000111774
0.000112362
0.000112888
0.000113353
0.000113757
0.000114104
0.000114396
0.000114636
0.000114828
0.000114974
0.000115078
0.000115145
0.000115176
0.000116762
0.000117206
0.00011782
0.000118563
0.000119398
0.000120295
0.000121226
0.000122167
0.0001231
0.000124009
0.000124881
0.000125708
0.000126481
0.000127196
0.000127851
0.000128443
0.000128972
0.00012944
0.000129847
0.000130196
0.00013049
0.000130732
0.000130925
0.000131072
0.000131178
0.000131245
0.000131277
0.000132988
0.000133432
0.000134045
0.000134787
0.000135621
0.000136517
0.000137447
0.000138387
0.000139319
0.000140228
0.0001411
0.000141926
0.000142699
0.000143414
0.000144069
0.000144661
0.00014519
0.000145658
0.000146066
0.000146415
0.00014671
0.000146952
0.000147145
0.000147293
0.000147398
0.000147465
0.000147497
0.000149289
0.00014973
0.00015034
0.000151078
0.000151908
0.000152798
0.000153723
0.000154659
0.000155587
0.00015649
0.000157358
0.00015818
0.00015895
0.000159662
0.000160314
0.000160903
0.000161431
0.000161897
0.000162303
0.000162651
0.000162944
0.000163185
0.000163378
0.000163525
0.00016363
0.000163697
0.000163729
0.000165565
0.000166002
0.000166606
0.000167338
0.00016816
0.000169044
0.000169961
0.000170889
0.000171809
0.000172705
0.000173566
0.000174381
0.000175145
0.000175851
0.000176498
0.000177083
0.000177606
0.000178068
0.000178471
0.000178817
0.000179108
0.000179347
0.000179538
0.000179685
0.000179789
0.000179855
0.000179887
0.000181739
0.000182171
0.000182769
0.000183492
0.000184306
0.000185179
0.000186086
0.000187004
0.000187914
0.0001888
0.000189652
0.000190458
0.000191214
0.000191912
0.000192552
0.000193131
0.000193649
0.000194106
0.000194505
0.000194847
0.000195135
0.000195372
0.000195561
0.000195705
0.000195809
0.000195875
0.000195906
0.000197754
0.00019818
0.00019877
0.000199484
0.000200287
0.000201149
0.000202044
0.00020295
0.000203848
0.000204723
0.000205563
0.000206359
0.000207104
0.000207794
0.000208425
0.000208996
0.000209507
0.000209959
0.000210352
0.00021069
0.000210974
0.000211208
0.000211395
0.000211538
0.00021164
0.000211705
0.000211735
0.000213565
0.000213986
0.000214567
0.00021527
0.000216061
0.00021691
0.000217792
0.000218684
0.000219568
0.00022043
0.000221258
0.000222042
0.000222776
0.000223456
0.000224077
0.00022464
0.000225143
0.000225588
0.000225976
0.000226308
0.000226588
0.000226819
0.000227003
0.000227143
0.000227244
0.000227308
0.000227338
0.000229141
0.000229554
0.000230126
0.000230817
0.000231595
0.00023243
0.000233298
0.000234175
0.000235045
0.000235893
0.000236706
0.000237478
0.0002382
0.000238868
0.000239479
0.000240033
0.000240528
0.000240965
0.000241346
0.000241673
0.000241949
0.000242175
0.000242356
0.000242495
0.000242594
0.000242656
0.000242686
0.000244455
0.000244861
0.000245422
0.000246102
0.000246866
0.000247686
0.000248538
0.0002494
0.000250254
0.000251087
0.000251886
0.000252644
0.000253353
0.000254009
0.00025461
0.000255153
0.000255639
0.000256069
0.000256443
0.000256764
0.000257035
0.000257257
0.000257435
0.000257571
0.000257668
0.000257729
0.000257759
0.00025949
0.000259888
0.000260439
0.000261106
0.000261856
0.000262661
0.000263496
0.000264342
0.00026518
0.000265997
0.000266781
0.000267524
0.00026822
0.000268864
0.000269453
0.000269986
0.000270463
0.000270884
0.000271251
0.000271566
0.000271831
0.00027205
0.000272224
0.000272357
0.000272452
0.000272513
0.000272542
0.000274233
0.000274623
0.000275163
0.000275817
0.000276552
0.000277341
0.00027816
0.000278989
0.00027981
0.000280611
0.00028138
0.000282108
0.00028279
0.000283421
0.000283998
0.00028452
0.000284988
0.000285401
0.00028576
0.000286069
0.000286329
0.000286543
0.000286714
0.000286844
0.000286938
0.000286997
0.000287025
0.000288675
0.000289058
0.000289586
0.000290226
0.000290946
0.000291719
0.000292521
0.000293333
0.000294138
0.000294922
0.000295675
0.000296388
0.000297055
0.000297673
0.000298238
0.00029875
0.000299208
0.000299612
0.000299964
0.000300267
0.000300521
0.000300731
0.000300898
0.000301026
0.000301117
0.000301175
0.000301203
0.000302811
0.000303185
0.000303703
0.000304329
0.000305034
0.000305791
0.000306576
0.00030737
0.000308158
0.000308925
0.000309662
0.00031036
0.000311013
0.000311618
0.000312171
0.000312671
0.000313119
0.000313515
0.00031386
0.000314155
0.000314404
0.000314609
0.000314773
0.000314898
0.000314987
0.000315044
0.000315071
0.000316638
0.000317004
0.000317511
0.000318123
0.000318813
0.000319553
0.000320321
0.000321098
0.000321868
0.000322619
0.000323339
0.000324022
0.000324661
0.000325252
0.000325793
0.000326283
0.000326721
0.000327108
0.000327445
0.000327734
0.000327978
0.000328178
0.000328338
0.00032846
0.000328548
0.000328603
0.00032863
0.000330155
0.000330513
0.000331009
0.000331608
0.000332282
0.000333005
0.000333756
0.000334516
0.000335269
0.000336003
0.000336707
0.000337375
0.000337999
0.000338578
0.000339107
0.000339585
0.000340013
0.000340392
0.000340721
0.000341004
0.000341242
0.000341438
0.000341594
0.000341714
0.000341799
0.000341853
0.000341879
0.000343364
0.000343714
0.000344198
0.000344784
0.000345442
0.000346149
0.000346883
0.000347626
0.000348362
0.000349079
0.000349768
0.00035042
0.00035103
0.000351595
0.000352112
0.00035258
0.000352998
0.000353368
0.00035369
0.000353966
0.000354199
0.00035439
0.000354543
0.00035466
0.000354743
0.000354796
0.000354822
0.000356266
0.000356608
0.000357081
0.000357653
0.000358297
0.000358988
0.000359705
0.00036043
0.000361149
0.00036185
0.000362523
0.00036316
0.000363756
0.000364308
0.000364813
0.00036527
0.000365679
0.00036604
0.000366354
0.000366624
0.000366851
0.000367038
0.000367188
0.000367302
0.000367383
0.000367435
0.00036746
0.000368865
0.000369199
0.000369661
0.00037022
0.000370849
0.000371523
0.000372224
0.000372932
0.000373635
0.000374319
0.000374976
0.000375598
0.000376181
0.00037672
0.000377213
0.000377659
0.000378058
0.000378411
0.000378718
0.000378981
0.000379203
0.000379386
0.000379532
0.000379643
0.000379723
0.000379773
0.000379797
0.000381164
0.000381491
0.000381942
0.000382487
0.000383101
0.00038376
0.000384444
0.000385136
0.000385822
0.00038649
0.000387131
0.000387739
0.000388307
0.000388834
0.000389315
0.000389751
0.000390141
0.000390485
0.000390785
0.000391042
0.000391259
0.000391437
0.000391579
0.000391688
0.000391766
0.000391815
0.000391839
0.000393168
0.000393486
0.000393927
0.000394459
0.000395059
0.000395702
0.00039637
0.000397045
0.000397715
0.000398367
0.000398993
0.000399586
0.000400141
0.000400655
0.000401125
0.00040155
0.00040193
0.000402266
0.000402559
0.00040281
0.000403022
0.000403196
0.000403335
0.000403441
0.000403517
0.000403565
0.000403588
0.00040488
0.000405191
0.000405621
0.000406141
0.000406726
0.000407353
0.000408005
0.000408664
0.000409318
0.000409954
0.000410565
0.000411144
0.000411686
0.000412187
0.000412646
0.000413061
0.000413432
0.00041376
0.000414046
0.000414291
0.000414497
0.000414667
0.000414802
0.000414906
0.00041498
0.000415027
0.000415049
0.000416305
0.000416608
0.000417028
0.000417535
0.000418106
0.000418719
0.000419354
0.000419998
0.000420635
0.000421256
0.000421852
0.000422417
0.000422946
0.000423435
0.000423882
0.000424287
0.000424649
0.000424969
0.000425248
0.000425487
0.000425688
0.000425854
0.000425986
0.000426087
0.00042616
0.000426205
0.000426227
0.000427447
0.000427743
0.000428152
0.000428647
0.000429204
0.000429801
0.000430422
0.000431049
0.000431671
0.000432277
0.000432858
0.000433409
0.000433925
0.000434402
0.000434838
0.000435233
0.000435586
0.000435898
0.00043617
0.000436403
0.0004366
0.000436761
0.00043689
0.000436989
0.000437059
0.000437104
0.000437125
0.000438309
0.000438598
0.000438997
0.00043948
0.000440023
0.000440605
0.00044121
0.000441822
0.000442428
0.000443019
0.000443586
0.000444123
0.000444626
0.000445091
0.000445517
0.000445902
0.000446246
0.00044655
0.000446815
0.000447043
0.000447234
0.000447392
0.000447517
0.000447613
0.000447682
0.000447726
0.000447746
0.000448895
0.000449176
0.000449565
0.000450036
0.000450565
0.000451133
0.000451723
0.000452319
0.00045291
0.000453486
0.000454039
0.000454562
0.000455052
0.000455505
0.00045592
0.000456295
0.000456631
0.000456927
0.000457186
0.000457407
0.000457594
0.000457747
0.00045787
0.000457963
0.00045803
0.000458073
0.000458093
0.000459206
0.000459481
0.000459859
0.000460318
0.000460833
0.000461387
0.000461961
0.000462542
0.000463118
0.000463679
0.000464217
0.000464727
0.000465205
0.000465646
0.00046605
0.000466416
0.000466743
0.000467031
0.000467283
0.000467499
0.00046768
0.00046783
0.000467949
0.00046804
0.000468106
0.000468147
0.000468167
0.000469244
0.000469511
0.00046988
0.000470327
0.000470829
0.000471367
0.000471927
0.000472492
0.000473053
0.000473599
0.000474123
0.00047462
0.000475084
0.000475514
0.000475907
0.000476263
0.000476581
0.000476862
0.000477107
0.000477317
0.000477494
0.00047764
0.000477756
0.000477844
0.000477908
0.000477948
0.000477967
0.000479009
0.000479269
0.000479627
0.000480062
0.00048055
0.000481074
0.000481618
0.000482169
0.000482714
0.000483245
0.000483755
0.000484238
0.00048469
0.000485108
0.00048549
0.000485836
0.000486146
0.000486419
0.000486657
0.000486862
0.000487034
0.000487175
0.000487288
0.000487374
0.000487436
0.000487475
0.000487494
0.000488498
0.000488751
0.000489099
0.000489522
0.000489996
0.000490506
0.000491034
0.000491569
0.000492099
0.000492615
0.000493111
0.00049358
0.000494019
0.000494425
0.000494797
0.000495133
0.000495433
0.000495699
0.00049593
0.000496129
0.000496296
0.000496433
0.000496543
0.000496627
0.000496687
0.000496725
0.000496743
0.000497709
0.000497954
0.000498293
0.000498702
0.000499163
0.000499658
0.000500171
0.00050069
0.000501204
0.000501705
0.000502185
0.000502641
0.000503067
0.000503461
0.000503821
0.000504147
0.000504439
0.000504697
0.000504921
0.000505114
0.000505276
0.000505409
0.000505515
0.000505597
0.000505655
0.000505692
0.000505709
0.000506636
0.000506873
0.000507201
0.000507598
0.000508045
0.000508524
0.000509021
0.000509524
0.000510022
0.000510507
0.000510973
0.000511414
0.000511827
0.000512208
0.000512558
0.000512873
0.000513156
0.000513405
0.000513623
0.000513809
0.000513966
0.000514095
0.000514198
0.000514277
0.000514333
0.000514369
0.000514386
0.00051527
0.0005155
0.000515817
0.000516201
0.000516633
0.000517097
0.000517577
0.000518064
0.000518545
0.000519014
0.000519464
0.000519891
0.00052029
0.000520658
0.000520996
0.000521301
0.000521574
0.000521815
0.000522025
0.000522205
0.000522356
0.000522481
0.000522581
0.000522657
0.000522711
0.000522746
0.000522762
0.000523603
0.000523824
0.00052413
0.000524501
0.000524917
0.000525364
0.000525828
0.000526297
0.000526761
0.000527213
0.000527647
0.000528058
0.000528443
0.000528798
0.000529123
0.000529418
0.00052968
0.000529913
0.000530115
0.000530288
0.000530434
0.000530555
0.00053065
0.000530724
0.000530776
0.000530809
0.000530825
0.000531619
0.000531832
0.000532126
0.000532482
0.000532883
0.000533313
0.000533758
0.000534209
0.000534655
0.00053509
0.000535507
0.000535902
0.000536271
0.000536613
0.000536925
0.000537207
0.00053746
0.000537683
0.000537877
0.000538044
0.000538184
0.000538299
0.000538391
0.000538461
0.000538512
0.000538544
0.000538559
0.000539302
0.000539506
0.000539788
0.000540129
0.000540513
0.000540924
0.000541351
0.000541783
0.00054221
0.000542626
0.000543025
0.000543403
0.000543756
0.000544083
0.000544381
0.000544651
0.000544893
0.000545106
0.000545292
0.000545451
0.000545585
0.000545695
0.000545783
0.00054585
0.000545898
0.000545929
0.000545943
0.000546632
0.000546827
0.000547096
0.000547421
0.000547787
0.000548179
0.000548585
0.000548996
0.000549403
0.000549799
0.000550179
0.000550539
0.000550875
0.000551186
0.00055147
0.000551727
0.000551957
0.00055216
0.000552336
0.000552488
0.000552615
0.00055272
0.000552803
0.000552867
0.000552913
0.000552942
0.000552956
0.000553587
0.000553771
0.000554026
0.000554334
0.000554681
0.000555052
0.000555437
0.000555826
0.000556211
0.000556586
0.000556946
0.000557286
0.000557604
0.000557898
0.000558166
0.000558409
0.000558626
0.000558818
0.000558985
0.000559128
0.000559248
0.000559347
0.000559426
0.000559486
0.000559529
0.000559557
0.00055957
0.000560139
0.000560312
0.000560552
0.000560842
0.000561168
0.000561517
0.000561879
0.000562244
0.000562606
0.000562958
0.000563296
0.000563615
0.000563913
0.000564189
0.000564441
0.000564669
0.000564873
0.000565052
0.000565209
0.000565343
0.000565455
0.000565548
0.000565622
0.000565679
0.000565719
0.000565745
0.000565757
0.00056626
0.000566422
0.000566645
0.000566915
0.000567219
0.000567544
0.000567881
0.000568222
0.000568559
0.000568886
0.0005692
0.000569497
0.000569775
0.000570031
0.000570265
0.000570477
0.000570666
0.000570832
0.000570978
0.000571102
0.000571207
0.000571293
0.000571361
0.000571414
0.000571451
0.000571475
0.000571486
0.00057192
0.000572069
0.000572276
0.000572525
0.000572805
0.000573105
0.000573415
0.000573729
0.000574039
0.00057434
0.000574629
0.000574902
0.000575157
0.000575392
0.000575607
0.000575802
0.000575975
0.000576128
0.000576261
0.000576375
0.000576471
0.00057655
0.000576613
0.000576661
0.000576696
0.000576717
0.000576728
0.00057709
0.000577226
0.000577414
0.000577641
0.000577896
0.000578168
0.000578451
0.000578736
0.000579017
0.000579291
0.000579553
0.0005798
0.000580032
0.000580245
0.00058044
0.000580616
0.000580773
0.000580911
0.000581032
0.000581135
0.000581222
0.000581293
0.00058135
0.000581393
0.000581424
0.000581444
0.000581453
0.000581744
0.000581866
0.000582034
0.000582237
0.000582466
0.00058271
0.000582963
0.000583217
0.000583469
0.000583713
0.000583947
0.000584168
0.000584374
0.000584565
0.000584738
0.000584895
0.000585034
0.000585158
0.000585265
0.000585357
0.000585434
0.000585497
0.000585548
0.000585586
0.000585614
0.000585631
0.00058564
0.00058586
0.000585967
0.000586116
0.000586294
0.000586495
0.00058671
0.000586932
0.000587155
0.000587376
0.00058759
0.000587795
0.000587988
0.000588169
0.000588335
0.000588486
0.000588623
0.000588745
0.000588852
0.000588946
0.000589026
0.000589093
0.000589148
0.000589192
0.000589226
0.00058925
0.000589265
0.000589272
0.000589427
0.00058952
0.000589647
0.000589801
0.000589974
0.000590158
0.000590349
0.000590541
0.00059073
0.000590914
0.000591089
0.000591255
0.000591409
0.000591551
0.00059168
0.000591797
0.000591901
0.000591992
0.000592072
0.00059214
0.000592197
0.000592244
0.000592281
0.00059231
0.00059233
0.000592343
0.000592349
0.000592446
0.000592524
0.000592631
0.00059276
0.000592905
0.00059306
0.00059322
0.00059338
0.000593539
0.000593692
0.000593838
0.000593976
0.000594104
0.000594222
0.00059433
0.000594427
0.000594513
0.000594589
0.000594655
0.000594712
0.000594759
0.000594798
0.000594829
0.000594852
0.000594869
0.00059488
0.000594885
0.000594933
0.000594997
0.000595085
0.00059519
0.000595309
0.000595435
0.000595565
0.000595695
0.000595824
0.000595948
0.000596067
0.000596178
0.000596282
0.000596378
0.000596464
0.000596543
0.000596612
0.000596673
0.000596726
0.000596772
0.00059681
0.000596841
0.000596866
0.000596885
0.000596899
0.000596907
0.000596911
0.000596924
0.000596974
0.000597044
0.000597127
0.000597221
0.00059732
0.000597423
0.000597526
0.000597627
0.000597725
0.000597818
0.000597906
0.000597987
0.000598062
0.00059813
0.000598191
0.000598245
0.000598293
0.000598334
0.00059837
0.000598399
0.000598424
0.000598443
0.000598458
0.000598468
0.000598475
0.000598478
0.000598467
0.000598506
0.00059856
0.000598624
0.000598695
0.000598772
0.00059885
0.000598929
0.000599006
0.000599081
0.000599152
0.000599218
0.00059928
0.000599337
0.000599388
0.000599435
0.000599476
0.000599512
0.000599543
0.00059957
0.000599593
0.000599611
0.000599626
0.000599637
0.000599645
0.00059965
0.000599652
0.000599629
0.000599658
0.000599698
0.000599746
0.0005998
0.000599856
0.000599915
0.000599973
0.000600031
0.000600086
0.000600139
0.000600188
0.000600234
0.000600276
0.000600314
0.000600348
0.000600378
0.000600405
0.000600428
0.000600448
0.000600464
0.000600478
0.000600489
0.000600497
0.000600503
0.000600506
0.000600508
0.000600483
0.000600504
0.000600533
0.000600568
0.000600607
0.000600649
0.000600691
0.000600734
0.000600776
0.000600816
0.000600854
0.00060089
0.000600924
0.000600954
0.000600982
0.000601007