/*--------------------------------*- C++ -*----------------------------------*\
| =========                 |                                                 |
| \\      /  F ield         | OpenFOAM: The Open Source CFD Toolbox           |
|  \\    /   O peration     | Version:  2106                                  |
|   \\  /    A nd           | Website:  www.openfoam.com                      |
|    \\/     M anipulation  |                                                 |
\*---------------------------------------------------------------------------*/
FoamFile
{
    version     2.0;
    format      ascii;
    arch        "LSB;label=32;scalar=64";
    class       volScalarField;
    location    "110.00000";
    object      C3H3_0;
}
// * * * * * * * * * * * * * * * * * * * * * * * * * * * * * * * * * * * * * //

dimensions      [0 0 0 0 0 0 0];

internalField   nonuniform List<scalar> 
3360
(
1.25197e-19
1.29227e-19
1.34834e-19
1.41693e-19
1.49518e-19
1.58051e-19
1.67062e-19
1.76341e-19
1.85701e-19
1.94978e-19
2.0403e-19
2.12735e-19
2.20994e-19
2.28726e-19
2.35872e-19
2.42389e-19
2.4825e-19
2.53445e-19
2.57976e-19
2.61857e-19
2.65109e-19
2.67766e-19
2.69865e-19
2.71448e-19
2.72561e-19
2.73254e-19
2.73576e-19
5.49229e-19
5.6942e-19
5.97912e-19
6.33393e-19
6.74778e-19
7.21118e-19
7.71567e-19
8.25349e-19
8.81743e-19
9.40067e-19
9.99668e-19
1.05991e-18
1.12016e-18
1.17981e-18
1.23824e-18
1.29485e-18
1.34906e-18
1.4003e-18
1.44802e-18
1.49171e-18
1.5309e-18
1.56519e-18
1.5942e-18
1.61767e-18
1.63538e-18
1.64721e-18
1.65311e-18
1.72338e-18
1.79903e-18
1.90652e-18
2.0416e-18
2.20071e-18
2.38069e-18
2.57851e-18
2.79118e-18
3.0157e-18
3.24898e-18
3.48788e-18
3.72927e-18
3.97006e-18
4.20718e-18
4.4377e-18
4.65879e-18
4.86787e-18
5.0626e-18
5.24096e-18
5.40128e-18
5.54226e-18
5.66298e-18
5.76292e-18
5.84191e-18
5.90015e-18
5.93813e-18
5.95662e-18
5.01928e-18
5.26862e-18
5.62532e-18
6.07661e-18
6.61182e-18
7.22098e-18
7.89409e-18
8.6208e-18
9.39024e-18
1.0191e-17
1.10113e-17
1.18391e-17
1.26625e-17
1.347e-17
1.42504e-17
1.49937e-17
1.56908e-17
1.63343e-17
1.6918e-17
1.74372e-17
1.7889e-17
1.82717e-17
1.85851e-17
1.88303e-17
1.90092e-17
1.91247e-17
1.91805e-17
1.46654e-17
1.5452e-17
1.65795e-17
1.80093e-17
1.97087e-17
2.16463e-17
2.37899e-17
2.61052e-17
2.85558e-17
3.11031e-17
3.37074e-17
3.63287e-17
3.89276e-17
4.14665e-17
4.39107e-17
4.6229e-17
4.83944e-17
5.03849e-17
5.21832e-17
5.3777e-17
5.51588e-17
5.63255e-17
5.72782e-17
5.80213e-17
5.85621e-17
5.89105e-17
5.90782e-17
4.32437e-17
4.56597e-17
4.91268e-17
5.35273e-17
5.87605e-17
6.4729e-17
7.13319e-17
7.84617e-17
8.60037e-17
9.3837e-17
1.01837e-16
1.09879e-16
1.1784e-16
1.25605e-16
1.33067e-16
1.40132e-16
1.4672e-16
1.52763e-16
1.58214e-16
1.63036e-16
1.6721e-16
1.70729e-16
1.73597e-16
1.75832e-16
1.77456e-16
1.78501e-16
1.79004e-16
1.28464e-16
1.35806e-16
1.46341e-16
1.59714e-16
1.75616e-16
1.93748e-16
2.13799e-16
2.35437e-16
2.5831e-16
2.82047e-16
3.06267e-16
3.30589e-16
3.54645e-16
3.78084e-16
4.00589e-16
4.21877e-16
4.41709e-16
4.59892e-16
4.76279e-16
4.90769e-16
5.03304e-16
5.13868e-16
5.22477e-16
5.29181e-16
5.34052e-16
5.37187e-16
5.38693e-16
3.82894e-16
4.04986e-16
4.36705e-16
4.7698e-16
5.24885e-16
5.79518e-16
6.39934e-16
7.0513e-16
7.74034e-16
8.45524e-16
9.18447e-16
9.91654e-16
1.06403e-15
1.13452e-15
1.20217e-15
1.26614e-15
1.32571e-15
1.38029e-15
1.42947e-15
1.47293e-15
1.51051e-15
1.54216e-15
1.56795e-15
1.58803e-15
1.60261e-15
1.61199e-15
1.6165e-15
1.14424e-15
1.21064e-15
1.30595e-15
1.42696e-15
1.57087e-15
1.73497e-15
1.91639e-15
2.11211e-15
2.31889e-15
2.53336e-15
2.75205e-15
2.97151e-15
3.18841e-15
3.3996e-15
3.60221e-15
3.79373e-15
3.97203e-15
4.1354e-15
4.28255e-15
4.41258e-15
4.52502e-15
4.61972e-15
4.69687e-15
4.75691e-15
4.80053e-15
4.82859e-15
4.84207e-15
3.41951e-15
3.61839e-15
3.90391e-15
4.26643e-15
4.69759e-15
5.18918e-15
5.73267e-15
6.31893e-15
6.93826e-15
7.58052e-15
8.23532e-15
8.89231e-15
9.54148e-15
1.01734e-14
1.07796e-14
1.13524e-14
1.18856e-14
1.2374e-14
1.28138e-14
1.32024e-14
1.35382e-14
1.38211e-14
1.40514e-14
1.42307e-14
1.43609e-14
1.44446e-14
1.44848e-14
1.02236e-14
1.0819e-14
1.16735e-14
1.27582e-14
1.40481e-14
1.55183e-14
1.71434e-14
1.88957e-14
2.07464e-14
2.26649e-14
2.46202e-14
2.65814e-14
2.85186e-14
3.04039e-14
3.22116e-14
3.39196e-14
3.55089e-14
3.69644e-14
3.82747e-14
3.94322e-14
4.04326e-14
4.12749e-14
4.19608e-14
4.24946e-14
4.28822e-14
4.31314e-14
4.32512e-14
3.05353e-14
3.23125e-14
3.48634e-14
3.81011e-14
4.195e-14
4.63362e-14
5.11826e-14
5.64072e-14
6.19229e-14
6.76387e-14
7.34619e-14
7.93003e-14
8.50652e-14
9.06731e-14
9.60484e-14
1.01125e-13
1.05847e-13
1.1017e-13
1.1406e-13
1.17495e-13
1.20463e-13
1.22962e-13
1.24996e-13
1.26578e-13
1.27726e-13
1.28465e-13
1.28819e-13
9.10924e-14
9.63884e-14
1.03987e-13
1.13626e-13
1.2508e-13
1.38125e-13
1.5253e-13
1.68049e-13
1.84422e-13
2.01376e-13
2.18638e-13
2.35933e-13
2.52999e-13
2.69589e-13
2.85481e-13
3.00481e-13
3.14426e-13
3.27185e-13
3.38662e-13
3.48792e-13
3.57542e-13
3.64903e-13
3.70894e-13
3.75553e-13
3.78935e-13
3.81109e-13
3.82153e-13
2.70916e-13
2.86622e-13
3.09147e-13
3.37708e-13
3.71624e-13
4.10226e-13
4.52817e-13
4.98664e-13
5.46988e-13
5.96986e-13
6.4784e-13
6.98744e-13
7.48924e-13
7.97661e-13
8.44304e-13
8.8829e-13
9.29145e-13
9.66497e-13
1.00007e-12
1.02968e-12
1.05524e-12
1.07672e-12
1.0942e-12
1.10779e-12
1.11764e-12
1.12397e-12
1.12701e-12
8.02674e-13
8.48982e-13
9.15351e-13
9.99434e-13
1.09918e-12
1.21257e-12
1.33752e-12
1.47185e-12
1.61323e-12
1.7593e-12
1.90766e-12
2.05594e-12
2.20191e-12
2.34349e-12
2.47879e-12
2.60623e-12
2.72445e-12
2.83241e-12
2.92933e-12
3.01474e-12
3.08839e-12
3.15026e-12
3.20055e-12
3.23961e-12
3.26793e-12
3.28611e-12
3.29484e-12
2.3638e-12
2.499e-12
2.69259e-12
2.93757e-12
3.22777e-12
3.55716e-12
3.91953e-12
4.30836e-12
4.71686e-12
5.13808e-12
5.56506e-12
5.99101e-12
6.4095e-12
6.81462e-12
7.20111e-12
7.56447e-12
7.901e-12
8.20783e-12
8.4829e-12
8.72492e-12
8.93335e-12
9.10825e-12
9.25024e-12
9.36041e-12
9.44022e-12
9.49142e-12
9.51597e-12
6.90602e-12
7.29552e-12
7.85253e-12
8.55622e-12
9.38816e-12
1.03304e-11
1.13644e-11
1.24712e-11
1.36309e-11
1.48235e-11
1.60292e-11
1.72289e-11
1.84044e-11
1.95396e-11
2.06199e-11
2.16333e-11
2.25697e-11
2.34218e-11
2.41842e-11
2.48538e-11
2.54294e-11
2.59118e-11
2.63028e-11
2.66059e-11
2.68252e-11
2.69657e-11
2.7033e-11
1.99596e-11
2.1061e-11
2.26334e-11
2.46154e-11
2.69525e-11
2.95915e-11
3.24786e-11
3.55584e-11
3.87746e-11
4.20706e-11
4.53914e-11
4.86842e-11
5.19003e-11
5.4996e-11
5.79332e-11
6.06803e-11
6.3212e-11
6.55097e-11
6.75606e-11
6.93581e-11
7.09003e-11
7.21901e-11
7.3234e-11
7.40417e-11
7.46254e-11
7.49991e-11
7.51779e-11
5.68803e-11
5.99189e-11
6.42471e-11
6.96869e-11
7.60795e-11
8.32708e-11
9.11063e-11
9.94298e-11
1.08085e-10
1.16917e-10
1.25777e-10
1.34527e-10
1.43039e-10
1.51201e-10
1.58917e-10
1.66109e-10
1.72717e-10
1.78695e-10
1.84017e-10
1.8867e-10
1.92653e-10
1.95977e-10
1.98662e-10
2.00736e-10
2.02233e-10
2.03189e-10
2.03647e-10
1.59159e-10
1.67279e-10
1.78814e-10
1.93261e-10
2.10168e-10
2.29101e-10
2.4963e-10
2.71331e-10
2.93781e-10
3.16578e-10
3.39336e-10
3.61705e-10
3.83367e-10
4.0405e-10
4.23525e-10
4.41608e-10
4.58162e-10
4.73093e-10
4.86344e-10
4.97897e-10
5.07762e-10
5.15977e-10
5.22599e-10
5.27706e-10
5.31384e-10
5.33733e-10
5.34854e-10
4.35197e-10
4.5607e-10
4.85626e-10
5.22492e-10
5.65434e-10
6.13275e-10
6.64871e-10
7.19107e-10
7.7491e-10
8.31265e-10
8.87231e-10
9.41961e-10
9.9471e-10
1.04485e-09
1.09185e-09
1.13533e-09
1.17499e-09
1.21064e-09
1.24219e-09
1.26962e-09
1.29298e-09
1.31239e-09
1.328e-09
1.34002e-09
1.34867e-09
1.35418e-09
1.35681e-09
1.15661e-09
1.20788e-09
1.28024e-09
1.37011e-09
1.47427e-09
1.58969e-09
1.71347e-09
1.84285e-09
1.97522e-09
2.10817e-09
2.2395e-09
2.36729e-09
2.48987e-09
2.60586e-09
2.71417e-09
2.81398e-09
2.9047e-09
2.98598e-09
3.05771e-09
3.1199e-09
3.17275e-09
3.21656e-09
3.25175e-09
3.27878e-09
3.2982e-09
3.31056e-09
3.31645e-09
2.97227e-09
3.09215e-09
3.26077e-09
3.46931e-09
3.70985e-09
3.975e-09
4.25784e-09
4.55187e-09
4.85109e-09
5.15008e-09
5.444e-09
5.72865e-09
6.00053e-09
6.25676e-09
6.49513e-09
6.71402e-09
6.91236e-09
7.08958e-09
7.24554e-09
7.38046e-09
7.49487e-09
7.58955e-09
7.66545e-09
7.72369e-09
7.76546e-09
7.79202e-09
7.80466e-09
7.355e-09
7.62156e-09
7.99541e-09
8.45601e-09
8.98501e-09
9.56547e-09
1.01817e-08
1.08193e-08
1.14651e-08
1.21076e-08
1.27364e-08
1.33431e-08
1.39203e-08
1.44625e-08
1.49653e-08
1.54257e-08
1.58417e-08
1.62126e-08
1.65382e-08
1.68194e-08
1.70574e-08
1.72541e-08
1.74115e-08
1.75321e-08
1.76186e-08
1.76735e-08
1.76996e-08
1.74875e-08
1.80533e-08
1.88449e-08
1.98172e-08
2.093e-08
2.21466e-08
2.34333e-08
2.47596e-08
2.60981e-08
2.7425e-08
2.87196e-08
2.99646e-08
3.11459e-08
3.22524e-08
3.32761e-08
3.42113e-08
3.50548e-08
3.58053e-08
3.64633e-08
3.70305e-08
3.751e-08
3.79057e-08
3.82222e-08
3.84645e-08
3.8638e-08
3.87481e-08
3.88004e-08
3.99598e-08
4.1116e-08
4.27309e-08
4.47104e-08
4.69707e-08
4.94357e-08
5.20363e-08
5.47104e-08
5.7403e-08
6.00663e-08
6.26595e-08
6.51485e-08
6.75062e-08
6.97114e-08
7.17485e-08
7.36072e-08
7.52817e-08
7.677e-08
7.80735e-08
7.91963e-08
8.01448e-08
8.0927e-08
8.15522e-08
8.20305e-08
8.23727e-08
8.25899e-08
8.2693e-08
8.79947e-08
9.02997e-08
9.35169e-08
9.74569e-08
1.01951e-07
1.06848e-07
1.12009e-07
1.17311e-07
1.22645e-07
1.27917e-07
1.33046e-07
1.37966e-07
1.42624e-07
1.46978e-07
1.50998e-07
1.54664e-07
1.57965e-07
1.60898e-07
1.63466e-07
1.65677e-07
1.67544e-07
1.69083e-07
1.70313e-07
1.71254e-07
1.71927e-07
1.72353e-07
1.72556e-07
1.8764e-07
1.92186e-07
1.98531e-07
2.06302e-07
2.15168e-07
2.24829e-07
2.35015e-07
2.45482e-07
2.56016e-07
2.66432e-07
2.7657e-07
2.863e-07
2.95514e-07
3.04131e-07
3.12091e-07
3.19352e-07
3.25893e-07
3.31707e-07
3.36797e-07
3.41182e-07
3.44885e-07
3.47938e-07
3.50377e-07
3.52243e-07
3.53578e-07
3.54425e-07
3.54826e-07
3.89003e-07
3.97936e-07
4.10413e-07
4.2571e-07
4.43185e-07
4.62256e-07
4.82394e-07
5.03125e-07
5.24027e-07
5.44733e-07
5.64925e-07
5.84339e-07
6.02759e-07
6.20015e-07
6.35981e-07
6.50571e-07
6.63733e-07
6.75446e-07
6.85717e-07
6.94572e-07
7.0206e-07
7.08239e-07
7.1318e-07
7.16962e-07
7.19669e-07
7.21387e-07
7.22203e-07
7.84096e-07
8.0155e-07
8.25967e-07
8.55962e-07
8.90307e-07
9.27887e-07
9.67689e-07
1.00879e-06
1.05037e-06
1.0917e-06
1.13215e-06
1.17118e-06
1.20833e-06
1.24326e-06
1.27569e-06
1.30542e-06
1.33233e-06
1.35635e-06
1.37747e-06
1.39574e-06
1.41121e-06
1.42402e-06
1.43428e-06
1.44215e-06
1.4478e-06
1.45138e-06
1.45309e-06
1.5276e-06
1.56091e-06
1.60758e-06
1.66504e-06
1.73101e-06
1.80343e-06
1.88038e-06
1.96015e-06
2.04116e-06
2.122e-06
2.20145e-06
2.27843e-06
2.35203e-06
2.42151e-06
2.48629e-06
2.54594e-06
2.60015e-06
2.64874e-06
2.69165e-06
2.7289e-06
2.7606e-06
2.78692e-06
2.80809e-06
2.82438e-06
2.83611e-06
2.84358e-06
2.84715e-06
2.84074e-06
2.90062e-06
2.98461e-06
3.08812e-06
3.20711e-06
3.33792e-06
3.4772e-06
3.62188e-06
3.76919e-06
3.91658e-06
4.06184e-06
4.20301e-06
4.3384e-06
4.46663e-06
4.58657e-06
4.69735e-06
4.79834e-06
4.88915e-06
4.96957e-06
5.03958e-06
5.09932e-06
5.14906e-06
5.18917e-06
5.22013e-06
5.24245e-06
5.25671e-06
5.26354e-06
4.9632e-06
5.06073e-06
5.19744e-06
5.36582e-06
5.55927e-06
5.77175e-06
5.99779e-06
6.23236e-06
6.4709e-06
6.70935e-06
6.94407e-06
7.17194e-06
7.39027e-06
7.59684e-06
7.78988e-06
7.96802e-06
8.13031e-06
8.27612e-06
8.40519e-06
8.5175e-06
8.61331e-06
8.69306e-06
8.75737e-06
8.80699e-06
8.84278e-06
8.86566e-06
8.8766e-06
8.06354e-06
8.2041e-06
8.40065e-06
8.64201e-06
8.91828e-06
9.2205e-06
9.54056e-06
9.87113e-06
1.02057e-05
1.05384e-05
1.08644e-05
1.11792e-05
1.14795e-05
1.17623e-05
1.20253e-05
1.22671e-05
1.24865e-05
1.26829e-05
1.28561e-05
1.30064e-05
1.31343e-05
1.32404e-05
1.33259e-05
1.33916e-05
1.3439e-05
1.34693e-05
1.34837e-05
1.2137e-05
1.23148e-05
1.25626e-05
1.28655e-05
1.32103e-05
1.35854e-05
1.39801e-05
1.4385e-05
1.47921e-05
1.51941e-05
1.55853e-05
1.59607e-05
1.63164e-05
1.66493e-05
1.69571e-05
1.72385e-05
1.74924e-05
1.77187e-05
1.79174e-05
1.80891e-05
1.82345e-05
1.83549e-05
1.84515e-05
1.85257e-05
1.8579e-05
1.86129e-05
1.86291e-05
1.69642e-05
1.71635e-05
1.74403e-05
1.77771e-05
1.81584e-05
1.85707e-05
1.90017e-05
1.94409e-05
1.98794e-05
2.03096e-05
2.07253e-05
2.11216e-05
2.14947e-05
2.18418e-05
2.2161e-05
2.24511e-05
2.27116e-05
2.29426e-05
2.31446e-05
2.33184e-05
2.34652e-05
2.35862e-05
2.3683e-05
2.37572e-05
2.38104e-05
2.38442e-05
2.38602e-05
2.218e-05
2.2382e-05
2.26616e-05
2.30005e-05
2.33824e-05
2.37931e-05
2.422e-05
2.46526e-05
2.5082e-05
2.55008e-05
2.59032e-05
2.62847e-05
2.6642e-05
2.69727e-05
2.72753e-05
2.75492e-05
2.7794e-05
2.80104e-05
2.81988e-05
2.83604e-05
2.84965e-05
2.86084e-05
2.86977e-05
2.8766e-05
2.88148e-05
2.88458e-05
2.88605e-05
2.7401e-05
2.75902e-05
2.78514e-05
2.81671e-05
2.85215e-05
2.8901e-05
2.92939e-05
2.96902e-05
3.00819e-05
3.04622e-05
3.0826e-05
3.11695e-05
3.14899e-05
3.17853e-05
3.20547e-05
3.22976e-05
3.25142e-05
3.27049e-05
3.28707e-05
3.30125e-05
3.31316e-05
3.32294e-05
3.33072e-05
3.33666e-05
3.3409e-05
3.34359e-05
3.34487e-05
3.23235e-05
3.24906e-05
3.27209e-05
3.29986e-05
3.33095e-05
3.36414e-05
3.3984e-05
3.43285e-05
3.46678e-05
3.49963e-05
3.53095e-05
3.56044e-05
3.58786e-05
3.61308e-05
3.63602e-05
3.65665e-05
3.675e-05
3.69114e-05
3.70513e-05
3.71708e-05
3.7271e-05
3.73531e-05
3.74184e-05
3.74682e-05
3.75037e-05
3.75262e-05
3.75368e-05
3.67594e-05
3.69008e-05
3.70954e-05
3.73296e-05
3.75914e-05
3.78704e-05
3.81576e-05
3.84458e-05
3.8729e-05
3.90025e-05
3.92628e-05
3.95073e-05
3.97343e-05
3.99425e-05
4.01316e-05
4.03014e-05
4.04522e-05
4.05846e-05
4.06992e-05
4.07969e-05
4.08788e-05
4.09458e-05
4.09991e-05
4.10396e-05
4.10685e-05
4.10868e-05
4.10955e-05
4.06241e-05
4.074e-05
4.08994e-05
4.10909e-05
4.13047e-05
4.15322e-05
4.17661e-05
4.20003e-05
4.22301e-05
4.24517e-05
4.26622e-05
4.28597e-05
4.30426e-05
4.32103e-05
4.33623e-05
4.34986e-05
4.36195e-05
4.37255e-05
4.38172e-05
4.38953e-05
4.39606e-05
4.4014e-05
4.40565e-05
4.40887e-05
4.41117e-05
4.41262e-05
4.41331e-05
4.39067e-05
4.39994e-05
4.41267e-05
4.42795e-05
4.445e-05
4.46311e-05
4.4817e-05
4.50031e-05
4.51853e-05
4.53608e-05
4.55273e-05
4.56832e-05
4.58275e-05
4.59596e-05
4.60791e-05
4.61862e-05
4.62811e-05
4.63641e-05
4.64359e-05
4.64969e-05
4.6548e-05
4.65897e-05
4.66227e-05
4.66479e-05
4.66657e-05
4.6677e-05
4.66824e-05
4.66406e-05
4.6713e-05
4.68125e-05
4.69319e-05
4.70649e-05
4.72061e-05
4.73509e-05
4.74955e-05
4.7637e-05
4.77731e-05
4.7902e-05
4.80225e-05
4.81339e-05
4.82357e-05
4.83278e-05
4.84101e-05
4.84829e-05
4.85466e-05
4.86015e-05
4.86482e-05
4.86872e-05
4.8719e-05
4.87442e-05
4.87633e-05
4.87769e-05
4.87855e-05
4.87896e-05
4.8881e-05
4.89365e-05
4.90127e-05
4.91039e-05
4.92055e-05
4.93132e-05
4.94234e-05
4.95334e-05
4.96408e-05
4.9744e-05
4.98415e-05
4.99326e-05
5.00166e-05
5.00932e-05
5.01624e-05
5.02241e-05
5.02787e-05
5.03263e-05
5.03672e-05
5.0402e-05
5.0431e-05
5.04546e-05
5.04733e-05
5.04875e-05
5.04975e-05
5.05039e-05
5.05068e-05
5.06914e-05
5.07328e-05
5.07897e-05
5.08577e-05
5.09333e-05
5.10133e-05
5.10951e-05
5.11766e-05
5.12559e-05
5.1332e-05
5.14037e-05
5.14705e-05
5.1532e-05
5.1588e-05
5.16384e-05
5.16833e-05
5.17228e-05
5.17572e-05
5.17868e-05
5.18118e-05
5.18326e-05
5.18495e-05
5.18629e-05
5.1873e-05
5.18801e-05
5.18846e-05
5.18867e-05
5.21342e-05
5.21641e-05
5.22052e-05
5.22543e-05
5.23087e-05
5.23662e-05
5.24247e-05
5.24829e-05
5.25394e-05
5.25933e-05
5.2644e-05
5.26911e-05
5.27342e-05
5.27734e-05
5.28084e-05
5.28396e-05
5.28669e-05
5.28906e-05
5.29109e-05
5.2928e-05
5.29421e-05
5.29536e-05
5.29626e-05
5.29694e-05
5.29742e-05
5.29772e-05
5.29786e-05
5.32671e-05
5.32877e-05
5.3316e-05
5.33497e-05
5.33869e-05
5.3426e-05
5.34658e-05
5.3505e-05
5.35429e-05
5.3579e-05
5.36126e-05
5.36437e-05
5.3672e-05
5.36975e-05
5.37202e-05
5.37402e-05
5.37577e-05
5.37727e-05
5.37854e-05
5.37961e-05
5.38049e-05
5.3812e-05
5.38175e-05
5.38216e-05
5.38245e-05
5.38263e-05
5.38271e-05
5.4141e-05
5.41541e-05
5.4172e-05
5.41933e-05
5.42166e-05
5.42409e-05
5.42654e-05
5.42894e-05
5.43123e-05
5.43339e-05
5.43538e-05
5.4372e-05
5.43883e-05
5.44027e-05
5.44155e-05
5.44265e-05
5.4436e-05
5.4444e-05
5.44507e-05
5.44562e-05
5.44607e-05
5.44642e-05
5.44669e-05
5.44689e-05
5.44702e-05
5.44711e-05
5.44714e-05
5.47996e-05
5.48067e-05
5.48162e-05
5.48274e-05
5.48395e-05
5.48519e-05
5.48642e-05
5.48759e-05
5.48867e-05
5.48966e-05
5.49054e-05
5.49132e-05
5.49198e-05
5.49254e-05
5.49301e-05
5.49339e-05
5.4937e-05
5.49394e-05
5.49412e-05
5.49426e-05
5.49436e-05
5.49442e-05
5.49447e-05
5.49449e-05
5.4945e-05
5.49451e-05
5.49451e-05
5.52799e-05
5.52821e-05
5.52849e-05
5.5288e-05
5.52911e-05
5.52939e-05
5.52963e-05
5.5298e-05
5.52992e-05
5.52997e-05
5.52996e-05
5.52989e-05
5.52978e-05
5.52963e-05
5.52945e-05
5.52925e-05
5.52904e-05
5.52883e-05
5.52862e-05
5.52843e-05
5.52825e-05
5.52808e-05
5.52795e-05
5.52783e-05
5.52775e-05
5.52769e-05
5.52766e-05
5.56127e-05
5.5611e-05
5.56084e-05
5.5605e-05
5.56008e-05
5.55959e-05
5.55903e-05
5.55841e-05
5.55774e-05
5.55704e-05
5.55631e-05
5.55557e-05
5.55483e-05
5.55411e-05
5.55341e-05
5.55275e-05
5.55213e-05
5.55155e-05
5.55103e-05
5.55057e-05
5.55016e-05
5.54982e-05
5.54954e-05
5.54931e-05
5.54915e-05
5.54904e-05
5.54899e-05
5.58237e-05
5.58187e-05
5.58118e-05
5.58032e-05
5.57931e-05
5.5782e-05
5.577e-05
5.57574e-05
5.57444e-05
5.57313e-05
5.57183e-05
5.57055e-05
5.56931e-05
5.56813e-05
5.56702e-05
5.56598e-05
5.56503e-05
5.56416e-05
5.56339e-05
5.56271e-05
5.56213e-05
5.56164e-05
5.56124e-05
5.56093e-05
5.5607e-05
5.56056e-05
5.56049e-05
5.59338e-05
5.59263e-05
5.59159e-05
5.5903e-05
5.58883e-05
5.58722e-05
5.5855e-05
5.58373e-05
5.58193e-05
5.58013e-05
5.57837e-05
5.57666e-05
5.57502e-05
5.57347e-05
5.57202e-05
5.57069e-05
5.56947e-05
5.56837e-05
5.5674e-05
5.56655e-05
5.56583e-05
5.56522e-05
5.56473e-05
5.56435e-05
5.56407e-05
5.5639e-05
5.56381e-05
5.59605e-05
5.5951e-05
5.59377e-05
5.59215e-05
5.5903e-05
5.58829e-05
5.58616e-05
5.58397e-05
5.58177e-05
5.57958e-05
5.57745e-05
5.57539e-05
5.57343e-05
5.57159e-05
5.56988e-05
5.56831e-05
5.56688e-05
5.5656e-05
5.56447e-05
5.56348e-05
5.56264e-05
5.56194e-05
5.56138e-05
5.56094e-05
5.56063e-05
5.56043e-05
5.56033e-05
5.5918e-05
5.59069e-05
5.58914e-05
5.58725e-05
5.58509e-05
5.58276e-05
5.5803e-05
5.57779e-05
5.57526e-05
5.57276e-05
5.57033e-05
5.568e-05
5.56578e-05
5.56371e-05
5.56179e-05
5.56002e-05
5.55843e-05
5.557e-05
5.55574e-05
5.55465e-05
5.55372e-05
5.55295e-05
5.55233e-05
5.55185e-05
5.5515e-05
5.55128e-05
5.55118e-05
5.58181e-05
5.58057e-05
5.57884e-05
5.57673e-05
5.57434e-05
5.57174e-05
5.56903e-05
5.56625e-05
5.56346e-05
5.56072e-05
5.55805e-05
5.5555e-05
5.55308e-05
5.55082e-05
5.54873e-05
5.54682e-05
5.54509e-05
5.54355e-05
5.54219e-05
5.54102e-05
5.54002e-05
5.53919e-05
5.53852e-05
5.53801e-05
5.53764e-05
5.5374e-05
5.53729e-05
5.56704e-05
5.5657e-05
5.56382e-05
5.56154e-05
5.55895e-05
5.55616e-05
5.55323e-05
5.55024e-05
5.54725e-05
5.54431e-05
5.54146e-05
5.53873e-05
5.53616e-05
5.53375e-05
5.53153e-05
5.5295e-05
5.52766e-05
5.52603e-05
5.5246e-05
5.52335e-05
5.5223e-05
5.52143e-05
5.52072e-05
5.52018e-05
5.51979e-05
5.51954e-05
5.51943e-05
5.54828e-05
5.54685e-05
5.54486e-05
5.54244e-05
5.5397e-05
5.53675e-05
5.53365e-05
5.5305e-05
5.52735e-05
5.52425e-05
5.52125e-05
5.51839e-05
5.51569e-05
5.51316e-05
5.51084e-05
5.50871e-05
5.5068e-05
5.5051e-05
5.5036e-05
5.50231e-05
5.50121e-05
5.5003e-05
5.49957e-05
5.49901e-05
5.49861e-05
5.49835e-05
5.49822e-05
5.52617e-05
5.52467e-05
5.52259e-05
5.52006e-05
5.5172e-05
5.51412e-05
5.51089e-05
5.50761e-05
5.50433e-05
5.50111e-05
5.498e-05
5.49502e-05
5.49222e-05
5.48961e-05
5.4872e-05
5.48501e-05
5.48303e-05
5.48127e-05
5.47973e-05
5.4784e-05
5.47727e-05
5.47633e-05
5.47558e-05
5.475e-05
5.47459e-05
5.47432e-05
5.4742e-05
5.50122e-05
5.49967e-05
5.49752e-05
5.49491e-05
5.49195e-05
5.48876e-05
5.48544e-05
5.48205e-05
5.47867e-05
5.47535e-05
5.47215e-05
5.46909e-05
5.46621e-05
5.46353e-05
5.46106e-05
5.45881e-05
5.45678e-05
5.45498e-05
5.4534e-05
5.45204e-05
5.45089e-05
5.44993e-05
5.44916e-05
5.44857e-05
5.44815e-05
5.44788e-05
5.44775e-05
5.47386e-05
5.47227e-05
5.47006e-05
5.46738e-05
5.46435e-05
5.46108e-05
5.45767e-05
5.4542e-05
5.45074e-05
5.44735e-05
5.44408e-05
5.44096e-05
5.43802e-05
5.43528e-05
5.43276e-05
5.43047e-05
5.4284e-05
5.42657e-05
5.42496e-05
5.42357e-05
5.4224e-05
5.42143e-05
5.42065e-05
5.42005e-05
5.41962e-05
5.41935e-05
5.41922e-05
5.44441e-05
5.44279e-05
5.44054e-05
5.4378e-05
5.43471e-05
5.43138e-05
5.4279e-05
5.42437e-05
5.42085e-05
5.4174e-05
5.41407e-05
5.41089e-05
5.4079e-05
5.40512e-05
5.40257e-05
5.40024e-05
5.39814e-05
5.39628e-05
5.39465e-05
5.39325e-05
5.39206e-05
5.39108e-05
5.39029e-05
5.38968e-05
5.38925e-05
5.38897e-05
5.38884e-05
5.41313e-05
5.41148e-05
5.40919e-05
5.40641e-05
5.40327e-05
5.39988e-05
5.39636e-05
5.39277e-05
5.3892e-05
5.3857e-05
5.38232e-05
5.3791e-05
5.37608e-05
5.37326e-05
5.37067e-05
5.36832e-05
5.3662e-05
5.36432e-05
5.36267e-05
5.36125e-05
5.36005e-05
5.35906e-05
5.35826e-05
5.35765e-05
5.35721e-05
5.35693e-05
5.3568e-05
5.38019e-05
5.37851e-05
5.37619e-05
5.37337e-05
5.37019e-05
5.36676e-05
5.36319e-05
5.35955e-05
5.35594e-05
5.3524e-05
5.34898e-05
5.34573e-05
5.34267e-05
5.33982e-05
5.3372e-05
5.33482e-05
5.33268e-05
5.33079e-05
5.32912e-05
5.32769e-05
5.32648e-05
5.32548e-05
5.32468e-05
5.32406e-05
5.32362e-05
5.32334e-05
5.3232e-05
5.34569e-05
5.344e-05
5.34164e-05
5.33879e-05
5.33557e-05
5.3321e-05
5.32848e-05
5.32481e-05
5.32115e-05
5.31757e-05
5.31412e-05
5.31083e-05
5.30774e-05
5.30486e-05
5.30222e-05
5.29982e-05
5.29766e-05
5.29574e-05
5.29407e-05
5.29262e-05
5.2914e-05
5.29039e-05
5.28958e-05
5.28896e-05
5.28852e-05
5.28823e-05
5.2881e-05
5.30969e-05
5.30797e-05
5.30559e-05
5.3027e-05
5.29944e-05
5.29593e-05
5.29227e-05
5.28856e-05
5.28486e-05
5.28124e-05
5.27774e-05
5.27442e-05
5.2713e-05
5.26839e-05
5.26572e-05
5.26329e-05
5.26111e-05
5.25918e-05
5.25749e-05
5.25603e-05
5.2548e-05
5.25378e-05
5.25296e-05
5.25234e-05
5.25189e-05
5.2516e-05
5.25146e-05
5.27214e-05
5.2704e-05
5.26799e-05
5.26507e-05
5.26177e-05
5.25821e-05
5.2545e-05
5.25074e-05
5.24699e-05
5.24333e-05
5.23979e-05
5.23643e-05
5.23327e-05
5.23033e-05
5.22763e-05
5.22517e-05
5.22297e-05
5.22101e-05
5.2193e-05
5.21782e-05
5.21658e-05
5.21555e-05
5.21472e-05
5.21409e-05
5.21364e-05
5.21335e-05
5.21321e-05
5.23297e-05
5.2312e-05
5.22875e-05
5.22578e-05
5.22243e-05
5.21882e-05
5.21506e-05
5.21124e-05
5.20744e-05
5.20372e-05
5.20013e-05
5.19672e-05
5.19351e-05
5.19053e-05
5.18779e-05
5.1853e-05
5.18306e-05
5.18108e-05
5.17934e-05
5.17785e-05
5.17658e-05
5.17554e-05
5.17471e-05
5.17406e-05
5.1736e-05
5.17331e-05
5.17317e-05
5.19198e-05
5.19018e-05
5.18769e-05
5.18467e-05
5.18125e-05
5.17758e-05
5.17375e-05
5.16986e-05
5.16599e-05
5.1622e-05
5.15855e-05
5.15507e-05
5.1518e-05
5.14877e-05
5.14597e-05
5.14344e-05
5.14116e-05
5.13914e-05
5.13738e-05
5.13585e-05
5.13457e-05
5.13351e-05
5.13266e-05
5.132e-05
5.13154e-05
5.13124e-05
5.1311e-05
5.14893e-05
5.14709e-05
5.14454e-05
5.14145e-05
5.13796e-05
5.1342e-05
5.13028e-05
5.1263e-05
5.12234e-05
5.11846e-05
5.11472e-05
5.11117e-05
5.10782e-05
5.10472e-05
5.10186e-05
5.09927e-05
5.09694e-05
5.09487e-05
5.09306e-05
5.0915e-05
5.09019e-05
5.0891e-05
5.08823e-05
5.08756e-05
5.08709e-05
5.08678e-05
5.08664e-05
5.10345e-05
5.10156e-05
5.09894e-05
5.09576e-05
5.09217e-05
5.0883e-05
5.08427e-05
5.08017e-05
5.0761e-05
5.07211e-05
5.06826e-05
5.0646e-05
5.06116e-05
5.05796e-05
5.05502e-05
5.05235e-05
5.04995e-05
5.04782e-05
5.04596e-05
5.04435e-05
5.043e-05
5.04188e-05
5.04098e-05
5.0403e-05
5.0398e-05
5.03949e-05
5.03934e-05
5.05509e-05
5.05313e-05
5.05042e-05
5.04712e-05
5.0434e-05
5.0394e-05
5.03522e-05
5.03098e-05
5.02675e-05
5.02262e-05
5.01863e-05
5.01483e-05
5.01126e-05
5.00795e-05
5.0049e-05
5.00213e-05
4.99964e-05
4.99743e-05
4.9955e-05
4.99383e-05
4.99243e-05
4.99127e-05
4.99034e-05
4.98963e-05
4.98911e-05
4.98879e-05
4.98863e-05
5.00325e-05
5.0012e-05
4.99837e-05
4.99493e-05
4.99105e-05
4.98687e-05
4.98251e-05
4.97808e-05
4.97366e-05
4.96934e-05
4.96518e-05
4.96121e-05
4.95748e-05
4.95401e-05
4.95082e-05
4.94792e-05
4.94532e-05
4.94301e-05
4.94099e-05
4.93924e-05
4.93777e-05
4.93656e-05
4.93559e-05
4.93484e-05
4.93431e-05
4.93397e-05
4.9338e-05
4.9472e-05
4.94505e-05
4.94207e-05
4.93845e-05
4.93437e-05
4.92996e-05
4.92537e-05
4.9207e-05
4.91605e-05
4.91149e-05
4.9071e-05
4.90291e-05
4.89897e-05
4.89531e-05
4.89195e-05
4.88889e-05
4.88614e-05
4.8837e-05
4.88157e-05
4.87973e-05
4.87817e-05
4.87689e-05
4.87586e-05
4.87508e-05
4.87451e-05
4.87415e-05
4.87398e-05
4.88607e-05
4.88379e-05
4.88062e-05
4.87678e-05
4.87243e-05
4.86775e-05
4.86286e-05
4.8579e-05
4.85295e-05
4.8481e-05
4.84342e-05
4.83896e-05
4.83477e-05
4.83087e-05
4.82728e-05
4.82402e-05
4.82109e-05
4.81849e-05
4.81622e-05
4.81426e-05
4.8126e-05
4.81123e-05
4.81014e-05
4.80929e-05
4.80869e-05
4.80831e-05
4.80813e-05
4.81881e-05
4.81636e-05
4.81296e-05
4.80883e-05
4.80417e-05
4.79915e-05
4.7939e-05
4.78856e-05
4.78325e-05
4.77804e-05
4.773e-05
4.76821e-05
4.7637e-05
4.7595e-05
4.75565e-05
4.75213e-05
4.74898e-05
4.74618e-05
4.74373e-05
4.74162e-05
4.73983e-05
4.73836e-05
4.73718e-05
4.73627e-05
4.73562e-05
4.73521e-05
4.73501e-05
4.74417e-05
4.74152e-05
4.73784e-05
4.73337e-05
4.72832e-05
4.72287e-05
4.71718e-05
4.7114e-05
4.70563e-05
4.69998e-05
4.69452e-05
4.68931e-05
4.68441e-05
4.67986e-05
4.67566e-05
4.67185e-05
4.66842e-05
4.66538e-05
4.66271e-05
4.66042e-05
4.65848e-05
4.65687e-05
4.65559e-05
4.6546e-05
4.6539e-05
4.65345e-05
4.65323e-05
4.66075e-05
4.65785e-05
4.65383e-05
4.64895e-05
4.64343e-05
4.63747e-05
4.63125e-05
4.62492e-05
4.61861e-05
4.61242e-05
4.60644e-05
4.60074e-05
4.59538e-05
4.59038e-05
4.58579e-05
4.5816e-05
4.57785e-05
4.57451e-05
4.57159e-05
4.56907e-05
4.56694e-05
4.56518e-05
4.56378e-05
4.5627e-05
4.56192e-05
4.56143e-05
4.56119e-05
4.56696e-05
4.56377e-05
4.55934e-05
4.55396e-05
4.54788e-05
4.54131e-05
4.53446e-05
4.52748e-05
4.52052e-05
4.51369e-05
4.5071e-05
4.50081e-05
4.49489e-05
4.48938e-05
4.4843e-05
4.47969e-05
4.47554e-05
4.47185e-05
4.46862e-05
4.46584e-05
4.46349e-05
4.46155e-05
4.45999e-05
4.4588e-05
4.45795e-05
4.4574e-05
4.45714e-05
4.46107e-05
4.45753e-05
4.45262e-05
4.44666e-05
4.43992e-05
4.43264e-05
4.42504e-05
4.41731e-05
4.40958e-05
4.40201e-05
4.3947e-05
4.38772e-05
4.38115e-05
4.37503e-05
4.3694e-05
4.36427e-05
4.35967e-05
4.35557e-05
4.35199e-05
4.3489e-05
4.34629e-05
4.34414e-05
4.34241e-05
4.34108e-05
4.34013e-05
4.33953e-05
4.33924e-05
4.34128e-05
4.33734e-05
4.33188e-05
4.32525e-05
4.31775e-05
4.30965e-05
4.30119e-05
4.29258e-05
4.28398e-05
4.27555e-05
4.26741e-05
4.25964e-05
4.25232e-05
4.24551e-05
4.23924e-05
4.23353e-05
4.2284e-05
4.22385e-05
4.21986e-05
4.21642e-05
4.21351e-05
4.21111e-05
4.20919e-05
4.20771e-05
4.20665e-05
4.20598e-05
4.20566e-05
4.20582e-05
4.20144e-05
4.19536e-05
4.18796e-05
4.17961e-05
4.17058e-05
4.16116e-05
4.15156e-05
4.14199e-05
4.13259e-05
4.12352e-05
4.11486e-05
4.10671e-05
4.09912e-05
4.09214e-05
4.08578e-05
4.08006e-05
4.07499e-05
4.07055e-05
4.06672e-05
4.06348e-05
4.0608e-05
4.05866e-05
4.05702e-05
4.05584e-05
4.05509e-05
4.05473e-05
4.05314e-05
4.04826e-05
4.0415e-05
4.03327e-05
4.02398e-05
4.01394e-05
4.00346e-05
3.99279e-05
3.98214e-05
3.9717e-05
3.96161e-05
3.95199e-05
3.94293e-05
3.9345e-05
3.92673e-05
3.91967e-05
3.91333e-05
3.90769e-05
3.90276e-05
3.8985e-05
3.89491e-05
3.89194e-05
3.88956e-05
3.88774e-05
3.88643e-05
3.8856e-05
3.8852e-05
3.88211e-05
3.87671e-05
3.86921e-05
3.86011e-05
3.84982e-05
3.83871e-05
3.82711e-05
3.81531e-05
3.80353e-05
3.79199e-05
3.78084e-05
3.77021e-05
3.7602e-05
3.75089e-05
3.74232e-05
3.73452e-05
3.72751e-05
3.7213e-05
3.71585e-05
3.71116e-05
3.7072e-05
3.70393e-05
3.70131e-05
3.6993e-05
3.69786e-05
3.69694e-05
3.6965e-05
3.69231e-05
3.68638e-05
3.67815e-05
3.66816e-05
3.65687e-05
3.64468e-05
3.63196e-05
3.61902e-05
3.60612e-05
3.59347e-05
3.58126e-05
3.56963e-05
3.55868e-05
3.54849e-05
3.53912e-05
3.5306e-05
3.52295e-05
3.51615e-05
3.51021e-05
3.50509e-05
3.50077e-05
3.4972e-05
3.49434e-05
3.49215e-05
3.49058e-05
3.48958e-05
3.4891e-05
3.4844e-05
3.47797e-05
3.46904e-05
3.45821e-05
3.44597e-05
3.43276e-05
3.41899e-05
3.40499e-05
3.39103e-05
3.37736e-05
3.36417e-05
3.3516e-05
3.33979e-05
3.3288e-05
3.3187e-05
3.30952e-05
3.30127e-05
3.29396e-05
3.28756e-05
3.28205e-05
3.2774e-05
3.27356e-05
3.27049e-05
3.26813e-05
3.26645e-05
3.26537e-05
3.26486e-05
3.26039e-05
3.25352e-05
3.244e-05
3.23244e-05
3.21939e-05
3.20532e-05
3.19066e-05
3.17576e-05
3.16092e-05
3.14639e-05
3.13239e-05
3.11906e-05
3.10653e-05
3.09488e-05
3.08419e-05
3.07447e-05
3.06575e-05
3.05802e-05
3.05126e-05
3.04544e-05
3.04053e-05
3.03648e-05
3.03323e-05
3.03075e-05
3.02897e-05
3.02784e-05
3.0273e-05
3.02387e-05
3.01668e-05
3.00672e-05
2.99464e-05
2.981e-05
2.96632e-05
2.95103e-05
2.9355e-05
2.92006e-05
2.90495e-05
2.89039e-05
2.87655e-05
2.86355e-05
2.85148e-05
2.84039e-05
2.83033e-05
2.82131e-05
2.81331e-05
2.80633e-05
2.80032e-05
2.79525e-05
2.79107e-05
2.78772e-05
2.78516e-05
2.78333e-05
2.78216e-05
2.78161e-05
2.77997e-05
2.77262e-05
2.76245e-05
2.75012e-05
2.73622e-05
2.72126e-05
2.7057e-05
2.68991e-05
2.67421e-05
2.65888e-05
2.64412e-05
2.6301e-05
2.61694e-05
2.60474e-05
2.59354e-05
2.58339e-05
2.57428e-05
2.56622e-05
2.55919e-05
2.55314e-05
2.54803e-05
2.54383e-05
2.54046e-05
2.53789e-05
2.53605e-05
2.53487e-05
2.53431e-05
2.53501e-05
2.5277e-05
2.51758e-05
2.50533e-05
2.49152e-05
2.47668e-05
2.46126e-05
2.44562e-05
2.4301e-05
2.41495e-05
2.40039e-05
2.38656e-05
2.3736e-05
2.36159e-05
2.35058e-05
2.3406e-05
2.33166e-05
2.32375e-05
2.31685e-05
2.31092e-05
2.30593e-05
2.30181e-05
2.29852e-05
2.296e-05
2.29419e-05
2.29305e-05
2.2925e-05
2.29572e-05
2.28864e-05
2.27884e-05
2.26698e-05
2.25364e-05
2.23931e-05
2.22442e-05
2.20935e-05
2.1944e-05
2.17983e-05
2.16583e-05
2.15256e-05
2.14012e-05
2.12861e-05
2.11806e-05
2.10851e-05
2.09996e-05
2.09241e-05
2.08581e-05
2.08015e-05
2.07538e-05