/*--------------------------------*- C++ -*----------------------------------*\
| =========                 |                                                 |
| \\      /  F ield         | OpenFOAM: The Open Source CFD Toolbox           |
|  \\    /   O peration     | Version:  2106                                  |
|   \\  /    A nd           | Website:  www.openfoam.com                      |
|    \\/     M anipulation  |                                                 |
\*---------------------------------------------------------------------------*/
FoamFile
{
    version     2.0;
    format      ascii;
    arch        "LSB;label=32;scalar=64";
    class       volScalarField;
    location    "110.00000";
    object      C4H2_0;
}
// * * * * * * * * * * * * * * * * * * * * * * * * * * * * * * * * * * * * * //

dimensions      [0 0 0 0 0 0 0];

internalField   nonuniform List<scalar> 
3360
(
3.32666e-18
3.43373e-18
3.58273e-18
3.76498e-18
3.97289e-18
4.19965e-18
4.43907e-18
4.68563e-18
4.93434e-18
5.18085e-18
5.42137e-18
5.65268e-18
5.87212e-18
6.07758e-18
6.26745e-18
6.44061e-18
6.59636e-18
6.7344e-18
6.85479e-18
6.9579e-18
7.04433e-18
7.11493e-18
7.17069e-18
7.21275e-18
7.24234e-18
7.26075e-18
7.2693e-18
1.45938e-17
1.51303e-17
1.58874e-17
1.68302e-17
1.79298e-17
1.91611e-17
2.05016e-17
2.19307e-17
2.34292e-17
2.49789e-17
2.65626e-17
2.81633e-17
2.97643e-17
3.13492e-17
3.29017e-17
3.4406e-17
3.58464e-17
3.72079e-17
3.84759e-17
3.96368e-17
4.06783e-17
4.15892e-17
4.23603e-17
4.29838e-17
4.34544e-17
4.37687e-17
4.39254e-17
4.57926e-17
4.78027e-17
5.0659e-17
5.42481e-17
5.84761e-17
6.32584e-17
6.85147e-17
7.41657e-17
8.01315e-17
8.63301e-17
9.26779e-17
9.9092e-17
1.0549e-16
1.11791e-16
1.17916e-16
1.23791e-16
1.29346e-16
1.3452e-16
1.3926e-16
1.4352e-16
1.47266e-16
1.50473e-16
1.53129e-16
1.55228e-16
1.56775e-16
1.57785e-16
1.58276e-16
1.33369e-16
1.39995e-16
1.49473e-16
1.61464e-16
1.75686e-16
1.91872e-16
2.09757e-16
2.29067e-16
2.49512e-16
2.70789e-16
2.92586e-16
3.14582e-16
3.36461e-16
3.57916e-16
3.78652e-16
3.98403e-16
4.16928e-16
4.34026e-16
4.49535e-16
4.63331e-16
4.75335e-16
4.85505e-16
4.93834e-16
5.00348e-16
5.05102e-16
5.08171e-16
5.09652e-16
3.89679e-16
4.10582e-16
4.40541e-16
4.78532e-16
5.23688e-16
5.75174e-16
6.32132e-16
6.93653e-16
7.58767e-16
8.26453e-16
8.95655e-16
9.65306e-16
1.03436e-15
1.10182e-15
1.16677e-15
1.22837e-15
1.28591e-15
1.3388e-15
1.38658e-15
1.42893e-15
1.46565e-15
1.49665e-15
1.52196e-15
1.54171e-15
1.55608e-15
1.56534e-15
1.56979e-15
1.14905e-15
1.21324e-15
1.30537e-15
1.4223e-15
1.56135e-15
1.71994e-15
1.89539e-15
2.08484e-15
2.28524e-15
2.49338e-15
2.70596e-15
2.91964e-15
3.13118e-15
3.33751e-15
3.53579e-15
3.72352e-15
3.89855e-15
4.05914e-15
4.20397e-15
4.3321e-15
4.44301e-15
4.5365e-15
4.61273e-15
4.6721e-15
4.71525e-15
4.74303e-15
4.75638e-15
3.41348e-15
3.60856e-15
3.8885e-15
4.24383e-15
4.66637e-15
5.14816e-15
5.68094e-15
6.2559e-15
6.86366e-15
7.49438e-15
8.13794e-15
8.78422e-15
9.42342e-15
1.00462e-14
1.06442e-14
1.12099e-14
1.17368e-14
1.222e-14
1.26554e-14
1.30404e-14
1.33735e-14
1.36542e-14
1.3883e-14
1.40611e-14
1.41905e-14
1.42738e-14
1.43138e-14
1.0174e-14
1.07611e-14
1.16039e-14
1.2674e-14
1.3947e-14
1.53986e-14
1.7004e-14
1.87363e-14
2.05672e-14
2.24668e-14
2.44044e-14
2.63497e-14
2.82728e-14
3.01459e-14
3.19435e-14
3.36431e-14
3.52259e-14
3.66763e-14
3.79829e-14
3.91377e-14
4.01364e-14
4.09775e-14
4.16628e-14
4.21961e-14
4.25836e-14
4.28328e-14
4.29526e-14
3.0404e-14
3.21684e-14
3.4701e-14
3.79163e-14
4.17404e-14
4.61005e-14
5.09212e-14
5.61217e-14
6.16162e-14
6.7315e-14
7.31259e-14
7.89574e-14
8.47206e-14
9.03321e-14
9.57158e-14
1.00805e-13
1.05543e-13
1.09884e-13
1.13793e-13
1.17249e-13
1.20236e-13
1.22752e-13
1.24802e-13
1.26398e-13
1.27557e-13
1.28302e-13
1.28661e-13
9.08613e-14
9.61457e-14
1.03733e-13
1.13365e-13
1.24822e-13
1.37884e-13
1.52325e-13
1.67903e-13
1.84359e-13
2.01425e-13
2.18824e-13
2.36281e-13
2.53531e-13
2.70322e-13
2.86429e-13
3.0165e-13
3.15818e-13
3.28795e-13
3.40481e-13
3.50805e-13
3.5973e-13
3.67245e-13
3.73366e-13
3.78129e-13
3.81588e-13
3.83813e-13
3.84881e-13
2.71656e-13
2.87475e-13
3.10181e-13
3.39004e-13
3.73277e-13
4.12344e-13
4.55523e-13
5.02087e-13
5.51261e-13
6.02239e-13
6.54194e-13
7.06306e-13
7.57781e-13
8.07874e-13
8.55909e-13
9.01292e-13
9.43521e-13
9.82195e-13
1.01701e-12
1.04777e-12
1.07435e-12
1.09673e-12
1.11496e-12
1.12914e-12
1.13944e-12
1.14606e-12
1.14924e-12
8.11365e-13
8.58589e-13
9.26371e-13
1.0124e-12
1.11467e-12
1.23122e-12
1.35999e-12
1.49882e-12
1.64538e-12
1.79726e-12
1.95199e-12
2.10712e-12
2.2603e-12
2.40931e-12
2.55214e-12
2.68703e-12
2.8125e-12
2.92737e-12
3.03074e-12
3.12202e-12
3.20089e-12
3.26727e-12
3.32131e-12
3.36335e-12
3.39387e-12
3.41349e-12
3.42292e-12
2.42045e-12
2.56117e-12
2.76307e-12
3.01921e-12
3.32355e-12
3.67018e-12
4.05294e-12
4.4653e-12
4.90034e-12
5.35086e-12
5.80952e-12
6.26908e-12
6.72253e-12
7.16335e-12
7.58563e-12
7.9842e-12
8.35473e-12
8.69377e-12
8.99873e-12
9.26791e-12
9.50039e-12
9.696e-12
9.85519e-12
9.97899e-12
1.00689e-11
1.01266e-11
1.01543e-11
7.19861e-12
7.61593e-12
8.21445e-12
8.97338e-12
9.87457e-12
1.09003e-11
1.2032e-11
1.32502e-11
1.45342e-11
1.58628e-11
1.7214e-11
1.85666e-11
1.99e-11
2.1195e-11
2.24344e-11
2.36031e-11
2.46887e-11
2.56812e-11
2.65732e-11
2.736e-11
2.80391e-11
2.86101e-11
2.90745e-11
2.94355e-11
2.96973e-11
2.98656e-11
2.99463e-11
2.13281e-11
2.25585e-11
2.43221e-11
2.65563e-11
2.92066e-11
3.22195e-11
3.55398e-11
3.91089e-11
4.28658e-11
4.67471e-11
5.06891e-11
5.46293e-11
5.85079e-11
6.22697e-11
6.5865e-11
6.92511e-11
7.23924e-11
7.5261e-11
7.78365e-11
8.01059e-11
8.20628e-11
8.37068e-11
8.5043e-11
8.60809e-11
8.68334e-11
8.73166e-11
8.75484e-11
6.28089e-11
6.64012e-11
7.15453e-11
7.80547e-11
8.57657e-11
9.45181e-11
1.04147e-10
1.14478e-10
1.25333e-10
1.36525e-10
1.47871e-10
1.59189e-10
1.70309e-10
1.81073e-10
1.91343e-10
2.00998e-10
2.0994e-10
2.18093e-10
2.25402e-10
2.31833e-10
2.37371e-10
2.42018e-10
2.45791e-10
2.48719e-10
2.50839e-10
2.522e-10
2.52852e-10
1.83498e-10
1.93848e-10
2.08649e-10
2.27346e-10
2.49452e-10
2.74488e-10
3.01964e-10
3.31371e-10
3.62186e-10
3.93876e-10
4.25914e-10
4.5779e-10
4.89027e-10
5.1919e-10
5.47896e-10
5.74822e-10
5.99705e-10
6.22345e-10
6.42602e-10
6.60395e-10
6.75691e-10
6.88508e-10
6.98899e-10
7.06951e-10
7.12778e-10
7.16512e-10
7.18301e-10
5.30329e-10
5.59594e-10
6.01374e-10
6.54038e-10
7.16136e-10
7.86259e-10
8.62972e-10
9.44806e-10
1.03026e-09
1.11784e-09
1.20608e-09
1.29357e-09
1.37903e-09
1.46129e-09
1.53933e-09
1.61232e-09
1.6796e-09
1.74065e-09
1.79514e-09
1.8429e-09
1.88388e-09
1.91815e-09
1.94589e-09
1.96735e-09
1.98286e-09
1.99279e-09
1.99754e-09
1.51124e-09
1.59197e-09
1.70697e-09
1.85151e-09
2.02137e-09
2.21244e-09
2.42064e-09
2.6418e-09
2.87176e-09
3.10643e-09
3.34186e-09
3.57434e-09
3.80051e-09
4.01738e-09
4.2224e-09
4.4135e-09
4.58906e-09
4.74791e-09
4.88932e-09
5.01294e-09
5.11876e-09
5.20708e-09
5.27842e-09
5.33354e-09
5.3733e-09
5.39872e-09
5.41087e-09
4.22819e-09
4.44394e-09
4.75041e-09
5.13423e-09
5.58343e-09
6.08645e-09
6.63191e-09
7.20845e-09
7.80494e-09
8.41061e-09
9.01527e-09
9.60957e-09
1.01851e-08
1.07346e-08
1.1252e-08
1.17325e-08
1.21723e-08
1.25689e-08
1.2921e-08
1.32279e-08
1.349e-08
1.37083e-08
1.38842e-08
1.40199e-08
1.41176e-08
1.418e-08
1.42098e-08
1.15588e-08
1.21133e-08
1.28984e-08
1.38778e-08
1.50185e-08
1.62894e-08
1.766e-08
1.91008e-08
2.05832e-08
2.20802e-08
2.35669e-08
2.50207e-08
2.64219e-08
2.77537e-08
2.90024e-08
3.01573e-08
3.12108e-08
3.21577e-08
3.29957e-08
3.37241e-08
3.43447e-08
3.48602e-08
3.5275e-08
3.55942e-08
3.58238e-08
3.59702e-08
3.604e-08
3.07051e-08
3.20668e-08
3.39884e-08
3.63751e-08
3.91412e-08
4.22064e-08
4.54936e-08
4.89293e-08
5.24444e-08
5.59747e-08
5.94622e-08
6.28554e-08
6.61102e-08
6.91902e-08
7.20661e-08
7.4716e-08
7.71246e-08
7.92828e-08
8.11869e-08
8.2838e-08
8.4241e-08
8.54042e-08
8.63383e-08
8.70561e-08
8.75715e-08
8.78997e-08
8.80559e-08
7.88303e-08
8.2012e-08
8.64874e-08
9.20223e-08
9.84063e-08
1.05444e-07
1.1295e-07
1.20753e-07
1.28694e-07
1.36628e-07
1.44428e-07
1.51981e-07
1.59195e-07
1.65993e-07
1.72318e-07
1.78125e-07
1.83387e-07
1.88088e-07
1.92225e-07
1.95804e-07
1.98839e-07
2.0135e-07
2.03363e-07
2.04907e-07
2.06015e-07
2.0672e-07
2.07055e-07
1.94676e-07
2.01743e-07
2.11654e-07
2.23865e-07
2.37889e-07
2.53277e-07
2.69613e-07
2.86516e-07
3.03637e-07
3.20668e-07
3.37338e-07
3.53419e-07
3.68719e-07
3.83089e-07
3.96415e-07
4.08615e-07
4.1964e-07
4.29466e-07
4.38095e-07
4.45544e-07
4.51849e-07
4.57059e-07
4.61229e-07
4.64424e-07
4.66713e-07
4.68167e-07
4.68859e-07
4.60967e-07
4.75928e-07
4.96862e-07
5.22575e-07
5.52007e-07
5.84184e-07
6.18217e-07
6.53297e-07
6.88704e-07
7.23803e-07
7.58046e-07
7.90976e-07
8.2222e-07
8.51486e-07
8.78559e-07
9.03291e-07
9.25596e-07
9.4544e-07
9.62834e-07
9.7783e-07
9.90505e-07
1.00096e-06
1.00933e-06
1.01573e-06
1.02031e-06
1.02322e-06
1.0246e-06
1.04475e-06
1.07512e-06
1.11755e-06
1.16957e-06
1.22897e-06
1.29375e-06
1.3621e-06
1.4324e-06
1.50318e-06
1.5732e-06
1.64138e-06
1.70682e-06
1.76881e-06
1.82679e-06
1.88036e-06
1.92923e-06
1.97327e-06
2.0124e-06
2.04668e-06
2.07621e-06
2.10116e-06
2.12173e-06
2.13817e-06
2.15075e-06
2.15975e-06
2.16547e-06
2.16818e-06
2.26434e-06
2.32389e-06
2.40701e-06
2.50881e-06
2.62497e-06
2.75154e-06
2.88497e-06
3.02211e-06
3.16013e-06
3.29661e-06
3.42948e-06
3.55702e-06
3.67785e-06
3.79089e-06
3.89536e-06
3.99074e-06
4.07671e-06
4.15318e-06
4.2202e-06
4.27798e-06
4.32684e-06
4.36715e-06
4.39941e-06
4.42411e-06
4.44179e-06
4.45303e-06
4.45837e-06
4.68693e-06
4.80005e-06
4.95796e-06
5.15142e-06
5.37226e-06
5.61307e-06
5.86717e-06
6.12861e-06
6.39209e-06
6.65304e-06
6.90754e-06
7.1523e-06
7.38466e-06
7.60254e-06
7.80437e-06
7.98906e-06
8.15595e-06
8.30477e-06
8.43553e-06
8.54855e-06
8.64433e-06
8.72358e-06
8.78713e-06
8.83591e-06
8.87092e-06
8.89321e-06
8.90382e-06
9.23885e-06
9.44574e-06
9.73475e-06
1.00892e-05
1.04942e-05
1.09364e-05
1.14039e-05
1.18857e-05
1.23723e-05
1.28553e-05
1.33276e-05
1.37829e-05
1.42164e-05
1.46239e-05
1.50024e-05
1.53499e-05
1.56647e-05
1.59462e-05
1.61943e-05
1.64093e-05
1.6592e-05
1.67436e-05
1.68655e-05
1.69593e-05
1.70268e-05
1.70698e-05
1.70904e-05
1.72564e-05
1.7614e-05
1.81137e-05
1.87267e-05
1.94275e-05
2.01931e-05
2.10029e-05
2.18383e-05
2.26826e-05
2.35215e-05
2.43424e-05
2.51347e-05
2.58897e-05
2.66003e-05
2.72611e-05
2.78683e-05
2.84191e-05
2.89122e-05
2.93472e-05
2.97247e-05
3.00458e-05
3.03126e-05
3.05273e-05
3.06927e-05
3.08119e-05
3.08881e-05
3.09245e-05
3.03419e-05
3.0912e-05
3.1708e-05
3.26835e-05
3.37973e-05
3.50126e-05
3.62961e-05
3.7618e-05
3.89521e-05
4.02754e-05
4.15683e-05
4.28142e-05
4.39995e-05
4.51135e-05
4.61479e-05
4.70969e-05
4.79568e-05
4.87256e-05
4.9403e-05
4.99902e-05
5.04893e-05
5.09035e-05
5.12367e-05
5.14932e-05
5.16778e-05
5.17957e-05
5.18521e-05
4.99371e-05
5.0761e-05
5.19093e-05
5.33132e-05
5.49118e-05
5.66506e-05
5.84809e-05
6.03593e-05
6.22482e-05
6.41149e-05
6.5932e-05
6.76766e-05
6.93305e-05
7.08794e-05
7.23128e-05
7.36236e-05
7.48075e-05
7.58629e-05
7.67903e-05
7.7592e-05
7.82718e-05
7.88346e-05
7.92863e-05
7.96334e-05
7.98829e-05
8.00419e-05
8.01177e-05
7.67801e-05
7.78562e-05
7.93523e-05
8.11759e-05
8.32452e-05
8.5487e-05
8.78366e-05
9.02375e-05
9.26406e-05
9.50047e-05
9.72953e-05
9.94847e-05
0.000101551
0.000103478
0.000105254
0.000106871
0.000108327
0.000109619
0.000110752
0.000111727
0.000112552
0.000113233
0.000113778
0.000114196
0.000114495
0.000114686
0.000114776
0.000110615
0.000111898
0.000113677
0.000115839
0.000118283
0.000120921
0.000123675
0.000126476
0.000129268
0.000132002
0.00013464
0.00013715
0.00013951
0.000141701
0.000143713
0.000145538
0.000147176
0.000148625
0.00014989
0.000150978
0.000151894
0.000152649
0.000153252
0.000153713
0.000154043
0.000154252
0.000154352
0.000150356
0.000151776
0.000153742
0.000156125
0.000158811
0.000161701
0.000164708
0.000167756
0.000170782
0.000173736
0.000176576
0.00017927
0.000181794
0.000184131
0.00018627
0.000188206
0.000189938
0.000191467
0.000192799
0.000193941
0.000194902
0.000195692
0.000196322
0.000196803
0.000197147
0.000197365
0.000197469
0.000194541
0.00019603
0.00019809
0.000200583
0.000203387
0.000206398
0.000209522
0.000212682
0.000215813
0.000218862
0.000221787
0.000224555
0.000227143
0.000229535
0.000231721
0.000233696
0.000235459
0.000237015
0.000238368
0.000239527
0.000240502
0.000241302
0.000241939
0.000242426
0.000242773
0.000242993
0.000243098
0.000241757
0.000243267
0.000245352
0.000247874
0.000250708
0.000253746
0.000256896
0.000260078
0.000263226
0.000266288
0.000269222
0.000271997
0.000274589
0.000276982
0.000279168
0.000281141
0.000282902
0.000284455
0.000285805
0.000286961
0.000287932
0.00028873
0.000289365
0.00028985
0.000290196
0.000290415
0.000290519
0.000290879
0.000292379
0.000294451
0.000296955
0.000299768
0.000302783
0.000305907
0.000309062
0.000312182
0.000315216
0.000318123
0.000320871
0.000323437
0.000325807
0.00032797
0.000329924
0.000331668
0.000333205
0.000334542
0.000335687
0.000336649
0.000337439
0.000338069
0.000338549
0.000338892
0.00033911
0.000339213
0.000341111
0.000342588
0.000344629
0.000347096
0.000349867
0.000352837
0.000355915
0.000359023
0.000362098
0.000365089
0.000367954
0.000370664
0.000373196
0.000375534
0.000377669
0.000379598
0.00038132
0.000382839
0.000384161
0.000385292
0.000386244
0.000387026
0.000387649
0.000388125
0.000388464
0.00038868
0.000388782
0.000391934
0.000393386
0.000395392
0.000397816
0.000400541
0.000403462
0.000406491
0.00040955
0.000412578
0.000415523
0.000418347
0.000421018
0.000423515
0.000425822
0.00042793
0.000429835
0.000431537
0.000433038
0.000434345
0.000435465
0.000436407
0.000437181
0.000437798
0.000438269
0.000438606
0.000438819
0.000438921
0.000443025
0.000444453
0.000446426
0.000448812
0.000451494
0.000454371
0.000457354
0.000460369
0.000463354
0.000466259
0.000469046
0.000471683
0.000474149
0.000476429
0.000478513
0.000480397
0.00048208
0.000483566
0.00048486
0.000485969
0.000486902
0.000487669
0.000488281
0.000488748
0.000489082
0.000489294
0.000489395
0.000494189
0.000495597
0.000497542
0.000499895
0.00050254
0.000505379
0.000508323
0.0005113
0.000514249
0.000517121
0.000519875
0.000522484
0.000524924
0.00052718
0.000529244
0.00053111
0.000532778
0.000534251
0.000535534
0.000536633
0.000537559
0.00053832
0.000538927
0.000539391
0.000539723
0.000539933
0.000540033
0.000545308
0.000546698
0.00054862
0.000550946
0.000553561
0.000556368
0.000559281
0.000562226
0.000565145
0.000567988
0.000570717
0.000573301
0.00057572
0.000577956
0.000580003
0.000581854
0.000583508
0.00058497
0.000586243
0.000587335
0.000588254
0.00058901
0.000589613
0.000590074
0.000590404
0.000590613
0.000590712
0.000596311
0.000597687
0.000599591
0.000601893
0.000604484
0.000607265
0.000610151
0.000613071
0.000615965
0.000618784
0.000621491
0.000624055
0.000626455
0.000628675
0.000630706
0.000632544
0.000634188
0.000635639
0.000636904
0.000637989
0.000638903
0.000639654
0.000640254
0.000640712
0.000641039
0.000641247
0.000641346
0.000647156
0.000648521
0.000650409
0.000652693
0.000655263
0.000658022
0.000660886
0.000663784
0.000666657
0.000669456
0.000672144
0.000674691
0.000677074
0.00067928
0.000681299
0.000683125
0.000684759
0.000686202
0.00068746
0.000688538
0.000689447
0.000690194
0.00069079
0.000691246
0.000691572
0.000691779
0.000691877
0.000697818
0.000699174
0.000701048
0.000703316
0.000705869
0.000708609
0.000711455
0.000714334
0.000717188
0.00071997
0.000722642
0.000725173
0.000727543
0.000729736
0.000731743
0.00073356
0.000735184
0.00073662
0.00073787
0.000738944
0.000739847
0.000740591
0.000741184
0.000741637
0.000741962
0.000742167
0.000742265
0.000748284
0.000749631
0.000751494
0.000753748
0.000756285
0.00075901
0.000761838
0.000764701
0.00076754
0.000770306
0.000772963
0.00077548
0.000777838
0.000780019
0.000782016
0.000783823
0.00078544
0.000786868
0.000788112
0.00078918
0.00079008
0.000790819
0.00079141
0.000791861
0.000792184
0.000792389
0.000792486
0.000798544
0.000799884
0.000801736
0.000803979
0.000806502
0.000809212
0.000812026
0.000814874
0.000817698
0.00082045
0.000823093
0.000825599
0.000827944
0.000830115
0.000832102
0.000833901
0.00083551
0.000836931
0.00083817
0.000839233
0.000840128
0.000840865
0.000841452
0.000841902
0.000842223
0.000842427
0.000842524
0.000848596
0.000849929
0.000851772
0.000854003
0.000856514
0.000859211
0.000862011
0.000864845
0.000867656
0.000870395
0.000873026
0.00087552
0.000877855
0.000880016
0.000881994
0.000883784
0.000885386
0.000886801
0.000888034
0.000889093
0.000889984
0.000890717
0.000891302
0.00089175
0.00089207
0.000892273
0.000892369
0.000898438
0.000899765
0.0009016
0.00090382
0.00090632
0.000909004
0.000911792
0.000914613
0.000917411
0.000920138
0.000922757
0.00092524
0.000927564
0.000929716
0.000931686
0.000933468
0.000935063
0.000936472
0.0009377
0.000938754
0.000939642
0.000940372
0.000940954
0.0009414
0.000941719
0.000941921
0.000942017
0.000948071
0.000949392
0.000951219
0.00095343
0.000955919
0.000958591
0.000961367
0.000964176
0.000966962
0.000969677
0.000972285
0.000974757
0.000977072
0.000979215
0.000981176
0.000982951
0.00098454
0.000985943
0.000987166
0.000988215
0.000989099
0.000989826
0.000990407
0.00099085
0.000991168
0.000991369
0.000991465
0.000997497
0.000998812
0.00100063
0.00100283
0.00100531
0.00100797
0.00101074
0.00101353
0.00101631
0.00101901
0.00102161
0.00102407
0.00102638
0.00102851
0.00103047
0.00103223
0.00103382
0.00103521
0.00103643
0.00103748
0.00103836
0.00103908
0.00103966
0.0010401
0.00104042
0.00104062
0.00104071
0.00104672
0.00104803
0.00104984
0.00105203
0.0010545
0.00105715
0.0010599
0.00106269
0.00106545
0.00106815
0.00107074
0.00107319
0.00107548
0.00107761
0.00107955
0.00108132
0.00108289
0.00108428
0.0010855
0.00108654
0.00108742
0.00108814
0.00108871
0.00108915
0.00108947
0.00108967
0.00108976
0.00109574
0.00109704
0.00109885
0.00110103
0.00110349
0.00110613
0.00110887
0.00111165
0.0011144
0.00111708
0.00111966
0.0011221
0.00112439
0.00112651
0.00112845
0.0011302
0.00113177
0.00113316
0.00113437
0.0011354
0.00113628
0.00113699
0.00113757
0.00113801
0.00113832
0.00113852
0.00113861
0.00114456
0.00114586
0.00114765
0.00114983
0.00115228
0.00115491
0.00115764
0.00116041
0.00116315
0.00116582
0.00116839
0.00117082
0.0011731
0.00117521
0.00117714
0.00117889
0.00118045
0.00118183
0.00118304
0.00118407
0.00118494
0.00118566
0.00118623
0.00118667
0.00118698
0.00118718
0.00118727
0.00119318
0.00119447
0.00119626
0.00119843
0.00120087
0.00120349
0.00120621
0.00120897
0.0012117
0.00121436
0.00121692
0.00121935
0.00122162
0.00122372
0.00122564
0.00122738
0.00122894
0.00123032
0.00123152
0.00123255
0.00123341
0.00123413
0.00123469
0.00123513
0.00123544
0.00123564
0.00123573
0.00124161
0.0012429
0.00124468
0.00124684
0.00124927
0.00125188
0.00125459
0.00125734
0.00126006
0.00126271
0.00126526
0.00126768
0.00126994
0.00127203
0.00127395
0.00127568
0.00127724
0.00127861
0.0012798
0.00128083
0.00128169
0.0012824
0.00128297
0.0012834
0.00128371
0.00128391
0.001284
0.00128984
0.00129113
0.0012929
0.00129506
0.00129748
0.00130008
0.00130278
0.00130551
0.00130823
0.00131087
0.00131341
0.00131582
0.00131807
0.00132016
0.00132207
0.00132379
0.00132534
0.00132671
0.0013279
0.00132892
0.00132978
0.00133049
0.00133105
0.00133148
0.00133179
0.00133199
0.00133208
0.00133788
0.00133916
0.00134094
0.00134308
0.00134549
0.00134808
0.00135078
0.0013535
0.0013562
0.00135884
0.00136137
0.00136376
0.00136601
0.00136809
0.00136999
0.00137171
0.00137325
0.00137462
0.0013758
0.00137682
0.00137768
0.00137838
0.00137895
0.00137938
0.00137968
0.00137988
0.00137997
0.00138574
0.00138701
0.00138878
0.00139091
0.00139332
0.0013959
0.00139858
0.0014013
0.00140399
0.00140661
0.00140913
0.00141152
0.00141376
0.00141583
0.00141773
0.00141944
0.00142098
0.00142233
0.00142352
0.00142453
0.00142538
0.00142609
0.00142665
0.00142708
0.00142738
0.00142758
0.00142767
0.0014334
0.00143467
0.00143643
0.00143855
0.00144095
0.00144352
0.00144619
0.0014489
0.00145158
0.0014542
0.00145671
0.00145909
0.00146132
0.00146338
0.00146527
0.00146698
0.00146851
0.00146986
0.00147104
0.00147205
0.0014729
0.0014736
0.00147416
0.00147459
0.00147489
0.00147508
0.00147518
0.00148086
0.00148213
0.00148388
0.001486
0.00148839
0.00149095
0.00149361
0.00149631
0.00149898
0.00150159
0.00150409
0.00150646
0.00150868
0.00151073
0.00151262
0.00151432
0.00151584
0.00151719
0.00151836
0.00151937
0.00152022
0.00152092
0.00152147
0.0015219
0.0015222
0.0015224
0.00152249
0.00152813
0.00152939
0.00153114
0.00153325
0.00153563
0.00153818
0.00154083
0.00154352
0.00154618
0.00154878
0.00155127
0.00155363
0.00155584
0.00155789
0.00155976
0.00156146
0.00156298
0.00156432
0.00156549
0.00156649
0.00156733
0.00156803
0.00156858
0.00156901
0.00156931
0.0015695
0.0015696
0.0015752
0.00157646
0.00157819
0.0015803
0.00158267
0.00158521
0.00158785
0.00159052
0.00159318
0.00159576
0.00159824
0.00160059
0.0016028
0.00160484
0.0016067
0.00160839
0.0016099
0.00161124
0.0016124
0.0016134
0.00161424
0.00161494
0.00161549
0.00161591
0.00161621
0.0016164
0.00161649
0.00162205
0.00162331
0.00162504
0.00162713
0.00162949
0.00163202
0.00163465
0.00163731
0.00163995
0.00164253
0.001645
0.00164734
0.00164954
0.00165157
0.00165342
0.00165511
0.00165661
0.00165794
0.0016591
0.00166009
0.00166093
0.00166162
0.00166217
0.00166259
0.00166289
0.00166308
0.00166317
0.00166869
0.00166993
0.00167165
0.00167374
0.00167609
0.00167861
0.00168123
0.00168388
0.00168651
0.00168907
0.00169153
0.00169386
0.00169604
0.00169806
0.00169991
0.00170159
0.00170309
0.00170441
0.00170556
0.00170655
0.00170739
0.00170807
0.00170862
0.00170904
0.00170934
0.00170953
0.00170962
0.00171508
0.00171632
0.00171803
0.00172011
0.00172244
0.00172495
0.00172756
0.0017302
0.00173281
0.00173536
0.00173781
0.00174013
0.0017423
0.00174431
0.00174615
0.00174782
0.00174931
0.00175062
0.00175177
0.00175276
0.00175359
0.00175427
0.00175481
0.00175523
0.00175553
0.00175572
0.00175581
0.00176121
0.00176244
0.00176415
0.00176621
0.00176854
0.00177103
0.00177362
0.00177625
0.00177885
0.00178138
0.00178382
0.00178612
0.00178828
0.00179028
0.00179211
0.00179377
0.00179525
0.00179656
0.0017977
0.00179868
0.00179951
0.00180019
0.00180073
0.00180114
0.00180144
0.00180163
0.00180172
0.00180706
0.00180828
0.00180998
0.00181203
0.00181434
0.00181682
0.0018194
0.001822
0.00182459
0.00182711
0.00182953
0.00183182
0.00183397
0.00183595
0.00183777
0.00183942
0.00184089
0.00184219
0.00184333
0.0018443
0.00184512
0.00184579
0.00184633
0.00184674
0.00184704
0.00184722
0.00184731
0.00185258
0.0018538
0.00185548
0.00185752
0.00185982
0.00186228
0.00186484
0.00186743
0.00186999
0.00187249
0.0018749
0.00187717
0.0018793
0.00188128
0.00188308
0.00188472
0.00188618
0.00188747
0.0018886
0.00188956
0.00189038
0.00189105
0.00189158
0.00189199
0.00189228
0.00189246
0.00189255
0.00189775
0.00189895
0.00190062
0.00190265
0.00190492
0.00190737
0.0019099
0.00191247
0.00191502
0.0019175
0.00191988
0.00192214
0.00192425
0.00192621
0.001928
0.00192962
0.00193107
0.00193235
0.00193347
0.00193442
0.00193523
0.00193589
0.00193642
0.00193683
0.00193712
0.0019373
0.00193739
0.00194249
0.00194369
0.00194534
0.00194735
0.0019496
0.00195202
0.00195454
0.00195708
0.0019596
0.00196206
0.00196442
0.00196665
0.00196875
0.00197069
0.00197246
0.00197406
0.0019755
0.00197677
0.00197787
0.00197882
0.00197962
0.00198028
0.0019808
0.0019812
0.00198149
0.00198167
0.00198176
0.00198675
0.00198794
0.00198957
0.00199156
0.00199379
0.00199618
0.00199867
0.00200118
0.00200367
0.0020061
0.00200844
0.00201065
0.00201272
0.00201463
0.00201639
0.00201797
0.00201939
0.00202065
0.00202174
0.00202268
0.00202347
0.00202411
0.00202463
0.00202503
0.00202531
0.00202549
0.00202558
0.00203045
0.00203162
0.00203324
0.00203519
0.00203739
0.00203976
0.00204221
0.00204469
0.00204715
0.00204955
0.00205185
0.00205403
0.00205607
0.00205796
0.00205969
0.00206126
0.00206266
0.00206389
0.00206497
0.00206589
0.00206667
0.00206731
0.00206782
0.00206821
0.00206849
0.00206867
0.00206875
0.00207349
0.00207464
0.00207623
0.00207815
0.00208032
0.00208265
0.00208506
0.0020875
0.00208993
0.00209229
0.00209455
0.0020967
0.00209871
0.00210056
0.00210226
0.0021038
0.00210518
0.0021064
0.00210745
0.00210836
0.00210913
0.00210976
0.00211026
0.00211064
0.00211092
0.00211109
0.00211117
0.00211574
0.00211687
0.00211843
0.00212032
0.00212245
0.00212473
0.0021271
0.0021295
0.00213187
0.00213419
0.00213641
0.00213851
0.00214048
0.0021423
0.00214397
0.00214548
0.00214683
0.00214802
0.00214906
0.00214995
0.0021507
0.00215131
0.00215181
0.00215218
0.00215245
0.00215262
0.0021527
0.00215708
0.00215818
0.00215971
0.00216156
0.00216364
0.00216587
0.00216818
0.00217052
0.00217285
0.00217511
0.00217728
0.00217933
0.00218125
0.00218303
0.00218466
0.00218613
0.00218745
0.00218861
0.00218962
0.00219049
0.00219122
0.00219182
0.0021923
0.00219267
0.00219293
0.0021931
0.00219318
0.00219733
0.00219841
0.0021999
0.00220169
0.00220372
0.00220589
0.00220814
0.00221041
0.00221267
0.00221487
0.00221698
0.00221897
0.00222084
0.00222257
0.00222415
0.00222558
0.00222686
0.00222799
0.00222897
0.00222981
0.00223052
0.00223111
0.00223157
0.00223193
0.00223218
0.00223234
0.00223242
0.00223632
0.00223736
0.0022388
0.00224054
0.00224249
0.00224459
0.00224677
0.00224897
0.00225115
0.00225327
0.00225531
0.00225724
0.00225904
0.00226071
0.00226224
0.00226362
0.00226485
0.00226594
0.00226689
0.0022677
0.00226838
0.00226895
0.0022694
0.00226974
0.00226998
0.00227014
0.00227021
0.00227383
0.00227483
0.00227621
0.00227788
0.00227976
0.00228177
0.00228386
0.00228598
0.00228807
0.0022901
0.00229206
0.00229391
0.00229563
0.00229723
0.00229869
0.00230002
0.0023012
0.00230224
0.00230315
0.00230392
0.00230458
0.00230512
0.00230555
0.00230588
0.00230611
0.00230626
0.00230633
0.00230962
0.00231058
0.00231189
0.00231348
0.00231527
0.00231719
0.00231918
0.00232119
0.00232318
0.00232511
0.00232697
0.00232872
0.00233037
0.00233188
0.00233327
0.00233453
0.00233565
0.00233663
0.0023375
0.00233823
0.00233885
0.00233936
0.00233977
0.00234008
0.00234031
0.00234045
0.00234051
0.00234345
0.00234435
0.00234559
0.00234709
0.00234878
0.00235058
0.00235246
0.00235435
0.00235622
0.00235804
0.00235979
0.00236144
0.00236298
0.0023644
0.00236571
0.00236688
0.00236794
0.00236886
0.00236967
0.00237036
0.00237094
0.00237142
0.0023718
0.0023721
0.0023723
0.00237244
0.0023725
0.00237506
0.00237589
0.00237705
0.00237845
0.00238001
0.00238169
0.00238344
0.00238519
0.00238693
0.00238862
0.00239024
0.00239178
0.00239321
0.00239453
0.00239573
0.00239682
0.0023978
0.00239865
0.0023994
0.00240004
0.00240058
0.00240102
0.00240137
0.00240164
0.00240184
0.00240196
0.00240202
0.00240417
0.00240494
0.002406
0.00240728
0.00240872
0.00241026
0.00241186
0.00241347
0.00241506
0.0024166
0.00241808
0.00241948
0.00242079
0.00242199
0.00242309
0.00242409
0.00242497
0.00242575
0.00242643
0.00242702
0.00242751
0.00242791
0.00242823
0.00242847
0.00242865
0.00242876
0.00242881
0.00243055
0.00243125
0.0024322
0.00243336
0.00243465
0.00243604
0.00243748
0.00243892
0.00244035
0.00244174
0.00244307
0.00244432
0.00244549
0.00244657
0.00244755
0.00244844
0.00244923
0.00244993
0.00245054
0.00245106
0.0024515
0.00245185
0.00245214
0.00245236
0.00245251
0.00245261
0.00245266
0.002454
0.00245461
0.00245545
0.00245647
0.00245762
0.00245884
0.0024601
0.00246137
0.00246263
0.00246385
0.00246501
0.00246611
0.00246713
0.00246808
0.00246894
0.00246971
0.00247041
0.00247102
0.00247154
0.002472
0.00247238
0.00247269
0.00247294
0.00247313
0.00247326
0.00247335
0.00247339
0.00247435
0.00247487
0.0024756
0.00247648
0.00247746
0.00247851
0.00247959
0.00248068
0.00248176
0.0024828
0.00248379
0.00248473
0.0024856
0.00248641
0.00248714
0.0024878
0.00248839
0.0024889
0.00248935
0.00248974
0.00249006
0.00249032
0.00249053
0.00249069
0.00249081
0.00249088
0.00249091
0.00249153
0.00249197
0.00249258
0.00249331
0.00249413
0.002495
0.00249591
0.00249681
0.0024977
0.00249857
0.00249939
0.00250016
0.00250088
0.00250155
0.00250215
0.00250269
0.00250317
0.0025036
0.00250396
0.00250428
0.00250454
0.00250476
0.00250493
0.00250506
0.00250516
0.00250521
0.00250524
0.00250558
0.00250594
0.00250643
0.00250702
0.00250767
0.00250838
0.0025091
0.00250982
0.00251053
0.00251122
0.00251188
0.00251249
0.00251307
0.00251359
0.00251407
0.0025145
0.00251488
0.00251521
0.0025155
0.00251575
0.00251595
0.00251612
0.00251626
0.00251636
0.00251644
0.00251648
0.0025165
0.00251664
0.00251691
0.00251729
0.00251774
0.00251825
0.00251879
0.00251934
0.0025199
0.00252044
0.00252097
0.00252146
0.00252193
0.00252236
0.00252276
0.00252312
0.00252344
0.00252373
0.00252398
0.0025242
0.00252438
0.00252454
0.00252467
0.00252477
0.00252484
0.0025249
0.00252493
0.00252495
0.00252496
0.00252516
0.00252543
0.00252577
0.00252613
0.00252653
0.00252693
0.00252733
0.00252772
0.0025281
0.00252846
0.0025288
0.00252911
0.00252939
0.00252965
0.00252988
0.00253008
0.00253026
0.00253041
0.00253054
0.00253065
0.00253074
0.00253081
0.00253087
0.0025309
0.00253093
0.00253094
0.00253089
0.00253103
0.00253122
0.00253145
0.0025317
0.00253197
0.00253224
0.00253251
0.00253278
0.00253304
0.00253328
0.0025335
0.00253371
0.0025339
0.00253407
0.00253422
0.00253436
0.00253447
0.00253458
0.00253466
0.00253473
0.00253479
0.00253484
0.00253487
0.0025349
0.00253491
0.00253492
0.00253487
0.00253496
0.00253508
0.00253522
0.00253538
0.00253555
0.00253573
0.0025359
0.00253606
0.00253622
0.00253637
0.00253651
0.00253664
0.00253675
0.00253686
0.00253695
0.00253703
0.0025371
0.00253717
0.00253722
0.00253726
0.0025373
0.00253732
0.00253734
0.00253736
0.00253737
0.00253737
0.00253735
0.0025374
0.00253747
0.00253755
0.00253765
0.00253774
0.00253784
0.00253794
0.00253803
0.00253812
0.0025382
0.00253828
0.00253835
0.00253842
0.00253847
0.00253852
0.00253857
0.00253861
0.00253864
0.00253867
0.00253869
0.00253871
0.00253872
0.00253874
0.00253874
0.00253875
0.00253875
0.00253877
0.00253879
0.00253883
0.00253887
0.00253892
0.00253896
0.00253901