/*--------------------------------*- C++ -*----------------------------------*\
| =========                 |                                                 |
| \\      /  F ield         | OpenFOAM: The Open Source CFD Toolbox           |
|  \\    /   O peration     | Version:  2106                                  |
|   \\  /    A nd           | Website:  www.openfoam.com                      |
|    \\/     M anipulation  |                                                 |
\*---------------------------------------------------------------------------*/
FoamFile
{
    version     2.0;
    format      ascii;
    arch        "LSB;label=32;scalar=64";
    class       volScalarField;
    location    "110.00000";
    object      C4H612_0;
}
// * * * * * * * * * * * * * * * * * * * * * * * * * * * * * * * * * * * * * //

dimensions      [0 0 0 0 0 0 0];

internalField   nonuniform List<scalar> 
3360
(
3.28134e-19
3.38695e-19
3.53392e-19
3.71369e-19
3.91877e-19
4.14243e-19
4.3786e-19
4.62179e-19
4.86711e-19
5.11027e-19
5.34751e-19
5.57567e-19
5.79212e-19
5.99478e-19
6.18206e-19
6.35286e-19
6.50648e-19
6.64265e-19
6.7614e-19
6.8631e-19
6.94836e-19
7.01799e-19
7.07299e-19
7.11448e-19
7.14367e-19
7.16183e-19
7.17026e-19
1.4395e-18
1.49242e-18
1.56709e-18
1.66009e-18
1.76855e-18
1.89001e-18
2.02223e-18
2.16319e-18
2.311e-18
2.46386e-18
2.62007e-18
2.77796e-18
2.93588e-18
3.0922e-18
3.24534e-18
3.39372e-18
3.5358e-18
3.67009e-18
3.79517e-18
3.90968e-18
4.01241e-18
4.10226e-18
4.17831e-18
4.23982e-18
4.28624e-18
4.31723e-18
4.33269e-18
4.51687e-18
4.71514e-18
4.99688e-18
5.3509e-18
5.76794e-18
6.23965e-18
6.75812e-18
7.31553e-18
7.90397e-18
8.51539e-18
9.14152e-18
9.77419e-18
1.04053e-17
1.10268e-17
1.16309e-17
1.22104e-17
1.27584e-17
1.32688e-17
1.37362e-17
1.41564e-17
1.45259e-17
1.48423e-17
1.51043e-17
1.53113e-17
1.54639e-17
1.55635e-17
1.56119e-17
1.31552e-17
1.38087e-17
1.47436e-17
1.59264e-17
1.73292e-17
1.89258e-17
2.06899e-17
2.25946e-17
2.46112e-17
2.671e-17
2.88599e-17
3.10296e-17
3.31877e-17
3.53039e-17
3.73494e-17
3.92975e-17
4.11248e-17
4.28113e-17
4.4341e-17
4.57019e-17
4.68859e-17
4.7889e-17
4.87105e-17
4.93531e-17
4.9822e-17
5.01248e-17
5.02708e-17
3.8437e-17
4.04988e-17
4.34538e-17
4.72012e-17
5.16553e-17
5.67338e-17
6.2352e-17
6.84202e-17
7.48429e-17
8.15193e-17
8.83452e-17
9.52154e-17
1.02027e-16
1.08681e-16
1.15087e-16
1.21163e-16
1.26839e-16
1.32056e-16
1.36769e-16
1.40946e-16
1.44568e-16
1.47626e-16
1.50123e-16
1.5207e-16
1.53488e-16
1.54401e-16
1.5484e-16
1.13339e-16
1.19671e-16
1.28758e-16
1.40292e-16
1.54008e-16
1.69651e-16
1.86957e-16
2.05643e-16
2.25411e-16
2.45941e-16
2.66909e-16
2.87986e-16
3.08852e-16
3.29204e-16
3.48762e-16
3.67278e-16
3.84543e-16
4.00384e-16
4.14669e-16
4.27308e-16
4.38247e-16
4.4747e-16
4.54988e-16
4.60844e-16
4.65101e-16
4.6784e-16
4.69158e-16
3.36697e-16
3.5594e-16
3.83552e-16
4.18601e-16
4.60279e-16
5.07802e-16
5.60354e-16
6.17067e-16
6.77015e-16
7.39227e-16
8.02706e-16
8.66454e-16
9.29503e-16
9.90937e-16
1.04992e-15
1.10571e-15
1.15769e-15
1.20535e-15
1.2483e-15
1.28628e-15
1.31913e-15
1.34682e-15
1.36938e-15
1.38695e-15
1.39972e-15
1.40793e-15
1.41188e-15
1.00354e-15
1.06144e-15
1.14458e-15
1.25014e-15
1.37569e-15
1.51888e-15
1.67723e-15
1.8481e-15
2.0287e-15
2.21607e-15
2.40719e-15
2.59907e-15
2.78876e-15
2.97352e-15
3.15083e-15
3.31848e-15
3.47459e-15
3.61766e-15
3.74654e-15
3.86045e-15
3.95895e-15
4.04192e-15
4.10951e-15
4.16212e-15
4.20034e-15
4.22493e-15
4.23674e-15
2.99898e-15
3.17301e-15
3.42282e-15
3.73998e-15
4.11717e-15
4.54724e-15
5.02274e-15
5.53571e-15
6.07768e-15
6.63978e-15
7.21296e-15
7.78816e-15
8.35663e-15
8.91013e-15
9.44117e-15
9.94314e-15
1.04105e-14
1.08386e-14
1.12243e-14
1.15651e-14
1.18598e-14
1.2108e-14
1.23102e-14
1.24676e-14
1.25819e-14
1.26554e-14
1.26908e-14
8.96234e-15
9.48358e-15
1.02319e-14
1.11821e-14
1.23121e-14
1.36005e-14
1.5025e-14
1.65615e-14
1.81848e-14
1.98681e-14
2.15843e-14
2.33062e-14
2.50076e-14
2.66639e-14
2.82526e-14
2.9754e-14
3.11515e-14
3.24316e-14
3.35842e-14
3.46026e-14
3.54829e-14
3.62242e-14
3.68279e-14
3.72977e-14
3.76389e-14
3.78583e-14
3.79638e-14
2.67955e-14
2.83558e-14
3.05955e-14
3.34386e-14
3.68191e-14
4.06726e-14
4.49317e-14
4.95246e-14
5.43751e-14
5.94034e-14
6.45281e-14
6.96683e-14
7.47457e-14
7.96867e-14
8.44248e-14
8.89012e-14
9.30666e-14
9.68813e-14
1.00316e-13
1.03349e-13
1.05971e-13
1.08179e-13
1.09977e-13
1.11376e-13
1.12392e-13
1.13045e-13
1.13359e-13
8.0031e-14
8.46892e-14
9.13749e-14
9.98605e-14
1.09948e-13
1.21444e-13
1.34147e-13
1.4784e-13
1.62296e-13
1.77277e-13
1.92539e-13
2.07841e-13
2.22951e-13
2.37649e-13
2.51737e-13
2.65042e-13
2.77418e-13
2.88748e-13
2.98944e-13
3.07948e-13
3.15728e-13
3.22275e-13
3.27606e-13
3.31752e-13
3.34763e-13
3.36698e-13
3.37628e-13
2.38747e-13
2.52628e-13
2.72543e-13
2.97807e-13
3.27826e-13
3.62017e-13
3.99772e-13
4.40446e-13
4.83357e-13
5.27795e-13
5.73037e-13
6.18366e-13
6.63094e-13
7.06576e-13
7.48228e-13
7.87542e-13
8.2409e-13
8.57532e-13
8.87613e-13
9.14164e-13
9.37095e-13
9.5639e-13
9.72092e-13
9.84303e-13
9.93167e-13
9.98863e-13
1.0016e-12
7.10053e-13
7.51216e-13
8.10253e-13
8.85112e-13
9.74003e-13
1.07517e-12
1.18681e-12
1.30697e-12
1.43362e-12
1.56466e-12
1.69795e-12
1.83136e-12
1.96288e-12
2.09062e-12
2.21287e-12
2.32815e-12
2.43523e-12
2.53313e-12
2.62112e-12
2.69873e-12
2.76571e-12
2.82203e-12
2.86784e-12
2.90344e-12
2.92927e-12
2.94587e-12
2.95383e-12
2.10375e-12
2.22512e-12
2.39907e-12
2.61944e-12
2.88086e-12
3.17805e-12
3.50555e-12
3.85761e-12
4.22817e-12
4.61101e-12
4.99984e-12
5.38849e-12
5.77107e-12
6.14212e-12
6.49676e-12
6.83075e-12
7.1406e-12
7.42355e-12
7.6776e-12
7.90145e-12
8.09447e-12
8.25663e-12
8.38843e-12
8.4908e-12
8.56503e-12
8.61269e-12
8.63556e-12
6.19531e-12
6.54964e-12
7.05704e-12
7.69911e-12
8.4597e-12
9.32302e-12
1.02728e-11
1.12919e-11
1.23625e-11
1.34665e-11
1.45856e-11
1.5702e-11
1.67988e-11
1.78606e-11
1.88736e-11
1.98259e-11
2.0708e-11
2.15121e-11
2.22331e-11
2.28674e-11
2.34137e-11
2.38721e-11
2.42442e-11
2.4533e-11
2.47421e-11
2.48763e-11
2.49407e-11
1.80998e-11
1.91206e-11
2.05805e-11
2.24248e-11
2.46053e-11
2.70747e-11
2.97848e-11
3.26855e-11
3.5725e-11
3.88509e-11
4.2011e-11
4.51551e-11
4.82362e-11
5.12114e-11
5.40429e-11
5.66988e-11
5.91532e-11
6.13863e-11
6.33845e-11
6.51395e-11
6.66483e-11
6.79125e-11
6.89374e-11
6.97316e-11
7.03064e-11
7.06747e-11
7.08512e-11
5.23101e-11
5.51967e-11
5.93177e-11
6.45122e-11
7.06374e-11
7.7554e-11
8.51207e-11
9.31926e-11
1.01622e-10
1.1026e-10
1.18964e-10
1.27594e-10
1.36023e-10
1.44136e-10
1.51834e-10
1.59034e-10
1.65669e-10
1.71691e-10
1.77067e-10
1.81777e-10
1.85819e-10
1.892e-10
1.91936e-10
1.94053e-10
1.95583e-10
1.96562e-10
1.9703e-10
1.49064e-10
1.57027e-10
1.6837e-10
1.82626e-10
1.9938e-10
2.18226e-10
2.38761e-10
2.60575e-10
2.83257e-10
3.06404e-10
3.29625e-10
3.52556e-10
3.74864e-10
3.96254e-10
4.16477e-10
4.35325e-10
4.52641e-10
4.68309e-10
4.82257e-10
4.9445e-10
5.04888e-10
5.13599e-10
5.20636e-10
5.26071e-10
5.29994e-10
5.32501e-10
5.33699e-10
4.17056e-10
4.38335e-10
4.68562e-10
5.06418e-10
5.50721e-10
6.00334e-10
6.54131e-10
7.10994e-10
7.69824e-10
8.2956e-10
8.89197e-10
9.47811e-10
1.00457e-09
1.05877e-09
1.1098e-09
1.15718e-09
1.20056e-09
1.23968e-09
1.27441e-09
1.30468e-09
1.33053e-09
1.35205e-09
1.3694e-09
1.38278e-09
1.39242e-09
1.39858e-09
1.40151e-09
1.14014e-09
1.19482e-09
1.27225e-09
1.36883e-09
1.48133e-09
1.60665e-09
1.74182e-09
1.88389e-09
2.03007e-09
2.1777e-09
2.3243e-09
2.46767e-09
2.60584e-09
2.73716e-09
2.8603e-09
2.97418e-09
3.07806e-09
3.17144e-09
3.25407e-09
3.3259e-09
3.38709e-09
3.43793e-09
3.47883e-09
3.51031e-09
3.53295e-09
3.54738e-09
3.55427e-09
3.02889e-09
3.16313e-09
3.35258e-09
3.58787e-09
3.86056e-09
4.16273e-09
4.48678e-09
4.82546e-09
5.17197e-09
5.51996e-09
5.86373e-09
6.1982e-09
6.51904e-09
6.82263e-09
7.1061e-09
7.36729e-09
7.60469e-09
7.81742e-09
8.0051e-09
8.16784e-09
8.30613e-09
8.42078e-09
8.51285e-09
8.58359e-09
8.6344e-09
8.66674e-09
8.68215e-09
7.77757e-09
8.09103e-09
8.53193e-09
9.07718e-09
9.70606e-09
1.03993e-08
1.11386e-08
1.19072e-08
1.26893e-08
1.34708e-08
1.42389e-08
1.49827e-08
1.56931e-08
1.63626e-08
1.69854e-08
1.75572e-08
1.80754e-08
1.85383e-08
1.89457e-08
1.92981e-08
1.95969e-08
1.98442e-08
2.00424e-08
2.01945e-08
2.03035e-08
2.03729e-08
2.04059e-08
1.92163e-08
1.99114e-08
2.08862e-08
2.20872e-08
2.34663e-08
2.49795e-08
2.65857e-08
2.82474e-08
2.99305e-08
3.16045e-08
3.32429e-08
3.48232e-08
3.63268e-08
3.77388e-08
3.90481e-08
4.02468e-08
4.133e-08
4.22955e-08
4.31431e-08
4.3875e-08
4.44944e-08
4.50062e-08
4.54158e-08
4.57298e-08
4.59546e-08
4.60975e-08
4.61654e-08
4.55556e-08
4.70225e-08
4.90744e-08
5.15942e-08
5.44776e-08
5.7629e-08
6.09611e-08
6.43947e-08
6.78591e-08
7.12922e-08
7.46407e-08
7.78599e-08
8.09134e-08
8.37731e-08
8.64177e-08
8.88333e-08
9.10113e-08
9.29488e-08
9.46469e-08
9.61106e-08
9.73477e-08
9.83684e-08
9.91846e-08
9.98094e-08
1.00257e-07
1.0054e-07
1.00675e-07
1.03544e-07
1.06501e-07
1.10629e-07
1.15686e-07
1.21456e-07
1.27743e-07
1.3437e-07
1.41178e-07
1.48027e-07
1.54794e-07
1.61376e-07
1.67687e-07
1.7366e-07
1.7924e-07
1.8439e-07
1.89085e-07
1.93311e-07
1.97064e-07
2.00349e-07
2.03177e-07
2.05564e-07
2.07531e-07
2.09103e-07
2.10305e-07
2.11165e-07
2.1171e-07
2.11969e-07
2.2582e-07
2.3154e-07
2.39513e-07
2.4926e-07
2.60357e-07
2.72421e-07
2.85106e-07
2.98105e-07
3.1115e-07
3.24011e-07
3.36493e-07
3.48438e-07
3.59719e-07
3.70242e-07
3.79939e-07
3.88765e-07
3.96699e-07
4.03738e-07
4.09891e-07
4.15183e-07
4.19646e-07
4.23322e-07
4.26257e-07
4.285e-07
4.30103e-07
4.31119e-07
4.31602e-07
4.73107e-07
4.83768e-07
4.98611e-07
5.16732e-07
5.37328e-07
5.59677e-07
5.83134e-07
6.07129e-07
6.31165e-07
6.5482e-07
6.77741e-07
6.99641e-07
7.20295e-07
7.39533e-07
7.57237e-07
7.73334e-07
7.87789e-07
8.00598e-07
8.11786e-07
8.214e-07
8.29503e-07
8.36172e-07
8.41493e-07
8.45557e-07
8.48461e-07
8.50302e-07
8.51175e-07
9.5297e-07
9.722e-07
9.9895e-07
1.03157e-06
1.06859e-06
1.10871e-06
1.15075e-06
1.19368e-06
1.23662e-06
1.27881e-06
1.31962e-06
1.35856e-06
1.39522e-06
1.42932e-06
1.46065e-06
1.4891e-06
1.51461e-06
1.53719e-06
1.55689e-06
1.5738e-06
1.58803e-06
1.59973e-06
1.60906e-06
1.61618e-06
1.62126e-06
1.62447e-06
1.626e-06
1.84418e-06
1.87777e-06
1.92445e-06
1.98131e-06
2.04576e-06
2.11549e-06
2.18845e-06
2.26282e-06
2.33706e-06
2.40986e-06
2.48013e-06
2.54702e-06
2.60986e-06
2.66816e-06
2.72161e-06
2.77001e-06
2.8133e-06
2.85151e-06
2.88476e-06
2.91321e-06
2.93711e-06
2.9567e-06
2.97228e-06
2.98414e-06
2.99258e-06
2.99791e-06
3.00043e-06
3.41499e-06
3.47144e-06
3.54982e-06
3.64517e-06
3.7531e-06
3.86967e-06
3.99137e-06
4.11516e-06
4.23841e-06
4.35893e-06
4.47492e-06
4.58496e-06
4.68797e-06
4.78318e-06
4.8701e-06
4.94849e-06
5.01829e-06
5.07962e-06
5.13272e-06
5.17794e-06
5.21572e-06
5.24654e-06
5.27091e-06
5.28936e-06
5.30243e-06
5.31063e-06
5.31449e-06
6.00476e-06
6.09459e-06
6.21919e-06
6.37055e-06
6.54156e-06
6.72587e-06
6.91784e-06
7.11259e-06
7.30592e-06
7.49437e-06
7.6751e-06
7.84592e-06
8.00518e-06
8.15177e-06
8.285e-06
8.40456e-06
8.51049e-06
8.60306e-06
8.68278e-06
8.75028e-06
8.80633e-06
8.85177e-06
8.88746e-06
8.91431e-06
8.9332e-06
8.94498e-06
8.95048e-06
9.9316e-06
1.00639e-05
1.02471e-05
1.04693e-05
1.07198e-05
1.09892e-05
1.12691e-05
1.15522e-05
1.18324e-05
1.21048e-05
1.23651e-05
1.26105e-05
1.28384e-05
1.30476e-05
1.3237e-05
1.34064e-05
1.3556e-05
1.36863e-05
1.3798e-05
1.38923e-05
1.39702e-05
1.40331e-05
1.40824e-05
1.41192e-05
1.41451e-05
1.41611e-05
1.41685e-05
1.53391e-05
1.5516e-05
1.57606e-05
1.60566e-05
1.63896e-05
1.67468e-05
1.71168e-05
1.74901e-05
1.78587e-05
1.82159e-05
1.85565e-05
1.88767e-05
1.91736e-05
1.94454e-05
1.96912e-05
1.99106e-05
2.01041e-05
2.02723e-05
2.04165e-05
2.0538e-05
2.06384e-05
2.07194e-05
2.07827e-05
2.08301e-05
2.08633e-05
2.08839e-05
2.08934e-05
2.20784e-05
2.22917e-05
2.25863e-05
2.29421e-05
2.33413e-05
2.37683e-05
2.42097e-05
2.46538e-05
2.50912e-05
2.55142e-05
2.59169e-05
2.62947e-05
2.66446e-05
2.69645e-05
2.72537e-05
2.75117e-05
2.77393e-05
2.79372e-05
2.8107e-05
2.82503e-05
2.83689e-05
2.84647e-05
2.85398e-05
2.85961e-05
2.86357e-05
2.86603e-05
2.86718e-05
2.97165e-05
2.99499e-05
3.02716e-05
3.06595e-05
3.10938e-05
3.15574e-05
3.20355e-05
3.25156e-05
3.29875e-05
3.34431e-05
3.38762e-05
3.42821e-05
3.46578e-05
3.50013e-05
3.53117e-05
3.5589e-05
3.58336e-05
3.60468e-05
3.62299e-05
3.63847e-05
3.65132e-05
3.66172e-05
3.66991e-05
3.67607e-05
3.6804e-05
3.68311e-05
3.68438e-05
3.76626e-05
3.78968e-05
3.82194e-05
3.86078e-05
3.90419e-05
3.95045e-05
3.99807e-05
4.04583e-05
4.0927e-05
4.13791e-05
4.18085e-05
4.22108e-05
4.25831e-05
4.29235e-05
4.32313e-05
4.35064e-05
4.37495e-05
4.39617e-05
4.41442e-05
4.42989e-05
4.44276e-05
4.45322e-05
4.46146e-05
4.46768e-05
4.47208e-05
4.47484e-05
4.47614e-05
4.53288e-05
4.55474e-05
4.58481e-05
4.62098e-05
4.66137e-05
4.70435e-05
4.74855e-05
4.79283e-05
4.83625e-05
4.8781e-05
4.91784e-05
4.95506e-05
4.98951e-05
5.02102e-05
5.04953e-05
5.07504e-05
5.09761e-05
5.11733e-05
5.13433e-05
5.14876e-05
5.16079e-05
5.17059e-05
5.17833e-05
5.18419e-05
5.18835e-05
5.19096e-05
5.19219e-05
5.22488e-05
5.24405e-05
5.27041e-05
5.30209e-05
5.33742e-05
5.375e-05
5.41361e-05
5.45226e-05
5.49014e-05
5.52663e-05
5.56128e-05
5.59373e-05
5.62376e-05
5.65125e-05
5.67614e-05
5.69842e-05
5.71815e-05
5.73542e-05
5.75032e-05
5.763e-05
5.77357e-05
5.78221e-05
5.78904e-05
5.79423e-05
5.79791e-05
5.80024e-05
5.80133e-05
5.81275e-05
5.82865e-05
5.85052e-05
5.87676e-05
5.90603e-05
5.93713e-05
5.96906e-05
6.001e-05
6.03229e-05
6.06243e-05
6.09103e-05
6.11782e-05
6.14262e-05
6.16532e-05
6.18589e-05
6.20431e-05
6.22064e-05
6.23494e-05
6.2473e-05
6.25782e-05
6.26661e-05
6.2738e-05
6.2795e-05
6.28383e-05
6.28692e-05
6.28886e-05
6.28978e-05
6.2833e-05
6.2958e-05
6.31298e-05
6.33359e-05
6.35655e-05
6.38093e-05
6.40595e-05
6.43095e-05
6.45544e-05
6.479e-05
6.50136e-05
6.52229e-05
6.54167e-05
6.55942e-05
6.57549e-05
6.5899e-05
6.60268e-05
6.61387e-05
6.62356e-05
6.63182e-05
6.63873e-05
6.64438e-05
6.64887e-05
6.65229e-05
6.65472e-05
6.65627e-05
6.657e-05
6.63606e-05
6.64532e-05
6.65803e-05
6.67327e-05
6.69022e-05
6.70821e-05
6.72664e-05
6.74504e-05
6.76304e-05
6.78035e-05
6.79676e-05
6.81212e-05
6.82633e-05
6.83934e-05
6.85113e-05
6.8617e-05
6.87107e-05
6.87929e-05
6.88641e-05
6.89248e-05
6.89757e-05
6.90173e-05
6.90505e-05
6.90758e-05
6.90938e-05
6.91052e-05
6.91107e-05
6.87899e-05
6.88532e-05
6.894e-05
6.9044e-05
6.91594e-05
6.92817e-05
6.94067e-05
6.95313e-05
6.9653e-05
6.97697e-05
6.98803e-05
6.99836e-05
7.00791e-05
7.01665e-05
7.02456e-05
7.03165e-05
7.03795e-05
7.04347e-05
7.04825e-05
7.05234e-05
7.05577e-05
7.05858e-05
7.06082e-05
7.06253e-05
7.06376e-05
7.06454e-05
7.06491e-05
7.02465e-05
7.02846e-05
7.03366e-05
7.03987e-05
7.04674e-05
7.05398e-05
7.06136e-05
7.06868e-05
7.0758e-05
7.08261e-05
7.08903e-05
7.09501e-05
7.10053e-05
7.10556e-05
7.11012e-05
7.11419e-05
7.11781e-05
7.12099e-05
7.12375e-05
7.1261e-05
7.12808e-05
7.12971e-05
7.13102e-05
7.13202e-05
7.13273e-05
7.13319e-05
7.13341e-05
7.08755e-05
7.08923e-05
7.09152e-05
7.09422e-05
7.09717e-05
7.10024e-05
7.10333e-05
7.10634e-05
7.10924e-05
7.11196e-05
7.1145e-05
7.11684e-05
7.11897e-05
7.1209e-05
7.12264e-05
7.12419e-05
7.12556e-05
7.12676e-05
7.12781e-05
7.12871e-05
7.12948e-05
7.13011e-05
7.13062e-05
7.13102e-05
7.13131e-05
7.13149e-05
7.13158e-05
7.08221e-05
7.08217e-05
7.08207e-05
7.08191e-05
7.08167e-05
7.08134e-05
7.08092e-05
7.08043e-05
7.07987e-05
7.07927e-05
7.07864e-05
7.078e-05
7.07738e-05
7.07677e-05
7.07621e-05
7.07569e-05
7.07523e-05
7.07482e-05
7.07448e-05
7.07419e-05
7.07396e-05
7.07377e-05
7.07364e-05
7.07354e-05
7.07347e-05
7.07344e-05
7.07342e-05
7.02219e-05
7.02077e-05
7.01878e-05
7.01634e-05
7.01355e-05
7.01051e-05
7.00731e-05
7.00402e-05
7.00072e-05
6.99747e-05
6.99432e-05
6.99132e-05
6.9885e-05
6.98588e-05
6.98349e-05
6.98132e-05
6.9794e-05
6.97771e-05
6.97625e-05
6.97502e-05
6.97399e-05
6.97315e-05
6.9725e-05
6.972e-05
6.97166e-05
6.97144e-05
6.97134e-05
6.91951e-05
6.91701e-05
6.91355e-05
6.90934e-05
6.90457e-05
6.89943e-05
6.89406e-05
6.8886e-05
6.88317e-05
6.87786e-05
6.87276e-05
6.86792e-05
6.86339e-05
6.85921e-05
6.8554e-05
6.85196e-05
6.8489e-05
6.84622e-05
6.84389e-05
6.84192e-05
6.84027e-05
6.83893e-05
6.83787e-05
6.83707e-05
6.83651e-05
6.83615e-05
6.83599e-05
6.78446e-05
6.78115e-05
6.77657e-05
6.77101e-05
6.76474e-05
6.75801e-05
6.751e-05
6.7439e-05
6.73686e-05
6.73e-05
6.72342e-05
6.71719e-05
6.71138e-05
6.70601e-05
6.70113e-05
6.69672e-05
6.69281e-05
6.68937e-05
6.6864e-05
6.68386e-05
6.68175e-05
6.68002e-05
6.67866e-05
6.67763e-05
6.6769e-05
6.67644e-05
6.67622e-05
6.62564e-05
6.62173e-05
6.61633e-05
6.60978e-05
6.60242e-05
6.59451e-05
6.5863e-05
6.578e-05
6.56978e-05
6.56178e-05
6.55412e-05
6.54688e-05
6.54012e-05
6.53389e-05
6.52822e-05
6.52311e-05
6.51857e-05
6.51459e-05
6.51113e-05
6.50819e-05
6.50573e-05
6.50373e-05
6.50214e-05
6.50094e-05
6.50008e-05
6.49955e-05
6.4993e-05
6.45008e-05
6.44576e-05
6.43977e-05
6.43253e-05
6.42439e-05
6.41566e-05
6.4066e-05
6.39746e-05
6.38841e-05
6.37961e-05
6.37119e-05
6.36324e-05
6.35582e-05
6.34899e-05
6.34277e-05
6.33717e-05
6.33219e-05
6.32782e-05
6.32403e-05
6.3208e-05
6.31811e-05
6.3159e-05
6.31416e-05
6.31283e-05
6.3119e-05
6.3113e-05
6.31103e-05
6.26347e-05
6.25886e-05
6.25249e-05
6.24478e-05
6.23613e-05
6.22685e-05
6.21723e-05
6.20753e-05
6.19793e-05
6.18861e-05
6.17969e-05
6.17127e-05
6.16342e-05
6.15619e-05
6.14961e-05
6.14369e-05
6.13842e-05
6.13379e-05
6.12979e-05
6.12637e-05
6.12352e-05
6.12118e-05
6.11933e-05
6.11793e-05
6.11694e-05
6.11631e-05
6.11601e-05
6.07027e-05
6.06549e-05
6.05889e-05
6.0509e-05
6.04194e-05
6.03233e-05
6.02239e-05
6.01235e-05
6.00243e-05
5.99279e-05
5.98358e-05
5.97488e-05
5.96678e-05
5.95932e-05
5.95253e-05
5.94642e-05
5.94098e-05
5.9362e-05
5.93207e-05
5.92854e-05
5.9256e-05
5.92319e-05
5.92128e-05
5.91983e-05
5.9188e-05
5.91815e-05
5.91784e-05
5.87399e-05
5.86913e-05
5.86241e-05
5.8543e-05
5.84519e-05
5.83543e-05
5.82532e-05
5.81513e-05
5.80506e-05
5.79528e-05
5.78593e-05
5.77712e-05
5.7689e-05
5.76133e-05
5.75445e-05
5.74825e-05
5.74274e-05
5.73789e-05
5.7337e-05
5.73013e-05
5.72713e-05
5.72469e-05
5.72275e-05
5.72128e-05
5.72024e-05
5.71958e-05
5.71926e-05
5.67734e-05
5.67246e-05
5.66572e-05
5.65759e-05
5.64845e-05
5.63867e-05
5.62854e-05
5.61833e-05
5.60825e-05
5.59846e-05
5.5891e-05
5.58027e-05
5.57205e-05
5.56447e-05
5.55758e-05
5.55138e-05
5.54586e-05
5.54102e-05
5.53682e-05
5.53324e-05
5.53025e-05
5.5278e-05
5.52586e-05
5.52439e-05
5.52334e-05
5.52268e-05
5.52237e-05
5.48235e-05
5.47751e-05
5.47082e-05
5.46274e-05
5.45368e-05
5.44397e-05
5.43393e-05
5.42381e-05
5.41381e-05
5.4041e-05
5.39482e-05
5.38608e-05
5.37793e-05
5.37042e-05
5.36359e-05
5.35745e-05
5.35198e-05
5.34718e-05
5.34302e-05
5.33947e-05
5.33651e-05
5.33408e-05
5.33216e-05
5.33069e-05
5.32966e-05
5.329e-05
5.32869e-05
5.29054e-05
5.28577e-05
5.27919e-05
5.27124e-05
5.26231e-05
5.25276e-05
5.24288e-05
5.23292e-05
5.22308e-05
5.21353e-05
5.20441e-05
5.1958e-05
5.18779e-05
5.18041e-05
5.17369e-05
5.16765e-05
5.16227e-05
5.15755e-05
5.15346e-05
5.14997e-05
5.14705e-05
5.14466e-05
5.14277e-05
5.14133e-05
5.14031e-05
5.13967e-05
5.13936e-05
5.10302e-05
5.09835e-05
5.09191e-05
5.08413e-05
5.0754e-05
5.06606e-05
5.05639e-05
5.04665e-05
5.03702e-05
5.02769e-05
5.01877e-05
5.01035e-05
5.00252e-05
4.9953e-05
4.98874e-05
4.98283e-05
4.97757e-05
4.97296e-05
4.96896e-05
4.96554e-05
4.96269e-05
4.96035e-05
4.9585e-05
4.9571e-05
4.9561e-05
4.95546e-05
4.95517e-05
4.92057e-05
4.91602e-05
4.90975e-05
4.90217e-05
4.89367e-05
4.88458e-05
4.87516e-05
4.86568e-05
4.85631e-05
4.84722e-05
4.83854e-05
4.83035e-05
4.82273e-05
4.8157e-05
4.80931e-05
4.80356e-05
4.79845e-05
4.79395e-05
4.79006e-05
4.78674e-05
4.78396e-05
4.78169e-05
4.77989e-05
4.77852e-05
4.77754e-05
4.77693e-05
4.77664e-05
4.74371e-05
4.7393e-05
4.73321e-05
4.72586e-05
4.71761e-05
4.70879e-05
4.69966e-05
4.69046e-05
4.68137e-05
4.67256e-05
4.66414e-05
4.6562e-05
4.6488e-05
4.642e-05
4.6358e-05
4.63022e-05
4.62526e-05
4.6209e-05
4.61713e-05
4.61391e-05
4.61121e-05
4.60901e-05
4.60726e-05
4.60593e-05
4.60498e-05
4.60439e-05
4.6041e-05
4.57276e-05
4.5685e-05
4.56261e-05
4.5555e-05
4.54753e-05
4.53899e-05
4.53016e-05
4.52126e-05
4.51248e-05
4.50395e-05
4.49581e-05
4.48813e-05
4.48098e-05
4.47439e-05
4.4684e-05
4.46301e-05
4.45821e-05
4.454e-05
4.45035e-05
4.44723e-05
4.44462e-05
4.44249e-05
4.4408e-05
4.43951e-05
4.4386e-05
4.43802e-05
4.43775e-05
4.40792e-05
4.40381e-05
4.39812e-05
4.39126e-05
4.38356e-05
4.37533e-05
4.36681e-05
4.35822e-05
4.34974e-05
4.34152e-05
4.33366e-05
4.32625e-05
4.31935e-05
4.313e-05
4.30722e-05
4.30201e-05
4.29738e-05
4.29332e-05
4.28979e-05
4.28679e-05
4.28427e-05
4.28221e-05
4.28058e-05
4.27934e-05
4.27846e-05
4.2779e-05
4.27763e-05
4.24925e-05
4.24528e-05
4.23981e-05
4.2332e-05
4.22578e-05
4.21785e-05
4.20964e-05
4.20137e-05
4.1932e-05
4.18528e-05
4.17771e-05
4.17057e-05
4.16393e-05
4.15781e-05
4.15224e-05
4.14723e-05
4.14277e-05
4.13885e-05
4.13546e-05
4.13256e-05
4.13014e-05
4.12815e-05
4.12658e-05
4.12538e-05
4.12453e-05
4.124e-05
4.12374e-05
4.09671e-05
4.0929e-05
4.08763e-05
4.08127e-05
4.07414e-05
4.06651e-05
4.05861e-05
4.05066e-05
4.0428e-05
4.03518e-05
4.0279e-05
4.02104e-05
4.01464e-05
4.00876e-05
4.0034e-05
3.99858e-05
3.99429e-05
3.99052e-05
3.98726e-05
3.98447e-05
3.98214e-05
3.98023e-05
3.97872e-05
3.97757e-05
3.97675e-05
3.97623e-05
3.97599e-05
3.95025e-05
3.94658e-05
3.94152e-05
3.93541e-05
3.92856e-05
3.92122e-05
3.91364e-05
3.90599e-05
3.89844e-05
3.89112e-05
3.88413e-05
3.87753e-05
3.87139e-05
3.86573e-05
3.86058e-05
3.85595e-05
3.85183e-05
3.84821e-05
3.84507e-05
3.84239e-05
3.84015e-05
3.83832e-05
3.83687e-05
3.83576e-05
3.83497e-05
3.83448e-05
3.83424e-05
3.80972e-05
3.8062e-05
3.80134e-05
3.79548e-05
3.78889e-05
3.78185e-05
3.77457e-05
3.76723e-05
3.75998e-05
3.75296e-05
3.74624e-05
3.73991e-05
3.73401e-05
3.72858e-05
3.72364e-05
3.71919e-05
3.71523e-05
3.71176e-05
3.70875e-05
3.70618e-05
3.70403e-05
3.70227e-05
3.70087e-05
3.69981e-05
3.69905e-05
3.69857e-05
3.69835e-05
3.67498e-05
3.6716e-05
3.66694e-05
3.66131e-05
3.65499e-05
3.64824e-05
3.64125e-05
3.63421e-05
3.62726e-05
3.62051e-05
3.61407e-05
3.608e-05
3.60234e-05
3.59713e-05
3.59239e-05
3.58812e-05
3.58433e-05
3.58099e-05
3.5781e-05
3.57564e-05
3.57357e-05
3.57189e-05
3.57055e-05
3.56953e-05
3.5688e-05
3.56835e-05
3.56813e-05
3.54584e-05
3.5426e-05
3.53813e-05
3.53273e-05
3.52668e-05
3.5202e-05
3.5135e-05
3.50675e-05
3.50008e-05
3.49362e-05
3.48744e-05
3.48161e-05
3.47619e-05
3.4712e-05
3.46665e-05
3.46256e-05
3.45892e-05
3.45572e-05
3.45295e-05
3.45059e-05
3.44861e-05
3.44699e-05
3.44571e-05
3.44473e-05
3.44404e-05
3.4436e-05
3.44339e-05
3.42212e-05
3.41901e-05
3.41473e-05
3.40956e-05
3.40375e-05
3.39754e-05
3.39112e-05
3.38465e-05
3.37826e-05
3.37207e-05
3.36615e-05
3.36056e-05
3.35537e-05
3.35058e-05
3.34623e-05
3.34231e-05
3.33882e-05
3.33576e-05
3.3331e-05
3.33084e-05
3.32894e-05
3.32739e-05
3.32616e-05
3.32523e-05
3.32456e-05
3.32414e-05
3.32394e-05
3.30362e-05
3.30065e-05
3.29654e-05
3.29159e-05
3.28603e-05
3.28008e-05
3.27393e-05
3.26773e-05
3.26161e-05
3.25567e-05
3.25e-05
3.24465e-05
3.23967e-05
3.23509e-05
3.23092e-05
3.22717e-05
3.22383e-05
3.22089e-05
3.21835e-05
3.21619e-05
3.21437e-05
3.21289e-05
3.21171e-05
3.21081e-05
3.21018e-05
3.20978e-05
3.20959e-05
3.19016e-05
3.18731e-05
3.18338e-05
3.17863e-05
3.17331e-05
3.16761e-05
3.16172e-05
3.15578e-05
3.14992e-05
3.14423e-05
3.1388e-05
3.13369e-05
3.12892e-05
3.12453e-05
3.12054e-05
3.11695e-05
3.11375e-05
3.11095e-05
3.10851e-05
3.10644e-05
3.1047e-05
3.10328e-05
3.10216e-05
3.1013e-05
3.10069e-05
3.10031e-05
3.10013e-05
3.08153e-05
3.07881e-05
3.07504e-05
3.0705e-05
3.0654e-05
3.05994e-05
3.0543e-05
3.04862e-05
3.04301e-05
3.03757e-05
3.03237e-05
3.02747e-05
3.02291e-05
3.01872e-05
3.0149e-05
3.01146e-05
3.00841e-05
3.00572e-05
3.0034e-05
3.00141e-05
2.99975e-05
2.9984e-05
2.99732e-05
2.9965e-05
2.99592e-05
2.99555e-05
2.99538e-05
2.97756e-05
2.97495e-05
2.97135e-05
2.967e-05
2.96212e-05
2.9569e-05
2.9515e-05
2.94606e-05
2.9407e-05
2.93549e-05
2.93052e-05
2.92584e-05
2.92148e-05
2.91746e-05
2.91381e-05
2.91053e-05
2.90761e-05
2.90504e-05
2.90282e-05
2.90093e-05
2.89935e-05
2.89805e-05
2.89702e-05
2.89624e-05
2.89569e-05
2.89534e-05
2.89517e-05
2.87807e-05
2.87557e-05
2.87212e-05
2.86796e-05
2.86329e-05
2.8583e-05
2.85314e-05
2.84794e-05
2.84281e-05
2.83783e-05
2.83308e-05
2.82861e-05
2.82444e-05
2.82061e-05
2.81712e-05
2.81398e-05
2.8112e-05
2.80875e-05
2.80663e-05
2.80482e-05
2.80331e-05
2.80208e-05
2.8011e-05
2.80035e-05
2.79982e-05
2.79949e-05
2.79933e-05
2.78288e-05
2.7805e-05
2.7772e-05
2.77322e-05
2.76876e-05
2.76399e-05
2.75906e-05
2.75409e-05
2.74919e-05
2.74444e-05
2.7399e-05
2.73563e-05
2.73165e-05
2.72799e-05
2.72466e-05
2.72167e-05
2.71901e-05
2.71668e-05
2.71466e-05
2.71294e-05
2.7115e-05
2.71032e-05
2.70939e-05
2.70868e-05
2.70818e-05
2.70786e-05
2.70771e-05
2.69186e-05
2.68958e-05
2.68643e-05
2.68263e-05
2.67837e-05
2.67382e-05
2.66911e-05
2.66436e-05
2.65969e-05
2.65516e-05
2.65083e-05
2.64675e-05
2.64296e-05
2.63948e-05
2.63631e-05
2.63346e-05
2.63093e-05
2.62871e-05
2.62679e-05
2.62515e-05
2.62378e-05
2.62266e-05
2.62178e-05
2.62111e-05
2.62063e-05
2.62033e-05
2.62019e-05
2.60487e-05
2.6027e-05
2.59969e-05
2.59607e-05
2.592e-05
2.58766e-05
2.58317e-05
2.57865e-05
2.57419e-05
2.56988e-05
2.56576e-05
2.56188e-05
2.55827e-05
2.55495e-05
2.55194e-05
2.54923e-05
2.54683e-05
2.54472e-05
2.5429e-05
2.54134e-05
2.54005e-05
2.53899e-05
2.53815e-05
2.53751e-05
2.53706e-05
2.53677e-05
2.53664e-05
2.52181e-05
2.51974e-05
2.51688e-05
2.51343e-05
2.50956e-05
2.50542e-05
2.50115e-05
2.49685e-05
2.49261e-05
2.4885e-05
2.48459e-05
2.48091e-05
2.47748e-05
2.47433e-05
2.47148e-05
2.46891e-05
2.46663e-05
2.46464e-05
2.46291e-05
2.46144e-05
2.46022e-05
2.45922e-05
2.45842e-05
2.45782e-05
2.4574e-05
2.45713e-05
2.457e-05
2.44262e-05
2.44064e-05
2.43792e-05
2.43464e-05
2.43097e-05
2.42704e-05
2.42298e-05
2.41891e-05
2.41489e-05
2.411e-05
2.40729e-05
2.4038e-05
2.40056e-05
2.39758e-05
2.39488e-05
2.39246e-05
2.39031e-05
2.38843e-05
2.3868e-05
2.38542e-05
2.38427e-05
2.38333e-05
2.38258e-05
2.38202e-05
2.38162e-05
2.38137e-05
2.38125e-05
2.36726e-05
2.36539e-05
2.36282e-05
2.35971e-05
2.35624e-05
2.35252e-05
2.34869e-05
2.34483e-05
2.34104e-05
2.33736e-05
2.33387e-05
2.33058e-05
2.32753e-05
2.32473e-05
2.32219e-05
2.31991e-05
2.3179e-05
2.31613e-05
2.31461e-05
2.31331e-05
2.31223e-05
2.31135e-05
2.31066e-05
2.31013e-05
2.30976e-05
2.30953e-05
2.30942e-05
2.29582e-05
2.29406e-05
2.29163e-05
2.28871e-05
2.28544e-05
2.28194e-05
2.27834e-05
2.27472e-05
2.27115e-05
2.26771e-05
2.26443e-05
2.26136e-05
2.2585e-05
2.25589e-05
2.25352e-05
2.2514e-05
2.24952e-05
2.24787e-05
2.24646e-05
2.24526e-05
2.24426e-05
2.24344e-05
2.2428e-05
2.24231e-05
2.24197e-05
2.24176e-05
2.24165e-05
2.22846e-05
2.22681e-05
2.22455e-05
2.22182e-05
2.21876e-05
2.2155e-05
2.21215e-05
2.20878e-05
2.20546e-05
2.20227e-05
2.19923e-05
2.19637e-05
2.19373e-05
2.19131e-05
2.18913e-05
2.18717e-05
2.18544e-05
2.18393e-05
2.18263e-05
2.18153e-05
2.18061e-05
2.17987e-05
2.17928e-05
2.17884e-05
2.17853e-05
2.17833e-05
2.17824e-05
2.1655e-05
2.16399e-05
2.16189e-05
2.15938e-05
2.15657e-05
2.15357e-05
2.15048e-05
2.14739e-05
2.14436e-05
2.14143e-05
2.13865e-05
2.13605e-05
2.13364e-05
2.13144e-05
2.12945e-05
2.12768e-05
2.12611e-05
2.12475e-05
2.12358e-05
2.12259e-05
2.12176e-05
2.1211e-05
2.12057e-05
2.12018e-05
2.1199e-05
2.11972e-05
2.11964e-05
2.10748e-05
2.1061e-05
2.10421e-05
2.10194e-05
2.0994e-05
2.0967e-05
2.09393e-05
2.09115e-05
2.08843e-05
2.08581e-05
2.08332e-05
2.081e-05
2.07886e-05
2.07691e-05
2.07515e-05
2.07359e-05
2.07221e-05
2.07101e-05
2.06998e-05
2.06911e-05
2.06839e-05
2.06781e-05
2.06736e-05
2.06701e-05
2.06677e-05
2.06662e-05
2.06655e-05
2.05513e-05
2.05392e-05
2.05226e-05
2.05027e-05
2.04805e-05
2.0457e-05
2.04328e-05
2.04086e-05
2.03851e-05
2.03624e-05
2.0341e-05
2.03211e-05
2.03028e-05
2.02861e-05
2.02711e-05
2.02578e-05
2.02462e-05
2.0236e-05
2.02274e-05
2.02202e-05
2.02142e-05
2.02093e-05
2.02056e-05
2.02027e-05
2.02008e-05
2.01995e-05
2.0199e-05
2.00941e-05
2.0084e-05
2.00701e-05
2.00535e-05
2.0035e-05
2.00154e-05
1.99954e-05
1.99755e-05
1.99561e-05
1.99376e-05
1.99202e-05
1.9904e-05
1.98892e-05
1.98758e-05
1.98639e-05
1.98533e-05
1.98441e-05
1.98361e-05
1.98293e-05
1.98237e-05
1.98191e-05
1.98153e-05
1.98125e-05
1.98103e-05
1.98088e-05
1.98079e-05
1.98075e-05
1.9714e-05
1.97061e-05
1.96953e-05
1.96825e-05
1.96682e-05
1.96532e-05
1.96379e-05
1.96228e-05
1.96082e-05
1.95944e-05
1.95814e-05
1.95695e-05
1.95587e-05
1.9549e-05
1.95404e-05
1.95329e-05
1.95263e-05
1.95208e-05
1.95161e-05
1.95122e-05
1.95091e-05
1.95066e-05
1.95047e-05
1.95033e-05
1.95023e-05
1.95017e-05
1.95015e-05
1.94207e-05
1.94153e-05
1.9408e-05
1.93992e-05
1.93896e-05
1.93796e-05
1.93695e-05
1.93597e-05
1.93502e-05
1.93414e-05
1.93333e-05
1.93259e-05
1.93194e-05
1.93136e-05
1.93086e-05
1.93043e-05
1.93006e-05
1.92976e-05
1.92951e-05
1.92931e-05
1.92915e-05
1.92903e-05
1.92894e-05
1.92888e-05
1.92883e-05
1.92881e-05
1.9288e-05
1.92202e-05
1.92173e-05
1.92135e-05
1.9209e-05
1.92041e-05
1.91992e-05
1.91944e-05
1.91898e-05
1.91856e-05
1.91818e-05
1.91785e-05
1.91757e-05
1.91733e-05
1.91714e-05
1.91699e-05
1.91687e-05
1.91678e-05
1.91672e-05
1.91669e-05
1.91666e-05
1.91666e-05
1.91666e-05
1.91666e-05
1.91667e-05
1.91668e-05
1.91669e-05
1.91669e-05
1.9111e-05
1.91105e-05
1.91099e-05
1.91093e-05
1.91089e-05
1.91086e-05
1.91085e-05
1.91088e-05
1.91093e-05
1.911e-05
1.9111e-05
1.91122e-05
1.91135e-05
1.9115e-05
1.91165e-05
1.91181e-05
1.91196e-05
1.91211e-05
1.91225e-05
1.91238e-05
1.9125e-05
1.9126e-05
1.91269e-05
1.91276e-05
1.91281e-05
1.91284e-05
1.91286e-05
1.90824e-05
1.90838e-05
1.90859e-05
1.90885e-05
1.90915e-05
1.90949e-05
1.90987e-05
1.91027e-05
1.91068e-05
1.9111e-05
1.91153e-05
1.91195e-05
1.91236e-05
1.91276e-05
1.91313e-05
1.91348e-05
1.91381e-05
1.91411e-05