/*--------------------------------*- C++ -*----------------------------------*\
| =========                 |                                                 |
| \\      /  F ield         | OpenFOAM: The Open Source CFD Toolbox           |
|  \\    /   O peration     | Version:  2106                                  |
|   \\  /    A nd           | Website:  www.openfoam.com                      |
|    \\/     M anipulation  |                                                 |
\*---------------------------------------------------------------------------*/
FoamFile
{
    version     2.0;
    format      ascii;
    arch        "LSB;label=32;scalar=64";
    class       volScalarField;
    location    "110.00000";
    object      C6H6;
}
// * * * * * * * * * * * * * * * * * * * * * * * * * * * * * * * * * * * * * //

dimensions      [0 0 0 0 0 0 0];

internalField   nonuniform List<scalar> 
3360
(
9.42654e-20
9.72993e-20
1.01521e-19
1.06686e-19
1.12577e-19
1.19003e-19
1.25787e-19
1.32773e-19
1.39821e-19
1.46806e-19
1.53622e-19
1.60176e-19
1.66394e-19
1.72216e-19
1.77597e-19
1.82503e-19
1.86916e-19
1.90828e-19
1.9424e-19
1.97161e-19
1.99611e-19
2.01611e-19
2.03191e-19
2.04383e-19
2.05221e-19
2.05743e-19
2.05985e-19
4.13535e-19
4.28737e-19
4.50189e-19
4.76905e-19
5.08065e-19
5.42956e-19
5.8094e-19
6.21435e-19
6.63896e-19
7.07811e-19
7.52686e-19
7.98044e-19
8.4341e-19
8.8832e-19
9.32313e-19
9.74939e-19
1.01576e-18
1.05433e-18
1.09027e-18
1.12316e-18
1.15267e-18
1.17849e-18
1.20033e-18
1.218e-18
1.23134e-18
1.24024e-18
1.24468e-18
1.29759e-18
1.35455e-18
1.43549e-18
1.53719e-18
1.657e-18
1.79251e-18
1.94145e-18
2.10158e-18
2.27063e-18
2.44628e-18
2.62615e-18
2.8079e-18
2.9892e-18
3.16774e-18
3.3413e-18
3.50777e-18
3.66519e-18
3.81181e-18
3.94611e-18
4.06682e-18
4.17297e-18
4.26386e-18
4.33911e-18
4.39859e-18
4.44244e-18
4.47103e-18
4.48495e-18
3.77919e-18
3.96694e-18
4.2355e-18
4.5753e-18
4.97828e-18
5.43694e-18
5.94375e-18
6.49091e-18
7.07025e-18
7.67318e-18
8.2908e-18
8.91409e-18
9.53408e-18
1.0142e-17
1.07296e-17
1.12893e-17
1.18142e-17
1.22987e-17
1.27382e-17
1.31291e-17
1.34693e-17
1.37574e-17
1.39934e-17
1.4178e-17
1.43127e-17
1.43997e-17
1.44417e-17
1.10421e-17
1.16344e-17
1.24833e-17
1.35598e-17
1.48394e-17
1.62983e-17
1.79123e-17
1.96556e-17
2.15007e-17
2.34186e-17
2.53796e-17
2.73532e-17
2.931e-17
3.12217e-17
3.3062e-17
3.48075e-17
3.64379e-17
3.79366e-17
3.92906e-17
4.04906e-17
4.1531e-17
4.24095e-17
4.31268e-17
4.36863e-17
4.40935e-17
4.43559e-17
4.44821e-17
3.25598e-17
3.43788e-17
3.69893e-17
4.03026e-17
4.42429e-17
4.87368e-17
5.37084e-17
5.90767e-17
6.47553e-17
7.06533e-17
7.66769e-17
8.27318e-17
8.87262e-17
9.45727e-17
1.00191e-16
1.05511e-16
1.1047e-16
1.15021e-16
1.19125e-16
1.22756e-16
1.25898e-16
1.28548e-16
1.30708e-16
1.3239e-16
1.33613e-16
1.344e-16
1.34778e-16
9.67255e-17
1.02253e-16
1.10186e-16
1.20254e-16
1.32228e-16
1.4588e-16
1.60977e-16
1.77269e-16
1.94491e-16
2.12363e-16
2.30599e-16
2.48913e-16
2.67025e-16
2.84673e-16
3.01618e-16
3.17646e-16
3.32579e-16
3.46269e-16
3.58608e-16
3.69518e-16
3.78956e-16
3.8691e-16
3.93392e-16
3.98439e-16
4.02107e-16
4.04467e-16
4.05602e-16
2.88294e-16
3.04929e-16
3.28811e-16
3.59135e-16
3.95205e-16
4.3634e-16
4.8183e-16
5.30918e-16
5.82798e-16
6.36625e-16
6.91532e-16
7.46652e-16
8.01146e-16
8.54223e-16
9.05161e-16
9.53323e-16
9.98172e-16
1.03927e-15
1.0763e-15
1.10902e-15
1.13732e-15
1.16115e-15
1.18057e-15
1.19568e-15
1.20666e-15
1.21372e-15
1.21712e-15
8.61539e-16
9.11534e-16
9.83299e-16
1.07441e-15
1.18277e-15
1.30632e-15
1.44292e-15
1.59028e-15
1.74598e-15
1.90746e-15
2.07212e-15
2.23736e-15
2.40067e-15
2.55968e-15
2.71223e-15
2.85644e-15
2.99069e-15
3.1137e-15
3.22448e-15
3.32239e-15
3.40705e-15
3.47835e-15
3.53644e-15
3.58165e-15
3.6145e-15
3.63562e-15
3.64577e-15
2.57467e-15
2.72442e-15
2.9394e-15
3.21235e-15
3.53698e-15
3.90712e-15
4.31633e-15
4.75775e-15
5.22407e-15
5.70765e-15
6.20067e-15
6.69534e-15
7.18413e-15
7.65994e-15
8.11634e-15
8.54766e-15
8.94911e-15
9.31684e-15
9.64797e-15
9.94053e-15
1.01934e-14
1.04064e-14
1.05798e-14
1.07148e-14
1.08128e-14
1.08758e-14
1.09061e-14
7.69773e-15
8.14598e-15
8.78939e-15
9.60614e-15
1.05773e-14
1.16843e-14
1.29079e-14
1.42273e-14
1.56207e-14
1.70652e-14
1.85375e-14
2.00141e-14
2.14727e-14
2.28922e-14
2.42533e-14
2.55393e-14
2.67359e-14
2.78318e-14
2.88184e-14
2.96899e-14
3.04432e-14
3.10774e-14
3.15938e-14
3.19957e-14
3.22875e-14
3.24752e-14
3.25654e-14
2.29911e-14
2.43293e-14
2.62499e-14
2.86877e-14
3.15856e-14
3.48882e-14
3.85372e-14
4.2471e-14
4.6624e-14
5.09276e-14
5.53121e-14
5.97081e-14
6.40486e-14
6.8271e-14
7.23183e-14
7.61406e-14
7.9696e-14
8.29508e-14
8.58799e-14
8.84665e-14
9.07013e-14
9.25823e-14
9.41137e-14
9.53049e-14
9.61698e-14
9.67258e-14
9.69928e-14
6.85867e-14
7.25742e-14
7.82953e-14
8.55532e-14
9.41771e-14
1.03999e-13
1.14845e-13
1.2653e-13
1.38858e-13
1.51624e-13
1.6462e-13
1.77643e-13
1.90492e-13
2.02983e-13
2.14949e-13
2.26243e-13
2.36742e-13
2.46349e-13
2.54991e-13
2.62618e-13
2.69206e-13
2.74749e-13
2.7926e-13
2.82768e-13
2.85314e-13
2.86951e-13
2.87737e-13
2.03982e-13
2.15807e-13
2.32767e-13
2.54272e-13
2.79809e-13
3.08873e-13
3.40942e-13
3.75462e-13
4.11847e-13
4.49492e-13
4.87782e-13
5.26109e-13
5.63892e-13
6.00587e-13
6.35707e-13
6.68825e-13
6.99587e-13
7.2771e-13
7.52987e-13
7.75282e-13
7.94524e-13
8.10704e-13
8.23864e-13
8.34092e-13
8.41513e-13
8.4628e-13
8.48569e-13
6.0436e-13
6.39227e-13
6.89198e-13
7.52507e-13
8.27607e-13
9.12983e-13
1.00707e-12
1.1082e-12
1.21466e-12
1.32464e-12
1.43634e-12
1.54799e-12
1.6579e-12
1.76449e-12
1.86637e-12
1.96232e-12
2.05133e-12
2.13262e-12
2.2056e-12
2.26991e-12
2.32536e-12
2.37194e-12
2.40981e-12
2.43921e-12
2.46054e-12
2.47423e-12
2.4808e-12
1.77978e-12
1.88157e-12
2.02733e-12
2.21178e-12
2.43029e-12
2.6783e-12
2.95114e-12
3.2439e-12
3.55147e-12
3.86863e-12
4.19011e-12
4.51083e-12
4.82592e-12
5.13095e-12
5.42196e-12
5.69555e-12
5.94893e-12
6.17995e-12
6.38706e-12
6.56929e-12
6.72623e-12
6.85791e-12
6.96482e-12
7.04777e-12
7.10786e-12
7.14641e-12
7.1649e-12
5.19969e-12
5.49295e-12
5.91235e-12
6.44217e-12
7.06857e-12
7.77799e-12
8.55655e-12
9.38986e-12
1.0263e-11
1.1161e-11
1.20688e-11
1.29721e-11
1.38572e-11
1.47119e-11
1.55254e-11
1.62883e-11
1.69934e-11
1.7635e-11
1.8209e-11
1.87131e-11
1.91466e-11
1.95098e-11
1.98042e-11
2.00324e-11
2.01975e-11
2.03033e-11
2.0354e-11
1.50277e-11
1.5857e-11
1.70409e-11
1.85331e-11
2.02928e-11
2.22798e-11
2.44535e-11
2.67724e-11
2.91939e-11
3.16756e-11
3.41759e-11
3.66552e-11
3.90767e-11
4.14075e-11
4.3619e-11
4.56873e-11
4.75936e-11
4.93235e-11
5.08677e-11
5.22211e-11
5.33822e-11
5.43533e-11
5.51393e-11
5.57475e-11
5.6187e-11
5.64683e-11
5.66029e-11
4.28238e-11
4.51115e-11
4.83702e-11
5.24658e-11
5.72788e-11
6.26932e-11
6.85926e-11
7.48593e-11
8.13756e-11
8.80252e-11
9.46963e-11
1.01284e-10
1.07693e-10
1.13838e-10
1.19647e-10
1.25062e-10
1.30037e-10
1.34538e-10
1.38545e-10
1.42048e-10
1.45047e-10
1.47549e-10
1.49571e-10
1.51132e-10
1.52259e-10
1.5298e-10
1.53324e-10
1.19817e-10
1.2593e-10
1.34614e-10
1.4549e-10
1.58218e-10
1.72472e-10
1.87928e-10
2.04264e-10
2.21166e-10
2.38328e-10
2.55462e-10
2.72301e-10
2.8861e-10
3.0418e-10
3.18841e-10
3.32455e-10
3.44917e-10
3.56157e-10
3.66133e-10
3.7483e-10
3.82256e-10
3.8844e-10
3.93426e-10
3.9727e-10
4.00039e-10
4.01807e-10
4.02651e-10
3.27569e-10
3.4328e-10
3.65527e-10
3.93277e-10
4.25599e-10
4.61609e-10
5.00445e-10
5.41268e-10
5.8327e-10
6.25688e-10
6.67812e-10
7.09005e-10
7.48706e-10
7.86442e-10
8.21822e-10
8.54547e-10
8.84395e-10
9.11227e-10
9.34969e-10
9.5561e-10
9.73192e-10
9.87799e-10
9.99552e-10
1.0086e-09
1.0151e-09
1.01925e-09
1.02123e-09
8.70289e-10
9.08868e-10
9.63313e-10
1.03093e-09
1.1093e-09
1.19614e-09
1.28927e-09
1.38661e-09
1.4862e-09
1.58622e-09
1.68502e-09
1.78115e-09
1.87336e-09
1.96062e-09
2.0421e-09
2.11717e-09
2.18541e-09
2.24655e-09
2.3005e-09
2.34728e-09
2.38703e-09
2.41998e-09
2.44645e-09
2.46678e-09
2.48138e-09
2.49068e-09
2.49511e-09
2.23505e-09
2.32518e-09
2.45195e-09
2.60872e-09
2.78955e-09
2.98887e-09
3.20148e-09
3.42249e-09
3.6474e-09
3.87211e-09
4.09301e-09
4.30693e-09
4.51124e-09
4.70379e-09
4.8829e-09
5.04737e-09
5.1964e-09
5.32955e-09
5.44672e-09
5.54808e-09
5.63403e-09
5.70515e-09
5.76217e-09
5.80592e-09
5.83729e-09
5.85725e-09
5.86674e-09
5.52368e-09
5.72375e-09
6.00431e-09
6.34998e-09
6.74696e-09
7.18252e-09
7.64491e-09
8.12328e-09
8.60783e-09
9.08979e-09
9.56154e-09
1.00166e-08
1.04495e-08
1.08562e-08
1.12332e-08
1.15784e-08
1.18904e-08
1.21685e-08
1.24126e-08
1.26234e-08
1.28018e-08
1.29492e-08
1.30673e-08
1.31577e-08
1.32225e-08
1.32636e-08
1.32832e-08
1.31009e-08
1.35239e-08
1.41158e-08
1.48427e-08
1.56746e-08
1.6584e-08
1.75456e-08
1.85367e-08
1.95368e-08
2.0528e-08
2.1495e-08
2.24247e-08
2.33068e-08
2.41329e-08
2.4897e-08
2.5595e-08
2.62245e-08
2.67845e-08
2.72753e-08
2.76985e-08
2.80561e-08
2.83512e-08
2.85872e-08
2.87679e-08
2.88972e-08
2.89793e-08
2.90183e-08
2.97981e-08
3.06552e-08
3.1852e-08
3.33185e-08
3.49926e-08
3.68175e-08
3.87419e-08
4.07198e-08
4.27104e-08
4.46784e-08
4.65935e-08
4.84309e-08
5.01703e-08
5.17964e-08
5.32979e-08
5.46672e-08
5.59002e-08
5.69958e-08
5.79549e-08
5.87808e-08
5.94783e-08
6.00533e-08
6.05127e-08
6.08642e-08
6.11156e-08
6.12751e-08
6.13508e-08
6.50614e-08
6.67367e-08
6.90735e-08
7.19328e-08
7.51913e-08
7.87374e-08
8.24706e-08
8.63012e-08
9.01505e-08
9.39504e-08
9.76433e-08
1.01182e-07
1.04528e-07
1.07653e-07
1.10536e-07
1.13164e-07
1.15528e-07
1.17627e-07
1.19464e-07
1.21045e-07
1.22379e-07
1.23479e-07
1.24358e-07
1.2503e-07
1.2551e-07
1.25815e-07
1.2596e-07
1.36598e-07
1.39779e-07
1.44213e-07
1.49635e-07
1.5581e-07
1.62525e-07
1.6959e-07
1.76835e-07
1.84112e-07
1.91292e-07
1.98268e-07
2.04951e-07
2.1127e-07
2.17171e-07
2.22615e-07
2.27576e-07
2.3204e-07
2.36005e-07
2.39474e-07
2.42461e-07
2.44983e-07
2.47061e-07
2.48722e-07
2.49992e-07
2.509e-07
2.51477e-07
2.5175e-07
2.7614e-07
2.82024e-07
2.90225e-07
3.00253e-07
3.11673e-07
3.24093e-07
3.37161e-07
3.50564e-07
3.64029e-07
3.7732e-07
3.90238e-07
4.02619e-07
4.14331e-07
4.25273e-07
4.35373e-07
4.44582e-07
4.52875e-07
4.60243e-07
4.66695e-07
4.72252e-07
4.76946e-07
4.80818e-07
4.83912e-07
4.8628e-07
4.87975e-07
4.89051e-07
4.89562e-07
5.37366e-07
5.47938e-07
5.62676e-07
5.80698e-07
6.01226e-07
6.23555e-07
6.47056e-07
6.71169e-07
6.95402e-07
7.19334e-07
7.42604e-07
7.64917e-07
7.86036e-07
8.05779e-07
8.24011e-07
8.40646e-07
8.55632e-07
8.68954e-07
8.80626e-07
8.90684e-07
8.99185e-07
9.06199e-07
9.11808e-07
9.16102e-07
9.19177e-07
9.21129e-07
9.22057e-07
1.00411e-06
1.0224e-06
1.04788e-06
1.07905e-06
1.11455e-06
1.15316e-06
1.19379e-06
1.23549e-06
1.2774e-06
1.31878e-06
1.35903e-06
1.39762e-06
1.43415e-06
1.4683e-06
1.49985e-06
1.52863e-06
1.55456e-06
1.57762e-06
1.59782e-06
1.61523e-06
1.62994e-06
1.64208e-06
1.65179e-06
1.65923e-06
1.66455e-06
1.66793e-06
1.66954e-06
1.79389e-06
1.82396e-06
1.86587e-06
1.91709e-06
1.9754e-06
2.03879e-06
2.10546e-06
2.17384e-06
2.24252e-06
2.3103e-06
2.37619e-06
2.43933e-06
2.49907e-06
2.55488e-06
2.60641e-06
2.6534e-06
2.69572e-06
2.73333e-06
2.76627e-06
2.79464e-06
2.81861e-06
2.83838e-06
2.85419e-06
2.86628e-06
2.87494e-06
2.88044e-06
2.88305e-06
3.05007e-06
3.09657e-06
3.16131e-06
3.24038e-06
3.33028e-06
3.42791e-06
3.53047e-06
3.63549e-06
3.74085e-06
3.8447e-06
3.9455e-06
4.04198e-06
4.13315e-06
4.21823e-06
4.29668e-06
4.36814e-06
4.43243e-06
4.48951e-06
4.53945e-06
4.58243e-06
4.61871e-06
4.64862e-06
4.6725e-06
4.69077e-06
4.70384e-06
4.71213e-06
4.71607e-06
4.91957e-06
4.98659e-06
5.07982e-06
5.1935e-06
5.32255e-06
5.46242e-06
5.60907e-06
5.75896e-06
5.909e-06
6.05658e-06
6.19955e-06
6.33612e-06
6.46492e-06
6.58492e-06
6.69537e-06
6.79583e-06
6.88608e-06
6.96608e-06
7.036e-06
7.09611e-06
7.1468e-06
7.18853e-06
7.22185e-06
7.24731e-06
7.26551e-06
7.27705e-06
7.28253e-06
7.52152e-06
7.61139e-06
7.73624e-06
7.88821e-06
8.06038e-06
8.24658e-06
8.44134e-06
8.63991e-06
8.83821e-06
9.0328e-06
9.22085e-06
9.4001e-06
9.5688e-06
9.72565e-06
9.86977e-06
1.00006e-05
1.0118e-05
1.02219e-05
1.03126e-05
1.03905e-05
1.04562e-05
1.05102e-05
1.05533e-05
1.05862e-05
1.06097e-05
1.06246e-05
1.06317e-05
1.09208e-05
1.10335e-05
1.11898e-05
1.13798e-05
1.15946e-05
1.18264e-05
1.20683e-05
1.23144e-05
1.25596e-05
1.27997e-05
1.30312e-05
1.32514e-05
1.34583e-05
1.36504e-05
1.38266e-05
1.39864e-05
1.41295e-05
1.42561e-05
1.43665e-05
1.44613e-05
1.45411e-05
1.46067e-05
1.4659e-05
1.4699e-05
1.47276e-05
1.47457e-05
1.47542e-05
1.51199e-05
1.52534e-05
1.54384e-05
1.56629e-05
1.59164e-05
1.61894e-05
1.64739e-05
1.67628e-05
1.70501e-05
1.7331e-05
1.76014e-05
1.78584e-05
1.80994e-05
1.83229e-05
1.85277e-05
1.87133e-05
1.88794e-05
1.90263e-05
1.91543e-05
1.92641e-05
1.93566e-05
1.94326e-05
1.94932e-05
1.95395e-05
1.95726e-05
1.95936e-05
1.96035e-05
2.00702e-05
2.02216e-05
2.04313e-05
2.06854e-05
2.09721e-05
2.12805e-05
2.16015e-05
2.19271e-05
2.22505e-05
2.25664e-05
2.28703e-05
2.31587e-05
2.34291e-05
2.36796e-05
2.39091e-05
2.41169e-05
2.43029e-05
2.44673e-05
2.46106e-05
2.47335e-05
2.4837e-05
2.49221e-05
2.49899e-05
2.50418e-05
2.50788e-05
2.51023e-05
2.51135e-05
2.56942e-05
2.58605e-05
2.60907e-05
2.63696e-05
2.6684e-05
2.70221e-05
2.73737e-05
2.773e-05
2.80839e-05
2.84293e-05
2.87614e-05
2.90764e-05
2.93717e-05
2.96452e-05
2.98957e-05
3.01226e-05
3.03256e-05
3.0505e-05
3.06614e-05
3.07955e-05
3.09085e-05
3.10014e-05
3.10755e-05
3.11322e-05
3.11727e-05
3.11984e-05
3.12106e-05
3.19047e-05
3.20834e-05
3.23307e-05
3.26303e-05
3.29678e-05
3.33307e-05
3.37079e-05
3.40902e-05
3.44697e-05
3.484e-05
3.5196e-05
3.55336e-05
3.58501e-05
3.61432e-05
3.64117e-05
3.66548e-05
3.68723e-05
3.70646e-05
3.72322e-05
3.73761e-05
3.74972e-05
3.75969e-05
3.76764e-05
3.77372e-05
3.77806e-05
3.78082e-05
3.78213e-05
3.86186e-05
3.88078e-05
3.90695e-05
3.93865e-05
3.97436e-05
4.01275e-05
4.05266e-05
4.09309e-05
4.13322e-05
4.17238e-05
4.21002e-05
4.24573e-05
4.2792e-05
4.31019e-05
4.33858e-05
4.36429e-05
4.38731e-05
4.40765e-05
4.42538e-05
4.44061e-05
4.45343e-05
4.46398e-05
4.4724e-05
4.47883e-05
4.48344e-05
4.48636e-05
4.48775e-05
4.57629e-05
4.5961e-05
4.62352e-05
4.65672e-05
4.69412e-05
4.73432e-05
4.77611e-05
4.81845e-05
4.86048e-05
4.90148e-05
4.9409e-05
4.9783e-05
5.01335e-05
5.04581e-05
5.07555e-05
5.10248e-05
5.12659e-05
5.1479e-05
5.16648e-05
5.18244e-05
5.19587e-05
5.20693e-05
5.21576e-05
5.22251e-05
5.22734e-05
5.2304e-05
5.23186e-05
5.32763e-05
5.34823e-05
5.37673e-05
5.41125e-05
5.45013e-05
5.49193e-05
5.53537e-05
5.57939e-05
5.62308e-05
5.66571e-05
5.7067e-05
5.74558e-05
5.78202e-05
5.81578e-05
5.8467e-05
5.87471e-05
5.89978e-05
5.92195e-05
5.94128e-05
5.95787e-05
5.97185e-05
5.98336e-05
5.99254e-05
5.99957e-05
6.00459e-05
6.00778e-05
6.0093e-05
6.11085e-05
6.13215e-05
6.16162e-05
6.19731e-05
6.23752e-05
6.28074e-05
6.32566e-05
6.37117e-05
6.41635e-05
6.46043e-05
6.50281e-05
6.54302e-05
6.5807e-05
6.61561e-05
6.64759e-05
6.67655e-05
6.70248e-05
6.72541e-05
6.7454e-05
6.76257e-05
6.77703e-05
6.78893e-05
6.79844e-05
6.8057e-05
6.8109e-05
6.8142e-05
6.81577e-05
6.92189e-05
6.94382e-05
6.97416e-05
7.01092e-05
7.05232e-05
7.09682e-05
7.14307e-05
7.18993e-05
7.23645e-05
7.28184e-05
7.32548e-05
7.36688e-05
7.40568e-05
7.44162e-05
7.47455e-05
7.50437e-05
7.53107e-05
7.55468e-05
7.57527e-05
7.59294e-05
7.60784e-05
7.6201e-05
7.62988e-05
7.63737e-05
7.64272e-05
7.64612e-05
7.64774e-05
7.75745e-05
7.77996e-05
7.8111e-05
7.84882e-05
7.89131e-05
7.93698e-05
7.98445e-05
8.03254e-05
8.08028e-05
8.12686e-05
8.17164e-05
8.21412e-05
8.25393e-05
8.29081e-05
8.3246e-05
8.3552e-05
8.3826e-05
8.40683e-05
8.42795e-05
8.44609e-05
8.46137e-05
8.47395e-05
8.48399e-05
8.49167e-05
8.49717e-05
8.50066e-05
8.50232e-05
8.6149e-05
8.63793e-05
8.66981e-05
8.70842e-05
8.75191e-05
8.79865e-05
8.84723e-05
8.89645e-05
8.9453e-05
8.99297e-05
9.0388e-05
9.08227e-05
9.12301e-05
9.16075e-05
9.19532e-05
9.22664e-05
9.25468e-05
9.27946e-05
9.30108e-05
9.31964e-05
9.33527e-05
9.34815e-05
9.35842e-05
9.36628e-05
9.3719e-05
9.37547e-05
9.37717e-05
9.49206e-05
9.51559e-05
9.54814e-05
9.58757e-05
9.63199e-05
9.67972e-05
9.72933e-05
9.77959e-05
9.82948e-05
9.87815e-05
9.92494e-05
9.96932e-05
0.000100109
0.000100495
0.000100847
0.000101167
0.000101453
0.000101706
0.000101927
0.000102117
0.000102276
0.000102408
0.000102513
0.000102593
0.00010265
0.000102687
0.000102704
0.000103872
0.000104112
0.000104444
0.000104845
0.000105298
0.000105785
0.00010629
0.000106803
0.000107311
0.000107807
0.000108284
0.000108736
0.00010916
0.000109553
0.000109913
0.000110238
0.00011053
0.000110788
0.000111013
0.000111206
0.000111368
0.000111502
0.000111609
0.000111691
0.000111749
0.000111787
0.000111804
0.000112988
0.000113232
0.00011357
0.000113979
0.00011444
0.000114935
0.00011545
0.000115971
0.000116488
0.000116993
0.000117478
0.000117939
0.00011837
0.000118769
0.000119135
0.000119467
0.000119763
0.000120026
0.000120255
0.000120451
0.000120616
0.000120753
0.000120861
0.000120944
0.000121004
0.000121042
0.00012106
0.000122257
0.000122505
0.000122849
0.000123265
0.000123733
0.000124236
0.000124759
0.000125289
0.000125815
0.000126328
0.000126821
0.000127289
0.000127727
0.000128133
0.000128505
0.000128841
0.000129143
0.000129409
0.000129642
0.000129841
0.000130009
0.000130148
0.000130258
0.000130343
0.000130403
0.000130441
0.00013046
0.000131669
0.000131921
0.00013227
0.000132692
0.000133168
0.000133679
0.000134209
0.000134747
0.000135281
0.000135802
0.000136302
0.000136777
0.000137222
0.000137634
0.000138011
0.000138353
0.000138659
0.000138929
0.000139165
0.000139368
0.000139538
0.000139679
0.000139791
0.000139877
0.000139938
0.000139977
0.000139995
0.000141216
0.000141471
0.000141825
0.000142253
0.000142735
0.000143254
0.000143792
0.000144338
0.000144879
0.000145407
0.000145915
0.000146396
0.000146847
0.000147265
0.000147647
0.000147994
0.000148304
0.000148578
0.000148817
0.000149023
0.000149196
0.000149338
0.000149452
0.000149539
0.000149601
0.00014964
0.000149659
0.000150889
0.000151148
0.000151507
0.000151941
0.000152429
0.000152954
0.0001535
0.000154053
0.000154601
0.000155136
0.000155651
0.000156138
0.000156595
0.000157019
0.000157406
0.000157757
0.000158072
0.000158349
0.000158592
0.0001588
0.000158975
0.000159119
0.000159234
0.000159322
0.000159385
0.000159425
0.000159444
0.000160683
0.000160946
0.000161309
0.000161748
0.000162243
0.000162775
0.000163327
0.000163887
0.000164442
0.000164984
0.000165505
0.000165999
0.000166461
0.00016689
0.000167282
0.000167638
0.000167956
0.000168237
0.000168482
0.000168693
0.00016887
0.000169016
0.000169132
0.000169221
0.000169285
0.000169326
0.000169345
0.000170593
0.000170858
0.000171225
0.00017167
0.000172171
0.000172709
0.000173268
0.000173835
0.000174396
0.000174945
0.000175471
0.000175971
0.000176439
0.000176873
0.00017727
0.000177629
0.000177951
0.000178236
0.000178484
0.000178697
0.000178876
0.000179024
0.000179141
0.000179232
0.000179296
0.000179337
0.000179356
0.000180612
0.000180881
0.000181252
0.000181702
0.000182208
0.000182753
0.000183318
0.000183891
0.000184459
0.000185013
0.000185546
0.000186051
0.000186525
0.000186963
0.000187364
0.000187728
0.000188053
0.000188341
0.000188592
0.000188807
0.000188988
0.000189138
0.000189257
0.000189348
0.000189413
0.000189455
0.000189474
0.000190737
0.000191009
0.000191384
0.000191839
0.000192351
0.000192901
0.000193473
0.000194051
0.000194626
0.000195186
0.000195724
0.000196235
0.000196713
0.000197156
0.000197562
0.00019793
0.000198258
0.000198549
0.000198802
0.00019902
0.000199203
0.000199354
0.000199474
0.000199567
0.000199632
0.000199674
0.000199694
0.000200964
0.000201238
0.000201618
0.000202077
0.000202594
0.00020315
0.000203727
0.000204312
0.000204893
0.000205458
0.000206002
0.000206518
0.000207001
0.000207449
0.000207859
0.00020823
0.000208562
0.000208855
0.000209111
0.000209331
0.000209516
0.000209669
0.00020979
0.000209883
0.00020995
0.000209992
0.000210012
0.000211289
0.000211566
0.000211949
0.000212412
0.000212935
0.000213496
0.000214079
0.00021467
0.000215255
0.000215827
0.000216376
0.000216897
0.000217385
0.000217837
0.00021825
0.000218625
0.00021896
0.000219257
0.000219515
0.000219737
0.000219924
0.000220078
0.0002202
0.000220294
0.000220361
0.000220404
0.000220424
0.000221707
0.000221986
0.000222373
0.000222841
0.000223368
0.000223935
0.000224523
0.000225119
0.000225711
0.000226288
0.000226842
0.000227367
0.00022786
0.000228316
0.000228733
0.000229111
0.00022945
0.000229749
0.00023001
0.000230233
0.000230422
0.000230577
0.000230701
0.000230796
0.000230863
0.000230906
0.000230927
0.000232215
0.000232497
0.000232887
0.00023336
0.000233892
0.000234463
0.000235057
0.000235658
0.000236255
0.000236836
0.000237396
0.000237926
0.000238422
0.000238882
0.000239304
0.000239685
0.000240026
0.000240328
0.000240591
0.000240817
0.000241007
0.000241163
0.000241288
0.000241384
0.000241452
0.000241496
0.000241516
0.000242809
0.000243094
0.000243487
0.000243964
0.0002445
0.000245076
0.000245675
0.000246281
0.000246883
0.00024747
0.000248034
0.000248568
0.000249069
0.000249533
0.000249957
0.000250342
0.000250686
0.00025099
0.000251255
0.000251483
0.000251675
0.000251833
0.000251958
0.000252055
0.000252124
0.000252167
0.000252188
0.000253486
0.000253772
0.000254169
0.000254649
0.00025519
0.000255771
0.000256374
0.000256985
0.000257592
0.000258183
0.000258751
0.00025929
0.000259795
0.000260262
0.00026069
0.000261078
0.000261424
0.000261731
0.000261998
0.000262228
0.000262421
0.00026258
0.000262707
0.000262804
0.000262873
0.000262917
0.000262938
0.000264239
0.000264528
0.000264928
0.000265411
0.000265956
0.000266541
0.000267149
0.000267765
0.000268376
0.000268972
0.000269544
0.000270087
0.000270595
0.000271066
0.000271497
0.000271887
0.000272237
0.000272546
0.000272815
0.000273046
0.00027324
0.0002734
0.000273528
0.000273626
0.000273696
0.00027374
0.000273761
0.000275065
0.000275356
0.000275758
0.000276245
0.000276794
0.000277383
0.000277995
0.000278615
0.00027923
0.00027983
0.000280406
0.000280953
0.000281465
0.000281939
0.000282373
0.000282766
0.000283117
0.000283428
0.000283699
0.000283932
0.000284128
0.000284289
0.000284417
0.000284516
0.000284586
0.000284631
0.000284652
0.000285957
0.00028625
0.000286655
0.000287145
0.000287697
0.00028829
0.000288906
0.00028953
0.000290149
0.000290752
0.000291332
0.000291882
0.000292397
0.000292874
0.000293311
0.000293706
0.00029406
0.000294373
0.000294645
0.000294879
0.000295076
0.000295238
0.000295368
0.000295467
0.000295538
0.000295583
0.000295604
0.000296909
0.000297204
0.000297611
0.000298104
0.000298659
0.000299255
0.000299875
0.000300502
0.000301124
0.000301731
0.000302314
0.000302867
0.000303385
0.000303864
0.000304303
0.000304701
0.000305057
0.000305371
0.000305645
0.00030588
0.000306078
0.000306241
0.000306371
0.000306471
0.000306542
0.000306587
0.000306609
0.000307913
0.000308208
0.000308618
0.000309113
0.000309671
0.00031027
0.000310893
0.000311523
0.000312148
0.000312758
0.000313344
0.000313899
0.000314419
0.000314901
0.000315342
0.000315741
0.000316099
0.000316414
0.00031669
0.000316926
0.000317125
0.000317289
0.000317419
0.000317519
0.000317591
0.000317636
0.000317658
0.000318958
0.000319255
0.000319666
0.000320163
0.000320723
0.000321325
0.00032195
0.000322583
0.00032321
0.000323822
0.00032441
0.000324968
0.00032549
0.000325973
0.000326416
0.000326817
0.000327175
0.000327492
0.000327768
0.000328005
0.000328205
0.00032837
0.000328501
0.000328601
0.000328673
0.000328718
0.00032874
0.000330034
0.000330332
0.000330744
0.000331243
0.000331805
0.000332408
0.000333035
0.000333669
0.000334298
0.000334912
0.000335502
0.00033606
0.000336584
0.000337069
0.000337512
0.000337914
0.000338273
0.000338591
0.000338868
0.000339106
0.000339306
0.000339471
0.000339602
0.000339703
0.000339774
0.00033982
0.000339842
0.000341127
0.000341426
0.000341838
0.000342338
0.000342901
0.000343505
0.000344132
0.000344768
0.000345398
0.000346012
0.000346603
0.000347162
0.000347686
0.000348172
0.000348616
0.000349018
0.000349378
0.000349696
0.000349973
0.000350211
0.000350411
0.000350576
0.000350708
0.000350808
0.00035088
0.000350926
0.000350948
0.000352221
0.000352519
0.000352932
0.000353432
0.000353994
0.000354599
0.000355226
0.000355861
0.000356491
0.000357106
0.000357696
0.000358255
0.000358779
0.000359264
0.000359708
0.00036011
0.00036047
0.000360787
0.000361064
0.000361302
0.000361502
0.000361667
0.000361799
0.000361899
0.000361971
0.000362017
0.000362038
0.000363295
0.000363593
0.000364005
0.000364504
0.000365066
0.000365669
0.000366295
0.000366929
0.000367558
0.000368171
0.000368759
0.000369318
0.00036984
0.000370324
0.000370767
0.000371168
0.000371527
0.000371844
0.00037212
0.000372357
0.000372557
0.000372721
0.000372852
0.000372952
0.000373024
0.000373069
0.000373091
0.000374327
0.000374623
0.000375034
0.000375531
0.00037609
0.00037669
0.000377314
0.000377945
0.000378571
0.000379182
0.000379768
0.000380323
0.000380844
0.000381325
0.000381766
0.000382165
0.000382522
0.000382837
0.000383112
0.000383348
0.000383547
0.00038371
0.000383841
0.00038394
0.000384012
0.000384057
0.000384078
0.000385287
0.000385582
0.00038599
0.000386483
0.000387039
0.000387635
0.000388254
0.000388881
0.000389503
0.000390109
0.000390691
0.000391242
0.000391759
0.000392237
0.000392674
0.00039307
0.000393424
0.000393737
0.00039401
0.000394244
0.000394441
0.000394603
0.000394732
0.000394831
0.000394902
0.000394947
0.000394968
0.000396143
0.000396435
0.000396839
0.000397328
0.000397878
0.000398468
0.000399081
0.000399702
0.000400317
0.000400917
0.000401492
0.000402038
0.000402549
0.000403022
0.000403454
0.000403846
0.000404196
0.000404505
0.000404775
0.000405006
0.000405201
0.000405362
0.000405489
0.000405587
0.000405657
0.000405702
0.000405723
0.000406857
0.000407145
0.000407543
0.000408025
0.000408567
0.00040915
0.000409754
0.000410366
0.000410973
0.000411564
0.000412131
0.000412669
0.000413172
0.000413638
0.000414064
0.00041445
0.000414794
0.000415099
0.000415365
0.000415593
0.000415784
0.000415942
0.000416068
0.000416164
0.000416233
0.000416277
0.000416298
0.000417382
0.000417665
0.000418056
0.000418529
0.000419062
0.000419634
0.000420227
0.000420827
0.000421422
0.000422002
0.000422559
0.000423086
0.000423579
0.000424036
0.000424454
0.000424832
0.00042517
0.000425468
0.000425729
0.000425952
0.00042614
0.000426294
0.000426418
0.000426512
0.000426579
0.000426622
0.000426642
0.000427668
0.000427945
0.000428327
0.000428789
0.000429309
0.000429867
0.000430446
0.000431032
0.000431613
0.000432178
0.000432721
0.000433235
0.000433716
0.000434161
0.000434568
0.000434937
0.000435266
0.000435557
0.00043581
0.000436028
0.000436211
0.000436361
0.000436481
0.000436573
0.000436639
0.000436681
0.0004367
0.000437658
0.000437927
0.000438297
0.000438746
0.00043925
0.000439791
0.000440353
0.000440921
0.000441483
0.000442031
0.000442557
0.000443055
0.000443521
0.000443952
0.000444346
0.000444702
0.000445021
0.000445303
0.000445548
0.000445758
0.000445935
0.000446081
0.000446197
0.000446285
0.000446349
0.000446389
0.000446408
0.000447289
0.000447547
0.000447904
0.000448336
0.000448821
0.000449342
0.000449882
0.000450428
0.000450969
0.000451496
0.000452001
0.00045248
0.000452927
0.000453341
0.000453719
0.000454062
0.000454367
0.000454637
0.000454873
0.000455074
0.000455244
0.000455384
0.000455495
0.00045558
0.000455641
0.000455679
0.000455698
0.000456492
0.000456738
0.000457079
0.000457491
0.000457954
0.00045845
0.000458965
0.000459486
0.000460001
0.000460503
0.000460984
0.000461439
0.000461865
0.000462258
0.000462618
0.000462943
0.000463234
0.00046349
0.000463714
0.000463905
0.000464067
0.000464199
0.000464305
0.000464386
0.000464443
0.00046448
0.000464497
0.000465196
0.000465429
0.000465751
0.000466139
0.000466576
0.000467045
0.00046753
0.000468021
0.000468507
0.000468979
0.000469432
0.00046986
0.000470261
0.000470631
0.000470969
0.000471275
0.000471548
0.000471789
0.000471999
0.000472179
0.00047233
0.000472455
0.000472554
0.00047263
0.000472684
0.000472718
0.000472734
0.000473332
0.000473549
0.000473849
0.000474212
0.000474619
0.000475055
0.000475507
0.000475964
0.000476415
0.000476855
0.000477276
0.000477674
0.000478046
0.000478389
0.000478703
0.000478986
0.00047924
0.000479463
0.000479658
0.000479824
0.000479964
0.000480079
0.000480171
0.000480241
0.000480292
0.000480323
0.000480339
0.000480832
0.000481031
0.000481307
0.00048164
0.000482014
0.000482414
0.000482829
0.000483248
0.000483662
0.000484064
0.000484449
0.000484813
0.000485153
0.000485468
0.000485754
0.000486013
0.000486244
0.000486448
0.000486626
0.000486778
0.000486905
0.00048701
0.000487094
0.000487158
0.000487204
0.000487233
0.000487246
0.000487635
0.000487815
0.000488064
0.000488365
0.000488703
0.000489064
0.000489438
0.000489815
0.000490188
0.00049055
0.000490897
0.000491224
0.00049153
0.000491812
0.000492069
0.000492301
0.000492509
0.000492691
0.00049285
0.000492986
0.000493101
0.000493195
0.000493269
0.000493327
0.000493367
0.000493393
0.000493406
0.000493694
0.000493854
0.000494075
0.000494341
0.00049464
0.00049496
0.00049529
0.000495624
0.000495953
0.000496272
0.000496577
0.000496866
0.000497135
0.000497383
0.000497609
0.000497813
0.000497995
0.000498155
0.000498294
0.000498414
0.000498514
0.000498596
0.000498662
0.000498712
0.000498748
0.00049877
0.000498781
0.000498978
0.000499116
0.000499308
0.000499538
0.000499797
0.000500073
0.000500359
0.000500647
0.00050093
0.000501206
0.000501469
0.000501717
0.000501948
0.000502161
0.000502355
0.000502529
0.000502685
0.000502823
0.000502942
0.000503044
0.00050313
0.0005032
0.000503256
0.000503299
0.000503329
0.000503349
0.000503358
0.000503476
0.000503593
0.000503755
0.000503949
0.000504167
0.0005044
0.00050464
0.000504882
0.00050512
0.000505351
0.000505571
0.000505779
0.000505972
0.00050615
0.000506312
0.000506457
0.000506587
0.000506702
0.000506801
0.000506886
0.000506957
0.000507015
0.000507062
0.000507097
0.000507123
0.000507139
0.000507146
0.000507202
0.000507298
0.000507431
0.00050759
0.000507768
0.000507958
0.000508154
0.000508351
0.000508545
0.000508733
0.000508912
0.00050908
0.000509237
0.00050938
0.000509511
0.000509629