/*--------------------------------*- C++ -*----------------------------------*\
| =========                 |                                                 |
| \\      /  F ield         | OpenFOAM: The Open Source CFD Toolbox           |
|  \\    /   O peration     | Version:  2106                                  |
|   \\  /    A nd           | Website:  www.openfoam.com                      |
|    \\/     M anipulation  |                                                 |
\*---------------------------------------------------------------------------*/
FoamFile
{
    version     2.0;
    format      ascii;
    arch        "LSB;label=32;scalar=64";
    class       volScalarField;
    location    "110.00000";
    object      C8H8_0;
}
// * * * * * * * * * * * * * * * * * * * * * * * * * * * * * * * * * * * * * //

dimensions      [0 0 0 0 0 0 0];

internalField   nonuniform List<scalar> 
3360
(
2.02043e-21
2.08545e-21
2.17595e-21
2.28664e-21
2.41291e-21
2.55063e-21
2.69604e-21
2.84578e-21
2.99684e-21
3.14656e-21
3.29263e-21
3.43312e-21
3.56639e-21
3.69118e-21
3.8065e-21
3.91166e-21
4.00625e-21
4.09009e-21
4.16321e-21
4.22583e-21
4.27833e-21
4.3212e-21
4.35507e-21
4.38062e-21
4.39859e-21
4.40977e-21
4.41496e-21
8.86345e-21
9.18928e-21
9.64908e-21
1.02217e-20
1.08895e-20
1.16374e-20
1.24515e-20
1.33194e-20
1.42295e-20
1.51708e-20
1.61326e-20
1.71048e-20
1.80771e-20
1.90397e-20
1.99826e-20
2.08962e-20
2.17711e-20
2.25979e-20
2.33681e-20
2.40732e-20
2.47057e-20
2.52589e-20
2.57272e-20
2.61059e-20
2.63917e-20
2.65826e-20
2.66778e-20
2.78118e-20
2.90327e-20
3.07674e-20
3.29472e-20
3.55151e-20
3.84195e-20
4.16119e-20
4.5044e-20
4.86673e-20
5.2432e-20
5.62873e-20
6.01829e-20
6.40686e-20
6.78954e-20
7.16154e-20
7.51834e-20
7.85575e-20
8.17e-20
8.45784e-20
8.71657e-20
8.94408e-20
9.1389e-20
9.30018e-20
9.42766e-20
9.52165e-20
9.58294e-20
9.61277e-20
8.10009e-20
8.50248e-20
9.07812e-20
9.80641e-20
1.06701e-19
1.16532e-19
1.27395e-19
1.39122e-19
1.51539e-19
1.64462e-19
1.777e-19
1.91059e-19
2.04348e-19
2.17378e-19
2.29972e-19
2.41967e-19
2.53218e-19
2.63603e-19
2.73022e-19
2.81401e-19
2.88692e-19
2.94868e-19
2.99926e-19
3.03883e-19
3.0677e-19
3.08634e-19
3.09534e-19
2.36669e-19
2.49364e-19
2.67559e-19
2.90633e-19
3.18058e-19
3.49328e-19
3.83921e-19
4.21285e-19
4.60832e-19
5.01941e-19
5.4397e-19
5.86272e-19
6.28213e-19
6.69186e-19
7.0863e-19
7.46042e-19
7.80987e-19
8.1311e-19
8.4213e-19
8.67851e-19
8.9015e-19
9.0898e-19
9.24354e-19
9.36345e-19
9.45073e-19
9.50696e-19
9.53403e-19
6.97866e-19
7.36855e-19
7.92806e-19
8.63821e-19
9.48275e-19
1.0446e-18
1.15115e-18
1.26621e-18
1.38793e-18
1.51434e-18
1.64344e-18
1.77322e-18
1.9017e-18
2.02701e-18
2.14744e-18
2.26145e-18
2.36776e-18
2.46529e-18
2.55325e-18
2.63107e-18
2.69843e-18
2.75521e-18
2.80151e-18
2.83757e-18
2.86378e-18
2.88064e-18
2.88875e-18
2.07315e-18
2.19163e-18
2.36165e-18
2.57746e-18
2.83408e-18
3.1267e-18
3.45028e-18
3.79948e-18
4.1686e-18
4.55166e-18
4.94252e-18
5.33504e-18
5.72325e-18
6.10151e-18
6.46469e-18
6.80824e-18
7.12829e-18
7.42172e-18
7.68618e-18
7.92001e-18
8.12231e-18
8.29278e-18
8.43172e-18
8.5399e-18
8.61852e-18
8.6691e-18
8.69342e-18
6.17913e-18
6.53566e-18
7.04754e-18
7.69749e-18
8.47058e-18
9.35224e-18
1.03272e-17
1.13794e-17
1.24913e-17
1.3645e-17
1.48219e-17
1.60033e-17
1.71713e-17
1.83089e-17
1.94007e-17
2.04329e-17
2.13942e-17
2.22751e-17
2.30687e-17
2.377e-17
2.43765e-17
2.48874e-17
2.53036e-17
2.56275e-17
2.58629e-17
2.60142e-17
2.6087e-17
1.84657e-17
1.95373e-17
2.10754e-17
2.30282e-17
2.53507e-17
2.79988e-17
3.09266e-17
3.40851e-17
3.74222e-17
4.08833e-17
4.44125e-17
4.79542e-17
5.14545e-17
5.48626e-17
5.81323e-17
6.12231e-17
6.41006e-17
6.6737e-17
6.91116e-17
7.12101e-17
7.30246e-17
7.45529e-17
7.57979e-17
7.67669e-17
7.74709e-17
7.79236e-17
7.81412e-17
5.5184e-17
5.83934e-17
6.30012e-17
6.88516e-17
7.58095e-17
8.37428e-17
9.25136e-17
1.01975e-16
1.11969e-16
1.22334e-16
1.32901e-16
1.43504e-16
1.5398e-16
1.64178e-16
1.73961e-16
1.83205e-16
1.9181e-16
1.99691e-16
2.06789e-16
2.13059e-16
2.1848e-16
2.23044e-16
2.26761e-16
2.29654e-16
2.31755e-16
2.33106e-16
2.33755e-16
1.64988e-16
1.74596e-16
1.88386e-16
2.05892e-16
2.26707e-16
2.50435e-16
2.76659e-16
3.04939e-16
3.34805e-16
3.65766e-16
3.9732e-16
4.2897e-16
4.60233e-16
4.90657e-16
5.19831e-16
5.47393e-16
5.73041e-16
5.9653e-16
6.17676e-16
6.36355e-16
6.525e-16
6.66093e-16
6.77163e-16
6.85776e-16
6.92031e-16
6.96053e-16
6.97986e-16
4.92777e-16
5.21458e-16
5.62625e-16
6.14874e-16
6.76987e-16
7.47772e-16
8.25983e-16
9.10298e-16
9.99309e-16
1.09155e-15
1.18553e-15
1.27975e-15
1.37278e-15
1.46328e-15
1.55003e-15
1.63195e-15
1.70815e-15
1.77792e-15
1.8407e-15
1.89614e-15
1.94404e-15
1.98435e-15
2.01717e-15
2.04271e-15
2.06124e-15
2.07316e-15
2.07888e-15
1.47004e-15
1.55551e-15
1.67813e-15
1.83369e-15
2.01853e-15
2.22906e-15
2.46152e-15
2.71197e-15
2.97619e-15
3.24981e-15
3.52837e-15
3.80748e-15
4.08288e-15
4.35061e-15
4.60708e-15
4.84915e-15
5.07419e-15
5.2801e-15
5.46532e-15
5.6288e-15
5.77e-15
5.8888e-15
5.98548e-15
6.06067e-15
6.11525e-15
6.15032e-15
6.16717e-15
4.37203e-15
4.62548e-15
4.98899e-15
5.44992e-15
5.99726e-15
6.6202e-15
7.30754e-15
8.04741e-15
8.82727e-15
9.63413e-15
1.04548e-14
1.12763e-14
1.20861e-14
1.28726e-14
1.36254e-14
1.43352e-14
1.49945e-14
1.55973e-14
1.61391e-14
1.66169e-14
1.70293e-14
1.73761e-14
1.76582e-14
1.78774e-14
1.80365e-14
1.81387e-14
1.81877e-14
1.29535e-14
1.37008e-14
1.47719e-14
1.61288e-14
1.77384e-14
1.95683e-14
2.15848e-14
2.37525e-14
2.60342e-14
2.83915e-14
3.07857e-14
3.31787e-14
3.55344e-14
3.7819e-14
4.00027e-14
4.20592e-14
4.3967e-14
4.57092e-14
4.72735e-14
4.86518e-14
4.98403e-14
5.08388e-14
5.16503e-14
5.22806e-14
5.27377e-14
5.30311e-14
5.31719e-14
3.81466e-14
4.03284e-14
4.34526e-14
4.7406e-14
5.20893e-14
5.7405e-14
6.32529e-14
6.95277e-14
7.61201e-14
8.29177e-14
8.98083e-14
9.66823e-14
1.03436e-13
1.09974e-13
1.16211e-13
1.22075e-13
1.27506e-13
1.32457e-13
1.36896e-13
1.40802e-13
1.44166e-13
1.46988e-13
1.4928e-13
1.51058e-13
1.52346e-13
1.53172e-13
1.53568e-13
1.11447e-13
1.17733e-13
1.26722e-13
1.38078e-13
1.51503e-13
1.66709e-13
1.83396e-13
2.01257e-13
2.19972e-13
2.39218e-13
2.58676e-13
2.78036e-13
2.97007e-13
3.15326e-13
3.32761e-13
3.49114e-13
3.64227e-13
3.77977e-13
3.9028e-13
4.01086e-13
4.10376e-13
4.1816e-13
4.24471e-13
4.29362e-13
4.329e-13
4.35168e-13
4.36255e-13
3.22095e-13
3.39869e-13
3.65244e-13
3.97228e-13
4.34943e-13
4.77532e-13
5.24123e-13
5.73824e-13
6.25725e-13
6.78916e-13
7.32506e-13
7.85644e-13
8.37545e-13
8.87503e-13
9.34903e-13
9.79234e-13
1.02009e-12
1.05717e-12
1.09027e-12
1.11927e-12
1.14416e-12
1.16498e-12
1.18182e-12
1.19486e-12
1.20428e-12
1.21031e-12
1.21319e-12
9.17862e-13
9.66896e-13
1.03674e-12
1.12452e-12
1.22768e-12
1.34373e-12
1.47017e-12
1.60449e-12
1.74416e-12
1.88668e-12
2.02966e-12
2.17086e-12
2.30822e-12
2.43993e-12
2.56445e-12
2.68051e-12
2.78713e-12
2.88361e-12
2.96949e-12
3.04457e-12
3.10884e-12
3.16248e-12
3.20581e-12
3.23928e-12
3.26343e-12
3.27887e-12
3.28625e-12
2.56811e-12
2.69914e-12
2.88527e-12
3.11837e-12
3.39118e-12
3.69668e-12
4.02795e-12
4.37809e-12
4.74036e-12
5.10819e-12
5.47542e-12
5.83635e-12
6.18589e-12
6.51962e-12
6.83385e-12
7.12563e-12
7.39274e-12
7.63364e-12
7.84746e-12
8.03387e-12
8.19304e-12
8.32558e-12
8.43244e-12
8.51483e-12
8.57419e-12
8.61208e-12
8.63017e-12
7.02108e-12
7.35782e-12
7.83465e-12
8.4294e-12
9.12218e-12
9.89398e-12
1.07264e-11
1.16013e-11
1.25016e-11
1.34107e-11
1.43135e-11
1.51964e-11
1.60473e-11
1.68561e-11
1.76144e-11
1.83158e-11
1.89556e-11
1.95307e-11
2.00395e-11
2.04819e-11
2.08588e-11
2.11718e-11
2.14237e-11
2.16176e-11
2.17571e-11
2.1846e-11
2.18883e-11
1.86543e-11
1.94811e-11
2.0648e-11
2.20973e-11
2.37769e-11
2.56382e-11
2.76342e-11
2.97204e-11
3.18548e-11
3.39984e-11
3.6116e-11
3.81764e-11
4.01527e-11
4.20229e-11
4.37691e-11
4.53781e-11
4.68406e-11
4.81511e-11
4.93073e-11
5.03099e-11
5.11618e-11
5.18681e-11
5.24353e-11
5.28712e-11
5.31842e-11
5.33834e-11
5.34783e-11
4.79109e-11
4.98424e-11
5.25592e-11
5.59191e-11
5.97945e-11
6.40663e-11
6.86228e-11
7.33593e-11
7.81794e-11
8.29953e-11
8.77293e-11
9.23139e-11
9.66924e-11
1.00819e-10
1.04657e-10
1.08182e-10
1.11376e-10
1.14229e-10
1.16741e-10
1.18913e-10
1.20755e-10
1.22279e-10
1.23501e-10
1.24439e-10
1.25111e-10
1.25539e-10
1.25742e-10
1.18425e-10
1.22712e-10
1.28725e-10
1.36132e-10
1.44639e-10
1.53972e-10
1.6388e-10
1.74131e-10
1.84514e-10
1.94841e-10
2.04949e-10
2.14699e-10
2.23976e-10
2.32689e-10
2.40768e-10
2.48165e-10
2.54849e-10
2.60807e-10
2.66038e-10
2.70555e-10
2.74378e-10
2.77536e-10
2.80065e-10
2.82002e-10
2.8339e-10
2.84272e-10
2.84691e-10
2.80974e-10
2.90038e-10
3.02718e-10
3.18292e-10
3.36113e-10
3.55593e-10
3.76192e-10
3.97421e-10
4.18843e-10
4.40074e-10
4.60784e-10
4.80696e-10
4.99586e-10
5.17278e-10
5.33642e-10
5.48589e-10
5.62068e-10
5.74059e-10
5.8457e-10
5.9363e-10
6.01289e-10
6.07608e-10
6.12661e-10
6.16529e-10
6.19298e-10
6.21056e-10
6.2189e-10
6.39555e-10
6.5791e-10
6.83539e-10
7.14943e-10
7.50785e-10
7.89854e-10
8.31049e-10
8.73384e-10
9.15987e-10
9.581e-10
9.99078e-10
1.03839e-09
1.0756e-09
1.11038e-09
1.14249e-09
1.17178e-09
1.19814e-09
1.22157e-09
1.24208e-09
1.25973e-09
1.27464e-09
1.28694e-09
1.29676e-09
1.30427e-09
1.30964e-09
1.31305e-09
1.31467e-09
1.39852e-09
1.43438e-09
1.48439e-09
1.54558e-09
1.6153e-09
1.69116e-09
1.77099e-09
1.85289e-09
1.93516e-09
2.01635e-09
2.09524e-09
2.1708e-09
2.24224e-09
2.30893e-09
2.37044e-09
2.42648e-09
2.47688e-09
2.52163e-09
2.56077e-09
2.59446e-09
2.62288e-09
2.6463e-09
2.665e-09
2.6793e-09
2.68953e-09
2.69601e-09
2.69909e-09
2.94488e-09
3.01298e-09
3.1079e-09
3.22393e-09
3.35601e-09
3.49959e-09
3.65056e-09
3.8053e-09
3.96063e-09
4.1138e-09
4.26252e-09
4.40489e-09
4.53942e-09
4.66495e-09
4.78068e-09
4.88608e-09
4.98086e-09
5.06497e-09
5.13853e-09
5.20181e-09
5.25521e-09
5.29919e-09
5.33431e-09
5.36116e-09
5.38036e-09
5.39253e-09
5.39831e-09
5.98471e-09
6.11099e-09
6.28695e-09
6.50199e-09
6.74673e-09
7.01271e-09
7.29235e-09
7.57893e-09
7.86657e-09
8.15022e-09
8.42564e-09
8.68932e-09
8.93849e-09
9.17105e-09
9.38548e-09
9.58078e-09
9.75646e-09
9.91238e-09
1.00488e-08
1.01661e-08
1.02652e-08
1.03468e-08
1.04119e-08
1.04617e-08
1.04974e-08
1.052e-08
1.05307e-08
1.17467e-08
1.19751e-08
1.22934e-08
1.26825e-08
1.31253e-08
1.36066e-08
1.41127e-08
1.46315e-08
1.51524e-08
1.56662e-08
1.61653e-08
1.66434e-08
1.70953e-08
1.75173e-08
1.79066e-08
1.82613e-08
1.85805e-08
1.88639e-08
1.91119e-08
1.93254e-08
1.95056e-08
1.96542e-08
1.97729e-08
1.98636e-08
1.99285e-08
1.99697e-08
1.99893e-08
2.22321e-08
2.26321e-08
2.31894e-08
2.38706e-08
2.46459e-08
2.54887e-08
2.6375e-08
2.72836e-08
2.81961e-08
2.90963e-08
2.99709e-08
3.08088e-08
3.16012e-08
3.23412e-08
3.30241e-08
3.36465e-08
3.42068e-08
3.47044e-08
3.51401e-08
3.55152e-08
3.58319e-08
3.60931e-08
3.63018e-08
3.64614e-08
3.65757e-08
3.66481e-08
3.66826e-08
4.0418e-08
4.10876e-08
4.20203e-08
4.31598e-08
4.44562e-08
4.58647e-08
4.73453e-08
4.88624e-08
5.03851e-08
5.18869e-08
5.33453e-08
5.47419e-08
5.60623e-08
5.72951e-08
5.84324e-08
5.94688e-08
6.04017e-08
6.12302e-08
6.19554e-08
6.25798e-08
6.31071e-08
6.35419e-08
6.38894e-08
6.41552e-08
6.43455e-08
6.44662e-08
6.45235e-08
7.02672e-08
7.13265e-08
7.28012e-08
7.46013e-08
7.66473e-08
7.88677e-08
8.11991e-08
8.35852e-08
8.59775e-08
8.83342e-08
9.06204e-08
9.28078e-08
9.48736e-08
9.6801e-08
9.85776e-08
1.00196e-07
1.01651e-07
1.02943e-07
1.04074e-07
1.05047e-07
1.05868e-07
1.06545e-07
1.07086e-07
1.07501e-07
1.07797e-07
1.07985e-07
1.08074e-07
1.16454e-07
1.18031e-07
1.20223e-07
1.22896e-07
1.2593e-07
1.29218e-07
1.32665e-07
1.36187e-07
1.39714e-07
1.43183e-07
1.46543e-07
1.49754e-07
1.52783e-07
1.55606e-07
1.58206e-07
1.60571e-07
1.62697e-07
1.64583e-07
1.66233e-07
1.67652e-07
1.6885e-07
1.69837e-07
1.70626e-07
1.71229e-07
1.71661e-07
1.71935e-07
1.72065e-07
1.83907e-07
1.86118e-07
1.89191e-07
1.92934e-07
1.97177e-07
2.01768e-07
2.06575e-07
2.11479e-07
2.16382e-07
2.21197e-07
2.25857e-07
2.30303e-07
2.34493e-07
2.38394e-07
2.41982e-07
2.45246e-07
2.48177e-07
2.50776e-07
2.53047e-07
2.55001e-07
2.56649e-07
2.58008e-07
2.59093e-07
2.59923e-07
2.60517e-07
2.60894e-07
2.61073e-07
2.77372e-07
2.80322e-07
2.84419e-07
2.89403e-07
2.95047e-07
3.01147e-07
3.07525e-07
3.14026e-07
3.20517e-07
3.26885e-07
3.33041e-07
3.38909e-07
3.44434e-07
3.49574e-07
3.54301e-07
3.58596e-07
3.62452e-07
3.65869e-07
3.68856e-07
3.71424e-07
3.73591e-07
3.75376e-07
3.76802e-07
3.77894e-07
3.78674e-07
3.7917e-07
3.79406e-07
4.01183e-07
4.04962e-07
4.10205e-07
4.16581e-07
4.23795e-07
4.31585e-07
4.39724e-07
4.48012e-07
4.5628e-07
4.64386e-07
4.72216e-07
4.79676e-07
4.86696e-07
4.93223e-07
4.99222e-07
5.04672e-07
5.09564e-07
5.13899e-07
5.17687e-07
5.20944e-07
5.23692e-07
5.25956e-07
5.27765e-07
5.29149e-07
5.30139e-07
5.30768e-07
5.31067e-07
5.59207e-07
5.63896e-07
5.70401e-07
5.78307e-07
5.87247e-07
5.96896e-07
6.06971e-07
6.17224e-07
6.27448e-07
6.37467e-07
6.47139e-07
6.56351e-07
6.65016e-07
6.73071e-07
6.80473e-07
6.87195e-07
6.93229e-07
6.98575e-07
7.03247e-07
7.07263e-07
7.10652e-07
7.13444e-07
7.15675e-07
7.17383e-07
7.18605e-07
7.19381e-07
7.1975e-07
7.54909e-07
7.60588e-07
7.68465e-07
7.78034e-07
7.88851e-07
8.00523e-07
8.12704e-07
8.25096e-07
8.37448e-07
8.49548e-07
8.61226e-07
8.72346e-07
8.82803e-07
8.92522e-07
9.01451e-07
9.09561e-07
9.16838e-07
9.23286e-07
9.2892e-07
9.33765e-07
9.37852e-07
9.4122e-07
9.43911e-07
9.45971e-07
9.47446e-07
9.48382e-07
9.48828e-07
9.91432e-07
9.9818e-07
1.00754e-06
1.0189e-06
1.03175e-06
1.0456e-06
1.06005e-06
1.07476e-06
1.0894e-06
1.10375e-06
1.1176e-06
1.13077e-06
1.14317e-06
1.15468e-06
1.16526e-06
1.17486e-06
1.18348e-06
1.19112e-06
1.19779e-06
1.20353e-06
1.20837e-06
1.21236e-06
1.21555e-06
1.21799e-06
1.21973e-06
1.22084e-06
1.22137e-06
1.27167e-06
1.27956e-06
1.29051e-06
1.3038e-06
1.31881e-06
1.33501e-06
1.3519e-06
1.36907e-06
1.38618e-06
1.40294e-06
1.4191e-06
1.43449e-06
1.44895e-06
1.46239e-06
1.47473e-06
1.48594e-06
1.49599e-06
1.5049e-06
1.51268e-06
1.51937e-06
1.52502e-06
1.52967e-06
1.53339e-06
1.53624e-06
1.53828e-06
1.53957e-06
1.54019e-06
1.59831e-06
1.60742e-06
1.62006e-06
1.6354e-06
1.65273e-06
1.67141e-06
1.6909e-06
1.71071e-06
1.73044e-06
1.74975e-06
1.76838e-06
1.78611e-06
1.80277e-06
1.81825e-06
1.83247e-06
1.84538e-06
1.85696e-06
1.86722e-06
1.87618e-06
1.88389e-06
1.89039e-06
1.89574e-06
1.90002e-06
1.9033e-06
1.90565e-06
1.90714e-06
1.90785e-06
1.97385e-06
1.98426e-06
1.99869e-06
2.0162e-06
2.03598e-06
2.0573e-06
2.07953e-06
2.10213e-06
2.12463e-06
2.14665e-06
2.16788e-06
2.18809e-06
2.20708e-06
2.22471e-06
2.24091e-06
2.25561e-06
2.2688e-06
2.28048e-06
2.29069e-06
2.29946e-06
2.30686e-06
2.31296e-06
2.31783e-06
2.32156e-06
2.32423e-06
2.32593e-06
2.32674e-06
2.40067e-06
2.41244e-06
2.42875e-06
2.44855e-06
2.47091e-06
2.495e-06
2.52012e-06
2.54565e-06
2.57106e-06
2.59592e-06
2.6199e-06
2.6427e-06
2.66413e-06
2.68403e-06
2.7023e-06
2.71889e-06
2.73376e-06
2.74694e-06
2.75844e-06
2.76833e-06
2.77668e-06
2.78356e-06
2.78905e-06
2.79326e-06
2.79627e-06
2.79818e-06
2.79909e-06
2.88099e-06
2.89418e-06
2.91247e-06
2.93466e-06
2.95971e-06
2.98671e-06
3.01485e-06
3.04344e-06
3.07189e-06
3.09973e-06
3.12657e-06
3.15209e-06
3.17607e-06
3.19833e-06
3.21877e-06
3.23732e-06
3.25395e-06
3.26869e-06
3.28155e-06
3.29261e-06
3.30194e-06
3.30963e-06
3.31577e-06
3.32047e-06
3.32384e-06
3.32597e-06
3.32699e-06
3.41689e-06
3.43157e-06
3.45191e-06
3.4766e-06
3.50446e-06
3.53449e-06
3.56577e-06
3.59755e-06
3.62917e-06
3.66011e-06
3.68992e-06
3.71827e-06
3.7449e-06
3.76962e-06
3.79231e-06
3.8129e-06
3.83137e-06
3.84772e-06
3.862e-06
3.87427e-06
3.88462e-06
3.89315e-06
3.89996e-06
3.90518e-06
3.90891e-06
3.91129e-06
3.91241e-06
4.01035e-06
4.02658e-06
4.04906e-06
4.07633e-06
4.10712e-06
4.14028e-06
4.17482e-06
4.20991e-06
4.24482e-06
4.27897e-06
4.31187e-06
4.34315e-06
4.37252e-06
4.39979e-06
4.42482e-06
4.44753e-06
4.46789e-06
4.48591e-06
4.50165e-06
4.51518e-06
4.52659e-06
4.53599e-06
4.5435e-06
4.54925e-06
4.55336e-06
4.55598e-06
4.55722e-06
4.66326e-06
4.68108e-06
4.70577e-06
4.73573e-06
4.76953e-06
4.80593e-06
4.84386e-06
4.88236e-06
4.92067e-06
4.95813e-06
4.99422e-06
5.02853e-06
5.06074e-06
5.09064e-06
5.11808e-06
5.14297e-06
5.16529e-06
5.18504e-06
5.20229e-06
5.21712e-06
5.22962e-06
5.23992e-06
5.24815e-06
5.25444e-06
5.25895e-06
5.26181e-06
5.26318e-06
5.37738e-06
5.39685e-06
5.42382e-06
5.45654e-06
5.49345e-06
5.5332e-06
5.5746e-06
5.61664e-06
5.65845e-06
5.69932e-06
5.7387e-06
5.77613e-06
5.81126e-06
5.84387e-06
5.87379e-06
5.90093e-06
5.92526e-06
5.9468e-06
5.9656e-06
5.98176e-06
5.99539e-06
6.00661e-06
6.01558e-06
6.02244e-06
6.02735e-06
6.03047e-06
6.03195e-06
6.1544e-06
6.17556e-06
6.20488e-06
6.24043e-06
6.28055e-06
6.32374e-06
6.36872e-06
6.41438e-06
6.45978e-06
6.50417e-06
6.54693e-06
6.58756e-06
6.6257e-06
6.66109e-06
6.69356e-06
6.72301e-06
6.74941e-06
6.77278e-06
6.79318e-06
6.81071e-06
6.82549e-06
6.83766e-06
6.84739e-06
6.85483e-06
6.86015e-06
6.86354e-06
6.86515e-06
6.9959e-06
7.0188e-06
7.05052e-06
7.08899e-06
7.13239e-06
7.17911e-06
7.22776e-06
7.27714e-06
7.32624e-06
7.37423e-06
7.42045e-06
7.46437e-06
7.50559e-06
7.54384e-06
7.57892e-06
7.61074e-06
7.63926e-06
7.6645e-06
7.68653e-06
7.70547e-06
7.72143e-06
7.73458e-06
7.74508e-06
7.75311e-06
7.75887e-06
7.76252e-06
7.76426e-06
7.9034e-06
7.92808e-06
7.96227e-06
8.00372e-06
8.05048e-06
8.10082e-06
8.15323e-06
8.20641e-06
8.25929e-06
8.31097e-06
8.36073e-06
8.40801e-06
8.45239e-06
8.49356e-06
8.53132e-06
8.56556e-06
8.59625e-06
8.6234e-06
8.64711e-06
8.66748e-06
8.68465e-06
8.69879e-06
8.71009e-06
8.71873e-06
8.72492e-06
8.72885e-06
8.73072e-06
8.87832e-06
8.90482e-06
8.94153e-06
8.98604e-06
9.03624e-06
9.09027e-06
9.14651e-06
9.20359e-06
9.26033e-06
9.31578e-06
9.36916e-06
9.41988e-06
9.46748e-06
9.51163e-06
9.55212e-06
9.58883e-06
9.62174e-06
9.65086e-06
9.67627e-06
9.6981e-06
9.71651e-06
9.73167e-06
9.74378e-06
9.75304e-06
9.75968e-06
9.76389e-06
9.76589e-06
9.92202e-06
9.95039e-06
9.98966e-06
1.00373e-05
1.0091e-05
1.01488e-05
1.0209e-05
1.027e-05
1.03307e-05
1.039e-05
1.04471e-05
1.05013e-05
1.05522e-05
1.05994e-05
1.06426e-05
1.06819e-05
1.0717e-05
1.07481e-05
1.07753e-05
1.07986e-05
1.08183e-05
1.08345e-05
1.08474e-05
1.08573e-05
1.08644e-05
1.08689e-05
1.08711e-05
1.10358e-05
1.1066e-05
1.11079e-05
1.11587e-05
1.1216e-05
1.12777e-05
1.13418e-05
1.14069e-05
1.14716e-05
1.15348e-05
1.15957e-05
1.16535e-05
1.17077e-05
1.1758e-05
1.18041e-05
1.18459e-05
1.18834e-05
1.19165e-05
1.19454e-05
1.19703e-05
1.19912e-05
1.20085e-05
1.20223e-05
1.20328e-05
1.20404e-05
1.20451e-05
1.20474e-05
1.22208e-05
1.2253e-05
1.22976e-05
1.23516e-05
1.24125e-05
1.24781e-05
1.25463e-05
1.26155e-05
1.26843e-05
1.27515e-05
1.28161e-05
1.28776e-05
1.29352e-05
1.29886e-05
1.30376e-05
1.30821e-05
1.31219e-05
1.31571e-05
1.31878e-05
1.32142e-05
1.32365e-05
1.32548e-05
1.32694e-05
1.32806e-05
1.32886e-05
1.32937e-05
1.32962e-05
1.34783e-05
1.35124e-05
1.35597e-05
1.3617e-05
1.36816e-05
1.37512e-05
1.38235e-05
1.38969e-05
1.39698e-05
1.40411e-05
1.41096e-05
1.41747e-05
1.42358e-05
1.42925e-05
1.43444e-05
1.43915e-05
1.44337e-05
1.4471e-05
1.45035e-05
1.45315e-05
1.45551e-05
1.45745e-05
1.459e-05
1.46019e-05
1.46104e-05
1.46158e-05
1.46183e-05
1.48092e-05
1.48454e-05
1.48954e-05
1.4956e-05
1.50244e-05
1.5098e-05
1.51745e-05
1.52521e-05
1.53293e-05
1.54046e-05
1.54771e-05
1.5546e-05
1.56106e-05
1.56705e-05
1.57254e-05
1.57752e-05
1.58197e-05
1.58592e-05
1.58936e-05
1.59232e-05
1.59481e-05
1.59686e-05
1.5985e-05
1.59976e-05
1.60065e-05
1.60122e-05
1.60149e-05
1.62147e-05
1.62528e-05
1.63056e-05
1.63696e-05
1.64418e-05
1.65195e-05
1.66003e-05
1.66822e-05
1.67636e-05
1.68431e-05
1.69196e-05
1.69923e-05
1.70604e-05
1.71236e-05
1.71815e-05
1.7234e-05
1.72811e-05
1.73227e-05
1.7359e-05
1.73902e-05
1.74165e-05
1.74381e-05
1.74554e-05
1.74686e-05
1.74781e-05
1.74841e-05
1.74869e-05
1.76955e-05
1.77357e-05
1.77913e-05
1.78588e-05
1.79348e-05
1.80166e-05
1.81017e-05
1.8188e-05
1.82737e-05
1.83574e-05
1.8438e-05
1.85145e-05
1.85862e-05
1.86528e-05
1.87137e-05
1.8769e-05
1.88185e-05
1.88623e-05
1.89005e-05
1.89333e-05
1.8961e-05
1.89838e-05
1.9002e-05
1.90159e-05
1.90258e-05
1.90322e-05
1.90352e-05
1.92526e-05
1.92949e-05
1.93534e-05
1.94243e-05
1.95042e-05
1.95902e-05
1.96796e-05
1.97703e-05
1.98604e-05
1.99484e-05
2.00331e-05
2.01135e-05
2.01888e-05
2.02587e-05
2.03228e-05
2.03809e-05
2.04329e-05
2.04789e-05
2.0519e-05
2.05535e-05
2.05825e-05
2.06065e-05
2.06256e-05
2.06402e-05
2.06506e-05
2.06573e-05
2.06604e-05
2.08868e-05
2.09311e-05
2.09925e-05
2.10669e-05
2.11508e-05
2.1241e-05
2.13348e-05
2.143e-05
2.15245e-05
2.16168e-05
2.17056e-05
2.17899e-05
2.1869e-05
2.19422e-05
2.20094e-05
2.20703e-05
2.21248e-05
2.21731e-05
2.22152e-05
2.22513e-05
2.22818e-05
2.23069e-05
2.23269e-05
2.23422e-05
2.23532e-05
2.23601e-05
2.23634e-05
2.25987e-05
2.26451e-05
2.27094e-05
2.27874e-05
2.28752e-05
2.29697e-05
2.30679e-05
2.31676e-05
2.32666e-05
2.33632e-05
2.34562e-05
2.35444e-05
2.36272e-05
2.37039e-05
2.37742e-05
2.3838e-05
2.38951e-05
2.39455e-05
2.39896e-05
2.40274e-05
2.40593e-05
2.40855e-05
2.41065e-05
2.41225e-05
2.4134e-05
2.41413e-05
2.41448e-05
2.43889e-05
2.44374e-05
2.45047e-05
2.45862e-05
2.4678e-05
2.47768e-05
2.48795e-05
2.49837e-05
2.50871e-05
2.51881e-05
2.52853e-05
2.53776e-05
2.54641e-05
2.55443e-05
2.56177e-05
2.56843e-05
2.5744e-05
2.57967e-05
2.58428e-05
2.58823e-05
2.59156e-05
2.5943e-05
2.59649e-05
2.59817e-05
2.59936e-05
2.60013e-05
2.60049e-05
2.62578e-05
2.63085e-05
2.63787e-05
2.64638e-05
2.65596e-05
2.66627e-05
2.677e-05
2.68787e-05
2.69866e-05
2.70921e-05
2.71935e-05
2.72897e-05
2.738e-05
2.74636e-05
2.75403e-05
2.76098e-05
2.7672e-05
2.7727e-05
2.77751e-05
2.78163e-05
2.7851e-05
2.78796e-05
2.79025e-05
2.79199e-05
2.79324e-05
2.79404e-05
2.79441e-05
2.82058e-05
2.82587e-05
2.83318e-05
2.84205e-05
2.85204e-05
2.86278e-05
2.87396e-05
2.88529e-05
2.89654e-05
2.90752e-05
2.91809e-05
2.92811e-05
2.93752e-05
2.94623e-05
2.95422e-05
2.96145e-05
2.96793e-05
2.97367e-05
2.97867e-05
2.98296e-05
2.98658e-05
2.98956e-05
2.99194e-05
2.99376e-05
2.99506e-05
2.99588e-05
2.99628e-05
3.02331e-05
3.02881e-05
3.03642e-05
3.04565e-05
3.05604e-05
3.06722e-05
3.07885e-05
3.09063e-05
3.10234e-05
3.11376e-05
3.12475e-05
3.13519e-05
3.14497e-05
3.15403e-05
3.16234e-05
3.16986e-05
3.1766e-05
3.18256e-05
3.18776e-05
3.19223e-05
3.19599e-05
3.19909e-05
3.20156e-05
3.20345e-05
3.20481e-05
3.20567e-05
3.20608e-05
3.23395e-05
3.23967e-05
3.24758e-05
3.25717e-05
3.26797e-05
3.27958e-05
3.29166e-05
3.3039e-05
3.31606e-05
3.32793e-05
3.33934e-05
3.35018e-05
3.36033e-05
3.36975e-05
3.37837e-05
3.38619e-05
3.39319e-05
3.39938e-05
3.40477e-05
3.40941e-05
3.41332e-05
3.41653e-05
3.4191e-05
3.42106e-05
3.42247e-05
3.42336e-05
3.42379e-05
3.45249e-05
3.45842e-05
3.46663e-05
3.47657e-05
3.48778e-05
3.49982e-05
3.51235e-05
3.52505e-05
3.53766e-05
3.54997e-05
3.56181e-05
3.57304e-05
3.58357e-05
3.59333e-05
3.60228e-05
3.61038e-05
3.61764e-05
3.62405e-05
3.62965e-05
3.63446e-05
3.63851e-05
3.64184e-05
3.6445e-05
3.64654e-05
3.648e-05
3.64892e-05
3.64936e-05
3.67887e-05
3.68501e-05
3.69351e-05
3.70381e-05
3.71541e-05
3.72789e-05
3.74087e-05
3.75402e-05
3.76707e-05
3.77982e-05
3.79208e-05
3.80371e-05
3.81461e-05
3.82472e-05
3.83398e-05
3.84237e-05
3.84988e-05
3.85652e-05
3.86231e-05
3.86729e-05
3.87148e-05
3.87493e-05
3.87769e-05
3.87979e-05
3.8813e-05
3.88226e-05
3.88271e-05
3.91298e-05
3.91933e-05
3.92813e-05
3.93878e-05
3.95078e-05
3.96368e-05
3.9771e-05
3.99069e-05
4.00419e-05
4.01737e-05
4.03004e-05
4.04207e-05
4.05334e-05
4.06378e-05
4.07335e-05
4.08202e-05
4.08979e-05
4.09665e-05
4.10264e-05
4.10778e-05
4.11211e-05
4.11568e-05
4.11852e-05
4.1207e-05
4.12226e-05
4.12325e-05
4.12372e-05
4.1547e-05
4.16126e-05
4.17034e-05
4.18134e-05
4.19373e-05
4.20705e-05
4.22089e-05
4.23493e-05
4.24886e-05
4.26246e-05
4.27554e-05
4.28795e-05
4.29958e-05
4.31036e-05
4.32024e-05
4.32918e-05
4.33719e-05
4.34428e-05
4.35045e-05
4.35576e-05
4.36023e-05
4.36391e-05
4.36684e-05
4.36909e-05
4.3707e-05
4.37172e-05
4.3722e-05
4.40384e-05
4.4106e-05
4.41996e-05
4.43129e-05
4.44406e-05
4.45779e-05
4.47206e-05
4.48652e-05
4.50088e-05
4.51489e-05
4.52836e-05
4.54115e-05
4.55313e-05
4.56423e-05
4.5744e-05
4.58362e-05
4.59187e-05
4.59916e-05
4.60552e-05
4.61099e-05
4.61559e-05
4.61938e-05
4.6224e-05
4.62471e-05
4.62637e-05
4.62742e-05
4.62792e-05
4.66014e-05
4.6671e-05
4.67672e-05
4.68838e-05
4.70151e-05
4.71563e-05
4.73031e-05
4.74518e-05
4.75995e-05
4.77436e-05
4.78821e-05
4.80135e-05
4.81367e-05
4.82509e-05
4.83555e-05
4.84502e-05
4.8535e-05
4.861e-05
4.86754e-05
4.87315e-05
4.87788e-05
4.88177e-05
4.88488e-05
4.88726e-05
4.88896e-05
4.89004e-05
4.89055e-05
4.92327e-05
4.93041e-05
4.94029e-05
4.95226e-05
4.96574e-05
4.98023e-05
4.99529e-05
5.01056e-05
5.02571e-05
5.0405e-05
5.05471e-05
5.0682e-05
5.08084e-05
5.09255e-05
5.10328e-05
5.11299e-05
5.12169e-05
5.12938e-05
5.13609e-05
5.14185e-05
5.1467e-05
5.15069e-05
5.15388e-05
5.15632e-05
5.15806e-05
5.15917e-05
5.1597e-05
5.19279e-05
5.2001e-05
5.21022e-05
5.22248e-05
5.23629e-05
5.25113e-05
5.26655e-05
5.28218e-05
5.2977e-05
5.31283e-05
5.32739e-05
5.34119e-05
5.35413e-05
5.36611e-05
5.37709e-05
5.38704e-05
5.39594e-05
5.40381e-05
5.41067e-05
5.41656e-05
5.42153e-05
5.42561e-05
5.42887e-05
5.43137e-05
5.43315e-05
5.43428e-05
5.43482e-05
5.46815e-05
5.47562e-05
5.48596e-05
5.49848e-05
5.51259e-05
5.52774e-05
5.5435e-05
5.55946e-05
5.5753e-05
5.59076e-05
5.60562e-05
5.61971e-05
5.63292e-05
5.64515e-05
5.65636e-05
5.66651e-05
5.67559e-05
5.68363e-05
5.69063e-05
5.69664e-05
5.70171e-05
5.70588e-05
5.7092e-05
5.71175e-05
5.71357e-05
5.71472e-05
5.71527e-05
5.74866e-05
5.75628e-05
5.76681e-05
5.77956e-05
5.79393e-05
5.80937e-05
5.82541e-05
5.84166e-05
5.85779e-05
5.87353e-05
5.88865e-05
5.903e-05
5.91644e-05
5.92889e-05
5.9403e-05
5.95062e-05
5.95987e-05
5.96804e-05
5.97516e-05
5.98128e-05
5.98643e-05
5.99067e-05
5.99406e-05
5.99665e-05
5.9985e-05
5.99967e-05
6.00023e-05
6.03348e-05
6.04121e-05
6.0519e-05
6.06485e-05
6.07943e-05
6.0951e-05
6.11139e-05
6.12788e-05
6.14424e-05
6.16021e-05
6.17555e-05
6.1901e-05
6.20374e-05
6.21636e-05
6.22793e-05
6.2384e-05
6.24777e-05
6.25606e-05
6.26328e-05
6.26948e-05
6.2747e-05
6.279e-05
6.28243e-05
6.28505e-05
6.28693e-05
6.28812e-05
6.28869e-05
6.32156e-05
6.32938e-05
6.34019e-05
6.35328e-05
6.36803e-05
6.38387e-05
6.40033e-05
6.417e-05
6.43354e-05
6.44967e-05
6.46517e-05
6.47987e-05
6.49364e-05
6.5064e-05
6.51808e-05
6.52865e-05
6.53812e-05
6.54648e-05
6.55377e-05
6.56003e-05
6.5653e-05
6.56964e-05
6.57311e-05
6.57575e-05
6.57765e-05
6.57885e-05
6.57942e-05
6.61164e-05
6.6195e-05
6.63039e-05
6.64357e-05
6.65841e-05
6.67435e-05
6.69092e-05
6.70769e-05
6.72433e-05
6.74055e-05
6.75614e-05
6.77092e-05
6.78477e-05
6.79759e-05
6.80933e-05
6.81996e-05
6.82947e-05
6.83788e-05
6.8452e-05
6.85149e-05
6.85679e-05
6.86115e-05
6.86463e-05
6.86729e-05
6.86919e-05
6.8704e-05
6.87097e-05
6.9022e-05
6.91008e-05
6.92099e-05
6.93418e-05
6.94904e-05
6.965e-05
6.98158e-05
6.99836e-05
7.01501e-05
7.03124e-05
7.04683e-05
7.06162e-05
7.07546e-05
7.08828e-05
7.10001e-05
7.11063e-05
7.12014e-05
7.12854e-05
7.13586e-05
7.14214e-05
7.14743e-05
7.15179e-05
7.15526e-05
7.15792e-05
7.15982e-05
7.16103e-05
7.1616e-05
7.1915e-05
7.19934e-05
7.21019e-05
7.22333e-05
7.23811e-05
7.25398e-05
7.27047e-05
7.28716e-05
7.30371e-05
7.31985e-05
7.33534e-05
7.35003e-05
7.36378e-05
7.37652e-05
7.38817e-05
7.39872e-05
7.40815e-05
7.41649e-05
7.42376e-05
7.43e-05
7.43525e-05
7.43957e-05
7.44301e-05
7.44565e-05
7.44754e-05
7.44873e-05
7.4493e-05
7.47748e-05
7.48524e-05
7.49596e-05
7.50893e-05
7.52353e-05
7.53921e-05
7.55548e-05
7.57196e-05
7.58829e-05
7.60421e-05
7.61949e-05
7.63398e-05
7.64754e-05
7.66009e-05
7.67157e-05
7.68197e-05
7.69126e-05
7.69948e-05
7.70664e-05
7.71278e-05
7.71795e-05
7.7222e-05
7.7256e-05
7.72819e-05
7.73005e-05
7.73122e-05
7.73178e-05
7.75785e-05
7.76545e-05
7.77595e-05
7.78866e-05
7.80296e-05
7.8183e-05
7.83424e-05
7.85035e-05
7.86633e-05
7.8819e-05
7.89684e-05
7.911e-05
7.92425e-05
7.93651e-05
7.94773e-05
7.95788e-05
7.96696e-05
7.97497e-05
7.98196e-05
7.98795e-05
7.993e-05
7.99715e-05
8.00046e-05
8.00299e-05
8.0048e-05
8.00595e-05
8.0065e-05
8.03006e-05
8.03743e-05
8.04762e-05
8.05994e-05
8.0738e-05
8.08867e-05
8.10411e-05
8.11972e-05
8.13519e-05
8.15026e-05
8.16472e-05
8.17841e-05
8.19123e-05
8.20308e-05
8.21392e-05
8.22373e-05
8.2325e-05
8.24024e-05
8.24699e-05
8.25278e-05
8.25765e-05
8.26165e-05
8.26485e-05
8.26729e-05
8.26904e-05
8.27015e-05
8.27067e-05
8.29138e-05
8.29844e-05
8.30821e-05
8.32002e-05
8.3333e-05
8.34754e-05
8.36232e-05
8.37726e-05
8.39206e-05
8.40647e-05
8.42029e-05
8.43338e-05
8.44562e-05
8.45694e-05
8.46729e-05
8.47665e-05
8.48502e-05
8.4924e-05
8.49884e-05
8.50435e-05
8.50899e-05
8.51281e-05
8.51586e-05
8.51819e-05
8.51985e-05
8.52091e-05
8.52141e-05
8.53897e-05
8.54565e-05
8.55488e-05
8.56605e-05
8.5786e-05
8.59205e-05
8.60601e-05
8.62011e-05
8.63407e-05
8.64765e-05
8.66068e-05
8.67301e-05
8.68453e-05
8.69519e-05
8.70493e-05
8.71373e-05
8.7216e-05
8.72854e-05
8.73459e-05
8.73977e-05
8.74413e-05
8.74771e-05
8.75057e-05
8.75276e-05
8.75432e-05
8.75531e-05
8.75578e-05
8.77002e-05
8.77624e-05
8.78483e-05
8.79522e-05
8.80689e-05
8.81939e-05
8.83235e-05
8.84545e-05
8.8584e-05
8.871e-05
8.88307e-05
8.8945e-05
8.90517e-05
8.91503e-05
8.92404e-05
8.93218e-05
8.93945e-05
8.94587e-05
8.95145e-05
8.95624e-05
8.96026e-05
8.96357e-05
8.96621e-05
8.96823e-05
8.96967e-05
8.97058e-05
8.97102e-05
8.98189e-05
8.98758e-05
8.99542e-05
9.00491e-05
9.01555e-05
9.02696e-05
9.03877e-05
9.0507e-05
9.06249e-05
9.07395e-05
9.08493e-05
9.0953e-05
9.10499e-05
9.11394e-05
9.12211e-05
9.12949e-05
9.13608e-05
9.14189e-05
9.14694e-05
9.15127e-05
9.15492e-05
9.15791e-05
9.1603e-05
9.16212e-05
9.16342e-05
9.16425e-05
9.16464e-05
9.1723e-05
9.17738e-05
9.18439e-05
9.19286e-05
9.20237e-05
9.21254e-05
9.22307e-05
9.23369e-05
9.24418e-05
9.25438e-05
9.26413e-05
9.27334e-05
9.28194e-05
9.28987e-05
9.29711e-05