/*--------------------------------*- C++ -*----------------------------------*\
| =========                 |                                                 |
| \\      /  F ield         | OpenFOAM: The Open Source CFD Toolbox           |
|  \\    /   O peration     | Version:  2106                                  |
|   \\  /    A nd           | Website:  www.openfoam.com                      |
|    \\/     M anipulation  |                                                 |
\*---------------------------------------------------------------------------*/
FoamFile
{
    version     2.0;
    format      ascii;
    arch        "LSB;label=32;scalar=64";
    class       volScalarField;
    location    "110.00000";
    object      C9H7;
}
// * * * * * * * * * * * * * * * * * * * * * * * * * * * * * * * * * * * * * //

dimensions      [0 0 0 0 0 0 0];

internalField   nonuniform List<scalar> 
3360
(
2.26799e-21
2.341e-21
2.44259e-21
2.56685e-21
2.70861e-21
2.86322e-21
3.02647e-21
3.19457e-21
3.36416e-21
3.53224e-21
3.69623e-21
3.85394e-21
4.00357e-21
4.14366e-21
4.27312e-21
4.39119e-21
4.49738e-21
4.5915e-21
4.67359e-21
4.7439e-21
4.80283e-21
4.85097e-21
4.88899e-21
4.91767e-21
4.93784e-21
4.95039e-21
4.95622e-21
9.95011e-21
1.03159e-20
1.08321e-20
1.1475e-20
1.22248e-20
1.30644e-20
1.39785e-20
1.49529e-20
1.59747e-20
1.70314e-20
1.81113e-20
1.92027e-20
2.02944e-20
2.13751e-20
2.24337e-20
2.34594e-20
2.44416e-20
2.537e-20
2.62346e-20
2.70262e-20
2.77363e-20
2.83575e-20
2.88832e-20
2.93084e-20
2.96293e-20
2.98435e-20
2.99504e-20
3.12246e-20
3.25954e-20
3.45432e-20
3.69908e-20
3.9874e-20
4.31353e-20
4.67198e-20
5.05735e-20
5.46418e-20
5.88689e-20
6.31978e-20
6.75719e-20
7.1935e-20
7.62319e-20
8.04089e-20
8.44152e-20
8.82038e-20
9.17324e-20
9.49644e-20
9.78694e-20
1.00424e-19
1.02612e-19
1.04423e-19
1.05854e-19
1.06909e-19
1.07597e-19
1.07932e-19
9.09525e-20
9.54712e-20
1.01935e-19
1.10114e-19
1.19813e-19
1.30853e-19
1.43052e-19
1.56222e-19
1.70166e-19
1.84678e-19
1.99544e-19
2.14547e-19
2.2947e-19
2.44103e-19
2.58246e-19
2.71717e-19
2.84352e-19
2.96014e-19
3.06592e-19
3.16002e-19
3.2419e-19
3.31126e-19
3.36807e-19
3.4125e-19
3.44492e-19
3.46586e-19
3.47596e-19
2.65786e-19
2.80045e-19
3.0048e-19
3.26396e-19
3.57198e-19
3.92319e-19
4.31173e-19
4.73139e-19
5.17557e-19
5.63729e-19
6.10935e-19
6.58448e-19
7.05556e-19
7.51576e-19
7.95879e-19
8.37901e-19
8.77152e-19
9.13232e-19
9.45828e-19
9.74717e-19
9.99764e-19
1.02091e-18
1.03818e-18
1.05165e-18
1.06145e-18
1.06777e-18
1.07081e-18
7.83853e-19
8.2765e-19
8.90502e-19
9.70275e-19
1.06515e-18
1.17335e-18
1.29305e-18
1.4223e-18
1.55903e-18
1.70104e-18
1.84607e-18
1.99186e-18
2.13619e-18
2.27696e-18
2.41224e-18
2.54033e-18
2.65975e-18
2.76932e-18
2.86813e-18
2.95556e-18
3.03123e-18
3.09502e-18
3.14703e-18
3.18753e-18
3.21698e-18
3.23593e-18
3.24504e-18
2.32899e-18
2.46211e-18
2.65313e-18
2.89559e-18
3.18392e-18
3.51268e-18
3.87623e-18
4.26858e-18
4.6833e-18
5.11369e-18
5.55285e-18
5.99387e-18
6.43005e-18
6.85506e-18
7.26312e-18
7.64912e-18
8.00873e-18
8.33843e-18
8.63556e-18
8.8983e-18
9.1256e-18
9.31715e-18
9.47325e-18
9.59481e-18
9.68315e-18
9.73998e-18
9.7673e-18
6.94289e-18
7.34352e-18
7.91873e-18
8.64909e-18
9.51784e-18
1.05086e-17
1.16042e-17
1.27865e-17
1.40361e-17
1.53326e-17
1.66551e-17
1.79827e-17
1.92952e-17
2.05736e-17
2.18005e-17
2.29606e-17
2.40408e-17
2.50308e-17
2.59226e-17
2.67108e-17
2.73924e-17
2.79665e-17
2.84342e-17
2.87982e-17
2.90627e-17
2.92328e-17
2.93145e-17
2.07518e-17
2.19562e-17
2.36849e-17
2.58797e-17
2.849e-17
3.14663e-17
3.47569e-17
3.83069e-17
4.20575e-17
4.59476e-17
4.99143e-17
5.3895e-17
5.78292e-17
6.16598e-17
6.53349e-17
6.88088e-17
7.2043e-17
7.50064e-17
7.76754e-17
8.00341e-17
8.20735e-17
8.37913e-17
8.51907e-17
8.62798e-17
8.70711e-17
8.758e-17
8.78245e-17
6.20275e-17
6.56352e-17
7.08149e-17
7.73913e-17
8.52128e-17
9.41309e-17
1.0399e-16
1.14626e-16
1.25861e-16
1.37513e-16
1.49392e-16
1.61311e-16
1.73088e-16
1.84552e-16
1.95549e-16
2.05942e-16
2.15615e-16
2.24475e-16
2.32454e-16
2.39503e-16
2.45596e-16
2.50728e-16
2.54907e-16
2.58158e-16
2.6052e-16
2.62039e-16
2.62769e-16
1.85485e-16
1.96287e-16
2.11792e-16
2.31473e-16
2.54876e-16
2.81553e-16
3.11038e-16
3.42834e-16
3.76414e-16
4.11224e-16
4.46703e-16
4.82288e-16
5.17439e-16
5.51646e-16
5.84448e-16
6.15439e-16
6.44277e-16
6.70686e-16
6.94462e-16
7.15465e-16
7.33618e-16
7.48902e-16
7.61349e-16
7.71033e-16
7.78067e-16
7.82589e-16
7.84762e-16
5.54114e-16
5.86367e-16
6.32659e-16
6.91414e-16
7.61262e-16
8.40861e-16
9.28812e-16
1.02363e-15
1.12372e-15
1.22745e-15
1.33313e-15
1.43909e-15
1.54371e-15
1.64548e-15
1.74303e-15
1.83516e-15
1.92086e-15
1.99931e-15
2.06991e-15
2.13226e-15
2.18613e-15
2.23147e-15
2.26838e-15
2.29709e-15
2.31794e-15
2.33134e-15
2.33778e-15
1.65344e-15
1.74957e-15
1.88748e-15
2.06245e-15
2.27034e-15
2.50712e-15
2.76859e-15
3.05027e-15
3.34745e-15
3.6552e-15
3.96852e-15
4.28245e-15
4.59221e-15
4.89334e-15
5.18181e-15
5.45408e-15
5.7072e-15
5.9388e-15
6.14713e-15
6.33101e-15
6.48982e-15
6.62345e-15
6.7322e-15
6.81677e-15
6.87816e-15
6.91761e-15
6.93656e-15
4.91905e-15
5.20417e-15
5.6131e-15
6.13162e-15
6.74735e-15
7.44813e-15
8.22135e-15
9.05367e-15
9.93097e-15
1.08386e-14
1.17619e-14
1.2686e-14
1.3597e-14
1.44818e-14
1.53286e-14
1.61271e-14
1.68688e-14
1.75469e-14
1.81564e-14
1.8694e-14
1.9158e-14
1.95481e-14
1.98654e-14
2.0112e-14
2.0291e-14
2.04059e-14
2.04611e-14
1.45809e-14
1.54218e-14
1.6627e-14
1.81537e-14
1.99649e-14
2.20238e-14
2.42927e-14
2.67317e-14
2.9299e-14
3.19512e-14
3.4645e-14
3.73375e-14
3.99879e-14
4.25585e-14
4.50153e-14
4.73292e-14
4.94758e-14
5.1436e-14
5.3196e-14
5.47467e-14
5.6084e-14
5.72074e-14
5.81205e-14
5.88297e-14
5.9344e-14
5.96742e-14
5.98326e-14
4.29711e-14
4.54266e-14
4.89427e-14
5.33921e-14
5.86626e-14
6.46449e-14
7.12258e-14
7.82872e-14
8.57057e-14
9.33551e-14
1.01109e-13
1.08844e-13
1.16444e-13
1.238e-13
1.30819e-13
1.37417e-13
1.43528e-13
1.491e-13
1.54095e-13
1.5849e-13
1.62275e-13
1.65451e-13
1.68029e-13
1.7003e-13
1.71479e-13
1.72409e-13
1.72855e-13
1.25703e-13
1.32779e-13
1.42899e-13
1.55683e-13
1.70795e-13
1.8791e-13
2.06692e-13
2.26794e-13
2.47856e-13
2.69516e-13
2.91413e-13
3.13198e-13
3.34546e-13
3.55159e-13
3.74776e-13
3.93177e-13
4.10181e-13
4.25652e-13
4.39495e-13
4.51654e-13
4.62107e-13
4.70865e-13
4.77966e-13
4.83468e-13
4.8745e-13
4.90002e-13
4.91225e-13
3.64153e-13
3.84171e-13
4.12747e-13
4.48764e-13
4.91228e-13
5.39173e-13
5.91618e-13
6.47556e-13
7.05964e-13
7.65817e-13
8.26112e-13
8.85894e-13
9.4428e-13
1.00047e-12
1.05379e-12
1.10365e-12
1.1496e-12
1.1913e-12
1.22853e-12
1.26115e-12
1.28914e-12
1.31254e-12
1.33149e-12
1.34615e-12
1.35674e-12
1.36353e-12
1.36677e-12
1.04232e-12
1.09758e-12
1.17629e-12
1.27518e-12
1.39137e-12
1.52204e-12
1.66437e-12
1.81552e-12
1.97264e-12
2.13294e-12
2.29371e-12
2.45244e-12
2.60683e-12
2.75484e-12
2.89474e-12
3.02513e-12
3.14489e-12
3.25325e-12
3.34971e-12
3.43403e-12
3.5062e-12
3.56644e-12
3.6151e-12
3.65268e-12
3.67981e-12
3.69714e-12
3.70543e-12
2.94079e-12
3.0887e-12
3.29872e-12
3.56161e-12
3.86909e-12
4.21321e-12
4.5861e-12
4.97999e-12
5.38724e-12
5.80051e-12
6.21285e-12
6.61791e-12
7.00998e-12
7.38416e-12
7.73633e-12
8.06323e-12
8.3624e-12
8.63216e-12
8.87153e-12
9.08018e-12
9.25833e-12
9.40665e-12
9.52623e-12
9.61843e-12
9.68486e-12
9.72726e-12
9.7475e-12
8.16573e-12
8.54725e-12
9.08704e-12
9.75963e-12
1.05421e-11
1.14127e-11
1.23503e-11
1.33345e-11
1.43457e-11
1.53655e-11
1.6377e-11
1.7365e-11
1.83161e-11
1.92192e-11
2.00651e-11
2.08468e-11
2.15594e-11
2.21995e-11
2.27656e-11
2.32575e-11
2.36764e-11
2.40243e-11
2.43042e-11
2.45196e-11
2.46745e-11
2.47733e-11
2.48203e-11
2.23109e-11
2.32565e-11
2.45889e-11
2.62403e-11
2.81499e-11
3.02605e-11
3.25178e-11
3.48708e-11
3.72714e-11
3.9676e-11
4.20452e-11
4.43447e-11
4.65453e-11
4.86232e-11
5.05595e-11
5.23405e-11
5.39567e-11
5.54028e-11
5.66772e-11
5.7781e-11
5.87182e-11
5.94947e-11
6.01178e-11
6.05965e-11
6.09401e-11
6.11589e-11
6.1263e-11
6.01389e-11
6.24001e-11
6.55723e-11
6.94824e-11
7.39747e-11
7.89054e-11
8.41408e-11
8.95577e-11
9.50442e-11
1.005e-10
1.05839e-10
1.10988e-10
1.15884e-10
1.20481e-10
1.24742e-10
1.28641e-10
1.32164e-10
1.35303e-10
1.38059e-10
1.40439e-10
1.42453e-10
1.44117e-10
1.45449e-10
1.46471e-10
1.47203e-10
1.47668e-10
1.47889e-10
1.60912e-10
1.66222e-10
1.73644e-10
1.82746e-10
1.93145e-10
2.04488e-10
2.16455e-10
2.28758e-10
2.41139e-10
2.53377e-10
2.65282e-10
2.76697e-10
2.87497e-10
2.97586e-10
3.06896e-10
3.15382e-10
3.23018e-10
3.29799e-10
3.35734e-10
3.40842e-10
3.45155e-10
3.48711e-10
3.51551e-10
3.53724e-10
3.55279e-10
3.56265e-10
3.56734e-10
4.31756e-10
4.44477e-10
4.62216e-10
4.83913e-10
5.08625e-10
5.35497e-10
5.63759e-10
5.92725e-10
6.21797e-10
6.50458e-10
6.78276e-10
7.04896e-10
7.30041e-10
7.53497e-10
7.75114e-10
7.94796e-10
8.12494e-10
8.28198e-10
8.41933e-10
8.53749e-10
8.6372e-10
8.71934e-10
8.78495e-10
8.83512e-10
8.87099e-10
8.89374e-10
8.90454e-10
1.17718e-09
1.20987e-09
1.25546e-09
1.31128e-09
1.37491e-09
1.44419e-09
1.51715e-09
1.59205e-09
1.66735e-09
1.74171e-09
1.81399e-09
1.88325e-09
1.94873e-09
2.00986e-09
2.06622e-09
2.11753e-09
2.16365e-09
2.20455e-09
2.24029e-09
2.271e-09
2.29689e-09
2.31819e-09
2.33517e-09
2.34814e-09
2.35741e-09
2.36327e-09
2.36605e-09
3.30112e-09
3.39376e-09
3.52324e-09
3.68209e-09
3.86361e-09
4.06173e-09
4.27084e-09
4.48592e-09
4.70247e-09
4.91656e-09
5.12482e-09
5.32448e-09
5.51329e-09
5.68954e-09
5.85199e-09
5.99984e-09
6.13266e-09
6.25035e-09
6.3531e-09
6.44132e-09
6.51558e-09
6.5766e-09
6.62519e-09
6.66224e-09
6.68865e-09
6.70535e-09
6.71325e-09
9.49647e-09
9.77759e-09
1.01715e-08
1.06564e-08
1.12128e-08
1.18227e-08
1.24696e-08
1.31384e-08
1.38153e-08
1.44881e-08
1.5146e-08
1.57801e-08
1.63826e-08
1.69477e-08
1.74709e-08
1.79489e-08
1.838e-08
1.87633e-08
1.9099e-08
1.93879e-08
1.96316e-08
1.98323e-08
1.99923e-08
2.01145e-08
2.02017e-08
2.02568e-08
2.02829e-08
2.74852e-08
2.83703e-08
2.96163e-08
3.11591e-08
3.29417e-08
3.49114e-08
3.70187e-08
3.92174e-08
4.14642e-08
4.37194e-08
4.59473e-08
4.81162e-08
5.01986e-08
5.21716e-08
5.40168e-08
5.57199e-08
5.72709e-08
5.86632e-08
5.9894e-08
6.09631e-08
6.18732e-08
6.26289e-08
6.32366e-08
6.37041e-08
6.40401e-08
6.42543e-08
6.43563e-08
7.83048e-08
8.10667e-08
8.49754e-08
8.98494e-08
9.5529e-08
1.01866e-07
1.08718e-07
1.15949e-07
1.23429e-07
1.31033e-07
1.38643e-07
1.46152e-07
1.5346e-07
1.6048e-07
1.67137e-07
1.73365e-07
1.79115e-07
1.84347e-07
1.89033e-07
1.93158e-07
1.96714e-07
1.99704e-07
2.02137e-07
2.04031e-07
2.05408e-07
2.06295e-07
2.06722e-07
2.14228e-07
2.22306e-07
2.33789e-07
2.48193e-07
2.65097e-07
2.84109e-07
3.04849e-07
3.26944e-07
3.50024e-07
3.73725e-07
3.97694e-07
4.2159e-07
4.45092e-07
4.67902e-07
4.89749e-07
5.10395e-07
5.29637e-07
5.47308e-07
5.6328e-07
5.77457e-07
5.8978e-07
6.00223e-07
6.08787e-07
6.15502e-07
6.20419e-07
6.23606e-07
6.25151e-07
5.50103e-07
5.71117e-07
6.01041e-07
6.38656e-07
6.82912e-07
7.3282e-07
7.87414e-07
8.45733e-07
9.06816e-07
9.69705e-07
1.03346e-06
1.09715e-06
1.15992e-06
1.22096e-06
1.27951e-06
1.33494e-06
1.38667e-06
1.43424e-06
1.47728e-06
1.51554e-06
1.54883e-06
1.57708e-06
1.60027e-06
1.61848e-06
1.63182e-06
1.64048e-06
1.64469e-06
1.30117e-06
1.34796e-06
1.41445e-06
1.4978e-06
1.59553e-06
1.70532e-06
1.82491e-06
1.95208e-06
2.08464e-06
2.22044e-06
2.35741e-06
2.49355e-06
2.62702e-06
2.75613e-06
2.87937e-06
2.99546e-06
3.1033e-06
3.20203e-06
3.291e-06
3.36975e-06
3.43803e-06
3.49576e-06
3.54301e-06
3.57999e-06
3.60703e-06
3.62455e-06
3.63302e-06
2.78785e-06
2.87537e-06
2.99915e-06
3.1534e-06
3.33298e-06
3.53312e-06
3.74928e-06
3.97709e-06
4.21238e-06
4.45119e-06
4.68981e-06
4.92482e-06
5.15316e-06
5.37213e-06
5.57941e-06
5.77309e-06
5.95164e-06
6.11394e-06
6.25921e-06
6.38699e-06
6.49713e-06
6.58975e-06
6.66519e-06
6.72396e-06
6.76676e-06
6.79437e-06
6.80771e-06
5.35596e-06
5.49416e-06
5.68856e-06
5.92908e-06
6.20676e-06
6.51338e-06
6.84128e-06
7.18332e-06
7.5329e-06
7.88401e-06
8.23122e-06
8.56973e-06
8.89542e-06
9.20479e-06
9.49501e-06
9.76387e-06
1.00097e-05
1.02315e-05
1.04286e-05
1.06008e-05
1.07483e-05
1.08716e-05
1.09715e-05
1.1049e-05
1.11051e-05
1.11412e-05
1.11586e-05
9.23558e-06
9.42387e-06
9.68735e-06
1.00111e-05
1.0382e-05
1.0788e-05
1.12182e-05
1.16627e-05
1.21126e-05
1.25601e-05
1.29986e-05
1.34221e-05
1.38259e-05
1.42063e-05
1.45602e-05
1.48856e-05
1.51809e-05
1.54455e-05
1.56792e-05
1.58821e-05
1.6055e-05
1.61988e-05
1.63147e-05
1.64042e-05
1.64688e-05
1.65102e-05
1.653e-05
1.44483e-05
1.46763e-05
1.49938e-05
1.53819e-05
1.58236e-05
1.63035e-05
1.68083e-05
1.73257e-05
1.78453e-05
1.83582e-05
1.88567e-05
1.93347e-05
1.97872e-05
2.02105e-05
2.06018e-05
2.09593e-05
2.12819e-05
2.15694e-05
2.18219e-05
2.20402e-05
2.22253e-05
2.23786e-05
2.25017e-05
2.25964e-05
2.26646e-05
2.27081e-05
2.27288e-05
2.08271e-05
2.10796e-05
2.14304e-05
2.18572e-05
2.23404e-05
2.28628e-05
2.34089e-05
2.39655e-05
2.45211e-05
2.50662e-05
2.5593e-05
2.60953e-05
2.65683e-05
2.70084e-05
2.74133e-05
2.77814e-05
2.81123e-05
2.84058e-05
2.86626e-05
2.88838e-05
2.90708e-05
2.92252e-05
2.93488e-05
2.94436e-05
2.95116e-05
2.95549e-05
2.95756e-05
2.8105e-05
2.8368e-05
2.87323e-05
2.91742e-05
2.96728e-05
3.02096e-05
3.07685e-05
3.13357e-05
3.18996e-05
3.24504e-05
3.29805e-05
3.34839e-05
3.39561e-05
3.43938e-05
3.4795e-05
3.51587e-05
3.54844e-05
3.57725e-05
3.60239e-05
3.62398e-05
3.64218e-05
3.65718e-05
3.66916e-05
3.67832e-05
3.68489e-05
3.68906e-05
3.69105e-05
3.60034e-05
3.62659e-05
3.66291e-05
3.70687e-05
3.75635e-05
3.80948e-05
3.86463e-05
3.92044e-05
3.97574e-05
4.02961e-05
4.08131e-05
4.13026e-05
4.17604e-05
4.21837e-05
4.25707e-05
4.29206e-05
4.32333e-05
4.35092e-05
4.37494e-05
4.39553e-05
4.41286e-05
4.4271e-05
4.43846e-05
4.44714e-05
4.45334e-05
4.45728e-05
4.45915e-05
4.42821e-05
4.45375e-05
4.48903e-05
4.53167e-05
4.57958e-05
4.63093e-05
4.68414e-05
4.73786e-05
4.79099e-05
4.84263e-05
4.89208e-05
4.9388e-05
4.98241e-05
5.02265e-05
5.05937e-05
5.0925e-05
5.12205e-05
5.14809e-05
5.17071e-05
5.19007e-05
5.20633e-05
5.21967e-05
5.2303e-05
5.2384e-05
5.24419e-05
5.24785e-05
5.24959e-05
5.27574e-05
5.30019e-05
5.33394e-05
5.37469e-05
5.42043e-05
5.46938e-05
5.52002e-05
5.57108e-05
5.62149e-05
5.67042e-05
5.71719e-05
5.76132e-05
5.80243e-05
5.84031e-05
5.87482e-05
5.9059e-05
5.93358e-05
5.95792e-05
5.97905e-05
5.99709e-05
6.01222e-05
6.02462e-05
6.03448e-05
6.04198e-05
6.04733e-05
6.05072e-05
6.05232e-05
6.12985e-05
6.15306e-05
6.18507e-05
6.22371e-05
6.26702e-05
6.31334e-05
6.3612e-05
6.4094e-05
6.45693e-05
6.50299e-05
6.54697e-05
6.58841e-05
6.62696e-05
6.66243e-05
6.69469e-05
6.7237e-05
6.7495e-05
6.77216e-05
6.79178e-05
6.80852e-05
6.82254e-05
6.834e-05
6.8431e-05
6.85002e-05
6.85494e-05
6.85805e-05
6.85952e-05
6.98174e-05
7.00367e-05
7.03393e-05
7.07041e-05
7.11128e-05
7.15495e-05
7.20003e-05
7.24539e-05
7.29006e-05
7.33332e-05
7.37456e-05
7.41336e-05
7.44943e-05
7.48255e-05
7.51264e-05
7.53966e-05
7.56365e-05
7.58468e-05
7.60288e-05
7.61837e-05
7.63132e-05
7.64189e-05
7.65027e-05
7.65663e-05
7.66114e-05
7.66399e-05
7.66533e-05
7.82569e-05
7.84639e-05
7.87494e-05
7.90934e-05
7.94787e-05
7.98899e-05
8.03142e-05
8.07405e-05
8.11601e-05
8.15659e-05
8.19523e-05
8.23155e-05
8.26525e-05
8.29617e-05
8.32421e-05
8.34935e-05
8.37164e-05
8.39115e-05
8.40799e-05
8.42231e-05
8.43426e-05
8.444e-05
8.4517e-05
8.45754e-05
8.46167e-05
8.46428e-05
8.4655e-05
8.65813e-05
8.67767e-05
8.70461e-05
8.73706e-05
8.77337e-05
8.8121e-05
8.85203e-05
8.89212e-05
8.93153e-05
8.9696e-05
9.00582e-05
9.03981e-05
9.07131e-05
9.10017e-05
9.1263e-05
9.1497e-05
9.1704e-05
9.18849e-05
9.20408e-05
9.21731e-05
9.22833e-05
9.23729e-05
9.24437e-05
9.24971e-05
9.2535e-05
9.25587e-05
9.25699e-05
9.47689e-05
9.49535e-05
9.52079e-05
9.55141e-05
9.58566e-05
9.62217e-05
9.65977e-05
9.69749e-05
9.73453e-05
9.77028e-05
9.80423e-05
9.83606e-05
9.86552e-05
9.89246e-05
9.91682e-05
9.93859e-05
9.95782e-05
9.9746e-05
9.98903e-05
0.000100012
0.000100114
0.000100196
0.000100261
0.00010031
0.000100345
0.000100366
0.000100377
0.000102807
0.000102982
0.000103222
0.000103511
0.000103835
0.000104179
0.000104533
0.000104888
0.000105237
0.000105573
0.000105891
0.000106189
0.000106465
0.000106717
0.000106944
0.000107146
0.000107325
0.00010748
0.000107614
0.000107727
0.00010782
0.000107896
0.000107955
0.000108
0.000108032
0.000108051
0.000108061
0.000110688
0.000110854
0.000111081
0.000111354
0.00011166
0.000111985
0.000112319
0.000112654
0.000112982
0.000113297
0.000113596
0.000113876
0.000114133
0.000114368
0.00011458
0.000114769
0.000114935
0.000115079
0.000115202
0.000115306
0.000115392
0.000115462
0.000115516
0.000115557
0.000115585
0.000115603
0.000115612
0.00011841
0.000118566
0.000118781
0.00011904
0.000119329
0.000119636
0.000119951
0.000120266
0.000120575
0.000120872
0.000121152
0.000121414
0.000121655
0.000121875
0.000122072
0.000122247
0.000122401
0.000122535
0.000122648
0.000122744
0.000122823
0.000122887
0.000122937
0.000122974
0.000123
0.000123016
0.000123023
0.00012597
0.000126118
0.000126321
0.000126566
0.000126839
0.000127129
0.000127426
0.000127724
0.000128014
0.000128293
0.000128556
0.000128802
0.000129027
0.000129232
0.000129416
0.000129578
0.000129721
0.000129844
0.000129949
0.000130037
0.00013011
0.000130168
0.000130213
0.000130247
0.00013027
0.000130285
0.000130292
0.000133367
0.000133508
0.000133701
0.000133932
0.00013419
0.000134464
0.000134745
0.000135025
0.000135298
0.00013556
0.000135807
0.000136036
0.000136247
0.000136438
0.000136609
0.00013676
0.000136892
0.000137006
0.000137102
0.000137183
0.000137249
0.000137302
0.000137343
0.000137373
0.000137395
0.000137408
0.000137414
0.000140604
0.000140737
0.00014092
0.000141138
0.000141382
0.000141641
0.000141905
0.000142169
0.000142426
0.000142672
0.000142903
0.000143118
0.000143315
0.000143492
0.000143651
0.000143791
0.000143913
0.000144018
0.000144106
0.00014418
0.00014424
0.000144288
0.000144325
0.000144352
0.000144371
0.000144383
0.000144388
0.000147681
0.000147806
0.000147979
0.000148186
0.000148416
0.00014866
0.00014891
0.000149158
0.000149399
0.00014963
0.000149846
0.000150047
0.00015023
0.000150395
0.000150542
0.000150671
0.000150783
0.000150879
0.00015096
0.000151028
0.000151082
0.000151125
0.000151159
0.000151183
0.0001512
0.00015121
0.000151214
0.000154598
0.000154717
0.00015488
0.000155076
0.000155293
0.000155523
0.000155757
0.000155991
0.000156217
0.000156433
0.000156635
0.000156822
0.000156992
0.000157146
0.000157281
0.000157401
0.000157503
0.000157591
0.000157665
0.000157726
0.000157775
0.000157814
0.000157843
0.000157865
0.00015788
0.000157888
0.000157892
0.000161357
0.00016147
0.000161624
0.000161808
0.000162013
0.000162229
0.00016245
0.000162669
0.000162881
0.000163083
0.000163271
0.000163445
0.000163603
0.000163745
0.00016387
0.000163979
0.000164073
0.000164153
0.00016422
0.000164275
0.000164319
0.000164353
0.000164379
0.000164398
0.000164411
0.000164418
0.000164422
0.000167959
0.000168065
0.000168211
0.000168384
0.000168577
0.000168781
0.000168988
0.000169193
0.000169391
0.000169579
0.000169755
0.000169916
0.000170062
0.000170192
0.000170307
0.000170407
0.000170493
0.000170565
0.000170625
0.000170674
0.000170713
0.000170743
0.000170766
0.000170782
0.000170793
0.0001708
0.000170802
0.000174405
0.000174505
0.000174641
0.000174805
0.000174986
0.000175177
0.000175371
0.000175562
0.000175747
0.000175922
0.000176085
0.000176234
0.000176368
0.000176488
0.000176593
0.000176684
0.000176761
0.000176826
0.000176879
0.000176923
0.000176957
0.000176983
0.000177003
0.000177017
0.000177026
0.000177031
0.000177033
0.000180693
0.000180787
0.000180916
0.000181069
0.000181239
0.000181417
0.000181599
0.000181777
0.000181949
0.000182111
0.000182261
0.000182399
0.000182522
0.000182631
0.000182726
0.000182808
0.000182878
0.000182935
0.000182982
0.00018302
0.00018305
0.000183072
0.000183089
0.0001831
0.000183108
0.000183112
0.000183113
0.000186824
0.000186912
0.000187033
0.000187176
0.000187335
0.000187501
0.00018767
0.000187836
0.000187995
0.000188144
0.000188283
0.000188408
0.00018852
0.000188619
0.000188705
0.000188778
0.00018884
0.000188891
0.000188932
0.000188964
0.000188989
0.000189008
0.000189021
0.00018903
0.000189036
0.000189039
0.00018904
0.000192796
0.000192878
0.00019299
0.000193124
0.000193272
0.000193426
0.000193582
0.000193735
0.000193882
0.000194019
0.000194145
0.00019426
0.000194361
0.00019445
0.000194526
0.000194591
0.000194645
0.000194689
0.000194724
0.000194751
0.000194771
0.000194786
0.000194797
0.000194804
0.000194808
0.00019481
0.00019481
0.000198604
0.00019868
0.000198785
0.000198909
0.000199045
0.000199188
0.000199332
0.000199472
0.000199606
0.000199731
0.000199845
0.000199948
0.000200039
0.000200118
0.000200185
0.000200241
0.000200287
0.000200324
0.000200353
0.000200375
0.000200391
0.000200402
0.00020041
0.000200414
0.000200417
0.000200418
0.000200418
0.000204243
0.000204314
0.00020441
0.000204525
0.00020465
0.000204781
0.000204912
0.00020504
0.000205161
0.000205274
0.000205376
0.000205467
0.000205547
0.000205616
0.000205673
0.000205721
0.000205759
0.00020579
0.000205813
0.000205829
0.000205841
0.000205848
0.000205853
0.000205855
0.000205856
0.000205856
0.000205855
0.000209706
0.000209771
0.000209859
0.000209964
0.000210078
0.000210197
0.000210315
0.00021043
0.000210538
0.000210638
0.000210728
0.000210807
0.000210876
0.000210934
0.000210982
0.000211021
0.000211052
0.000211075
0.000211091
0.000211103
0.00021111
0.000211114
0.000211115
0.000211115
0.000211114
0.000211113
0.000211112
0.000214982
0.000215041
0.00021512
0.000215214
0.000215317
0.000215423
0.000215528
0.00021563
0.000215724
0.000215811
0.000215888
0.000215955
0.000216012
0.00021606
0.000216098
0.000216128
0.00021615
0.000216166
0.000216176
0.000216182
0.000216184
0.000216184
0.000216182
0.000216179
0.000216176
0.000216174
0.000216173
0.000220056
0.000220108
0.000220179
0.000220262
0.000220352
0.000220445
0.000220536
0.000220623
0.000220704
0.000220776
0.00022084
0.000220894
0.000220939
0.000220975
0.000221002
0.000221022
0.000221036
0.000221044
0.000221047
0.000221047
0.000221044
0.00022104
0.000221034
0.000221029
0.000221024
0.000221021
0.000221019
0.000224908
0.000224953
0.000225014
0.000225086
0.000225162
0.000225241
0.000225317
0.000225389
0.000225454
0.000225511
0.00022556
0.0002256
0.000225632
0.000225655
0.000225671
0.000225681
0.000225685
0.000225684
0.00022568
0.000225674
0.000225665
0.000225656
0.000225647
0.000225639
0.000225632
0.000225628
0.000225625
0.000229513
0.00022955
0.000229601
0.000229659
0.000229721
0.000229784
0.000229844
0.000229898
0.000229947
0.000229987
0.00023002
0.000230045
0.000230061
0.000230071
0.000230075
0.000230073
0.000230066
0.000230056
0.000230044
0.00023003
0.000230016
0.000230002
0.000229989
0.000229977
0.000229968
0.000229962
0.000229959
0.000233838
0.000233867
0.000233905
0.000233949
0.000233995
0.00023404
0.000234081
0.000234116
0.000234146
0.000234167
0.000234182
0.000234189
0.000234189
0.000234184
0.000234173
0.000234158
0.000234139
0.000234119
0.000234097
0.000234075
0.000234054
0.000234034
0.000234017
0.000234002
0.00023399
0.000233982
0.000233978
0.00023784
0.000237859
0.000237884
0.000237912
0.000237939
0.000237963
0.000237983
0.000237997
0.000238004
0.000238005
0.000237999
0.000237986
0.000237967
0.000237944
0.000237916
0.000237886
0.000237854
0.000237822
0.000237789
0.000237758
0.000237729
0.000237703
0.00023768
0.000237661
0.000237646
0.000237636
0.000237631
0.000241467
0.000241475
0.000241484
0.000241493
0.000241498
0.000241499
0.000241494
0.000241483
0.000241465
0.000241441
0.00024141
0.000241374
0.000241334
0.00024129
0.000241243
0.000241195
0.000241147
0.000241101
0.000241056
0.000241014
0.000240975
0.000240941
0.000240912
0.000240888
0.00024087
0.000240858
0.000240852
0.000244653
0.000244647
0.000244638
0.000244624
0.000244604
0.000244578
0.000244544
0.000244503
0.000244456
0.000244402
0.000244343
0.00024428
0.000244213
0.000244145
0.000244076
0.000244007
0.000243941
0.000243877
0.000243817
0.000243762
0.000243713
0.00024367
0.000243633
0.000243604
0.000243582
0.000243567
0.00024356
0.000247315
0.000247294
0.000247263
0.000247223
0.000247173
0.000247114
0.000247046
0.00024697
0.000246887
0.000246799
0.000246706
0.00024661
0.000246512
0.000246415
0.000246319
0.000246226
0.000246137
0.000246054
0.000245976
0.000245906
0.000245844
0.00024579
0.000245745
0.000245709
0.000245682
0.000245664
0.000245655
0.000249354
0.000249315
0.000249258
0.000249186
0.0002491
0.000249002
0.000248894
0.000248776
0.000248651
0.000248521
0.000248388
0.000248253
0.000248119
0.000247987
0.000247859
0.000247737
0.000247621
0.000247514
0.000247415
0.000247327
0.000247249
0.000247182
0.000247126
0.000247082
0.000247049
0.000247028
0.000247017
0.00025065
0.000250588
0.000250501
0.000250391
0.000250263
0.000250118
0.000249961
0.000249793
0.000249618
0.000249439
0.000249257
0.000249076
0.000248898
0.000248725
0.000248558
0.000248401
0.000248253
0.000248117
0.000247993
0.000247883
0.000247786
0.000247704
0.000247636
0.000247582
0.000247542
0.000247516
0.000247503
0.000251059
0.000250971
0.000250847
0.000250693
0.000250513
0.000250313
0.000250098
0.00024987
0.000249635
0.000249396
0.000249157
0.000248921
0.00024869
0.000248467
0.000248255
0.000248055
0.000247869
0.000247699
0.000247545
0.000247408
0.000247289
0.000247188
0.000247105
0.000247039
0.000246991
0.00024696
0.000246944
0.000250415
0.000250295
0.000250127
0.00024992
0.000249679
0.000249414
0.000249129
0.00024883
0.000248524
0.000248214
0.000247906
0.000247604
0.00024731
0.000247029
0.000246762
0.000246512
0.00024628
0.000246069
0.00024588
0.000245712
0.000245566
0.000245443
0.000245341
0.000245262
0.000245204
0.000245166
0.000245147
0.000248525
0.000248369
0.000248149
0.000247878
0.000247566
0.000247222
0.000246855
0.000246473
0.000246082
0.000245689
0.0002453
0.000244919
0.000244551
0.0002442
0.000243868
0.000243559
0.000243274
0.000243015
0.000242782
0.000242578
0.0002424
0.000242251
0.000242128
0.000242032
0.000241962
0.000241917
0.000241895
0.000245177
0.000244977
0.000244696
0.000244351
0.000243955
0.000243519
0.000243056
0.000242575
0.000242086
0.000241595
0.000241111
0.000240639
0.000240184
0.000239751
0.000239344
0.000238965
0.000238617
0.000238302
0.00023802
0.000237772
0.000237558
0.000237378
0.00023723
0.000237115
0.000237031
0.000236977
0.00023695
0.00024014
0.000239889
0.000239538
0.000239107
0.000238613
0.000238072
0.000237498
0.000236903
0.000236299
0.000235695
0.000235101
0.000234523
0.000233969
0.000233442
0.000232948
0.000232489
0.000232069
0.000231688
0.000231349
0.000231051
0.000230795
0.000230579
0.000230404
0.000230267
0.000230167
0.000230102
0.000230071
0.000233178
0.000232869
0.000232438
0.000231909
0.000231304
0.000230642
0.000229941
0.000229217
0.000228484
0.000227752
0.000227033
0.000226336
0.000225668
0.000225035
0.000224442
0.000223893
0.000223391
0.000222938
0.000222534
0.00022218
0.000221876
0.00022162
0.000221413
0.000221251
0.000221133
0.000221057
0.00022102
0.000224064
0.000223691
0.000223171
0.000222533
0.000221804
0.000221009
0.000220168
0.0002193
0.000218423
0.000217549
0.000216693
0.000215863
0.00021507
0.00021432
0.000213619
0.00021297
0.000212378
0.000211844
0.00021137
0.000210954
0.000210598
0.000210299
0.000210056
0.000209867
0.00020973
0.000209641
0.000209598
0.000212612
0.000212169
0.000211552
0.000210796
0.000209934
0.000208994
0.000208002
0.000206981
0.000205949
0.000204923
0.000203919
0.000202949
0.000202022
0.000201147
0.00020033
0.000199577
0.000198889
0.00019827
0.00019772
0.00019724
0.000196828
0.000196483
0.000196203
0.000195986
0.000195828
0.000195726
0.000195677
0.000198705
0.00019819
0.000197472
0.000196594
0.000195593
0.000194505
0.000193357
0.000192176
0.000190986
0.000189805
0.00018865
0.000187536
0.000186473
0.000185471
0.000184538
0.000183677
0.000182893
0.000182188
0.000181563
0.000181017
0.00018055
0.000180159
0.000179843
0.000179597
0.000179418
0.000179303
0.000179248
0.000182345
0.000181759
0.000180942
0.000179945
0.00017881
0.000177576
0.000176277
0.000174942
0.000173599
0.000172269
0.00017097
0.000169719
0.000168527
0.000167405
0.000166361
0.0001654
0.000164527
0.000163741
0.000163046
0.00016244
0.000161922
0.000161488
0.000161138
0.000160865
0.000160668
0.000160541
0.00016048
0.000163707
0.000163056
0.000162151
0.000161046
0.000159791
0.000158428
0.000156996
0.000155527
0.000154051
0.000152591
0.000151169
0.0001498
0.000148499
0.000147276
0.00014614
0.000145096
0.000144147
0.000143296
0.000142544
0.000141888
0.000141328
0.000140861
0.000140483
0.00014019
0.000139978
0.000139841
0.000139776
0.000143183
0.000142483
0.000141509
0.000140323
0.000138977
0.000137517
0.000135986
0.000134419
0.000132846
0.000131294
0.000129785
0.000128335
0.00012696
0.00012567
0.000124472
0.000123374
0.000122378
0.000121485
0.000120697
0.000120012
0.000119427
0.000118939
0.000118545
0.00011824
0.000118019
0.000117878
0.000117809
0.000121423
0.000120695
0.000119685
0.000118456
0.000117063
0.000115557
0.000113979
0.000112368
0.000110755
0.000109166
0.000107624
0.000106147
0.000104748
0.000103438
0.000102225
0.000101114
0.000100109
9.92095e-05
9.84165e-05
9.77281e-05
9.71414e-05
9.66531e-05
9.62588e-05
9.5954e-05
9.57335e-05
9.5592e-05
9.5524e-05
9.93173e-05
9.85932e-05
9.7589e-05
9.6369e-05
9.49896e-05
9.35004e-05
9.19448e-05
9.03598e-05
8.8777e-05
8.72225e-05
8.57174e-05
8.4279e-05
8.29203e-05
8.16512e-05
8.04787e-05
7.94074e-05
7.84396e-05
7.7576e-05
7.68157e-05
7.61568e-05
7.55963e-05
7.51305e-05
7.47549e-05
7.44649e-05
7.42554e-05
7.41211e-05
7.40566e-05
7.79359e-05
7.725e-05
7.63004e-05
7.51489e-05
7.385e-05
7.24514e-05
7.09945e-05
6.95146e-05
6.80411e-05
6.65983e-05
6.52058e-05
6.38789e-05
6.26293e-05
6.14655e-05
6.03932e-05
5.9416e-05
5.85354e-05
5.77515e-05
5.7063e-05
5.64676e-05
5.5962e-05
5.55426e-05
5.5205e-05
5.49448e-05
5.4757e-05
5.46369e-05
5.45792e-05
5.83786e-05
5.77654e-05
5.69179e-05
5.58926e-05
5.47392e-05
5.35012e-05
5.22158e-05
5.09147e-05
4.96238e-05
4.83645e-05
4.71534e-05
4.60035e-05
4.49244e-05
4.39227e-05
4.30029e-05
4.21673e-05
4.14166e-05