/*--------------------------------*- C++ -*----------------------------------*\
| =========                 |                                                 |
| \\      /  F ield         | OpenFOAM: The Open Source CFD Toolbox           |
|  \\    /   O peration     | Version:  2106                                  |
|   \\  /    A nd           | Website:  www.openfoam.com                      |
|    \\/     M anipulation  |                                                 |
\*---------------------------------------------------------------------------*/
FoamFile
{
    version     2.0;
    format      ascii;
    arch        "LSB;label=32;scalar=64";
    class       volScalarField;
    location    "110.00000";
    object      CH3;
}
// * * * * * * * * * * * * * * * * * * * * * * * * * * * * * * * * * * * * * //

dimensions      [0 0 0 0 0 0 0];

internalField   nonuniform List<scalar> 
3360
(
1.31866e-19
1.3611e-19
1.42015e-19
1.49239e-19
1.57479e-19
1.66466e-19
1.75956e-19
1.85728e-19
1.95585e-19
2.05355e-19
2.14888e-19
2.24056e-19
2.32753e-19
2.40896e-19
2.48421e-19
2.55284e-19
2.61457e-19
2.66928e-19
2.717e-19
2.75786e-19
2.79212e-19
2.8201e-19
2.8422e-19
2.85887e-19
2.87059e-19
2.87789e-19
2.88128e-19
5.78442e-19
5.99704e-19
6.29707e-19
6.67071e-19
7.10652e-19
7.5945e-19
8.12575e-19
8.6921e-19
9.28597e-19
9.90015e-19
1.05278e-18
1.11621e-18
1.17966e-18
1.24247e-18
1.304e-18
1.36362e-18
1.42071e-18
1.47466e-18
1.52492e-18
1.57093e-18
1.6122e-18
1.6483e-18
1.67886e-18
1.70357e-18
1.72222e-18
1.73468e-18
1.74089e-18
1.81481e-18
1.89446e-18
2.00764e-18
2.14987e-18
2.3174e-18
2.50691e-18
2.71519e-18
2.93911e-18
3.17551e-18
3.42113e-18
3.67266e-18
3.92682e-18
4.18035e-18
4.43001e-18
4.67272e-18
4.90551e-18
5.12564e-18
5.33067e-18
5.51846e-18
5.68726e-18
5.8357e-18
5.9628e-18
6.06803e-18
6.1512e-18
6.21252e-18
6.2525e-18
6.27197e-18
5.28467e-18
5.54717e-18
5.92267e-18
6.39776e-18
6.9612e-18
7.60248e-18
8.31107e-18
9.07609e-18
9.88608e-18
1.07291e-17
1.15926e-17
1.2464e-17
1.33308e-17
1.41808e-17
1.50023e-17
1.57848e-17
1.65187e-17
1.71961e-17
1.78105e-17
1.8357e-17
1.88326e-17
1.92355e-17
1.95654e-17
1.98235e-17
2.00118e-17
2.01335e-17
2.01921e-17
1.54377e-17
1.62657e-17
1.74524e-17
1.89573e-17
2.0746e-17
2.27854e-17
2.50415e-17
2.74784e-17
3.00575e-17
3.27386e-17
3.54796e-17
3.82385e-17
4.09737e-17
4.36458e-17
4.62182e-17
4.86581e-17
5.09372e-17
5.3032e-17
5.49246e-17
5.6602e-17
5.80563e-17
5.92843e-17
6.02869e-17
6.10689e-17
6.16381e-17
6.20048e-17
6.21813e-17
4.55116e-17
4.80539e-17
5.17023e-17
5.6333e-17
6.18399e-17
6.81205e-17
7.50686e-17
8.2571e-17
9.05072e-17
9.87499e-17
1.07168e-16
1.1563e-16
1.24007e-16
1.32178e-16
1.4003e-16
1.47464e-16
1.54395e-16
1.60754e-16
1.6649e-16
1.71564e-16
1.75955e-16
1.79658e-16
1.82676e-16
1.85027e-16
1.86736e-16
1.87836e-16
1.88365e-16
1.35172e-16
1.42896e-16
1.5398e-16
1.68048e-16
1.84778e-16
2.03854e-16
2.24948e-16
2.47713e-16
2.71776e-16
2.96747e-16
3.22227e-16
3.47815e-16
3.73122e-16
3.9778e-16
4.21455e-16
4.4385e-16
4.64713e-16
4.83841e-16
5.0108e-16
5.16323e-16
5.2951e-16
5.40622e-16
5.49679e-16
5.56731e-16
5.61856e-16
5.65153e-16
5.66738e-16
4.02794e-16
4.26032e-16
4.59396e-16
5.01758e-16
5.52146e-16
6.09609e-16
6.73155e-16
7.41729e-16
8.14202e-16
8.89394e-16
9.66093e-16
1.04309e-15
1.11921e-15
1.19335e-15
1.26451e-15
1.33179e-15
1.39443e-15
1.45184e-15
1.50356e-15
1.54927e-15
1.5888e-15
1.62209e-15
1.64922e-15
1.67033e-15
1.68566e-15
1.69553e-15
1.70027e-15
1.20344e-15
1.27326e-15
1.37349e-15
1.50074e-15
1.65208e-15
1.82464e-15
2.01542e-15
2.22123e-15
2.43867e-15
2.6642e-15
2.89416e-15
3.12494e-15
3.35301e-15
3.57507e-15
3.78813e-15
3.98952e-15
4.177e-15
4.34879e-15
4.50351e-15
4.64024e-15
4.75847e-15
4.85805e-15
4.93917e-15
5.0023e-15
5.04817e-15
5.07767e-15
5.09185e-15
3.5956e-15
3.80469e-15
4.10488e-15
4.48601e-15
4.9393e-15
5.45613e-15
6.02752e-15
6.64387e-15
7.29498e-15
7.9702e-15
8.65859e-15
9.34928e-15
1.00317e-14
1.06961e-14
1.13333e-14
1.19356e-14
1.24961e-14
1.30095e-14
1.34719e-14
1.38803e-14
1.42334e-14
1.45307e-14
1.47729e-14
1.49613e-14
1.50982e-14
1.51862e-14
1.52285e-14
1.07476e-14
1.13734e-14
1.22716e-14
1.34118e-14
1.47675e-14
1.63129e-14
1.80209e-14
1.98628e-14
2.1808e-14
2.38245e-14
2.58796e-14
2.79409e-14
2.9977e-14
3.19585e-14
3.38585e-14
3.56536e-14
3.7324e-14
3.88538e-14
4.02309e-14
4.14475e-14
4.24989e-14
4.33842e-14
4.41051e-14
4.46661e-14
4.50735e-14
4.53354e-14
4.54613e-14
3.20929e-14
3.39605e-14
3.66412e-14
4.00434e-14
4.4088e-14
4.86973e-14
5.379e-14
5.92802e-14
6.50761e-14
7.10823e-14
7.72014e-14
8.33364e-14
8.93941e-14
9.52868e-14
1.00935e-13
1.06269e-13
1.11231e-13
1.15773e-13
1.19861e-13
1.23471e-13
1.2659e-13
1.29215e-13
1.31352e-13
1.33014e-13
1.34221e-13
1.34997e-13
1.3537e-13
9.57175e-14
1.01281e-13
1.09264e-13
1.19391e-13
1.31424e-13
1.45129e-13
1.60262e-13
1.76566e-13
1.93766e-13
2.11578e-13
2.29712e-13
2.47881e-13
2.65808e-13
2.83237e-13
2.99932e-13
3.15689e-13
3.30339e-13
3.43742e-13
3.55799e-13
3.66441e-13
3.75632e-13
3.83365e-13
3.89659e-13
3.94553e-13
3.98106e-13
4.00389e-13
4.01486e-13
2.84613e-13
3.01109e-13
3.24767e-13
3.54764e-13
3.90385e-13
4.30927e-13
4.75659e-13
5.2381e-13
5.74563e-13
6.27072e-13
6.80481e-13
7.33942e-13
7.86643e-13
8.37827e-13
8.86813e-13
9.33007e-13
9.75914e-13
1.01514e-12
1.0504e-12
1.0815e-12
1.10833e-12
1.1309e-12
1.14926e-12
1.16352e-12
1.17388e-12
1.18052e-12
1.18372e-12
8.43134e-13
8.91754e-13
9.61437e-13
1.04972e-12
1.15444e-12
1.27349e-12
1.40468e-12
1.5457e-12
1.69414e-12
1.8475e-12
2.00325e-12
2.15893e-12
2.31218e-12
2.46081e-12
2.60287e-12
2.73666e-12
2.86077e-12
2.97411e-12
3.07587e-12
3.16554e-12
3.24285e-12
3.30781e-12
3.36061e-12
3.40161e-12
3.43135e-12
3.45044e-12
3.4596e-12
2.48298e-12
2.62486e-12
2.82803e-12
3.08512e-12
3.38967e-12
3.73534e-12
4.11561e-12
4.52364e-12
4.95232e-12
5.39434e-12
5.8424e-12
6.28938e-12
6.72853e-12
7.15365e-12
7.55923e-12
7.94053e-12
8.29367e-12
8.61565e-12
8.9043e-12
9.15828e-12
9.377e-12
9.56053e-12
9.70953e-12
9.82514e-12
9.9089e-12
9.96263e-12
9.98839e-12
7.2571e-12
7.66561e-12
8.2498e-12
8.98778e-12
9.86025e-12
1.08483e-11
1.19327e-11
1.30932e-11
1.43093e-11
1.55599e-11
1.68242e-11
1.80821e-11
1.93148e-11
2.05051e-11
2.16379e-11
2.27005e-11
2.36824e-11
2.45759e-11
2.53753e-11
2.60775e-11
2.66811e-11
2.7187e-11
2.7597e-11
2.79148e-11
2.81448e-11
2.82922e-11
2.83628e-11
2.1002e-11
2.2156e-11
2.38034e-11
2.58798e-11
2.8328e-11
3.10922e-11
3.4116e-11
3.73414e-11
4.07094e-11
4.41609e-11
4.76381e-11
5.10859e-11
5.44534e-11
5.76947e-11
6.07701e-11
6.36465e-11
6.62974e-11
6.87032e-11
7.08508e-11
7.2733e-11
7.4348e-11
7.56987e-11
7.67919e-11
7.76378e-11
7.82492e-11
7.86405e-11
7.88278e-11
6.00545e-11
6.32337e-11
6.77612e-11
7.34502e-11
8.01338e-11
8.76504e-11
9.58381e-11
1.04534e-10
1.13573e-10
1.22796e-10
1.32047e-10
1.41181e-10
1.50066e-10
1.58584e-10
1.66638e-10
1.74144e-10
1.8104e-10
1.87279e-10
1.92834e-10
1.9769e-10
2.01847e-10
2.05317e-10
2.08121e-10
2.10286e-10
2.11849e-10
2.12848e-10
2.13326e-10
1.69359e-10
1.77841e-10
1.89884e-10
2.04956e-10
2.22579e-10
2.42298e-10
2.63661e-10
2.86222e-10
3.09545e-10
3.33209e-10
3.56818e-10
3.80008e-10
4.02454e-10
4.23875e-10
4.44038e-10
4.62755e-10
4.79886e-10
4.95335e-10
5.09045e-10
5.20998e-10
5.31205e-10
5.39705e-10
5.46559e-10
5.51845e-10
5.55654e-10
5.58086e-10
5.59247e-10
4.70756e-10
4.92579e-10
5.23433e-10
5.61843e-10
6.0648e-10
6.56085e-10
7.09439e-10
7.65369e-10
8.22756e-10
8.80552e-10
9.37797e-10
9.93636e-10
1.04733e-09
1.09825e-09
1.14589e-09
1.18988e-09
1.22993e-09
1.26588e-09
1.29765e-09
1.32524e-09
1.34871e-09
1.3682e-09
1.38387e-09
1.39593e-09
1.4046e-09
1.41013e-09
1.41276e-09
1.29044e-09
1.34475e-09
1.42115e-09
1.51563e-09
1.62454e-09
1.74449e-09
1.87222e-09
2.0047e-09
2.1391e-09
2.27289e-09
2.40384e-09
2.53006e-09
2.65002e-09
2.76248e-09
2.86656e-09
2.96159e-09
3.04718e-09
3.12311e-09
3.18939e-09
3.2462e-09
3.29387e-09
3.33288e-09
3.36378e-09
3.38718e-09
3.40373e-09
3.41411e-09
3.41898e-09
3.48549e-09
3.61871e-09
3.80528e-09
4.03469e-09
4.29741e-09
4.58449e-09
4.88739e-09
5.19789e-09
5.50821e-09
5.81157e-09
6.10248e-09
6.377e-09
6.63295e-09
6.86996e-09
7.08953e-09
7.29487e-09
7.48619e-09
7.6609e-09
7.81735e-09
7.95465e-09
8.07246e-09
8.17091e-09
8.25051e-09
8.312e-09
8.35636e-09
8.3847e-09
8.39823e-09
9.19843e-09
9.52708e-09
9.98699e-09
1.05539e-08
1.12098e-08
1.19449e-08
1.27607e-08
1.36493e-08
1.4586e-08
1.55507e-08
1.65259e-08
1.74963e-08
1.84482e-08
1.93694e-08
2.02494e-08
2.10788e-08
2.18498e-08
2.25559e-08
2.31922e-08
2.37554e-08
2.42434e-08
2.46558e-08
2.49929e-08
2.52563e-08
2.54486e-08
2.55729e-08
2.5633e-08
2.42509e-08
2.53168e-08
2.68379e-08
2.87559e-08
3.10218e-08
3.35899e-08
3.64155e-08
3.94521e-08
4.2652e-08
4.59661e-08
4.93456e-08
5.27421e-08
5.61087e-08
5.94004e-08
6.25755e-08
6.55956e-08
6.84271e-08
7.10413e-08
7.34151e-08
7.55311e-08
7.73773e-08
7.89473e-08
8.02394e-08
8.1256e-08
8.20032e-08
8.24898e-08
8.27267e-08
6.99215e-08
7.31344e-08
7.77151e-08
8.34791e-08
9.02614e-08
9.78992e-08
1.06224e-07
1.15058e-07
1.24216e-07
1.33511e-07
1.4276e-07
1.51796e-07
1.60472e-07
1.68669e-07
1.76296e-07
1.83291e-07
1.89617e-07
1.95258e-07
2.00214e-07
2.04497e-07
2.08127e-07
2.11133e-07
2.13547e-07
2.15403e-07
2.16739e-07
2.17592e-07
2.18e-07
2.01808e-07
2.09837e-07
2.21091e-07
2.34932e-07
2.50774e-07
2.68066e-07
2.86301e-07
3.05024e-07
3.23836e-07
3.42402e-07
3.60443e-07
3.7773e-07
3.94086e-07
4.0937e-07
4.23483e-07
4.3636e-07
4.47964e-07
4.58284e-07
4.6733e-07
4.75132e-07
4.81731e-07
4.87182e-07
4.91546e-07
4.94893e-07
4.97292e-07
4.98818e-07
4.99545e-07
5.04063e-07
5.19898e-07
5.42034e-07
5.69202e-07
6.00274e-07
6.34227e-07
6.70133e-07
7.07155e-07
7.44547e-07
7.8165e-07
8.17898e-07
8.52811e-07
8.85997e-07
9.17143e-07
9.46015e-07
9.72449e-07
9.96343e-07
1.01765e-06
1.03637e-06
1.05254e-06
1.06625e-06
1.07758e-06
1.08667e-06
1.09364e-06
1.09864e-06
1.10182e-06
1.10333e-06
1.1096e-06
1.14205e-06
1.18761e-06
1.24385e-06
1.3086e-06
1.3799e-06
1.45593e-06
1.53504e-06
1.6157e-06
1.69654e-06
1.77634e-06
1.85402e-06
1.92867e-06
1.99953e-06
2.06596e-06
2.1275e-06
2.18377e-06
2.23455e-06
2.27969e-06
2.31915e-06
2.35299e-06
2.38129e-06
2.40424e-06
2.42204e-06
2.43495e-06
2.44325e-06
2.44725e-06
2.2629e-06
2.33063e-06
2.42626e-06
2.54524e-06
2.68356e-06
2.83759e-06
3.00394e-06
3.17944e-06
3.36109e-06
3.5461e-06
3.73183e-06
3.91586e-06
4.09597e-06
4.27015e-06
4.4366e-06
4.59375e-06
4.74026e-06
4.87501e-06
4.99712e-06
5.10591e-06
5.20091e-06
5.28185e-06
5.34863e-06
5.40134e-06
5.44021e-06
5.4656e-06
5.47801e-06
4.30369e-06
4.43946e-06
4.63232e-06
4.87408e-06
5.15779e-06
5.4771e-06
5.82605e-06
6.19889e-06
6.58999e-06
6.99387e-06
7.40513e-06
7.81848e-06
8.22883e-06
8.63122e-06
9.02101e-06
9.39387e-06
9.74586e-06
1.00735e-05
1.03738e-05
1.06441e-05
1.08826e-05
1.10877e-05
1.12584e-05
1.13943e-05
1.14953e-05
1.15617e-05
1.15944e-05
7.61977e-06
7.86516e-06
8.21455e-06
8.65389e-06
9.17128e-06
9.7558e-06
1.0397e-05
1.10845e-05
1.18082e-05
1.25579e-05
1.33233e-05
1.40944e-05
1.48612e-05
1.56143e-05
1.63446e-05
1.70437e-05
1.7704e-05
1.83187e-05
1.8882e-05
1.93892e-05
1.98363e-05
2.02207e-05
2.05405e-05
2.07949e-05
2.09838e-05
2.1108e-05
2.11691e-05
1.25276e-05
1.29075e-05
1.3447e-05
1.4123e-05
1.49156e-05
1.58065e-05
1.67783e-05
1.78139e-05
1.88968e-05
2.00106e-05
2.11394e-05
2.2268e-05
2.33818e-05
2.4467e-05
2.55114e-05
2.65035e-05
2.74336e-05
2.82932e-05
2.90755e-05
2.97751e-05
3.0388e-05
3.09118e-05
3.1345e-05
3.16878e-05
3.19412e-05
3.21071e-05
3.21883e-05
1.8971e-05
1.94614e-05
2.01539e-05
2.10149e-05
2.20154e-05
2.31284e-05
2.43289e-05
2.55931e-05
2.68989e-05
2.82251e-05
2.95523e-05
3.08625e-05
3.21394e-05
3.33686e-05
3.45374e-05
3.56351e-05
3.6653e-05
3.7584e-05
3.84229e-05
3.91661e-05
3.98115e-05
4.03584e-05
4.08074e-05
4.11602e-05
4.14192e-05
4.15877e-05
4.16698e-05
2.62621e-05
2.67908e-05
2.7532e-05
2.84454e-05
2.94952e-05
3.06491e-05
3.18777e-05
3.31541e-05
3.4454e-05
3.57558e-05
3.70402e-05
3.82907e-05
3.94929e-05
4.0635e-05
4.17073e-05
4.27022e-05
4.36141e-05
4.4439e-05
4.51747e-05
4.582e-05
4.63754e-05
4.68421e-05
4.72221e-05
4.75185e-05
4.77345e-05
4.78742e-05
4.79418e-05
3.32755e-05
3.37593e-05
3.4433e-05
3.52558e-05
3.61916e-05
3.72084e-05
3.82775e-05
3.93738e-05
4.04756e-05
4.15642e-05
4.26241e-05
4.36424e-05
4.46091e-05
4.55161e-05
4.63576e-05
4.71297e-05
4.78297e-05
4.84566e-05
4.90103e-05
4.94918e-05
4.99027e-05
5.02452e-05
5.05223e-05
5.07368e-05
5.08923e-05
5.09923e-05
5.10404e-05
3.90029e-05
3.93863e-05
3.9917e-05
4.05599e-05
4.12843e-05
4.20633e-05
4.28731e-05
4.36939e-05
4.4509e-05
4.53047e-05
4.60702e-05
4.67971e-05
4.74792e-05
4.81122e-05
4.86933e-05
4.92211e-05
4.96951e-05
5.01157e-05
5.04842e-05
5.08021e-05
5.10713e-05
5.12943e-05
5.14735e-05
5.16116e-05
5.1711e-05
5.17747e-05
5.18052e-05
4.29463e-05
4.32128e-05
4.35795e-05
4.40206e-05
4.45133e-05
4.5038e-05
4.55779e-05
4.61192e-05
4.66508e-05
4.71639e-05
4.7652e-05
4.81103e-05
4.85359e-05
4.89266e-05
4.92817e-05
4.96011e-05
4.98854e-05
5.01355e-05
5.03529e-05
5.0539e-05
5.06955e-05
5.08244e-05
5.09273e-05
5.10061e-05
5.10627e-05
5.10988e-05
5.1116e-05
4.51216e-05
4.52825e-05
4.55026e-05
4.57652e-05
4.60559e-05
4.63622e-05
4.66738e-05
4.69824e-05
4.72816e-05
4.75666e-05
4.78342e-05
4.80821e-05
4.83093e-05
4.85153e-05
4.87001e-05
4.88644e-05
4.90089e-05
4.91346e-05
4.92427e-05
4.93344e-05
4.94109e-05
4.94733e-05
4.95228e-05
4.95604e-05
4.95873e-05
4.96043e-05
4.96124e-05
4.58439e-05
4.59226e-05
4.60292e-05
4.61549e-05
4.62918e-05
4.64335e-05
4.65746e-05
4.67113e-05
4.68407e-05
4.69608e-05
4.70705e-05
4.71694e-05
4.72573e-05
4.73347e-05
4.7402e-05
4.74601e-05
4.75096e-05
4.75514e-05
4.75863e-05
4.76151e-05
4.76384e-05
4.7657e-05
4.76713e-05
4.7682e-05
4.76895e-05
4.76941e-05
4.76963e-05
4.55149e-05
4.55356e-05
4.55626e-05
4.55925e-05
4.56225e-05
4.56505e-05
4.5675e-05
4.56948e-05
4.57095e-05
4.57191e-05
4.57238e-05
4.57241e-05
4.57206e-05
4.57141e-05
4.57052e-05
4.56948e-05
4.56833e-05
4.56715e-05
4.56599e-05
4.56488e-05
4.56386e-05
4.56296e-05
4.5622e-05
4.56158e-05
4.56112e-05
4.56081e-05
4.56066e-05
4.44981e-05
4.44809e-05
4.44557e-05
4.44232e-05
4.4384e-05
4.43388e-05
4.42884e-05
4.42336e-05
4.41757e-05
4.41155e-05
4.40543e-05
4.39931e-05
4.39329e-05
4.38746e-05
4.38189e-05
4.37665e-05
4.37179e-05
4.36735e-05
4.36337e-05
4.35985e-05
4.35682e-05
4.35426e-05
4.35217e-05
4.35055e-05
4.34936e-05
4.3486e-05
4.34823e-05
4.30738e-05
4.30332e-05
4.29761e-05
4.29056e-05
4.28243e-05
4.27347e-05
4.26392e-05
4.25397e-05
4.24384e-05
4.23369e-05
4.22368e-05
4.21395e-05
4.20462e-05
4.19577e-05
4.18748e-05
4.17982e-05
4.17282e-05
4.16652e-05
4.16093e-05
4.15604e-05
4.15186e-05
4.14837e-05
4.14554e-05
4.14334e-05
4.14175e-05
4.14073e-05
4.14024e-05
4.14381e-05
4.13842e-05
4.1309e-05
4.12169e-05
4.11119e-05
4.09975e-05
4.08768e-05
4.07526e-05
4.06274e-05
4.05033e-05
4.03821e-05
4.02653e-05
4.01541e-05
4.00495e-05
3.99523e-05
3.9863e-05
3.97818e-05
3.97091e-05
3.96448e-05
3.95889e-05
3.95411e-05
3.95014e-05
3.94693e-05
3.94444e-05
3.94264e-05
3.94149e-05
3.94093e-05
3.97196e-05
3.96589e-05
3.95745e-05
3.94717e-05
3.93548e-05
3.92282e-05
3.90952e-05
3.89591e-05
3.88225e-05
3.86877e-05
3.85567e-05
3.84309e-05
3.83117e-05
3.81999e-05
3.80963e-05
3.80014e-05
3.79154e-05
3.78385e-05
3.77707e-05
3.77119e-05
3.76617e-05
3.762e-05
3.75863e-05
3.75603e-05
3.75415e-05
3.75294e-05
3.75236e-05
3.79977e-05
3.79345e-05
3.78466e-05
3.77396e-05
3.76185e-05
3.74874e-05
3.73502e-05
3.72101e-05
3.70698e-05
3.69318e-05
3.67979e-05
3.66697e-05
3.65483e-05
3.64348e-05
3.63298e-05
3.62337e-05
3.61468e-05
3.60692e-05
3.60008e-05
3.59415e-05
3.58911e-05
3.58491e-05
3.58152e-05
3.57891e-05
3.57702e-05
3.57581e-05
3.57523e-05
3.63192e-05
3.62558e-05
3.61679e-05
3.60609e-05
3.594e-05
3.58093e-05
3.56726e-05
3.55333e-05
3.53941e-05
3.52572e-05
3.51247e-05
3.49979e-05
3.4878e-05
3.4766e-05
3.46625e-05
3.45679e-05
3.44824e-05
3.4406e-05
3.43388e-05
3.42805e-05
3.4231e-05
3.41898e-05
3.41566e-05
3.41309e-05
3.41124e-05
3.41005e-05
3.40948e-05
3.47092e-05
3.46472e-05
3.45612e-05
3.44567e-05
3.43385e-05
3.4211e-05
3.40778e-05
3.39421e-05
3.38065e-05
3.36734e-05
3.35446e-05
3.34214e-05
3.33051e-05
3.31964e-05
3.30961e-05
3.30044e-05
3.29215e-05
3.28476e-05
3.27826e-05
3.27262e-05
3.26782e-05
3.26384e-05
3.26062e-05
3.25814e-05
3.25635e-05
3.2552e-05
3.25465e-05
3.31799e-05
3.312e-05
3.3037e-05
3.29363e-05
3.28224e-05
3.26996e-05
3.25713e-05
3.24407e-05
3.23103e-05
3.21823e-05
3.20585e-05
3.19401e-05
3.18284e-05
3.17241e-05
3.16278e-05
3.15398e-05
3.14603e-05
3.13894e-05
3.1327e-05
3.12729e-05
3.1227e-05
3.11887e-05
3.11579e-05
3.11342e-05
3.1117e-05
3.1106e-05
3.11007e-05
3.17351e-05
3.16778e-05
3.15985e-05
3.15021e-05
3.13932e-05
3.12758e-05
3.11532e-05
3.10285e-05
3.09039e-05
3.07817e-05
3.06635e-05
3.05506e-05
3.0444e-05
3.03444e-05
3.02525e-05
3.01686e-05
3.00928e-05
3.00252e-05
2.99657e-05
2.99141e-05
2.98702e-05
2.98338e-05
2.98044e-05
2.97817e-05
2.97654e-05
2.97549e-05
2.97498e-05
3.03742e-05
3.03197e-05
3.02442e-05
3.01525e-05
3.00489e-05
2.99372e-05
2.98206e-05
2.9702e-05
2.95835e-05
2.94673e-05
2.93549e-05
2.92475e-05
2.91462e-05
2.90516e-05
2.89642e-05
2.88844e-05
2.88124e-05
2.87481e-05
2.86915e-05
2.86425e-05
2.86008e-05
2.85662e-05
2.85382e-05
2.85167e-05
2.85011e-05
2.84911e-05
2.84863e-05
2.90942e-05
2.90425e-05
2.89708e-05
2.88838e-05
2.87855e-05
2.86795e-05
2.85689e-05
2.84563e-05
2.83439e-05
2.82337e-05
2.8127e-05
2.80252e-05
2.7929e-05
2.78393e-05
2.77564e-05
2.76807e-05
2.76123e-05
2.75513e-05
2.74977e-05
2.74512e-05
2.74116e-05
2.73787e-05
2.73522e-05
2.73317e-05
2.7317e-05
2.73075e-05
2.73029e-05
2.78905e-05
2.78415e-05
2.77736e-05
2.76911e-05
2.7598e-05
2.74975e-05
2.73927e-05
2.7286e-05
2.71796e-05
2.70751e-05
2.6974e-05
2.68775e-05
2.67864e-05
2.67013e-05
2.66227e-05
2.6551e-05
2.64862e-05
2.64284e-05
2.63775e-05
2.63334e-05
2.62959e-05
2.62647e-05
2.62396e-05
2.62202e-05
2.62061e-05
2.61971e-05
2.61928e-05
2.6758e-05
2.67116e-05
2.66473e-05
2.65693e-05
2.64811e-05
2.63859e-05
2.62866e-05
2.61856e-05
2.60848e-05
2.59858e-05
2.58901e-05
2.57986e-05
2.57123e-05
2.56317e-05
2.55573e-05
2.54893e-05
2.54278e-05
2.5373e-05
2.53248e-05
2.5283e-05
2.52475e-05
2.52179e-05
2.51941e-05
2.51757e-05
2.51624e-05
2.51538e-05
2.51498e-05
2.56918e-05
2.56478e-05
2.55869e-05
2.5513e-05
2.54295e-05
2.53394e-05
2.52454e-05
2.51496e-05
2.50541e-05
2.49604e-05
2.48697e-05
2.4783e-05
2.47012e-05
2.46249e-05
2.45543e-05
2.44899e-05
2.44317e-05
2.43797e-05
2.4334e-05
2.42944e-05
2.42607e-05
2.42326e-05
2.421e-05
2.41926e-05
2.418e-05
2.41719e-05
2.4168e-05
2.46867e-05
2.46451e-05
2.45874e-05
2.45174e-05
2.44382e-05
2.43529e-05
2.42638e-05
2.41731e-05
2.40826e-05
2.39937e-05
2.39077e-05
2.38256e-05
2.37481e-05
2.36757e-05
2.36088e-05
2.35477e-05
2.34925e-05
2.34432e-05
2.33999e-05
2.33623e-05
2.33303e-05
2.33037e-05
2.32823e-05
2.32657e-05
2.32537e-05
2.32461e-05
2.32424e-05
2.37381e-05
2.36986e-05
2.36439e-05
2.35775e-05
2.35025e-05
2.34216e-05
2.33371e-05
2.32511e-05
2.31653e-05
2.30811e-05
2.29995e-05
2.29216e-05
2.28481e-05
2.27794e-05
2.27159e-05
2.2658e-05
2.26056e-05
2.25588e-05
2.25177e-05
2.2482e-05
2.24516e-05
2.24264e-05
2.24061e-05
2.23903e-05
2.2379e-05
2.23717e-05
2.23682e-05
2.28414e-05
2.2804e-05
2.27521e-05
2.26891e-05
2.2618e-05
2.25412e-05
2.2461e-05
2.23794e-05
2.2298e-05
2.2218e-05
2.21406e-05
2.20667e-05
2.19969e-05
2.19317e-05
2.18714e-05
2.18164e-05
2.17666e-05
2.17222e-05
2.16831e-05
2.16492e-05
2.16204e-05
2.15964e-05
2.15771e-05
2.15621e-05
2.15514e-05
2.15444e-05
2.15411e-05
2.19926e-05
2.19571e-05
2.19078e-05
2.1848e-05
2.17804e-05
2.17075e-05
2.16314e-05
2.15539e-05
2.14765e-05
2.14006e-05
2.13271e-05
2.12568e-05
2.11905e-05
2.11285e-05
2.10712e-05
2.10189e-05
2.09716e-05
2.09294e-05
2.08923e-05
2.086e-05
2.08326e-05
2.08098e-05
2.07914e-05
2.07772e-05
2.0767e-05
2.07604e-05
2.07572e-05
2.11878e-05
2.1154e-05
2.11072e-05
2.10504e-05
2.09861e-05
2.09168e-05
2.08445e-05
2.07708e-05
2.06972e-05
2.0625e-05
2.05551e-05
2.04882e-05
2.04251e-05
2.03662e-05
2.03117e-05
2.02619e-05
2.0217e-05
2.01768e-05
2.01414e-05
2.01108e-05
2.00847e-05
2.0063e-05
2.00455e-05
2.0032e-05
2.00222e-05
2.00159e-05
2.00129e-05
2.04234e-05
2.03913e-05
2.03467e-05
2.02927e-05
2.02315e-05
2.01656e-05
2.00967e-05
2.00266e-05
1.99565e-05
1.98878e-05
1.98212e-05
1.97576e-05
1.96975e-05
1.96414e-05
1.95895e-05
1.95421e-05
1.94992e-05
1.9461e-05
1.94273e-05
1.93981e-05
1.93732e-05
1.93525e-05
1.93359e-05
1.9323e-05
1.93137e-05
1.93077e-05
1.93048e-05
1.96961e-05
1.96655e-05
1.96231e-05
1.95715e-05
1.95133e-05
1.94504e-05
1.93848e-05
1.9318e-05
1.92512e-05
1.91857e-05
1.91222e-05
1.90616e-05
1.90043e-05
1.89508e-05
1.89013e-05
1.88561e-05
1.88152e-05
1.87787e-05
1.87466e-05
1.87188e-05
1.8695e-05
1.86753e-05
1.86594e-05
1.86471e-05
1.86382e-05
1.86325e-05
1.86298e-05
1.90027e-05
1.89735e-05
1.8933e-05
1.88838e-05
1.88283e-05
1.87683e-05
1.87057e-05
1.86419e-05
1.85782e-05
1.85156e-05
1.84551e-05
1.83972e-05
1.83425e-05
1.82914e-05
1.82442e-05
1.8201e-05
1.8162e-05
1.81271e-05
1.80964e-05
1.80698e-05
1.80472e-05
1.80283e-05
1.80131e-05
1.80014e-05
1.79929e-05
1.79875e-05
1.79848e-05
1.83401e-05
1.83122e-05
1.82736e-05
1.82266e-05
1.81735e-05
1.81162e-05
1.80563e-05
1.79954e-05
1.79345e-05
1.78747e-05
1.78168e-05
1.77615e-05
1.77092e-05
1.76603e-05
1.76151e-05
1.75738e-05
1.75365e-05
1.75032e-05
1.74738e-05
1.74484e-05
1.74267e-05
1.74087e-05
1.73941e-05
1.73829e-05
1.73748e-05
1.73696e-05
1.73671e-05
1.77055e-05
1.76788e-05
1.76418e-05
1.75969e-05
1.75461e-05
1.74912e-05
1.74339e-05
1.73756e-05
1.73173e-05
1.726e-05
1.72046e-05
1.71515e-05
1.71015e-05
1.70546e-05
1.70114e-05
1.69718e-05
1.69361e-05
1.69041e-05
1.6876e-05
1.68516e-05
1.68308e-05
1.68136e-05
1.67996e-05
1.67889e-05
1.67811e-05
1.67761e-05
1.67737e-05
1.7096e-05
1.70704e-05
1.7035e-05
1.69918e-05
1.69431e-05
1.68905e-05
1.68355e-05
1.67796e-05
1.67236e-05
1.66687e-05
1.66155e-05
1.65646e-05
1.65165e-05
1.64716e-05
1.64301e-05
1.63921e-05
1.63578e-05
1.63271e-05
1.63001e-05
1.62767e-05
1.62567e-05
1.62401e-05
1.62267e-05
1.62164e-05
1.62089e-05
1.62041e-05
1.62018e-05
1.65088e-05
1.64842e-05
1.64501e-05
1.64086e-05
1.63618e-05
1.63112e-05
1.62584e-05
1.62045e-05
1.61508e-05
1.60979e-05
1.60468e-05
1.59978e-05
1.59516e-05
1.59083e-05
1.58684e-05
1.58318e-05
1.57988e-05
1.57693e-05
1.57433e-05
1.57207e-05
1.57015e-05
1.56856e-05
1.56727e-05
1.56627e-05
1.56555e-05
1.56509e-05
1.56487e-05
1.59408e-05
1.59171e-05
1.58843e-05
1.58443e-05
1.57992e-05
1.57505e-05
1.56995e-05
1.56476e-05
1.55958e-05
1.55448e-05
1.54955e-05
1.54482e-05
1.54036e-05
1.53619e-05
1.53234e-05
1.52881e-05
1.52562e-05
1.52277e-05
1.52026e-05
1.51809e-05
1.51623e-05
1.51469e-05
1.51344e-05
1.51248e-05
1.51179e-05
1.51134e-05
1.51113e-05
1.53892e-05
1.53663e-05
1.53346e-05
1.5296e-05
1.52523e-05
1.52052e-05
1.51559e-05
1.51057e-05
1.50556e-05
1.50063e-05
1.49585e-05
1.49129e-05
1.48697e-05
1.48293e-05
1.4792e-05
1.47578e-05
1.47269e-05
1.46993e-05
1.4675e-05
1.46539e-05
1.4636e-05
1.4621e-05
1.4609e-05
1.45997e-05
1.45929e-05
1.45886e-05
1.45865e-05
1.48509e-05
1.48287e-05
1.47978e-05
1.47604e-05
1.4718e-05
1.46723e-05
1.46245e-05
1.45758e-05
1.45271e-05
1.44792e-05
1.44328e-05
1.43884e-05
1.43465e-05
1.43072e-05
1.42709e-05
1.42377e-05
1.42077e-05
1.41809e-05
1.41573e-05
1.41367e-05
1.41193e-05
1.41047e-05
1.4093e-05
1.40839e-05
1.40774e-05
1.40732e-05
1.40712e-05
1.43224e-05
1.43008e-05
1.42707e-05
1.42342e-05
1.4193e-05
1.41484e-05
1.41018e-05
1.40543e-05
1.40068e-05
1.39601e-05
1.39148e-05
1.38715e-05
1.38305e-05
1.37922e-05
1.37568e-05
1.37244e-05
1.36951e-05
1.36689e-05
1.36458e-05
1.36257e-05
1.36086e-05
1.35944e-05
1.3583e-05
1.35741e-05
1.35677e-05
1.35636e-05
1.35616e-05
1.38003e-05
1.37791e-05
1.37497e-05
1.37139e-05
1.36735e-05
1.36298e-05
1.35842e-05
1.35376e-05
1.3491e-05
1.34452e-05
1.34008e-05
1.33583e-05
1.33182e-05
1.32806e-05
1.32458e-05
1.3214e-05
1.31852e-05
1.31594e-05
1.31367e-05
1.3117e-05
1.31003e-05
1.30863e-05
1.3075e-05
1.30663e-05
1.306e-05
1.3056e-05
1.3054e-05
1.32805e-05
1.32597e-05
1.32307e-05
1.31955e-05
1.31557e-05
1.31127e-05
1.30677e-05
1.30217e-05
1.29758e-05
1.29306e-05
1.28868e-05
1.28449e-05
1.28052e-05
1.27681e-05
1.27338e-05
1.27023e-05
1.26739e-05
1.26484e-05
1.2626e-05
1.26066e-05
1.259e-05
1.25762e-05
1.2565e-05
1.25564e-05
1.25502e-05
1.25462e-05
1.25442e-05
1.27591e-05
1.27384e-05
1.27097e-05
1.26748e-05
1.26353e-05
1.25926e-05
1.2548e-05
1.25024e-05
1.24568e-05
1.2412e-05
1.23685e-05
1.23268e-05
1.22874e-05
1.22505e-05
1.22163e-05
1.2185e-05
1.21567e-05
1.21314e-05
1.21091e-05
1.20897e-05
1.20732e-05
1.20595e-05
1.20484e-05
1.20398e-05
1.20336e-05
1.20296e-05
1.20277e-05
1.22313e-05
1.22107e-05
1.2182e-05
1.21472e-05
1.21077e-05
1.20651e-05
1.20205e-05
1.19749e-05
1.19293e-05
1.18845e-05
1.18409e-05
1.17992e-05
1.17598e-05
1.17228e-05
1.16886e-05
1.16572e-05
1.16289e-05
1.16035e-05
1.15811e-05
1.15617e-05
1.15451e-05
1.15313e-05
1.15202e-05
1.15115e-05
1.15053e-05
1.15013e-05
1.14994e-05
1.16923e-05
1.16716e-05
1.16427e-05
1.16077e-05
1.1568e-05
1.15251e-05
1.14801e-05
1.14342e-05
1.13883e-05
1.13431e-05
1.12992e-05
1.12571e-05
1.12173e-05
1.118e-05
1.11454e-05
1.11137e-05
1.10851e-05
1.10594e-05
1.10368e-05
1.10171e-05
1.10004e-05
1.09864e-05
1.09752e-05
1.09664e-05
1.09601e-05
1.09561e-05
1.09541e-05
1.11369e-05
1.11159e-05
1.10866e-05
1.10511e-05
1.10108e-05
1.09673e-05
1.09216e-05
1.0875e-05
1.08284e-05
1.07824e-05
1.07378e-05
1.0695e-05
1.06545e-05
1.06165e-05
1.05814e-05
1.05491e-05
1.05199e-05
1.04938e-05
1.04707e-05
1.04507e-05
1.04336e-05
1.04194e-05
1.04079e-05
1.0399e-05
1.03926e-05
1.03884e-05
1.03865e-05
1.05597e-05
1.05382e-05
1.05083e-05
1.0472e-05
1.04308e-05
1.03863e-05
1.03396e-05
1.02919e-05
1.02442e-05
1.01971e-05
1.01514e-05
1.01076e-05
1.0066e-05
1.00271e-05
9.99104e-06
9.95797e-06
9.92801e-06
9.90119e-06
9.87752e-06
9.85695e-06
9.8394e-06
9.82478e-06
9.81297e-06
9.80383e-06
9.79721e-06
9.79296e-06
9.79092e-06
9.95532e-06
9.9332e-06
9.90247e-06
9.86507e-06
9.82269e-06
9.77681e-06
9.72874e-06
9.67961e-06
9.63038e-06
9.58186e-06
9.53472e-06
9.4895e-06
9.44664e-06
9.40647e-06
9.36923e-06
9.33508e-06
9.30413e-06
9.27643e-06
9.25197e-06
9.2307e-06
9.21257e-06
9.19745e-06
9.18524e-06
9.17579e-06
9.16894e-06
9.16455e-06
9.16243e-06
9.31884e-06
9.29595e-06
9.26415e-06
9.22543e-06
9.18154e-06
9.13402e-06
9.08423e-06
9.03332e-06
8.98231e-06
8.93201e-06
8.88314e-06
8.83626e-06
8.79181e-06
8.75013e-06
8.71149e-06
8.67605e-06
8.64393e-06
8.61517e-06
8.58978e-06
8.5677e-06
8.54886e-06
8.53317e-06
8.52048e-06
8.51066e-06
8.50355e-06
8.49898e-06
8.49678e-06
8.64621e-06
8.62242e-06
8.58938e-06
8.54914e-06
8.50353e-06
8.45415e-06
8.40239e-06
8.34947e-06
8.29643e-06
8.24414e-06
8.19332e-06
8.14456e-06
8.09833e-06
8.05498e-06
8.01478e-06
7.97792e-06
7.9445e-06
7.91458e-06
7.88815e-06
7.86518e-06
7.84558e-06
7.82925e-06
7.81604e-06
7.80582e-06
7.79842e-06
7.79367e-06
7.79138e-06
7.935e-06
7.91025e-06
7.87588e-06
7.83403e-06
7.78659e-06
7.73523e-06
7.6814e-06
7.62636e-06
7.57121e-06
7.51683e-06
7.46399e-06
7.4133e-06
7.36523e-06
7.32017e-06
7.27839e-06
7.24007e-06
7.20533e-06
7.17423e-06
7.14677e-06
7.1229e-06
7.10253e-06
7.08555e-06
7.07184e-06
7.06122e-06
7.05353e-06
7.04859e-06
7.04621e-06
7.18533e-06
7.15965e-06
7.12399e-06
7.08058e-06
7.03138e-06
6.97812e-06
6.92232e-06
6.86528e-06
6.80813e-06
6.7518e-06
6.69708e-06
6.6446e-06
6.59484e-06
6.54821e-06
6.50498e-06
6.46535e-06
6.42943e-06
6.39728e-06
6.36889e-06
6.34421e-06
6.32317e-06
6.30563e-06
6.29146e-06
6.28049e-06
6.27255e-06
6.26745e-06
6.265e-06
6.40098e-06
6.37452e-06
6.33778e-06
6.29307e-06
6.24242e-06
6.18761e-06
6.13021e-06
6.07157e-06
6.01284e-06
5.95499e-06
5.89882e-06
5.84496e-06
5.79394e-06
5.74614e-06
5.70185e-06
5.66125e-06
5.62448e-06
5.59158e-06
5.56254e-06
5.53731e-06
5.51579e-06
5.49787e-06
5.48339e-06
5.47219e-06
5.46408e-06
5.45887e-06
5.45637e-06
5.59047e-06
5.56354e-06
5.52615e-06
5.48067e-06
5.42918e-06
5.3735e-06
5.31524e-06
5.25576e-06
5.19624e-06
5.13765e-06
5.08081e-06
5.02636e-06
4.97481e-06
4.92655e-06
4.88187e-06
4.84095e-06
4.8039e-06
4.77078e-06
4.74155e-06
4.71618e-06
4.69455e-06
4.67654e-06
4.662e-06
4.65076e-06
4.64262e-06
4.63739e-06
4.63488e-06
4.76795e-06
4.74102e-06
4.70366e-06
4.65826e-06
4.6069e-06
4.55141e-06
4.49341e-06
4.43426e-06
4.37514e-06
4.31702e-06
4.26069e-06
4.20679e-06
4.15582e-06
4.10815e-06
4.06407e-06
4.02373e-06
3.98725e-06
3.95465e-06
3.92592e-06
3.90099e-06
3.87976e-06
3.8621e-06
3.84784e-06
3.83682e-06
3.82885e-06
3.82374e-06
3.82128e-06
3.95337e-06
3.92712e-06
3.89072e-06
3.84653e-06
3.7966e-06
3.74273e-06
3.6865e-06
3.62925e-06
3.57211e-06
3.51602e-06
3.46175e-06
3.4099e-06
3.36094e-06
3.31522e-06
3.27299e-06
3.23441e-06
3.19955e-06
3.16845e-06
3.14107e-06
3.11734e-06
3.09714e-06
3.08035e-06
3.06682e-06
3.05636e-06
3.04881e-06
3.04396e-06
3.04163e-06
3.17161e-06
3.14683e-06
3.11252e-06
3.07091e-06
3.02397e-06
2.97342e-06
2.92074e-06
2.86722e-06
2.8139e-06
2.76168e-06
2.71125e-06
2.66316e-06
2.61785e-06
2.57561e-06
2.53667e-06
2.50115e-06
2.46912e-06
2.44059e-06
2.4155e-06
2.39378e-06
2.37533e-06
2.36001e-06
2.34767e-06
2.33814e-06
2.33127e-06
2.32686e-06
2.32475e-06
2.45003e-06
2.42757e-06
2.39652e-06
2.35893e-06
2.3166e-06
2.27112e-06
2.22384e-06
2.17592e-06
2.1283e-06
2.08178e-06
2.03697e-06
1.99436e-06
1.95429e-06
1.91705e-06
1.88278e-06
1.8516e-06
1.82354e-06
1.79858e-06
1.77669e-06
1.75777e-06
1.74172e-06
1.72841e-06
1.71771e-06
1.70946e-06
1.70352e-06
1.69971e-06
1.69788e-06
1.81452e-06
1.79515e-06
1.76841e-06
1.73611e-06
1.69982e-06
1.66092e-06
1.62061e-06
1.57988e-06
1.53953e-06
1.50023e-06
1.4625e-06
1.42673e-06
1.3932e-06
1.36212e-06
1.33362e-06
1.30774e-06
1.28452e-06
1.26392e-06
1.24589e-06
1.23035e-06
1.21718e-06
1.20629e-06
1.19755e-06
1.19082e-06
1.18597e-06
1.18288e-06
1.1814e-06
1.28476e-06
1.269e-06
1.24727e-06
1.22108e-06
1.19174e-06
1.16041e-06
1.12804e-06
1.09544e-06
1.06328e-06
1.03207e-06
1.00222e-06
9.74022e-07
9.47694e-07
9.23375e-07
9.01145e-07
8.81037e-07
8.63045e-07