/*--------------------------------*- C++ -*----------------------------------*\
| =========                 |                                                 |
| \\      /  F ield         | OpenFOAM: The Open Source CFD Toolbox           |
|  \\    /   O peration     | Version:  2106                                  |
|   \\  /    A nd           | Website:  www.openfoam.com                      |
|    \\/     M anipulation  |                                                 |
\*---------------------------------------------------------------------------*/
FoamFile
{
    version     2.0;
    format      ascii;
    arch        "LSB;label=32;scalar=64";
    class       volScalarField;
    location    "110.00000";
    object      T;
}
// * * * * * * * * * * * * * * * * * * * * * * * * * * * * * * * * * * * * * //

dimensions      [0 0 0 1 0 0 0];

internalField   nonuniform List<scalar> 
3360
(
301
301
301
301
301
301
301
301
301
301
301
301
301
301
301
301
301
301
301
301
301
301
301
301
301
301
301
301
301
301
301
301
301
301
301
301
301
301
301
301
301
301
301
301
301
301
301
301
301
301
301
301
301
301
301
301.001
301.001
301.001
301.001
301.001
301.001
301.001
301.001
301.001
301.001
301.001
301.001
301.001
301.001
301.001
301.001
301.001
301.001
301.001
301
301
301
301
301
301
301
301.002
301.002
301.002
301.002
301.002
301.002
301.002
301.002
301.002
301.002
301.002
301.003
301.003
301.003
301.003
301.003
301.003
301.003
301.003
301.003
301.003
301.003
301.003
301.002
301.002
301.002
301.002
301.005
301.005
301.005
301.006
301.006
301.006
301.007
301.007
301.008
301.008
301.009
301.009
301.009
301.01
301.01
301.01
301.011
301.011
301.011
301.011
301.011
301.011
301.011
301.011
301.011
301.011
301.011
301.014
301.014
301.015
301.016
301.017
301.018
301.02
301.021
301.023
301.024
301.026
301.027
301.028
301.03
301.031
301.032
301.034
301.035
301.036
301.036
301.037
301.038
301.038
301.038
301.039
301.039
301.039
301.035
301.036
301.038
301.041
301.044
301.047
301.051
301.055
301.059
301.063
301.067
301.072
301.076
301.08
301.084
301.088
301.091
301.095
301.098
301.101
301.103
301.105
301.107
301.109
301.11
301.111
301.112
301.082
301.085
301.09
301.096
301.103
301.111
301.119
301.129
301.139
301.149
301.159
301.17
301.18
301.191
301.201
301.21
301.22
301.228
301.237
301.244
301.251
301.258
301.263
301.268
301.273
301.277
301.28
301.177
301.184
301.195
301.208
301.223
301.24
301.259
301.279
301.301
301.323
301.346
301.369
301.392
301.414
301.437
301.458
301.479
301.499
301.518
301.535
301.552
301.567
301.58
301.593
301.604
301.614
301.623
301.36
301.375
301.395
301.421
301.451
301.486
301.524
301.564
301.607
301.651
301.697
301.743
301.789
301.835
301.88
301.924
301.966
302.006
302.044
302.081
302.114
302.146
302.175
302.201
302.226
302.247
302.267
301.693
301.72
301.758
301.807
301.864
301.928
301.998
302.074
302.154
302.237
302.322
302.407
302.494
302.579
302.663
302.745
302.824
302.9
302.972
303.04
303.105
303.165
303.221
303.272
303.319
303.362
303.4
302.27
302.318
302.386
302.471
302.572
302.686
302.81
302.943
303.084
303.23
303.379
303.53
303.681
303.831
303.979
304.123
304.262
304.396
304.524
304.645
304.759
304.866
304.965
305.057
305.142
305.219
305.29
303.232
303.313
303.428
303.573
303.743
303.934
304.144
304.368
304.604
304.848
305.098
305.35
305.603
305.853
306.1
306.34
306.572
306.796
307.009
307.211
307.403
307.582
307.749
307.904
308.047
308.179
308.299
304.782
304.914
305.101
305.336
305.611
305.921
306.26
306.622
307.002
307.394
307.795
308.2
308.604
309.004
309.397
309.78
310.15
310.506
310.846
311.169
311.474
311.76
312.027
312.275
312.505
312.716
312.91
307.208
307.415
307.71
308.079
308.511
308.995
309.524
310.087
310.676
311.284
311.904
312.528
313.15
313.765
314.367
314.954
315.521
316.065
316.584
317.077
317.542
317.978
318.386
318.765
319.117
319.441
319.738
310.911
311.229
311.678
312.24
312.895
313.63
314.428
315.276
316.162
317.073
317.998
318.927
319.852
320.763
321.655
322.521
323.356
324.157
324.92
325.643
326.325
326.965
327.563
328.119
328.634
329.109
329.546
316.448
316.92
317.586
318.417
319.384
320.464
321.634
322.874
324.164
325.486
326.824
328.164
329.493
330.8
332.074
333.309
334.497
335.633
336.714
337.737
338.701
339.604
340.447
341.231
341.957
342.627
343.242
324.566
325.247
326.209
327.404
328.792
330.336
332.002
333.76
335.583
337.444
339.32
341.192
343.041
344.853
346.615
348.316
349.948
351.506
352.985
354.382
355.695
356.924
358.07
359.135
360.121
361.03
361.865
336.249
337.208
338.557
340.228
342.162
344.305
346.608
349.028
351.524
354.062
356.61
359.141
361.631
364.062
366.417
368.684
370.853
372.917
374.872
376.714
378.442
380.058
381.563
382.959
384.251
385.442
386.536
352.733
354.041
355.877
358.143
360.755
363.637
366.721
369.944
373.255
376.604
379.951
383.262
386.506
389.66
392.705
395.626
398.413
401.057
403.555
405.904
408.104
410.158
412.069
413.84
415.478
416.987
418.374
375.46
377.185
379.6
382.571
385.98
389.724
393.712
397.861
402.1
406.37
410.618
414.802
418.885
422.841
426.647
430.286
433.749
437.027
440.116
443.017
445.73
448.26
450.611
452.789
454.802
456.657
458.363
405.926
408.117
411.174
414.922
419.207
423.893
428.86
434.006
439.241
444.491
449.694
454.798
459.763
464.557
469.156
473.544
477.709
481.645
485.349
488.822
492.068
495.091
497.9
500.503
502.909
505.127
507.168
445.398
448.065
451.78
456.319
461.491
467.125
473.076
479.217
485.443
491.664
497.809
503.82
509.652
515.27
520.649
525.771
530.627
535.21
539.519
543.558
547.331
550.847
554.114
557.142
559.944
562.53
564.913
494.528
497.638
501.96
507.231
513.219
519.725
526.576
533.627
540.755
547.862
554.866
561.704
568.326
574.697
580.789
586.587
592.078
597.26
602.133
606.701
610.97
614.951
618.653
622.09
625.275
628.22
630.939
553.008
556.48
561.299
567.166
573.82
581.037
588.622
596.415
604.282
612.113
619.821
627.339
634.615
641.611
648.3
654.664
660.695
666.388
671.745
676.771
681.475
685.867
689.96
693.766
697.3
700.576
703.608
619.373
623.089
628.245
634.515
641.62
649.318
657.403
665.702
674.075
682.405
690.602
698.596
706.332
713.773
720.891
727.668
734.096
740.17
745.894
751.273
756.316
761.034
765.44
769.548
773.372
776.927
780.228
691.061
694.882
700.181
706.624
713.922
721.828
730.13
738.65
747.246
755.8
764.221
772.436
780.393
788.051
795.384
802.375
809.015
815.3
821.232
826.818
832.066
836.988
841.596
845.904
849.926
853.677
857.172
764.719
768.496
773.734
780.104
787.321
795.139
803.35
811.781
820.29
828.762
837.108
845.256
853.156
860.768
868.066
875.034
881.662
887.947
893.891
899.5
904.781
909.747
914.407
918.777
922.868
926.696
930.274
836.702
840.293
845.274
851.332
858.196
865.635
873.451
881.48
889.587
897.665
905.627
913.408
920.958
928.242
935.233
941.917
948.285
954.333
960.063
965.48
970.593
975.41
979.942
984.202
988.202
991.954
995.472
903.63
906.911
911.462
916.998
923.272
930.073
937.219
944.562
951.979
959.372
966.663
973.791
980.712
987.394
993.813
999.956
1005.82
1011.39
1016.67
1021.68
1026.41
1030.87
1035.08
1039.04
1042.77
1046.28
1049.58
962.871
965.748
969.738
974.592
980.092
986.052
992.315
998.749
1005.25
1011.73
1018.11
1024.35
1030.42
1036.27
1041.89
1047.28
1052.41
1057.3
1061.94
1066.33
1070.49
1074.42
1078.12
1081.62
1084.91
1088.01
1090.93
1012.84
1015.26
1018.61
1022.69
1027.3
1032.3
1037.55
1042.94
1048.38
1053.79
1059.13
1064.34
1069.39
1074.27
1078.95
1083.43
1087.7
1091.76
1095.62
1099.27
1102.72
1105.99
1109.07
1111.97
1114.71
1117.3
1119.73
1053.06
1055.01
1057.7
1060.98
1064.68
1068.69
1072.89
1077.2
1081.54
1085.85
1090.09
1094.23
1098.24
1102.09
1105.79
1109.32
1112.69
1115.88
1118.91
1121.77
1124.48
1127.03
1129.44
1131.71
1133.85
1135.87
1137.77
1084.04
1085.54
1087.61
1090.13
1092.97
1096.04
1099.25
1102.54
1105.84
1109.12
1112.33
1115.46
1118.48
1121.37
1124.15
1126.79
1129.3
1131.67
1133.92
1136.04
1138.04
1139.93
1141.7
1143.37
1144.94
1146.42
1147.81
1106.95
1108.06
1109.59
1111.44
1113.54
1115.79
1118.14
1120.54
1122.95
1125.32
1127.65
1129.9
1132.07
1134.15
1136.13
1138
1139.78
1141.46
1143.05
1144.54
1145.94
1147.25
1148.49
1149.65
1150.74
1151.76
1152.72
1123.33
1124.11
1125.2
1126.52
1128
1129.59
1131.24
1132.93
1134.61
1136.26
1137.88
1139.44
1140.93
1142.36
1143.71
1144.99
1146.19
1147.33
1148.39
1149.39
1150.33
1151.2
1152.02
1152.79
1153.5
1154.17
1154.8
1134.72
1135.26
1136.01
1136.91
1137.92
1139
1140.13
1141.27
1142.4
1143.51
1144.6
1145.63
1146.63
1147.57
1148.46
1149.3
1150.08
1150.82
1151.51
1152.15
1152.75
1153.31
1153.83
1154.31
1154.76
1155.18
1155.58
1142.49
1142.85
1143.34
1143.94
1144.61
1145.33
1146.07
1146.81
1147.55
1148.28
1148.98
1149.65
1150.29
1150.89
1151.45
1151.98
1152.48
1152.94
1153.36
1153.76
1154.13
1154.47
1154.79
1155.08
1155.35
1155.6
1155.84
1147.72
1147.95
1148.27
1148.65
1149.08
1149.54
1150.01
1150.48
1150.95
1151.41
1151.84
1152.26
1152.65
1153.02
1153.37
1153.69
1153.98
1154.26
1154.51
1154.75
1154.96
1155.16
1155.34
1155.51
1155.66
1155.8
1155.93
1151.21
1151.35
1151.55
1151.79
1152.05
1152.34
1152.62
1152.91
1153.19
1153.47
1153.73
1153.97
1154.2
1154.41
1154.61
1154.79
1154.96
1155.11
1155.25
1155.37
1155.49
1155.59
1155.68
1155.76
1155.84
1155.91
1155.97
1153.53
1153.62
1153.73
1153.87
1154.03
1154.19
1154.35
1154.52
1154.67
1154.83
1154.97
1155.1
1155.22
1155.33
1155.43
1155.52
1155.6
1155.67
1155.73
1155.78
1155.83
1155.87
1155.9
1155.93
1155.96
1155.98
1155.99
1155.07
1155.12
1155.18
1155.25
1155.33
1155.42
1155.5
1155.58
1155.65
1155.72
1155.79
1155.84
1155.89
1155.93
1155.97
1155.99
1156.02
1156.03
1156.04
1156.05
1156.05
1156.05
1156.05
1156.04
1156.03
1156.02
1156.01
1156.09
1156.11
1156.14
1156.17
1156.2
1156.23
1156.26
1156.28
1156.3
1156.32
1156.33
1156.33
1156.34
1156.33
1156.32
1156.31
1156.29
1156.27
1156.25
1156.23
1156.2
1156.17
1156.14
1156.11
1156.08
1156.05
1156.02
1156.77
1156.77
1156.77
1156.77
1156.77
1156.77
1156.76
1156.75
1156.73
1156.71
1156.69
1156.66
1156.63
1156.59
1156.56
1156.52
1156.48
1156.43
1156.39
1156.34
1156.3
1156.25
1156.2
1156.16
1156.11
1156.07
1156.02
1157.21
1157.2
1157.19
1157.17
1157.15
1157.12
1157.09
1157.05
1157.01
1156.97
1156.92
1156.87
1156.82
1156.77
1156.71
1156.65
1156.6
1156.54
1156.48
1156.42
1156.36
1156.3
1156.25
1156.19
1156.13
1156.08
1156.03
1157.51
1157.49
1157.46
1157.43
1157.4
1157.35
1157.31
1157.25
1157.2
1157.14
1157.08
1157.01
1156.95
1156.88
1156.81
1156.74
1156.67
1156.6
1156.54
1156.47
1156.4
1156.34
1156.27
1156.21
1156.15
1156.09
1156.03
1157.7
1157.67
1157.64
1157.6
1157.55
1157.5
1157.44
1157.38
1157.32
1157.25
1157.17
1157.1
1157.03
1156.95
1156.87
1156.8
1156.72
1156.65
1156.57
1156.5
1156.43
1156.36
1156.29
1156.22
1156.16
1156.09
1156.03
1157.81
1157.79
1157.75
1157.71
1157.66
1157.6
1157.53
1157.46
1157.39
1157.31
1157.24
1157.16
1157.08
1157
1156.91
1156.83
1156.75
1156.67
1156.6
1156.52
1156.44
1156.37
1156.3
1156.23
1156.16
1156.09
1156.03
1157.89
1157.86
1157.82
1157.77
1157.72
1157.65
1157.58
1157.51
1157.43
1157.35
1157.27
1157.19
1157.11
1157.02
1156.94
1156.85
1156.77
1156.69
1156.61
1156.53
1156.45
1156.38
1156.3
1156.23
1156.16
1156.1
1156.03
1157.93
1157.9
1157.86
1157.81
1157.75
1157.68
1157.61
1157.54
1157.46
1157.38
1157.29
1157.21
1157.12
1157.03
1156.95
1156.86
1156.78
1156.7
1156.61
1156.53
1156.46
1156.38
1156.31
1156.23
1156.16
1156.1
1156.03
1157.95
1157.92
1157.88
1157.83
1157.77
1157.7
1157.63
1157.55
1157.47
1157.38
1157.3
1157.21
1157.12
1157.04
1156.95
1156.87
1156.78
1156.7
1156.61
1156.53
1156.46
1156.38
1156.3
1156.23
1156.16
1156.09
1156.03
1157.95
1157.92
1157.88
1157.83
1157.77
1157.7
1157.63
1157.55
1157.47
1157.38
1157.3
1157.21
1157.12
1157.04
1156.95
1156.86
1156.78
1156.69
1156.61
1156.53
1156.45
1156.38
1156.3
1156.23
1156.16
1156.09
1156.03
1157.95
1157.92
1157.88
1157.82
1157.76
1157.69
1157.62
1157.54
1157.46
1157.38
1157.29
1157.2
1157.12
1157.03
1156.94
1156.86
1156.77
1156.69
1156.61
1156.53
1156.45
1156.37
1156.3
1156.23
1156.16
1156.09
1156.03
1157.94
1157.91
1157.86
1157.81
1157.75
1157.68
1157.61
1157.53
1157.45
1157.36
1157.28
1157.19
1157.11
1157.02
1156.93
1156.85
1156.76
1156.68
1156.6
1156.52
1156.44
1156.37
1156.29
1156.22
1156.15
1156.09
1156.02
1157.92
1157.89
1157.84
1157.79
1157.73
1157.66
1157.59
1157.51
1157.43
1157.35
1157.26
1157.18
1157.09
1157.01
1156.92
1156.84
1156.75
1156.67
1156.59
1156.51
1156.43
1156.36
1156.29
1156.22
1156.15
1156.08
1156.02
1157.89
1157.86
1157.82
1157.77
1157.71
1157.64
1157.57
1157.49
1157.41
1157.33
1157.25
1157.16
1157.08
1156.99
1156.91
1156.82
1156.74
1156.66
1156.58
1156.5
1156.42
1156.35
1156.28
1156.21
1156.14
1156.08
1156.01
1157.87
1157.84
1157.8
1157.75
1157.69
1157.62
1157.55
1157.47
1157.39
1157.31
1157.23
1157.14
1157.06
1156.97
1156.89
1156.81
1156.72
1156.64
1156.57
1156.49
1156.41
1156.34
1156.27
1156.2
1156.13
1156.07
1156.01
1157.84
1157.81
1157.77
1157.72
1157.66
1157.59
1157.52
1157.45
1157.37
1157.29
1157.2
1157.12
1157.04
1156.95
1156.87
1156.79
1156.71
1156.63
1156.55
1156.47
1156.4
1156.33
1156.26
1156.19
1156.12
1156.06
1156
1157.81
1157.78
1157.74
1157.69
1157.63
1157.56
1157.49
1157.42
1157.34
1157.26
1157.18
1157.09
1157.01
1156.93
1156.85
1156.77
1156.69
1156.61
1156.53
1156.45
1156.38
1156.31
1156.24
1156.17
1156.11
1156.04
1155.98
1157.77
1157.74
1157.7
1157.65
1157.59
1157.53
1157.46
1157.38
1157.31
1157.23
1157.15
1157.07
1156.98
1156.9
1156.82
1156.74
1156.66
1156.58
1156.51
1156.43
1156.36
1156.29
1156.22
1156.15
1156.09
1156.03
1155.97
1157.73
1157.7
1157.66
1157.61
1157.55
1157.49
1157.42
1157.35
1157.27
1157.19
1157.11
1157.03
1156.95
1156.87
1156.79
1156.71
1156.63
1156.55
1156.48
1156.4
1156.33
1156.26
1156.2
1156.13
1156.07
1156
1155.95
1157.68
1157.65
1157.61
1157.57
1157.51
1157.44
1157.38
1157.3
1157.23
1157.15
1157.07
1156.99
1156.91
1156.83
1156.75
1156.67
1156.59
1156.52
1156.44
1156.37
1156.3
1156.23
1156.16
1156.1
1156.04
1155.97
1155.92
1157.63
1157.6
1157.56
1157.51
1157.46
1157.39
1157.32
1157.25
1157.18
1157.1
1157.02
1156.94
1156.86
1156.78
1156.7
1156.63
1156.55
1156.47
1156.4
1156.33
1156.26
1156.19
1156.12
1156.06
1156
1155.94
1155.88
1157.57
1157.54
1157.5
1157.45
1157.39
1157.33
1157.26
1157.19
1157.12
1157.04
1156.96
1156.88
1156.8
1156.72
1156.65
1156.57
1156.49
1156.42
1156.34
1156.27
1156.2
1156.14
1156.07
1156.01
1155.94
1155.88
1155.83
1157.49
1157.47
1157.43
1157.38
1157.32
1157.26
1157.19
1157.12
1157.04
1156.97
1156.89
1156.81
1156.73
1156.65
1156.58
1156.5
1156.42
1156.35
1156.28
1156.2
1156.13
1156.07
1156
1155.94
1155.88
1155.82
1155.76
1157.4
1157.38
1157.34
1157.29
1157.23
1157.17
1157.1
1157.03
1156.95
1156.88
1156.8
1156.72
1156.64
1156.56
1156.49
1156.41
1156.33
1156.26
1156.19
1156.12
1156.05
1155.98
1155.92
1155.85
1155.79
1155.73
1155.68
1157.3
1157.27
1157.23
1157.18
1157.12
1157.06
1156.99
1156.92
1156.84
1156.77
1156.69
1156.61
1156.53
1156.45
1156.37
1156.3
1156.22
1156.15
1156.08
1156
1155.94
1155.87
1155.8
1155.74
1155.68
1155.62
1155.57
1157.17
1157.14
1157.1
1157.05
1156.99
1156.93
1156.86
1156.78
1156.71
1156.63
1156.55
1156.47
1156.39
1156.31
1156.23
1156.16
1156.08
1156.01
1155.93
1155.86
1155.79
1155.73
1155.66
1155.6
1155.54
1155.48
1155.42
1157
1156.97
1156.93
1156.88
1156.82
1156.76
1156.69
1156.61
1156.54
1156.46
1156.38
1156.3
1156.22
1156.14
1156.06
1155.98
1155.9
1155.83
1155.75
1155.68
1155.61
1155.54
1155.48
1155.42
1155.36
1155.3
1155.24
1156.8
1156.77
1156.73
1156.68
1156.62
1156.55
1156.48
1156.4
1156.32
1156.24
1156.16
1156.08
1155.99
1155.91
1155.83
1155.75
1155.67
1155.6
1155.52
1155.45
1155.38
1155.31
1155.25
1155.18
1155.12
1155.06
1155.01
1156.55
1156.52
1156.47
1156.42
1156.36
1156.29
1156.21
1156.14
1156.05
1155.97
1155.89
1155.8
1155.72
1155.63
1155.55
1155.47
1155.39
1155.31
1155.23
1155.16
1155.09
1155.02
1154.95
1154.89
1154.82
1154.76
1154.71
1156.24
1156.2
1156.16
1156.1
1156.04
1155.96
1155.88
1155.8
1155.72
1155.63
1155.54
1155.45
1155.36
1155.28
1155.19
1155.11
1155.02
1154.94
1154.86
1154.79
1154.71
1154.64
1154.57
1154.51
1154.44
1154.38
1154.33
1155.84
1155.81
1155.76
1155.7
1155.63
1155.55
1155.47
1155.38
1155.29
1155.2
1155.11
1155.02
1154.92
1154.83
1154.74
1154.65
1154.56
1154.48
1154.4
1154.32
1154.24
1154.17
1154.1
1154.03
1153.96
1153.9
1153.84
1155.35
1155.32
1155.26
1155.2
1155.13
1155.04
1154.95
1154.86
1154.76
1154.67
1154.57
1154.47
1154.37
1154.27
1154.17
1154.08
1153.99
1153.9
1153.81
1153.73
1153.65
1153.57
1153.5
1153.43
1153.36
1153.29
1153.23
1154.74
1154.7
1154.65
1154.57
1154.49
1154.4
1154.31
1154.2
1154.1
1153.99
1153.89
1153.78
1153.67
1153.57
1153.46
1153.36
1153.26
1153.17
1153.08
1152.99
1152.9
1152.82
1152.74
1152.67
1152.6
1152.53
1152.46
1153.98
1153.94
1153.87
1153.79
1153.7
1153.61
1153.5
1153.39
1153.27
1153.15
1153.04
1152.92
1152.8
1152.69
1152.57
1152.46
1152.36
1152.25
1152.15
1152.06
1151.97
1151.88
1151.8
1151.72
1151.64
1151.57
1151.5
1153.03
1152.98
1152.91
1152.82
1152.72
1152.61
1152.49
1152.37
1152.24
1152.11
1151.98
1151.84
1151.71
1151.59
1151.46
1151.34
1151.22
1151.11
1151
1150.9
1150.8
1150.7
1150.61
1150.53
1150.45
1150.37
1150.29
1151.85
1151.8
1151.72
1151.62
1151.5
1151.38
1151.24
1151.1
1150.95
1150.81
1150.66
1150.51
1150.36
1150.22
1150.08
1149.95
1149.82
1149.69
1149.57
1149.45
1149.34
1149.24
1149.14
1149.04
1148.95
1148.87
1148.79
1150.39
1150.33
1150.23
1150.12
1149.99
1149.84
1149.69
1149.53
1149.36
1149.19
1149.02
1148.85
1148.69
1148.53
1148.37
1148.21
1148.07
1147.92
1147.79
1147.66
1147.54
1147.42
1147.31
1147.2
1147.1
1147.01
1146.92
1148.59
1148.51
1148.4
1148.27
1148.12
1147.95
1147.77
1147.58
1147.39
1147.2
1147
1146.81
1146.61
1146.43
1146.25
1146.07
1145.9
1145.74
1145.59
1145.44
1145.3
1145.17
1145.04
1144.92
1144.81
1144.71
1144.61
1146.36
1146.27
1146.15
1145.99
1145.81
1145.62
1145.41
1145.19
1144.96
1144.74
1144.51
1144.28
1144.06
1143.84
1143.63
1143.43
1143.23
1143.05
1142.87
1142.7
1142.54
1142.39
1142.24
1142.11
1141.98
1141.86
1141.75
1143.63
1143.53
1143.38
1143.19
1142.98
1142.75
1142.5
1142.25
1141.98
1141.71
1141.45
1141.18
1140.92
1140.67
1140.42
1140.18
1139.95
1139.74
1139.53
1139.33
1139.14
1138.97
1138.8
1138.65
1138.5
1138.37
1138.24
1140.29
1140.16
1139.99
1139.77
1139.52
1139.24
1138.95
1138.64
1138.33
1138.01
1137.7
1137.38
1137.08
1136.78
1136.49
1136.21
1135.94
1135.68
1135.44
1135.21
1134.99
1134.78
1134.59
1134.41
1134.24
1134.08
1133.93
1136.21
1136.06
1135.85
1135.59
1135.29
1134.97
1134.62
1134.25
1133.88
1133.5
1133.13
1132.75
1132.39
1132.03
1131.69
1131.35
1131.04
1130.73
1130.45
1130.17
1129.91
1129.67
1129.45
1129.23
1129.03
1128.85
1128.68
1131.26
1131.08
1130.83
1130.52
1130.16
1129.77
1129.35
1128.92
1128.47
1128.02
1127.57
1127.13
1126.69
1126.27
1125.86
1125.46
1125.08
1124.72
1124.38
1124.05
1123.75
1123.46
1123.19
1122.94
1122.71
1122.49
1122.28
1125.27
1125.06
1124.76
1124.38
1123.96
1123.49
1122.99
1122.47
1121.94
1121.4
1120.86
1120.33
1119.8
1119.3
1118.8
1118.33
1117.88
1117.45
1117.04
1116.65
1116.29
1115.94
1115.62
1115.32
1115.04
1114.78
1114.54
1118.07
1117.81
1117.45
1117
1116.49
1115.93
1115.33
1114.71
1114.07
1113.42
1112.78
1112.14
1111.51
1110.9
1110.31
1109.75
1109.2
1108.69
1108.2
1107.73
1107.29
1106.88
1106.5
1106.14
1105.81
1105.49
1105.21
1109.44
1109.13
1108.7
1108.16
1107.55
1106.88
1106.16
1105.41
1104.64
1103.87
1103.09
1102.33
1101.58
1100.85
1100.14
1099.46
1098.81
1098.19
1097.6
1097.04
1096.52
1096.02
1095.56
1095.13
1094.73
1094.35
1094.01
1099.16
1098.79
1098.27
1097.64
1096.9
1096.1
1095.24
1094.34
1093.42
1092.49
1091.57
1090.65
1089.75
1088.87
1088.02
1087.2
1086.42
1085.67
1084.97
1084.3
1083.66
1083.07
1082.52
1082
1081.51
1081.06
1080.64
1087.01
1086.56
1085.94
1085.18
1084.31
1083.34
1082.32
1081.24
1080.14
1079.03
1077.92
1076.82
1075.74
1074.69
1073.67
1072.69
1071.75
1070.85
1070
1069.2
1068.44
1067.72
1067.05
1066.43
1065.84
1065.3
1064.79
1072.72
1072.19
1071.45
1070.55
1069.5
1068.35
1067.13
1065.85
1064.54
1063.21
1061.88
1060.57
1059.28
1058.02
1056.8
1055.62
1054.49
1053.42
1052.4
1051.43
1050.51
1049.65
1048.85
1048.09
1047.39
1046.73
1046.12
1056.05
1055.43
1054.55
1053.48
1052.24
1050.88
1049.42
1047.9
1046.34
1044.76
1043.18
1041.61
1040.07
1038.57
1037.11
1035.71
1034.36
1033.07
1031.84
1030.68
1029.58
1028.55
1027.58
1026.67
1025.82
1025.03
1024.29
1036.78
1036.04
1035.01
1033.74
1032.28
1030.67
1028.95
1027.16
1025.31
1023.44
1021.57
1019.71
1017.88
1016.1
1014.37
1012.7
1011.09
1009.56
1008.1
1006.71
1005.4
1004.16
1003
1001.91
1000.9
999.856
998.971
1014.7
1013.83
1012.62
1011.13
1009.42
1007.53
1005.51
1003.39
1001.22
998.923
996.713
994.518
992.357
990.244
988.191
986.207
984.3
982.474
980.733
979.079
977.514
976.036
974.645
973.339
972.116
970.973
969.907
989.552
988.547
987.136
985.397
983.395
981.187
978.824
976.35
973.806
971.223
968.631
966.055
963.516
961.03
958.612
956.272
954.02
951.861
949.799
947.839
945.98
944.223
942.566
941.009
939.549
938.181
936.904
961.45
960.288
958.658
956.647
954.33
951.773
949.035
946.166
943.212
940.21
937.195
934.195
931.233
928.331
925.503
922.764
920.123
917.588
915.165
912.857
910.665
908.59
906.631
904.786
903.053
901.428
899.908
930.336
929.006
927.141
924.838
922.183
919.251
916.109
912.813
909.415
905.959
902.484
899.021
895.599
892.241
888.965
885.787
882.718
879.768
876.944
874.249
871.687
869.257
866.959
864.792
862.753
860.837
859.042
896.369
894.865
892.753
890.146
887.138
883.814
880.247
876.503
872.639
868.704
864.743
860.791
856.88
853.036
849.281
845.633
842.106
838.71
835.453
832.341
829.376
826.56
823.893
821.373
818.997
816.762
814.663
859.854
858.175
855.816
852.902
849.537
845.816
841.821
837.622
833.285
828.863
824.406
819.954
815.542
811.2
806.952
802.819
798.816
794.956
791.249
787.7
784.314
781.092
778.035
775.142
772.41
769.835
767.412
821.256
819.408
816.811
813.602
809.894
805.79
801.38
796.743
791.946
787.052
782.112
777.172
772.271
767.44
762.708
758.097
753.624
749.304
745.148
741.164
737.356
733.727
730.278
727.007
723.913
720.992
718.239
781.191
779.191
776.379
772.902
768.884
764.434
759.648
754.611
749.398
744.073
738.694
733.308
727.958
722.679
717.501
712.448
707.54
702.793
698.22
693.828
689.624
685.611
681.791
678.163
674.725
671.473
668.404
740.409
738.282
735.293
731.595
727.32
722.584
717.488
712.121
706.564
700.883
695.139
689.384
683.661
678.009
672.459
667.038
661.765
656.66
651.734
646.998
642.457
638.118
633.98
630.044
626.309
622.771
619.425
699.75
697.533
694.417
690.563
686.106
681.168
675.853
670.256
664.456
658.527
652.529
646.516
640.534
634.622
628.813
623.133
617.606
612.248
607.075
602.095
597.316
592.742
588.377
584.219
580.268
576.521
572.973
660.09
657.828
654.649
650.717
646.172
641.136
635.718
630.012
624.102
618.06
611.948
605.821
599.726
593.701
587.78
581.99
576.353
570.888
565.607
560.521
555.638
550.962
546.494
542.236
538.186
534.34
530.696
622.276
620.019
616.848
612.928
608.4
603.386
597.995
592.322
586.45
580.45
574.387
568.313
562.274
556.308
550.448
544.721
539.148
533.745
528.526
523.501
518.676
514.056
509.641
505.431
501.426
497.621
494.012
587.06
584.86
581.772
577.958
573.556
568.688
563.461
557.967
552.289
546.496
540.651
534.803
528.999
523.273
517.657
512.175
506.848
501.689
496.712
491.925
487.331
482.936
478.738
474.738
470.933
467.319
463.892
555.042
552.951
550.018
546.399
542.229
537.626
532.692
527.518
522.182
516.752
511.285
505.83
500.427
495.111
489.91
484.844
479.933
475.188
470.618
466.231
462.03
458.016
454.189
450.546
447.084
443.799
440.686
526.631
524.693
521.977
518.633
514.788
510.553
506.026
501.292
496.426
491.489
486.535
481.608
476.746
471.978
467.328
462.815
458.453
454.253
450.22
446.36
442.672
439.158
435.815
432.639
429.627
426.773
424.072
502.026
500.276
497.827
494.819
491.369
487.58
483.544
479.34
475.033
470.682
466.334
462.028
457.796
453.665
449.654
445.777
442.045
438.465
435.042
431.777
428.669
425.716
422.915
420.262
417.751
415.377
413.135
481.214
479.674
477.525
474.89
471.878
468.582
465.084
461.456
457.756
454.036
450.336
446.69
443.125
439.661
436.315
433.096
430.013
427.068
424.265
421.602
419.077
416.687
414.427
412.293
410.279
408.38
406.59
463.993
462.672
460.833
458.585
456.023
453.231
450.281
447.234
444.143
441.05
437.989
434.99
432.072
429.252
426.542
423.948
421.475
419.125
416.898
414.791
412.801
410.925
409.157
407.493
405.927
404.454
403.068
450.019
448.913
447.377
445.503
443.377
441.068
438.639
436.142
433.62
431.11
428.639
426.229
423.898
421.656
419.512
417.47
415.532
413.699
411.968
410.338
408.804
407.363
406.009
404.738
403.546
402.426
401.376
438.864
437.958
436.7
435.172
433.442
431.571
429.611
427.605
425.588
423.589
421.631
419.731
417.9
416.148
414.479
412.897
411.401
409.992
408.666
407.421
406.254
405.16
404.135
403.175
402.276
401.435
400.646
430.073
429.342
428.331
427.105
425.721
424.229
422.672
421.084
419.494
417.925
416.393
414.913
413.492
412.136
410.85
409.635
408.49
407.414
406.405
405.459
404.575
403.747
402.974
402.251
401.575
400.943
400.351
423.209
422.628
421.825
420.854
419.761
418.586
417.362
416.119
414.877
413.656
412.468
411.322
410.226
409.184
408.197
407.267
406.392
405.572
404.805
404.087
403.416
402.79
402.205
401.659
401.149
400.673
400.227
417.884
417.426
416.795
416.033
415.177
414.259
413.305
412.337
411.374
410.429
409.511
408.628
407.785
406.985
406.228
405.517
404.849
404.223
403.638
403.092
402.582
402.107
401.663
401.249
400.862
400.501
400.164
413.771
413.414
412.921
412.327
411.66
410.946
410.206
409.457
408.712
407.981
407.274
406.594
405.946
405.332
404.753
404.207
403.696
403.218
402.772
402.355
401.966
401.603
401.265
400.949
400.655
400.38
400.123
410.615
410.337
409.953
409.492
408.974
408.42
407.847
407.267
406.692
406.128
405.583
405.059
404.561
404.088
403.643
403.225
402.832
402.465
402.123
401.803
401.505
401.227
400.968
400.727
400.501
400.291
400.094
408.244
408.027
407.729
407.369
406.967
406.536
406.091
405.64
405.193
404.756
404.333
403.927
403.54
403.174
402.828
402.503
402.199
401.914
401.649
401.4
401.169
400.953
400.752
400.564
400.389
400.226
400.073
406.682
406.508
406.269
405.98
405.656
405.31
404.952
404.59
404.229
403.877
403.535
403.206
402.893
402.596
402.315
402.051
401.803
401.571
401.354
401.151
400.961
400.784
400.619
400.465
400.32
400.186
400.06
301
301
301
301.002
301.005
301.014
301.034
301.08
301.174
301.353
301.68
302.247
303.193
304.718
307.107
310.757
316.219
324.234
335.781
352.093
374.615
404.852
444.087
492.999
551.299
617.543
689.179
762.859
834.934
902.015
961.454
1011.65
1052.1
1083.3
1106.4
1122.94
1134.45
1142.31
1147.6
1151.14
1153.49
1155.05
1156.08
1156.77
1157.22
1157.51
1157.71
1157.83
1157.9
1157.94
1157.96
1157.97
1157.96
1157.95
1157.93
1157.91
1157.88
1157.85
1157.82
1157.78
1157.74
1157.7
1157.64
1157.58
1157.51
1157.42
1157.31
1157.18
1157.02
1156.82
1156.56
1156.25
1155.86
1155.37
1154.76
1154
1153.06
1151.88
1150.43
1148.63
1146.41
1143.68
1140.35
1136.29
1131.35
1125.38
1118.19
1109.59
1099.35
1087.22
1072.97
1056.36
1037.14
1015.12
990.044
962.018
930.986
897.104
860.675
822.159
782.169
741.448
700.833
661.195
623.378
588.134
556.064
527.58
502.884
481.969
464.642
450.563
439.311
430.433
423.496
418.109
413.948
410.752
408.351
406.768
)
;

boundaryField
{
    outlet
    {
        type            inletOutlet;
        inletValue      uniform 301;
        value           nonuniform List<scalar> 
28
(
406.682
406.508
406.269
405.98
405.656
405.31
404.952
404.59
404.229
403.877
403.535
403.206
402.893
402.596
402.315
402.051
401.803
401.571
401.354
401.151
400.961
400.784
400.619
400.465
400.32
400.186
400.06
406.768
)
;
    }
    inlet
    {
        type            fixedValue;
        value           uniform 301;
    }
    front
    {
        type            wedge;
    }
    wall
    {
        type            codedFixedValue;
        value           nonuniform List<scalar> 
120
(
301
301
301
301.002
301.011
301.039
301.113
301.281
301.626
302.276
303.418
305.322
308.355
313
319.877
329.75
343.531
362.257
387.05
419.025
459.163
508.127
566.034
632.221
705.043
781.794
858.836
931.984
997.158
1051.16
1092.34
1120.9
1138.68
1148.48
1153.18
1155.1
1155.76
1155.95
1155.99
1156
1156
1156
1156
1156
1156
1156
1156
1156
1156
1156
1156
1156
1155.99
1155.99
1155.99
1155.98
1155.98
1155.97
1155.95
1155.94
1155.92
1155.89
1155.85
1155.8
1155.73
1155.65
1155.54
1155.4
1155.21
1154.98
1154.68
1154.3
1153.81
1153.2
1152.43
1151.47
1150.26
1148.75
1146.88
1144.56
1141.7
1138.18
1133.86
1128.6
1122.19
1114.43
1105.07
1093.84
1080.45
1064.56
1045.83
1023.94
998.551
969.399
936.295
899.182
858.183
813.657
766.249
716.915
666.925
617.811
571.258
528.932
492.265
462.232
439.179
422.766
412.052
405.727
402.401
400.871
400.267
400.068
400.014
400.002
400
400
400
400
)
;
        name            wall_temperature_bc;
        code            #{
            double T_sp = 0.985507 * 1173.00;
            double a1 = 0.131360276011, m1 = 6.396870587401;
            double a2 = 0.501378719714, m2 = 18.019474815463;

            vector axisX = vector(1, 0, 0);
            scalarField x = (patch().Cf() & axisX);

            scalarField u = Foam::pow(x / a1, m1);
            scalarField d = Foam::pow(x / a2, m2);

            scalarField Tu = (T_sp - 301.0) * (1 - Foam::exp(-u));
            scalarField Td = (T_sp - 400.0) * (1 - Foam::exp(-d));

            scalarField Tval = 301 + Tu - Td;
            operator==(Tval);
        #};
    }
    back
    {
        type            wedge;
    }
}


// ************************************************************************* //
