/*--------------------------------*- C++ -*----------------------------------*\
| =========                 |                                                 |
| \\      /  F ield         | OpenFOAM: The Open Source CFD Toolbox           |
|  \\    /   O peration     | Version:  2106                                  |
|   \\  /    A nd           | Website:  www.openfoam.com                      |
|    \\/     M anipulation  |                                                 |
\*---------------------------------------------------------------------------*/
FoamFile
{
    version     2.0;
    format      ascii;
    arch        "LSB;label=32;scalar=64";
    class       volVectorField;
    location    "110.00000";
    object      U;
}
// * * * * * * * * * * * * * * * * * * * * * * * * * * * * * * * * * * * * * //

dimensions      [0 1 -1 0 0 0 0];

internalField   nonuniform List<vector> 
3360
(
(0.268958 -0.0115315 -4.46647e-12)
(0.269686 -0.0179862 -6.28278e-12)
(0.270653 -0.0245718 -6.52283e-12)
(0.271771 -0.0308051 -4.64805e-12)
(0.272923 -0.0367229 -1.41886e-13)
(0.273988 -0.0422812 6.32355e-12)
(0.274837 -0.0474335 1.46855e-11)
(0.275333 -0.0521324 2.46374e-11)
(0.275341 -0.0563523 3.6732e-11)
(0.274628 -0.0599126 5.16553e-11)
(0.272495 -0.0629451 2.48628e-11)
(0.269001 -0.0652737 4.62099e-12)
(0.264139 -0.0668843 -1.38485e-11)
(0.25787 -0.0677394 -4.0891e-12)
(0.250135 -0.067808 1.84974e-12)
(0.240861 -0.0670654 6.03869e-12)
(0.229975 -0.0654928 9.17587e-12)
(0.217401 -0.063079 1.16955e-11)
(0.203066 -0.0598197 1.38312e-11)
(0.186901 -0.0557186 1.56543e-11)
(0.168837 -0.0507867 1.79056e-11)
(0.148811 -0.0450371 1.38522e-11)
(0.126759 -0.0385142 1.07654e-11)
(0.102579 -0.0312152 7.98417e-12)
(0.0762351 -0.0232054 5.47163e-12)
(0.0476859 -0.0144868 3.16567e-12)
(0.0168791 -0.00486915 1.01978e-12)
(0.338588 -0.0079437 8.33578e-11)
(0.338366 -0.0120771 1.39158e-10)
(0.337836 -0.0160741 1.98756e-10)
(0.3368 -0.0195194 2.50071e-10)
(0.335058 -0.0224127 2.38268e-10)
(0.332417 -0.0247179 2.38647e-10)
(0.328699 -0.0264206 1.80852e-10)
(0.323754 -0.027516 1.45453e-10)
(0.317457 -0.027989 1.22588e-10)
(0.309815 -0.027984 1.07449e-10)
(0.301289 -0.0273807 9.78363e-11)
(0.291595 -0.0263536 9.31834e-11)
(0.280688 -0.0249608 9.26486e-11)
(0.268523 -0.0232454 9.58065e-11)
(0.255047 -0.0212702 1.00386e-10)
(0.240238 -0.0191009 8.84502e-11)
(0.224107 -0.0168038 7.85378e-11)
(0.206699 -0.0144461 7.09716e-11)
(0.188093 -0.012093 6.5051e-11)
(0.168405 -0.00980767 6.05195e-11)
(0.147773 -0.00764903 5.76437e-11)
(0.126335 -0.00567569 4.89255e-11)
(0.104231 -0.00391508 4.17942e-11)
(0.0816418 -0.00244438 3.5474e-11)
(0.058682 -0.00127861 3.00666e-11)
(0.0354578 -0.000465246 1.97401e-11)
(0.0120655 -3.99504e-05 6.47927e-12)
(0.381467 -0.00627183 3.6128e-11)
(0.378788 -0.00958441 5.09659e-11)
(0.374784 -0.0126236 5.66474e-11)
(0.369428 -0.0150871 6.14549e-11)
(0.362683 -0.0169891 9.47598e-11)
(0.354522 -0.0183284 1.21837e-10)
(0.344943 -0.0191315 1.36811e-10)
(0.333985 -0.0194451 1.4421e-10)
(0.321708 -0.0193258 1.51119e-10)
(0.308185 -0.018831 1.16185e-10)
(0.29349 -0.0180087 1.21738e-10)
(0.277757 -0.0169278 1.26214e-10)
(0.261024 -0.0156154 1.32656e-10)
(0.243414 -0.0141441 1.41442e-10)
(0.225115 -0.0125685 1.52624e-10)
(0.206325 -0.010942 1.39966e-10)
(0.187236 -0.00931702 1.10214e-10)
(0.168025 -0.00773857 8.61186e-11)
(0.14885 -0.00624765 6.45434e-11)
(0.129831 -0.00487677 5.16265e-11)
(0.111066 -0.00365154 3.89521e-11)
(0.0926419 -0.00259067 3.49502e-11)
(0.0746343 -0.00170667 3.10116e-11)
(0.0571035 -0.00100557 2.76081e-11)
(0.0400972 -0.000488707 1.87507e-11)
(0.0236528 -0.000158788 1.08276e-11)
(0.00779837 -4.52134e-06 3.4923e-12)
(0.421215 -0.00302091 -1.69313e-10)
(0.41667 -0.00445687 -2.85558e-10)
(0.410094 -0.00576131 -4.28865e-10)
(0.401638 -0.00675699 -3.23087e-10)
(0.39143 -0.0074689 -2.67495e-10)
(0.379589 -0.00786676 -2.06145e-10)
(0.366317 -0.00802832 -1.67855e-10)
(0.351766 -0.00794626 -1.55812e-10)
(0.336084 -0.00766651 -1.22931e-10)
(0.319441 -0.0072344 -6.57689e-11)
(0.30204 -0.0066798 -2.74686e-11)
(0.28403 -0.0060411 -1.4213e-12)
(0.265531 -0.0053544 1.63834e-11)
(0.246655 -0.00465471 2.82866e-11)
(0.227513 -0.00397063 3.56485e-11)
(0.208216 -0.00332323 3.90976e-11)
(0.188868 -0.00272531 3.93701e-11)
(0.169562 -0.00218675 2.57995e-11)
(0.150382 -0.00171138 1.10555e-11)
(0.131399 -0.00130029 3.82404e-12)
(0.112674 -0.000952653 2.8189e-12)
(0.0942608 -0.00066612 8.26305e-12)
(0.0762015 -0.00043715 6.07629e-12)
(0.0585319 -0.000261326 4.59819e-12)
(0.0412809 -0.000133517 3.30516e-12)
(0.0244713 -4.87494e-05 1.99439e-12)
(0.0081212 -6.10628e-06 6.60535e-13)
(0.425455 -0.00149304 1.07917e-10)
(0.420003 -0.0022825 2.53254e-11)
(0.412193 -0.00294373 -1.04168e-11)
(0.402292 -0.0034172 -1.00674e-11)
(0.390529 -0.00370593 8.68104e-12)
(0.377123 -0.00387365 3.7768e-11)
(0.362276 -0.00388689 7.49128e-11)
(0.346208 -0.00380401 9.91069e-11)
(0.329123 -0.00363635 8.5859e-11)
(0.311213 -0.00340592 8.57562e-11)
(0.292663 -0.00313049 9.26022e-11)
(0.273646 -0.00282462 7.61218e-11)
(0.25432 -0.00250176 6.50954e-11)
(0.234828 -0.00217446 5.61974e-11)
(0.215302 -0.0018536 4.93721e-11)
(0.195857 -0.00154797 4.42564e-11)
(0.176593 -0.00126412 4.04094e-11)
(0.157599 -0.00100661 3.74226e-11)
(0.138946 -0.000778264 3.52233e-11)
(0.120697 -0.000580522 3.3751e-11)
(0.1029 -0.000413704 3.26772e-11)
(0.0855931 -0.000277284 3.16395e-11)
(0.0688064 -0.000170097 2.25929e-11)
(0.0525601 -9.05163e-05 1.57658e-11)
(0.0368674 -3.67769e-05 1.04278e-11)
(0.0217355 -7.55041e-06 5.95454e-12)
(0.00716593 2.49817e-06 1.90919e-12)
(0.438828 -0.000768778 1.76376e-11)
(0.432557 -0.00108427 1.81083e-11)
(0.423698 -0.00135655 1.9735e-11)
(0.412667 -0.00153644 2.52723e-11)
(0.399822 -0.0016344 3.41506e-11)
(0.385472 -0.00165691 4.45594e-11)
(0.369822 -0.00162028 5.41698e-11)
(0.353084 -0.00153786 6.11928e-11)
(0.33546 -0.00142257 6.64218e-11)
(0.317137 -0.0012864 7.17968e-11)
(0.298289 -0.00113953 7.27807e-11)
(0.279072 -0.000990257 5.3698e-11)
(0.259623 -0.000845021 3.30096e-11)
(0.240064 -0.000708534 1.46823e-11)
(0.220502 -0.000583956 -1.94699e-12)
(0.201027 -0.000473115 -1.67287e-11)
(0.181717 -0.000376744 -1.50814e-11)
(0.162637 -0.000294719 -1.28876e-11)
(0.143841 -0.00022629 -1.1665e-11)
(0.125374 -0.000170282 -4.15819e-12)
(0.107273 -0.000125261 2.85875e-12)
(0.089569 -8.9678e-05 3.97732e-12)
(0.0722846 -6.19696e-05 5.64709e-12)
(0.055439 -4.06334e-05 7.21432e-12)
(0.0390468 -2.41557e-05 8.97142e-12)
(0.0231186 -1.10372e-05 4.94685e-12)
(0.00766208 -2.77061e-06 1.53776e-12)
(0.437718 -0.000363151 1.89762e-11)
(0.431223 -0.000582237 2.85929e-11)
(0.422048 -0.000768035 3.50845e-11)
(0.410618 -0.000908537 4.22221e-11)
(0.397295 -0.00100512 4.88372e-11)
(0.382392 -0.00105719 4.70456e-11)
(0.366182 -0.00106832 1.95114e-11)
(0.348912 -0.00104567 -1.24616e-11)
(0.330804 -0.000996814 -4.87892e-11)
(0.312056 -0.000928933 -4.92555e-11)
(0.292849 -0.000848366 -5.74181e-11)
(0.273341 -0.000760455 -6.87322e-11)
(0.253674 -0.000669537 -8.12704e-11)
(0.233972 -0.000579027 -9.39562e-11)
(0.214344 -0.000491528 -9.01588e-11)
(0.194882 -0.000408967 -8.77128e-11)
(0.175666 -0.000332711 -8.70335e-11)
(0.156765 -0.000263686 -8.83568e-11)
(0.138233 -0.000202474 -8.11137e-11)
(0.120117 -0.000149387 -6.66317e-11)
(0.102455 -0.000104536 -5.49645e-11)
(0.0852754 -6.78754e-05 -3.79614e-11)
(0.0685998 -3.92372e-05 -3.03371e-11)
(0.0524439 -1.8353e-05 -2.3089e-11)
(0.0368177 -4.97318e-06 -1.60665e-11)
(0.0217266 9.52265e-07 -9.35697e-12)
(0.00717162 1.7051e-06 -3.01932e-12)
(0.442371 -0.000159883 1.37397e-10)
(0.435779 -0.000207858 2.63187e-10)
(0.426477 -0.000254106 9.7736e-11)
(0.414907 -0.000283886 2.54343e-12)
(0.401442 -0.000298296 -8.05144e-11)
(0.386408 -0.000298244 -1.70776e-10)
(0.37009 -0.000286026 -1.88818e-10)
(0.352742 -0.000264643 -1.93211e-10)
(0.334586 -0.000237215 -2.09226e-10)
(0.315822 -0.000206616 -2.0168e-10)
(0.296621 -0.000175265 -1.70113e-10)
(0.277137 -0.000145043 -1.49921e-10)
(0.2575 -0.000117285 -1.34032e-10)
(0.237825 -9.28327e-05 -1.20101e-10)
(0.218208 -7.21027e-05 -1.07082e-10)
(0.198734 -5.51709e-05 -9.59188e-11)
(0.179473 -4.18535e-05 -1.02434e-10)
(0.160483 -3.17819e-05 -1.09777e-10)
(0.141813 -2.44677e-05 -1.06948e-10)
(0.123504 -1.9357e-05 -9.58808e-11)
(0.105588 -1.58736e-05 -8.68411e-11)
(0.0880936 -1.34529e-05 -7.11813e-11)
(0.0710402 -1.15707e-05 -5.75686e-11)
(0.0544446 -9.75812e-06 -3.95252e-11)
(0.0383187 -7.53393e-06 -2.61593e-11)
(0.0226711 -4.36045e-06 -1.49988e-11)
(0.00750728 -1.63761e-06 -4.81439e-12)
(0.441194 -0.000136656 3.37605e-11)
(0.434493 -0.000225907 4.2068e-11)
(0.42504 -0.000298648 2.81269e-11)
(0.41329 -0.000352421 1.52719e-11)
(0.399627 -0.000388525 1.48075e-11)
(0.384387 -0.000408426 -6.0768e-11)
(0.367863 -0.000414203 -1.08591e-10)
(0.350315 -0.000408183 -1.40033e-10)
(0.331972 -0.000392714 -1.62751e-10)
(0.313035 -0.000370012 -1.80059e-10)
(0.293683 -0.000342074 -1.94762e-10)
(0.274069 -0.00031064 -2.07852e-10)
(0.25433 -0.000277188 -1.96732e-10)
(0.234581 -0.000242953 -1.87737e-10)
(0.214925 -0.000208954 -1.81742e-10)
(0.195447 -0.000176022 -1.78317e-10)
(0.176223 -0.000144828 -1.77228e-10)
(0.157314 -0.000115906 -1.78117e-10)
(0.138771 -8.96781e-05 -1.7063e-10)
(0.120638 -6.64639e-05 -1.54347e-10)
(0.102948 -4.64974e-05 -1.38394e-10)
(0.0857298 -2.99367e-05 -1.1219e-10)
(0.0690024 -1.68688e-05 -8.7407e-11)
(0.0527811 -7.31512e-06 -6.49026e-11)
(0.0370758 -1.28346e-06 -4.44433e-11)
(0.021892 1.12147e-06 -2.56519e-11)
(0.0072316 8.54672e-07 -8.23658e-12)
(0.443765 -6.30684e-05 -3.07655e-12)
(0.437045 -7.63595e-05 -1.30102e-11)
(0.427571 -9.09315e-05 -3.3897e-11)
(0.415801 -9.9938e-05 -6.06791e-11)
(0.402125 -0.00010389 -9.12576e-11)
(0.386878 -0.000103164 -1.26031e-10)
(0.370358 -9.85723e-05 -1.59208e-10)
(0.352824 -9.10906e-05 -1.89146e-10)
(0.334503 -8.17126e-05 -2.19916e-10)
(0.315595 -7.13511e-05 -2.18328e-10)
(0.296274 -6.07811e-05 -2.20285e-10)
(0.27669 -5.06142e-05 -2.21969e-10)
(0.256975 -4.12946e-05 -2.24162e-10)
(0.23724 -3.31092e-05 -2.29327e-10)
(0.217581 -2.62059e-05 -2.10493e-10)
(0.198081 -2.06159e-05 -1.96053e-10)
(0.178808 -1.62769e-05 -1.84053e-10)
(0.159821 -1.30562e-05 -1.74401e-10)
(0.141169 -1.07718e-05 -1.57486e-10)
(0.122891 -9.21081e-06 -1.34495e-10)
(0.10502 -8.14591e-06 -1.14203e-10)
(0.0875824 -7.34889e-06 -8.71878e-11)
(0.0705979 -6.60522e-06 -6.93283e-11)
(0.0540825 -5.71906e-06 -5.22914e-11)
(0.0380476 -4.45887e-06 -3.61497e-11)
(0.0225009 -2.53376e-06 -2.09666e-11)
(0.00744698 -1.27729e-06 -6.74686e-12)
(0.443459 -7.70389e-05 1.36523e-10)
(0.436689 -0.000128453 2.47833e-10)
(0.427146 -0.000170815 5.89866e-11)
(0.415293 -0.000202948 -6.18112e-11)
(0.401523 -0.000225527 -1.58348e-10)
(0.386177 -0.00023927 -2.36764e-10)
(0.369554 -0.000245166 -2.89385e-10)
(0.351915 -0.000244314 -3.00469e-10)
(0.333491 -0.000237835 -3.24818e-10)
(0.314484 -0.000226816 -3.10117e-10)
(0.295067 -0.000212276 -2.70058e-10)
(0.275396 -0.000195143 -2.41284e-10)
(0.255603 -0.000176252 -2.17301e-10)
(0.235802 -0.000156341 -1.95488e-10)
(0.216094 -0.000136055 -1.74958e-10)
(0.196562 -0.000115957 -1.56234e-10)
(0.17728 -9.65278e-05 -1.52396e-10)
(0.158306 -7.81725e-05 -1.50132e-10)
(0.139693 -6.1236e-05 -1.39852e-10)
(0.121482 -4.60089e-05 -1.23749e-10)
(0.103706 -3.27203e-05 -1.10341e-10)
(0.0863928 -2.15414e-05 -9.03706e-11)
(0.0695624 -1.25879e-05 -7.11171e-11)
(0.0532298 -5.91893e-06 -5.06479e-11)
(0.0374054 -1.54853e-06 -3.55248e-11)
(0.0220954 4.92225e-07 -2.05731e-11)
(0.00730235 -2.47519e-08 -6.61166e-12)
(0.44564 -5.7829e-05 3.16108e-11)
(0.438877 -7.61956e-05 3.6685e-11)
(0.429346 -9.48351e-05 1.72965e-11)
(0.41751 -0.000108616 -9.57853e-13)
(0.403761 -0.000117798 -6.2622e-12)
(0.388439 -0.000122517 -8.66249e-11)
(0.371843 -0.000123229 -1.38004e-10)
(0.354232 -0.000120547 -1.69886e-10)
(0.335835 -0.000115149 -1.89382e-10)
(0.31685 -0.000107716 -1.99879e-10)
(0.297451 -9.88862e-05 -2.047e-10)
(0.277788 -8.92299e-05 -2.06892e-10)
(0.257992 -7.92321e-05 -2.08095e-10)
(0.238175 -6.92883e-05 -2.09214e-10)
(0.218433 -5.97058e-05 -2.10443e-10)
(0.198848 -5.07057e-05 -2.11306e-10)
(0.179491 -4.24056e-05 -1.98492e-10)
(0.16042 -3.50143e-05 -1.87017e-10)
(0.141686 -2.83741e-05 -1.66343e-10)
(0.123329 -2.26078e-05 -1.36255e-10)
(0.105382 -1.76459e-05 -1.08228e-10)
(0.087873 -1.34254e-05 -8.21324e-11)
(0.0708226 -9.87009e-06 -5.73947e-11)
(0.0542468 -6.88765e-06 -4.08168e-11)
(0.0381574 -4.30636e-06 -2.46028e-11)
(0.0225622 -1.8776e-06 -1.45106e-11)
(0.00746575 -1.56774e-06 -4.68296e-12)
(0.446901 -0.000131726 -2.54724e-11)
(0.440112 -0.00020608 -4.53271e-11)
(0.430543 -0.000270872 -6.94681e-11)
(0.418659 -0.00032111 -9.70423e-11)
(0.404853 -0.000357371 -1.27647e-10)
(0.389466 -0.000380211 -1.6198e-10)
(0.372797 -0.000390717 -1.97067e-10)
(0.355106 -0.00039029 -2.32739e-10)
(0.336621 -0.000380508 -2.69863e-10)
(0.317544 -0.000363032 -2.58207e-10)
(0.298048 -0.000339519 -2.52627e-10)
(0.278285 -0.000311566 -2.50723e-10)
(0.258388 -0.000280659 -2.50555e-10)
(0.23847 -0.000248144 -2.50172e-10)
(0.218631 -0.000215204 -2.32639e-10)
(0.198955 -0.000182852 -2.15765e-10)
(0.179514 -0.000151959 -2.00009e-10)
(0.16037 -0.000123072 -1.8429e-10)
(0.141574 -9.68824e-05 -1.65642e-10)
(0.123169 -7.36015e-05 -1.38385e-10)
(0.10519 -5.34686e-05 -1.12845e-10)
(0.0876643 -3.65886e-05 -8.65286e-11)
(0.0706142 -2.29875e-05 -6.87197e-11)
(0.0540557 -1.26206e-05 -5.19056e-11)
(0.0380004 -5.33421e-06 -3.59815e-11)
(0.0224554 -9.30828e-07 -2.0924e-11)
(0.00742473 -1.30915e-06 -6.74687e-12)
(0.450844 -0.000152026 -5.01284e-11)
(0.444035 -0.000222289 -7.70794e-11)
(0.434436 -0.00028647 -1.09701e-10)
(0.422515 -0.000335565 -1.44589e-10)
(0.408665 -0.000370126 -1.79494e-10)
(0.393227 -0.0003906 -2.13228e-10)
(0.376499 -0.000398167 -2.45975e-10)
(0.358743 -0.000394423 -2.75432e-10)
(0.340187 -0.000381205 -2.94783e-10)
(0.321031 -0.000360434 -2.92934e-10)
(0.301447 -0.00033401 -2.85863e-10)
(0.281588 -0.000303724 -2.79865e-10)
(0.261583 -0.000271199 -2.76034e-10)
(0.241548 -0.000237853 -2.72116e-10)
(0.221579 -0.000204865 -2.49136e-10)
(0.201759 -0.000173167 -2.27148e-10)
(0.182161 -0.000143466 -2.07389e-10)
(0.162843 -0.000116273 -1.88912e-10)
(0.143857 -9.1918e-05 -1.69907e-10)
(0.125244 -7.05693e-05 -1.43714e-10)
(0.107039 -5.22755e-05 -1.18975e-10)
(0.0892701 -3.69901e-05 -9.26475e-11)
(0.0719597 -2.46039e-05 -7.33714e-11)
(0.0551254 -1.49492e-05 -5.4959e-11)
(0.03878 -7.69794e-06 -3.77819e-11)
(0.0229328 -2.40743e-06 -2.18493e-11)
(0.00758916 -2.73815e-06 -7.0223e-12)
(0.455065 -0.000236626 2.14013e-10)
(0.448226 -0.000361087 -1.32415e-10)
(0.438585 -0.000472386 -1.17966e-10)
(0.426607 -0.000559628 -8.27459e-11)
(0.412686 -0.000623676 -5.61024e-11)
(0.397164 -0.000665245 -8.29241e-11)
(0.380337 -0.000686004 -1.08983e-10)
(0.362467 -0.000688177 -1.26701e-10)
(0.343781 -0.000674312 -1.37408e-10)
(0.32448 -0.000647097 -1.42503e-10)
(0.304736 -0.000609226 -1.43586e-10)
(0.284703 -0.00056329 -1.41859e-10)
(0.264512 -0.000511708 -1.38057e-10)
(0.244279 -0.000456679 -1.32626e-10)
(0.224103 -0.000400164 -1.25865e-10)
(0.204068 -0.000343887 -1.18348e-10)
(0.184248 -0.000289311 -1.10509e-10)
(0.164706 -0.000237645 -1.02489e-10)
(0.145495 -0.000189859 -8.40643e-11)
(0.12666 -0.000146714 -7.47996e-11)
(0.108238 -0.000108764 -5.69747e-11)
(0.090258 -7.63717e-05 -4.74408e-11)
(0.072745 -4.97411e-05 -3.20009e-11)
(0.0557176 -2.89133e-05 -2.42889e-11)
(0.0391894 -1.36527e-05 -1.67859e-11)
(0.0231702 -3.58161e-06 -9.7123e-12)
(0.00766573 -3.45677e-06 -3.11595e-12)
(0.462998 -0.000305954 1.01429e-10)
(0.456119 -0.000456416 1.68831e-10)
(0.446417 -0.000592672 -1.03912e-10)
(0.434357 -0.000698562 -1.02185e-10)
(0.420331 -0.000775106 -1.15472e-10)
(0.40468 -0.00082318 -1.33054e-10)
(0.387699 -0.000844982 -1.52546e-10)
(0.369647 -0.000843489 -1.72507e-10)
(0.350754 -0.000822125 -1.88965e-10)
(0.331216 -0.000784495 -1.9046e-10)
(0.311211 -0.000734189 -1.90132e-10)
(0.290889 -0.000674628 -1.91065e-10)
(0.270386 -0.000608962 -1.93372e-10)
(0.249816 -0.000540002 -1.95732e-10)
(0.229284 -0.000470203 -1.80613e-10)
(0.208876 -0.000401648 -1.67072e-10)
(0.18867 -0.000336048 -1.55755e-10)
(0.168729 -0.000274746 -1.44897e-10)
(0.149109 -0.00021875 -1.31539e-10)
(0.129858 -0.000168765 -1.10837e-10)
(0.111013 -0.000125227 -9.28412e-11)
(0.0926072 -8.83498e-05 -6.9366e-11)
(0.0746658 -5.81725e-05 -5.46496e-11)
(0.0572092 -3.4564e-05 -4.08763e-11)
(0.0402526 -1.70382e-05 -2.80562e-11)
(0.023807 -4.90493e-06 -1.61915e-11)
(0.00787969 -5.21518e-06 -5.19287e-12)
(0.473131 -0.000392904 -2.53042e-10)
(0.466188 -0.000593723 -4.17739e-10)
(0.456391 -0.000772298 -3.3432e-10)
(0.444204 -0.000909731 -2.98007e-10)
(0.430019 -0.00100756 -2.92931e-10)
(0.414174 -0.00106737 -3.06103e-10)
(0.396966 -0.00109245 -3.30348e-10)
(0.378652 -0.00108705 -3.56465e-10)
(0.359462 -0.00105594 -3.66584e-10)
(0.339595 -0.00100407 -3.31934e-10)
(0.319228 -0.000936306 -3.07938e-10)
(0.298515 -0.000857209 -2.91191e-10)
(0.277592 -0.000770939 -2.79333e-10)
(0.256581 -0.000681163 -2.72208e-10)
(0.235584 -0.000591009 -2.4517e-10)
(0.214695 -0.000503054 -2.2294e-10)
(0.193991 -0.000419366 -2.03496e-10)
(0.173542 -0.00034154 -1.8559e-10)
(0.153407 -0.000270752 -1.6733e-10)
(0.133634 -0.000207807 -1.41516e-10)
(0.114268 -0.000153192 -1.16712e-10)
(0.0953416 -0.000107131 -9.11247e-11)
(0.0768841 -6.96484e-05 -7.25674e-11)
(0.0589178 -4.05669e-05 -5.44835e-11)
(0.0414602 -1.92652e-05 -3.74469e-11)
(0.0245241 -4.87345e-06 -2.16134e-11)
(0.00811793 -6.67114e-06 -6.93021e-12)
(0.488676 -0.000471507 -1.93081e-10)
(0.481641 -0.000704764 -3.11671e-10)
(0.471706 -0.000912793 -4.37702e-10)
(0.459334 -0.00107176 -3.54742e-10)
(0.444915 -0.00118351 -3.17276e-10)
(0.428785 -0.00125016 -2.95266e-10)
(0.411239 -0.00127587 -2.80095e-10)
(0.392534 -0.00126594 -2.67648e-10)
(0.3729 -0.00122627 -2.55526e-10)
(0.352537 -0.00116288 -2.43204e-10)
(0.331624 -0.00108161 -2.31301e-10)
(0.310319 -0.000987846 -2.19992e-10)
(0.288762 -0.000886458 -2.09178e-10)
(0.267078 -0.000781656 -1.97266e-10)
(0.245375 -0.000676997 -1.67243e-10)
(0.223751 -0.00057539 -1.39212e-10)
(0.202289 -0.000479132 -1.28265e-10)
(0.181062 -0.000389964 -1.19258e-10)
(0.160136 -0.000309137 -1.01965e-10)
(0.139564 -0.000237471 -8.60831e-11)
(0.119392 -0.000175426 -7.13466e-11)
(0.0996594 -0.000123163 -5.75195e-11)
(0.0803982 -8.06308e-05 -4.44974e-11)
(0.061634 -4.75511e-05 -3.22442e-11)
(0.043387 -2.30832e-05 -2.08205e-11)
(0.0256726 -6.06421e-06 -1.03207e-11)
(0.00850151 -9.04091e-06 -3.26083e-12)
(0.509466 -0.000542152 -2.88275e-10)
(0.502296 -0.00081528 -4.91012e-10)
(0.492159 -0.00105586 -3.84683e-10)
(0.479518 -0.00123805 -3.37088e-10)
(0.464759 -0.00136422 -3.12988e-10)
(0.448216 -0.0014374 -3.00477e-10)
(0.430183 -0.00146292 -2.94773e-10)
(0.410919 -0.00144737 -2.94595e-10)
(0.390652 -0.00139793 -3.02466e-10)
(0.369588 -0.00132181 -2.80055e-10)
(0.34791 -0.00122588 -2.66502e-10)
(0.325781 -0.00111643 -2.56571e-10)
(0.303347 -0.00099905 -2.48156e-10)
(0.28074 -0.000878511 -2.40314e-10)
(0.258075 -0.000758801 -2.20009e-10)
(0.235458 -0.000643139 -2.01581e-10)
(0.212978 -0.000534033 -1.85455e-10)
(0.190718 -0.000433355 -1.718e-10)
(0.168746 -0.000342422 -1.5201e-10)
(0.147124 -0.000262074 -1.27364e-10)
(0.125903 -0.000192753 -1.04534e-10)
(0.105127 -0.000134578 -8.07525e-11)
(0.0848332 -8.74446e-05 -6.34844e-11)
(0.0650504 -5.09986e-05 -4.73018e-11)
(0.0458024 -2.42073e-05 -3.23959e-11)
(0.0271075 -5.67183e-06 -1.86812e-11)
(0.00897869 -1.1303e-05 -5.9894e-12)
(0.538685 -0.000578802 -3.12443e-10)
(0.531316 -0.000864368 -4.8817e-10)
(0.52088 -0.00111536 -4.19965e-10)
(0.507839 -0.00130377 -3.78575e-10)
(0.492578 -0.00143221 -3.56754e-10)
(0.475429 -0.00150433 -3.4623e-10)
(0.456684 -0.00152623 -3.41933e-10)
(0.436604 -0.00150528 -3.39202e-10)
(0.415423 -0.00144941 -3.33373e-10)
(0.39335 -0.00136643 -3.20725e-10)
(0.370575 -0.00126371 -3.06269e-10)
(0.347272 -0.00114788 -2.93097e-10)
(0.323596 -0.00102473 -2.82072e-10)
(0.299687 -0.000899164 -2.71601e-10)
(0.275672 -0.000775198 -2.46723e-10)
(0.251665 -0.000656025 -2.23651e-10)
(0.227768 -0.000544092 -2.03636e-10)
(0.204069 -0.000441183 -1.86821e-10)
(0.180647 -0.000348517 -1.64923e-10)
(0.157571 -0.000266837 -1.38363e-10)
(0.134899 -0.00019649 -1.15085e-10)
(0.112683 -0.000137511 -8.9924e-11)
(0.0909624 -8.97321e-05 -6.98042e-11)
(0.0697733 -5.27344e-05 -5.21241e-11)
(0.049143 -2.52912e-05 -3.58539e-11)
(0.029093 -5.74689e-06 -2.07356e-11)
(0.00963957 -1.42092e-05 -6.65913e-12)
(0.577277 -0.000577786 -8.91864e-11)
(0.569606 -0.00086622 -1.32679e-10)
(0.558723 -0.00111707 -1.57053e-10)
(0.54509 -0.00130385 -1.70713e-10)
(0.529092 -0.00142938 -1.78109e-10)
(0.511063 -0.00149794 -1.80394e-10)
(0.491296 -0.00151614 -1.7427e-10)
(0.470059 -0.00149182 -2.04972e-10)
(0.447593 -0.00143318 -2.19423e-10)
(0.424118 -0.00134823 -2.11478e-10)
(0.399837 -0.00124439 -1.98379e-10)
(0.374935 -0.00112826 -1.84963e-10)
(0.349581 -0.00100554 -1.71608e-10)
(0.32393 -0.000880987 -1.5835e-10)
(0.298122 -0.000758481 -1.45225e-10)
(0.272285 -0.000641061 -1.32572e-10)
(0.246532 -0.000531036 -1.20771e-10)
(0.220963 -0.000430074 -1.10413e-10)
(0.195668 -0.000339303 -9.45716e-11)
(0.170725 -0.000259394 -8.22128e-11)
(0.1462 -0.000190651 -6.56201e-11)
(0.122151 -0.000133083 -5.56717e-11)
(0.098627 -8.65263e-05 -4.02736e-11)
(0.0756668 -5.05623e-05 -3.02618e-11)
(0.0533029 -2.38404e-05 -2.07569e-11)
(0.0315606 -4.53619e-06 -1.19435e-11)
(0.0104589 -1.69971e-05 -3.8178e-12)
(0.628268 -0.000524523 -2.0128e-10)
(0.62014 -0.0007825 -3.45675e-10)
(0.608584 -0.00100632 -2.57171e-10)
(0.594072 -0.00117213 -2.20263e-10)
(0.576995 -0.00128244 -1.99908e-10)
(0.557693 -0.0013415 -1.88191e-10)
(0.53647 -0.00135554 -1.81702e-10)
(0.513605 -0.00133186 -1.78758e-10)
(0.489354 -0.00127796 -1.77245e-10)
(0.463954 -0.00120109 -1.76113e-10)
(0.437625 -0.00110788 -1.75382e-10)
(0.41057 -0.00100418 -1.74961e-10)
(0.382977 -0.000894968 -1.74455e-10)
(0.35502 -0.000784393 -1.73268e-10)
(0.326856 -0.000675789 -1.60569e-10)
(0.298627 -0.000571769 -1.4846e-10)
(0.270463 -0.000474305 -1.37535e-10)
(0.242477 -0.000384821 -1.28904e-10)
(0.214771 -0.00030428 -1.16668e-10)
(0.187432 -0.000233259 -9.99654e-11)
(0.160538 -0.000172022 -8.43678e-11)
(0.134155 -0.000120594 -6.97381e-11)
(0.108336 -7.88631e-05 -5.79264e-11)
(0.0831269 -4.64817e-05 -4.30824e-11)
(0.0585657 -2.20353e-05 -2.95507e-11)
(0.0346809 -3.57522e-06 -1.70657e-11)
(0.0114945 -2.00337e-05 -5.47696e-12)
(0.692613 -0.000425189 -2.45696e-10)
(0.683807 -0.000637671 -4.08071e-10)
(0.671266 -0.000820758 -2.98327e-10)
(0.655485 -0.000956348 -2.42853e-10)
(0.636875 -0.00104657 -2.11237e-10)
(0.615794 -0.00109513 -1.91854e-10)
(0.592568 -0.00110727 -1.79495e-10)
(0.567496 -0.00108894 -1.71315e-10)
(0.540859 -0.00104625 -1.65631e-10)
(0.512918 -0.000984992 -1.61452e-10)
(0.483918 -0.000910443 -1.58246e-10)
(0.454087 -0.000827231 -1.55706e-10)
(0.423637 -0.0007393 -1.53972e-10)
(0.392761 -0.000649928 -1.5367e-10)
(0.361639 -0.000561774 -1.36707e-10)
(0.330432 -0.000476942 -1.22657e-10)
(0.299285 -0.000397052 -1.10677e-10)
(0.268327 -0.000323303 -1.00404e-10)
(0.237672 -0.000256546 -8.51528e-11)
(0.207421 -0.000197335 -6.57186e-11)
(0.177659 -0.00014598 -4.80974e-11)
(0.14846 -0.000102598 -3.61975e-11)
(0.119886 -6.72222e-05 -2.87582e-11)
(0.0919879 -3.96527e-05 -2.14979e-11)
(0.0648069 -1.85065e-05 -1.48057e-11)
(0.0383756 -1.81329e-06 -8.57562e-12)
(0.0127185 -2.26653e-05 -2.75779e-12)
(0.771695 -0.000279931 -1.34776e-10)
(0.761927 -0.000418895 -2.17942e-10)
(0.748006 -0.000539127 -3.03353e-10)
(0.730472 -0.00062915 -2.20425e-10)
(0.709775 -0.000690226 -1.72745e-10)
(0.686308 -0.000724719 -1.38383e-10)
(0.660433 -0.000735885 -1.08964e-10)
(0.632484 -0.000727413 -8.12408e-11)
(0.602777 -0.000703039 -5.36268e-11)
(0.571605 -0.000666304 -5.72913e-11)
(0.539245 -0.000620425 -5.71025e-11)
(0.505956 -0.000568241 -5.43054e-11)
(0.471976 -0.000512193 -4.97142e-11)
(0.437525 -0.000454353 -4.37713e-11)
(0.402805 -0.000396444 -3.68183e-11)
(0.367997 -0.000339882 -3.02319e-11)
(0.333264 -0.000285812 -3.33178e-11)
(0.29875 -0.000235143 -3.63387e-11)
(0.264585 -0.000188579 -3.26346e-11)
(0.230878 -0.000146646 -2.89195e-11)
(0.197725 -0.000109717 -2.53193e-11)
(0.165208 -7.80375e-05 -2.18689e-11)
(0.133395 -5.18249e-05 -1.89729e-11)
(0.102341 -3.10809e-05 -1.32109e-11)
(0.0720934 -1.4526e-05 -8.11098e-12)
(0.0426858 -2.31974e-07 -3.42777e-12)
(0.0141452 -2.49495e-05 -1.0488e-12)
(0.86421 -9.79972e-05 -1.90562e-10)
(0.853169 -0.000150848 -2.97436e-10)
(0.837436 -0.000196857 -2.32894e-10)
(0.817627 -0.000233097 -1.84319e-10)
(0.794253 -0.000260098 -1.51988e-10)
(0.767767 -0.000278512 -1.289e-10)
(0.738583 -0.000289171 -1.11369e-10)
(0.707084 -0.000292974 -9.78145e-11)
(0.67363 -0.000290807 -8.75026e-11)
(0.638557 -0.000283505 -8.00163e-11)
(0.60218 -0.000271852 -7.43686e-11)
(0.564793 -0.000256582 -6.9969e-11)
(0.526664 -0.000238396 -6.64769e-11)
(0.488042 -0.000217966 -6.36846e-11)
(0.449152 -0.000195943 -6.14651e-11)
(0.410197 -0.000172956 -5.97685e-11)
(0.371356 -0.000149611 -5.86619e-11)
(0.332791 -0.000126481 -5.82662e-11)
(0.294642 -0.000104106 -5.32207e-11)
(0.257031 -8.29785e-05 -4.44771e-11)
(0.220062 -6.35376e-05 -3.68213e-11)
(0.183824 -4.61756e-05 -2.98634e-11)
(0.148389 -3.13109e-05 -2.34412e-11)
(0.113819 -1.91747e-05 -1.75047e-11)
(0.0801607 -8.66827e-06 -1.20174e-11)
(0.0474522 2.01145e-06 -6.93782e-12)
(0.0157208 -2.62935e-05 -2.22507e-12)
(0.967963 0.000118851 -1.74382e-10)
(0.955352 0.000174206 -2.66623e-10)
(0.937401 0.000220768 -2.252e-10)
(0.914831 0.00025233 -1.96411e-10)
(0.88824 0.000269213 -1.78488e-10)
(0.85816 0.000272857 -1.69313e-10)
(0.825074 0.000265295 -1.66554e-10)
(0.789427 0.000248891 -1.687e-10)
(0.751636 0.000226094 -1.75012e-10)
(0.712086 0.000199236 -1.84573e-10)
(0.671135 0.000170407 -1.6984e-10)
(0.629113 0.000141373 -1.50727e-10)
(0.586325 0.000113541 -1.32876e-10)
(0.543045 8.79604e-05 -1.18348e-10)
(0.499523 6.53362e-05 -1.06677e-10)
(0.455983 4.60713e-05 -9.71296e-11)
(0.412622 3.0309e-05 -8.90936e-11)
(0.369616 1.79813e-05 -8.16314e-11)
(0.327116 8.85633e-06 -7.37561e-11)
(0.285253 2.58383e-06 -6.17568e-11)
(0.24414 -1.26086e-06 -5.10508e-11)
(0.20387 -3.15625e-06 -4.13565e-11)
(0.164521 -3.68308e-06 -3.24604e-11)
(0.126157 -3.28961e-06 -2.42484e-11)
(0.0888265 -1.11237e-06 -1.66529e-11)
(0.0525686 4.47914e-06 -9.61683e-12)
(0.0174108 -2.66207e-05 -3.08474e-12)
(1.07822 0.000364666 -1.64284e-10)
(1.06381 0.000539837 -2.53986e-10)
(1.04333 0.000690501 -2.08568e-10)
(1.01763 0.000800005 -1.76631e-10)
(0.987422 0.000869083 -1.56093e-10)
(0.95333 0.000901141 -1.41949e-10)
(0.915921 0.000901017 -1.31598e-10)
(0.875714 0.000874364 -1.23479e-10)
(0.833188 0.000827057 -1.16581e-10)
(0.788783 0.000764753 -1.10202e-10)
(0.742903 0.000692612 -1.03828e-10)
(0.695919 0.000615133 -9.75323e-11)
(0.648167 0.00053608 -9.15209e-11)
(0.599951 0.000458473 -8.58652e-11)
(0.551545 0.000384627 -8.05313e-11)
(0.503191 0.000316214 -7.54515e-11)
(0.455103 0.000254347 -7.06173e-11)
(0.407469 0.000199664 -6.56646e-11)
(0.36045 0.000152413 -6.01432e-11)
(0.314186 0.000112536 -5.06231e-11)
(0.268795 7.97451e-05 -4.2136e-11)
(0.224374 5.35723e-05 -3.43779e-11)
(0.181004 3.33511e-05 -2.71529e-11)
(0.138751 1.84663e-05 -2.03855e-11)
(0.0976637 9.53012e-06 -1.40516e-11)
(0.0577816 7.88797e-06 -8.13459e-12)
(0.0191309 -2.55448e-05 -2.61345e-12)
(1.18967 0.000633981 -1.47163e-10)
(1.17334 0.000945111 -2.51286e-10)
(1.15017 0.0012145 -1.82081e-10)
(1.12116 0.00141462 -1.49202e-10)
(1.08714 0.00154645 -1.30093e-10)
(1.04884 0.00161527 -1.16602e-10)
(1.00692 0.00162862 -1.06131e-10)
(0.961988 0.00159544 -9.75879e-11)
(0.914578 0.00152507 -9.0385e-11)
(0.86519 0.00142662 -8.41673e-11)
(0.814277 0.00130853 -7.87239e-11)
(0.762249 0.00117826 -7.39335e-11)
(0.709474 0.00104222 -6.97225e-11)
(0.656285 0.000905701 -6.6038e-11)
(0.602974 0.000772934 -6.28185e-11)
(0.549804 0.000647167 -5.99524e-11)
(0.497 0.000530771 -5.72641e-11)
(0.444762 0.000425355 -5.48852e-11)
(0.393259 0.000331888 -4.84735e-11)
(0.342638 0.000250812 -4.17886e-11)
(0.29302 0.00018215 -3.49871e-11)
(0.244505 0.000125592 -2.84464e-11)
(0.197177 8.0502e-05 -2.23481e-11)
(0.1511 4.6178e-05 -1.67058e-11)
(0.106325 2.29687e-05 -1.14826e-11)
(0.0628883 1.19137e-05 -6.63641e-12)
(0.0208149 -2.31666e-05 -2.13015e-12)
(1.29613 0.000911252 1.50556e-10)
(1.27788 0.00136113 6.94459e-11)
(1.25203 0.0017534 2.07907e-11)
(1.21973 0.00204927 -4.07865e-13)
(1.18193 0.00224948 -7.88911e-12)
(1.13949 0.00236072 -1.57932e-11)
(1.09315 0.00239288 -2.02979e-11)
(1.0436 0.00235778 -2.11593e-11)
(0.99144 0.00226797 -2.01743e-11)
(0.937229 0.00213586 -1.80561e-11)
(0.881465 0.00197305 -1.51154e-11)
(0.824593 0.00178998 -1.15899e-11)
(0.767015 0.00159578 -7.82932e-12)
(0.709084 0.00139814 -4.23893e-12)
(0.651114 0.00120336 -7.50977e-12)
(0.593381 0.00101645 -1.06217e-11)
(0.536125 0.000841262 -1.88835e-11)
(0.479551 0.000680561 -2.20903e-11)
(0.423836 0.000536201 -2.14604e-11)
(0.36913 0.000409303 -1.81561e-11)
(0.315557 0.000300361 -1.69223e-11)
(0.26322 0.000209357 -1.6444e-11)
(0.212201 0.000135809 -1.29027e-11)
(0.162565 7.90191e-05 -9.61178e-12)
(0.114361 3.90802e-05 -6.57357e-12)
(0.0676233 1.67225e-05 -3.78215e-12)
(0.0223754 -1.95504e-05 -1.20933e-12)
(1.39247 0.00117141 -7.68768e-11)
(1.37242 0.00175452 -1.50663e-10)
(1.34407 0.00226532 -9.37283e-11)
(1.3087 0.00265472 -7.12578e-11)
(1.2674 0.00292311 -5.83511e-11)
(1.22111 0.00307831 -4.99069e-11)
(1.17069 0.00313207 -4.41213e-11)
(1.11689 0.00309869 -4.01546e-11)
(1.06037 0.00299364 -3.74006e-11)
(1.00175 0.0028322 -3.54659e-11)
(0.941569 0.0026288 -3.41433e-11)
(0.8803 0.00239667 -3.33212e-11)
(0.818372 0.0021475 -3.29498e-11)
(0.756162 0.00189132 -3.29527e-11)
(0.693998 0.00163647 -3.32617e-11)
(0.632168 0.00138975 -3.37375e-11)
(0.570921 0.00115649 -3.42036e-11)
(0.51047 0.000940695 -3.39254e-11)
(0.450995 0.000745244 -3.15152e-11)
(0.392648 0.000572026 -2.72836e-11)
(0.335555 0.000422102 -2.27723e-11)