/*--------------------------------*- C++ -*----------------------------------*\
| =========                 |                                                 |
| \\      /  F ield         | OpenFOAM: The Open Source CFD Toolbox           |
|  \\    /   O peration     | Version:  2106                                  |
|   \\  /    A nd           | Website:  www.openfoam.com                      |
|    \\/     M anipulation  |                                                 |
\*---------------------------------------------------------------------------*/
FoamFile
{
    version     2.0;
    format      ascii;
    arch        "LSB;label=32;scalar=64";
    class       volScalarField;
    location    "80.00032";
    object      A2CH2-2;
}
// * * * * * * * * * * * * * * * * * * * * * * * * * * * * * * * * * * * * * //

dimensions      [0 0 0 0 0 0 0];

internalField   nonuniform List<scalar> 
3360
(
6.13764e-21
6.33516e-21
6.61004e-21
6.94626e-21
7.32982e-21
7.74813e-21
8.18982e-21
8.64465e-21
9.10347e-21
9.55822e-21
1.00019e-20
1.04286e-20
1.08334e-20
1.12124e-20
1.15627e-20
1.18821e-20
1.21694e-20
1.2424e-20
1.26461e-20
1.28363e-20
1.29957e-20
1.3126e-20
1.32288e-20
1.33064e-20
1.3361e-20
1.3395e-20
1.34107e-20
2.6924e-20
2.79137e-20
2.93102e-20
3.10495e-20
3.3078e-20
3.53495e-20
3.78224e-20
4.04587e-20
4.3223e-20
4.60819e-20
4.90034e-20
5.19562e-20
5.49095e-20
5.7833e-20
6.06969e-20
6.34717e-20
6.61287e-20
6.864e-20
7.09789e-20
7.31203e-20
7.50413e-20
7.67215e-20
7.81436e-20
7.92938e-20
8.01618e-20
8.07414e-20
8.10305e-20
8.44818e-20
8.81898e-20
9.34586e-20
1.00079e-19
1.07878e-19
1.16699e-19
1.26395e-19
1.36819e-19
1.47823e-19
1.59256e-19
1.70965e-19
1.82796e-19
1.94597e-19
2.06219e-19
2.17516e-19
2.28352e-19
2.38599e-19
2.48143e-19
2.56884e-19
2.64741e-19
2.7165e-19
2.77566e-19
2.82464e-19
2.86336e-19
2.8919e-19
2.91051e-19
2.91957e-19
2.46042e-19
2.58262e-19
2.75744e-19
2.97862e-19
3.24094e-19
3.53949e-19
3.86937e-19
4.22553e-19
4.60262e-19
4.99506e-19
5.39706e-19
5.80275e-19
6.20629e-19
6.60198e-19
6.98444e-19
7.34871e-19
7.69038e-19
8.00573e-19
8.29176e-19
8.54622e-19
8.76761e-19
8.95517e-19
9.10878e-19
9.22892e-19
9.31659e-19
9.37321e-19
9.40052e-19
7.18861e-19
7.57416e-19
8.12674e-19
8.82747e-19
9.66033e-19
1.06099e-18
1.16604e-18
1.27951e-18
1.3996e-18
1.52443e-18
1.65206e-18
1.78051e-18
1.90787e-18
2.03228e-18
2.15205e-18
2.26565e-18
2.37176e-18
2.4693e-18
2.55742e-18
2.63552e-18
2.70323e-18
2.7604e-18
2.80709e-18
2.8435e-18
2.87e-18
2.88707e-18
2.89529e-18
2.11951e-18
2.2379e-18
2.40781e-18
2.62345e-18
2.87991e-18
3.17239e-18
3.49596e-18
3.84535e-18
4.21493e-18
4.59879e-18
4.99082e-18
5.38489e-18
5.77501e-18
6.15551e-18
6.52116e-18
6.86736e-18
7.19014e-18
7.48629e-18
7.75336e-18
7.98965e-18
8.19417e-18
8.36659e-18
8.50715e-18
8.61663e-18
8.69621e-18
8.74742e-18
8.77205e-18
6.29611e-18
6.65588e-18
7.17215e-18
7.82743e-18
8.60667e-18
9.49516e-18
1.04777e-17
1.1538e-17
1.26587e-17
1.38218e-17
1.50086e-17
1.62003e-17
1.7379e-17
1.85275e-17
1.96302e-17
2.06732e-17
2.16449e-17
2.25358e-17
2.33387e-17
2.40486e-17
2.46628e-17
2.51804e-17
2.56022e-17
2.59306e-17
2.61693e-17
2.63229e-17
2.63967e-17
1.87641e-17
1.98466e-17
2.14008e-17
2.33742e-17
2.57215e-17
2.83984e-17
3.13587e-17
3.45531e-17
3.79292e-17
4.14319e-17
4.50049e-17
4.85917e-17
5.21378e-17
5.55916e-17
5.89062e-17
6.20401e-17
6.49585e-17
6.76329e-17
7.0042e-17
7.21713e-17
7.40126e-17
7.55635e-17
7.6827e-17
7.78104e-17
7.85248e-17
7.89843e-17
7.92051e-17
5.60702e-17
5.93236e-17
6.39936e-17
6.99224e-17
7.69735e-17
8.50131e-17
9.39018e-17
1.03491e-16
1.13622e-16
1.24129e-16
1.34844e-16
1.45596e-16
1.56222e-16
1.66568e-16
1.76495e-16
1.85878e-16
1.94613e-16
2.02616e-16
2.09825e-16
2.16195e-16
2.21704e-16
2.26343e-16
2.30122e-16
2.33064e-16
2.35201e-16
2.36575e-16
2.37236e-16
1.67546e-16
1.7729e-16
1.91278e-16
2.09039e-16
2.30162e-16
2.54246e-16
2.80872e-16
3.09594e-16
3.39936e-16
3.71401e-16
4.03481e-16
4.35667e-16
4.67471e-16
4.9843e-16
5.28127e-16
5.56191e-16
5.82311e-16
6.06239e-16
6.27784e-16
6.46819e-16
6.63273e-16
6.77129e-16
6.88414e-16
6.97195e-16
7.03573e-16
7.07674e-16
7.09645e-16
5.00878e-16
5.30044e-16
5.71908e-16
6.2505e-16
6.88239e-16
7.60269e-16
8.3988e-16
9.25732e-16
1.0164e-15
1.11039e-15
1.20619e-15
1.30227e-15
1.39718e-15
1.48954e-15
1.57811e-15
1.66179e-15
1.73966e-15
1.81097e-15
1.87517e-15
1.93188e-15
1.98089e-15
2.02216e-15
2.05577e-15
2.08192e-15
2.10091e-15
2.11312e-15
2.11899e-15
1.49584e-15
1.58291e-15
1.70787e-15
1.86649e-15
2.05506e-15
2.26995e-15
2.5074e-15
2.76339e-15
3.03364e-15
3.31371e-15
3.59905e-15
3.88515e-15
4.16764e-15
4.44246e-15
4.70588e-15
4.95467e-15
5.18609e-15
5.39795e-15
5.58861e-15
5.75698e-15
5.90246e-15
6.0249e-15
6.12459e-15
6.20213e-15
6.25843e-15
6.29462e-15
6.31201e-15
4.4621e-15
4.72158e-15
5.09387e-15
5.56619e-15
6.12743e-15
6.7667e-15
7.47266e-15
8.23326e-15
9.03575e-15
9.86684e-15
1.0713e-14
1.15609e-14
1.23976e-14
1.32111e-14
1.39904e-14
1.47259e-14
1.54098e-14
1.60356e-14
1.65985e-14
1.70953e-14
1.75245e-14
1.78856e-14
1.81795e-14
1.8408e-14
1.85739e-14
1.86806e-14
1.87318e-14
1.32713e-14
1.4041e-14
1.51451e-14
1.65452e-14
1.8208e-14
2.01007e-14
2.21893e-14
2.44378e-14
2.68082e-14
2.9261e-14
3.17562e-14
3.42542e-14
3.67171e-14
3.91094e-14
4.13992e-14
4.35589e-14
4.55651e-14
4.73995e-14
4.90484e-14
5.05028e-14
5.17583e-14
5.2814e-14
5.36727e-14
5.43401e-14
5.48244e-14
5.51356e-14
5.52849e-14
3.93292e-14
4.16008e-14
4.48568e-14
4.89825e-14
5.38776e-14
5.94436e-14
6.55788e-14
7.21755e-14
7.91209e-14
8.62984e-14
9.359e-14
1.0088e-13
1.08058e-13
1.15022e-13
1.21679e-13
1.2795e-13
1.33769e-13
1.39084e-13
1.43856e-13
1.48063e-13
1.5169e-13
1.54738e-13
1.57216e-13
1.5914e-13
1.60536e-13
1.61432e-13
1.61862e-13
1.15882e-13
1.22525e-13
1.32038e-13
1.4408e-13
1.5835e-13
1.74553e-13
1.92385e-13
2.11527e-13
2.31646e-13
2.52401e-13
2.7345e-13
2.94457e-13
3.15104e-13
3.35101e-13
3.54186e-13
3.72135e-13
3.88765e-13
4.03932e-13
4.17533e-13
4.29504e-13
4.39816e-13
4.48471e-13
4.55499e-13
4.60953e-13
4.64904e-13
4.6744e-13
4.68656e-13
3.38898e-13
3.58088e-13
3.85542e-13
4.2024e-13
4.61284e-13
5.07797e-13
5.58875e-13
6.13582e-13
6.70948e-13
7.29983e-13
7.89709e-13
8.49174e-13
9.07486e-13
9.6383e-13
1.01749e-12
1.06784e-12
1.11441e-12
1.15679e-12
1.19474e-12
1.22808e-12
1.25676e-12
1.28079e-12
1.30028e-12
1.31539e-12
1.32633e-12
1.33334e-12
1.3367e-12
9.81168e-13
1.03569e-12
1.11356e-12
1.21179e-12
1.32771e-12
1.45874e-12
1.60221e-12
1.75542e-12
1.91559e-12
2.0799e-12
2.24562e-12
2.41011e-12
2.57093e-12
2.72587e-12
2.87302e-12
3.01075e-12
3.13779e-12
3.25317e-12
3.35623e-12
3.4466e-12
3.52419e-12
3.58911e-12
3.64167e-12
3.68236e-12
3.71178e-12
3.73061e-12
3.73963e-12
2.80395e-12
2.95546e-12
3.17144e-12
3.44317e-12
3.76287e-12
4.12299e-12
4.51592e-12
4.93393e-12
5.36923e-12
5.81409e-12
6.26104e-12
6.70302e-12
7.13358e-12
7.54697e-12
7.93825e-12
8.30338e-12
8.63916e-12
8.94329e-12
9.21427e-12
9.45134e-12
9.65444e-12
9.82404e-12
9.96113e-12
1.00671e-11
1.01436e-11
1.01925e-11
1.02159e-11
7.88026e-12
8.28953e-12
8.87154e-12
9.60147e-12
1.04571e-11
1.1417e-11
1.24598e-11
1.35642e-11
1.4709e-11
1.58737e-11
1.70387e-11
1.81858e-11
1.92986e-11
2.03629e-11
2.13665e-11
2.22997e-11
2.31551e-11
2.39276e-11
2.46139e-11
2.52129e-11
2.57248e-11
2.61514e-11
2.64955e-11
2.67611e-11
2.69524e-11
2.70747e-11
2.7133e-11
2.16897e-11
2.27576e-11
2.4272e-11
2.61643e-11
2.8373e-11
3.08393e-11
3.35054e-11
3.63147e-11
3.92122e-11
4.21452e-11
4.50647e-11
4.7926e-11
5.06894e-11
5.3321e-11
5.57929e-11
5.8083e-11
6.01751e-11
6.20584e-11
6.37269e-11
6.51791e-11
6.64173e-11
6.7447e-11
6.82761e-11
6.89147e-11
6.93742e-11
6.96673e-11
6.98071e-11
5.81924e-11
6.08682e-11
6.46509e-11
6.93588e-11
7.48287e-11
8.09059e-11
8.74414e-11
9.42914e-11
1.01319e-10
1.08396e-10
1.15406e-10
1.22243e-10
1.28817e-10
1.3505e-10
1.40883e-10
1.46267e-10
1.51168e-10
1.55567e-10
1.59454e-10
1.62828e-10
1.65698e-10
1.6808e-10
1.69994e-10
1.71466e-10
1.72524e-10
1.73198e-10
1.73519e-10
1.51483e-10
1.57893e-10
1.66925e-10
1.78122e-10
1.91072e-10
2.05387e-10
2.20703e-10
2.36673e-10
2.52973e-10
2.69306e-10
2.85406e-10
3.01039e-10
3.16005e-10
3.30142e-10
3.4332e-10
3.55444e-10
3.66448e-10
3.76295e-10
3.84973e-10
3.92489e-10
3.9887e-10
4.04155e-10
4.08395e-10
4.11651e-10
4.13988e-10
4.15474e-10
4.16182e-10
3.81037e-10
3.95687e-10
4.16271e-10
4.41691e-10
4.70966e-10
5.03181e-10
5.37485e-10
5.73084e-10
6.09251e-10
6.45329e-10
6.80741e-10
7.14987e-10
7.4765e-10
7.78396e-10
8.06964e-10
8.33169e-10
8.56891e-10
8.78066e-10
8.96685e-10
9.1278e-10
9.26418e-10
9.37697e-10
9.46733e-10
9.53662e-10
9.5863e-10
9.61787e-10
9.63288e-10
9.23642e-10
9.55622e-10
1.00044e-09
1.05561e-09
1.11892e-09
1.18831e-09
1.26191e-09
1.33798e-09
1.41496e-09
1.49146e-09
1.56629e-09
1.63841e-09
1.70698e-09
1.77134e-09
1.83098e-09
1.88556e-09
1.93486e-09
1.97878e-09
2.01732e-09
2.05059e-09
2.07874e-09
2.10198e-09
2.12059e-09
2.13484e-09
2.14504e-09
2.15153e-09
2.15461e-09
2.1556e-09
2.22254e-09
2.31615e-09
2.4311e-09
2.56262e-09
2.70633e-09
2.85827e-09
3.01481e-09
3.17276e-09
3.32927e-09
3.48191e-09
3.62866e-09
3.76786e-09
3.89822e-09
4.01878e-09
4.1289e-09
4.2282e-09
4.31652e-09
4.39393e-09
4.46066e-09
4.51706e-09
4.56359e-09
4.60079e-09
4.62927e-09
4.64965e-09
4.66259e-09
4.66873e-09
4.84789e-09
4.98304e-09
5.17178e-09
5.4031e-09
5.66719e-09
5.95514e-09
6.25888e-09
6.57116e-09
6.88554e-09
7.19645e-09
7.49912e-09
7.78959e-09
8.06468e-09
8.32192e-09
8.55953e-09
8.77629e-09
8.97153e-09
9.14504e-09
9.29698e-09
9.42785e-09
9.53838e-09
9.62952e-09
9.70235e-09
9.75807e-09
9.79793e-09
9.82321e-09
9.83522e-09
1.05302e-08
1.07954e-08
1.11655e-08
1.16185e-08
1.21351e-08
1.26976e-08
1.32902e-08
1.38986e-08
1.45104e-08
1.51147e-08
1.57024e-08
1.62659e-08
1.67991e-08
1.72973e-08
1.77571e-08
1.81763e-08
1.85536e-08
1.88888e-08
1.91822e-08
1.94347e-08
1.9648e-08
1.98238e-08
1.99642e-08
2.00716e-08
2.01484e-08
2.01971e-08
2.02203e-08
2.21617e-08
2.26715e-08
2.33825e-08
2.42524e-08
2.52436e-08
2.63222e-08
2.74578e-08
2.8623e-08
2.97941e-08
3.09502e-08
3.2074e-08
3.31511e-08
3.41698e-08
3.51214e-08
3.59995e-08
3.67998e-08
3.75201e-08
3.81598e-08
3.87196e-08
3.92015e-08
3.96083e-08
3.99436e-08
4.02114e-08
4.04163e-08
4.05628e-08
4.06557e-08
4.06998e-08
4.53103e-08
4.62741e-08
4.76181e-08
4.92622e-08
5.11353e-08
5.31733e-08
5.53186e-08
5.75198e-08
5.97318e-08
6.19157e-08
6.40385e-08
6.6073e-08
6.79975e-08
6.97952e-08
7.14541e-08
7.29661e-08
7.43271e-08
7.55358e-08
7.65936e-08
7.75041e-08
7.82729e-08
7.89064e-08
7.94125e-08
7.97996e-08
8.00764e-08
8.0252e-08
8.03353e-08
9.0036e-08
9.18287e-08
9.43286e-08
9.7387e-08
1.00872e-07
1.04664e-07
1.08657e-07
1.12755e-07
1.16875e-07
1.20943e-07
1.24898e-07
1.28689e-07
1.32277e-07
1.35629e-07
1.38722e-07
1.41542e-07
1.44081e-07
1.46336e-07
1.48309e-07
1.50007e-07
1.51441e-07
1.52623e-07
1.53567e-07
1.54288e-07
1.54804e-07
1.55131e-07
1.55287e-07
1.73423e-07
1.76681e-07
1.81225e-07
1.86784e-07
1.9312e-07
2.00017e-07
2.0728e-07
2.14736e-07
2.22233e-07
2.29638e-07
2.3684e-07
2.43746e-07
2.50281e-07
2.56389e-07
2.62026e-07
2.67166e-07
2.71793e-07
2.75902e-07
2.79498e-07
2.82594e-07
2.85206e-07
2.87359e-07
2.89078e-07
2.90391e-07
2.91331e-07
2.91926e-07
2.92208e-07
3.21885e-07
3.27584e-07
3.35531e-07
3.45253e-07
3.56332e-07
3.6839e-07
3.81085e-07
3.94116e-07
4.07216e-07
4.20155e-07
4.32736e-07
4.44799e-07
4.56213e-07
4.66877e-07
4.7672e-07
4.85692e-07
4.93767e-07
5.00938e-07
5.07212e-07
5.12611e-07
5.17166e-07
5.20919e-07
5.23914e-07
5.26203e-07
5.27839e-07
5.28875e-07
5.29367e-07
5.71373e-07
5.8079e-07
5.93914e-07
6.09959e-07
6.28226e-07
6.48088e-07
6.6898e-07
6.90402e-07
7.11915e-07
7.33142e-07
7.53762e-07
7.73513e-07
7.92184e-07
8.09614e-07
8.25688e-07
8.4033e-07
8.535e-07
8.65188e-07
8.75409e-07
8.84201e-07
8.91616e-07
8.97722e-07
9.02596e-07
9.06319e-07
9.08979e-07
9.10664e-07
9.11463e-07
9.63801e-07
9.78289e-07
9.98459e-07
1.02308e-06
1.05107e-06
1.08145e-06
1.11334e-06
1.14598e-06
1.1787e-06
1.21091e-06
1.24215e-06
1.27203e-06
1.30022e-06
1.3265e-06
1.35071e-06
1.37273e-06
1.39252e-06
1.41006e-06
1.42539e-06
1.43857e-06
1.44967e-06
1.45882e-06
1.46611e-06
1.47169e-06
1.47567e-06
1.47819e-06
1.47938e-06
1.54003e-06
1.56068e-06
1.58939e-06
1.62439e-06
1.66408e-06
1.70707e-06
1.75211e-06
1.79809e-06
1.84407e-06
1.88925e-06
1.93297e-06
1.97469e-06
2.014e-06
2.05057e-06
2.08421e-06
2.11477e-06
2.1422e-06
2.16649e-06
2.1877e-06
2.20592e-06
2.22128e-06
2.23391e-06
2.24399e-06
2.25168e-06
2.25718e-06
2.26067e-06
2.26232e-06
2.33223e-06
2.35965e-06
2.39772e-06
2.44404e-06
2.49649e-06
2.55318e-06
2.61242e-06
2.67279e-06
2.73303e-06
2.79209e-06
2.84914e-06
2.90348e-06
2.9546e-06
3.00209e-06
3.04571e-06
3.0853e-06
3.1208e-06
3.15222e-06
3.17964e-06
3.20318e-06
3.22301e-06
3.23933e-06
3.25234e-06
3.26228e-06
3.26938e-06
3.27388e-06
3.27602e-06
3.35922e-06
3.3935e-06
3.44104e-06
3.49881e-06
3.56412e-06
3.63459e-06
3.70812e-06
3.78291e-06
3.85742e-06
3.93037e-06
4.00072e-06
4.06765e-06
4.13053e-06
4.1889e-06
4.24246e-06
4.29104e-06
4.33457e-06
4.37309e-06
4.40668e-06
4.43552e-06
4.45982e-06
4.4798e-06
4.49574e-06
4.50792e-06
4.51663e-06
4.52215e-06
4.52477e-06
4.62606e-06
4.66692e-06
4.72356e-06
4.79231e-06
4.86995e-06
4.95363e-06
5.04084e-06
5.12943e-06
5.21761e-06
5.30384e-06
5.38693e-06
5.46591e-06
5.54006e-06
5.60885e-06
5.67194e-06
5.72914e-06
5.78038e-06
5.8257e-06
5.86523e-06
5.89917e-06
5.92775e-06
5.95127e-06
5.97004e-06
5.98438e-06
5.99463e-06
6.00114e-06
6.00423e-06
6.12697e-06
6.17397e-06
6.23907e-06
6.31805e-06
6.40718e-06
6.50317e-06
6.60313e-06
6.70462e-06
6.80555e-06
6.9042e-06
6.9992e-06
7.08946e-06
7.17416e-06
7.25271e-06
7.32473e-06
7.39002e-06
7.4485e-06
7.50023e-06
7.54534e-06
7.58408e-06
7.61671e-06
7.64356e-06
7.66499e-06
7.68138e-06
7.69309e-06
7.70052e-06
7.70405e-06
7.8493e-06
7.90193e-06
7.97481e-06
8.06319e-06
8.16289e-06
8.27021e-06
8.38193e-06
8.4953e-06
8.60801e-06
8.71813e-06
8.82414e-06
8.92483e-06
9.0193e-06
9.10691e-06
9.18722e-06
9.26001e-06
9.32522e-06
9.38289e-06
9.4332e-06
9.47639e-06
9.51279e-06
9.54275e-06
9.56666e-06
9.58494e-06
9.59801e-06
9.60631e-06
9.61026e-06
9.77698e-06
9.83475e-06
9.91476e-06
1.00118e-05
1.01211e-05
1.02389e-05
1.03614e-05
1.04857e-05
1.06092e-05
1.07299e-05
1.0846e-05
1.09563e-05
1.10598e-05
1.11557e-05
1.12437e-05
1.13234e-05
1.13948e-05
1.1458e-05
1.15131e-05
1.15604e-05
1.16003e-05
1.16331e-05
1.16593e-05
1.16793e-05
1.16937e-05
1.17028e-05
1.17071e-05
1.18929e-05
1.19554e-05
1.2042e-05
1.21468e-05
1.22651e-05
1.23924e-05
1.25248e-05
1.26591e-05
1.27926e-05
1.2923e-05
1.30484e-05
1.31676e-05
1.32793e-05
1.33829e-05
1.34779e-05
1.3564e-05
1.36411e-05
1.37094e-05
1.37689e-05
1.382e-05
1.3863e-05
1.38985e-05
1.39268e-05
1.39485e-05
1.3964e-05
1.39738e-05
1.39785e-05
1.41805e-05
1.42473e-05
1.43398e-05
1.4452e-05
1.45784e-05
1.47145e-05
1.4856e-05
1.49995e-05
1.51421e-05
1.52814e-05
1.54155e-05
1.55427e-05
1.56621e-05
1.57728e-05
1.58742e-05
1.59662e-05
1.60485e-05
1.61214e-05
1.61849e-05
1.62395e-05
1.62855e-05
1.63234e-05
1.63537e-05
1.63768e-05
1.63933e-05
1.64039e-05
1.64088e-05
1.66241e-05
1.66949e-05
1.67929e-05
1.69118e-05
1.70457e-05
1.71898e-05
1.73397e-05
1.74918e-05
1.76428e-05
1.77903e-05
1.79322e-05
1.80669e-05
1.81933e-05
1.83104e-05
1.84178e-05
1.85152e-05
1.86023e-05
1.86794e-05
1.87467e-05
1.88045e-05
1.88532e-05
1.88933e-05
1.89253e-05
1.89498e-05
1.89673e-05
1.89785e-05
1.89837e-05
1.92095e-05
1.9284e-05
1.93871e-05
1.95121e-05
1.9653e-05
1.98045e-05
1.99622e-05
2.0122e-05
2.02808e-05
2.04358e-05
2.0585e-05
2.07266e-05
2.08594e-05
2.09825e-05
2.10953e-05
2.11976e-05
2.12892e-05
2.13702e-05
2.14409e-05
2.15016e-05
2.15527e-05
2.15949e-05
2.16285e-05
2.16542e-05
2.16727e-05
2.16844e-05
2.16899e-05
2.19239e-05
2.20018e-05
2.21096e-05
2.22403e-05
2.23876e-05
2.25459e-05
2.27107e-05
2.28777e-05
2.30436e-05
2.32056e-05
2.33614e-05
2.35093e-05
2.3648e-05
2.37766e-05
2.38944e-05
2.40012e-05
2.40969e-05
2.41815e-05
2.42553e-05
2.43187e-05
2.43721e-05
2.44161e-05
2.44512e-05
2.44781e-05
2.44973e-05
2.45096e-05
2.45154e-05
2.47557e-05
2.48367e-05
2.49489e-05
2.50848e-05
2.52379e-05
2.54026e-05
2.55739e-05
2.57476e-05
2.592e-05
2.60884e-05
2.62503e-05
2.64041e-05
2.65482e-05
2.66818e-05
2.68042e-05
2.69152e-05
2.70146e-05
2.71025e-05
2.71791e-05
2.7245e-05
2.73005e-05
2.73462e-05
2.73827e-05
2.74106e-05
2.74306e-05
2.74432e-05
2.74493e-05
2.76945e-05
2.77784e-05
2.78945e-05
2.80353e-05
2.81938e-05
2.83643e-05
2.85417e-05
2.87214e-05
2.88999e-05
2.90741e-05
2.92417e-05
2.94007e-05
2.95499e-05
2.96881e-05
2.98147e-05
2.99295e-05
3.00323e-05
3.01232e-05
3.02025e-05
3.02706e-05
3.0328e-05
3.03753e-05
3.0413e-05
3.04419e-05
3.04625e-05
3.04757e-05
3.04819e-05
3.07308e-05
3.08174e-05
3.09372e-05
3.10824e-05
3.12459e-05
3.14218e-05
3.16046e-05
3.17899e-05
3.1974e-05
3.21536e-05
3.23263e-05
3.24903e-05
3.2644e-05
3.27864e-05
3.2917e-05
3.30352e-05
3.31412e-05
3.32348e-05
3.33166e-05
3.33867e-05
3.34459e-05
3.34946e-05
3.35334e-05
3.35632e-05
3.35845e-05
3.3598e-05
3.36044e-05
3.38562e-05
3.39452e-05
3.40684e-05
3.42176e-05
3.43857e-05
3.45665e-05
3.47544e-05
3.49449e-05
3.5134e-05
3.53185e-05
3.5496e-05
3.56645e-05
3.58224e-05
3.59687e-05
3.61028e-05
3.62242e-05
3.6333e-05
3.64292e-05
3.65132e-05
3.65852e-05
3.6646e-05
3.6696e-05
3.67359e-05
3.67664e-05
3.67883e-05
3.68022e-05
3.68088e-05
3.70627e-05
3.71539e-05
3.72802e-05
3.74331e-05
3.76055e-05
3.77907e-05
3.79833e-05
3.81785e-05
3.83722e-05
3.85613e-05
3.87432e-05
3.89157e-05
3.90775e-05
3.92273e-05
3.93647e-05
3.94891e-05
3.96005e-05
3.9699e-05
3.9785e-05
3.98587e-05
3.99209e-05
3.99721e-05
4.0013e-05
4.00443e-05
4.00667e-05
4.00809e-05
4.00877e-05
4.03431e-05
4.04364e-05
4.05655e-05
4.07219e-05
4.0898e-05
4.10874e-05
4.12842e-05
4.14837e-05
4.16817e-05
4.1875e-05
4.20608e-05
4.22371e-05
4.24024e-05
4.25555e-05
4.26958e-05
4.28229e-05
4.29367e-05
4.30373e-05
4.31251e-05
4.32005e-05
4.3264e-05
4.33163e-05
4.33581e-05
4.339e-05
4.34129e-05
4.34274e-05
4.34343e-05
4.36908e-05
4.3786e-05
4.39177e-05
4.40772e-05
4.42568e-05
4.445e-05
4.46507e-05
4.48541e-05
4.5056e-05
4.52531e-05
4.54425e-05
4.56222e-05
4.57907e-05
4.59468e-05
4.60898e-05
4.62193e-05
4.63353e-05
4.64379e-05
4.65274e-05
4.66042e-05
4.66689e-05
4.67222e-05
4.67648e-05
4.67974e-05
4.68207e-05
4.68354e-05
4.68425e-05
4.70997e-05
4.71965e-05
4.73306e-05
4.74929e-05
4.76758e-05
4.78723e-05
4.80766e-05
4.82836e-05
4.84891e-05
4.86896e-05
4.88823e-05
4.90652e-05
4.92365e-05
4.93953e-05
4.95408e-05
4.96726e-05
4.97905e-05
4.98949e-05
4.99859e-05
5.0064e-05
5.01298e-05
5.01841e-05
5.02273e-05
5.02604e-05
5.02841e-05
5.02992e-05
5.03063e-05
5.05638e-05
5.06623e-05
5.07984e-05
5.09634e-05
5.11491e-05
5.13488e-05
5.15563e-05
5.17665e-05
5.19752e-05
5.21788e-05
5.23745e-05
5.25602e-05
5.27342e-05
5.28955e-05
5.30432e-05
5.3177e-05
5.32968e-05
5.34027e-05
5.34951e-05
5.35744e-05
5.36412e-05
5.36963e-05
5.37402e-05
5.37738e-05
5.37979e-05
5.38131e-05
5.38204e-05
5.40779e-05
5.41777e-05
5.43158e-05
5.44831e-05
5.46715e-05
5.48739e-05
5.50843e-05
5.52975e-05
5.55091e-05
5.57155e-05
5.59139e-05
5.61021e-05
5.62786e-05
5.6442e-05
5.65917e-05
5.67273e-05
5.68487e-05
5.69561e-05
5.70497e-05
5.71301e-05
5.71978e-05
5.72536e-05
5.72982e-05
5.73322e-05
5.73566e-05
5.73721e-05
5.73794e-05
5.76366e-05
5.77377e-05
5.78775e-05
5.80469e-05
5.82376e-05
5.84426e-05
5.86556e-05
5.88714e-05
5.90855e-05
5.92945e-05
5.94953e-05
5.96858e-05
5.98644e-05
6.00298e-05
6.01813e-05
6.03185e-05
6.04414e-05
6.055e-05
6.06448e-05
6.07261e-05
6.07947e-05
6.08511e-05
6.08962e-05
6.09307e-05
6.09553e-05
6.0971e-05
6.09785e-05
6.12349e-05
6.13371e-05
6.14785e-05
6.16497e-05
6.18425e-05
6.20497e-05
6.22651e-05
6.24832e-05
6.26997e-05
6.29108e-05
6.31138e-05
6.33064e-05
6.34868e-05
6.36539e-05
6.3807e-05
6.39457e-05
6.40699e-05
6.41797e-05
6.42754e-05
6.43576e-05
6.44269e-05
6.44839e-05
6.45294e-05
6.45643e-05
6.45892e-05
6.4605e-05
6.46126e-05
6.48681e-05
6.49712e-05
6.51139e-05
6.52868e-05
6.54814e-05
6.56906e-05
6.59079e-05
6.61281e-05
6.63466e-05
6.65597e-05
6.67646e-05
6.69589e-05
6.7141e-05
6.73096e-05
6.74641e-05
6.76041e-05
6.77293e-05
6.78401e-05
6.79367e-05
6.80197e-05
6.80896e-05
6.81471e-05
6.8193e-05
6.82282e-05
6.82533e-05
6.82693e-05
6.82769e-05
6.8531e-05
6.8635e-05
6.87789e-05
6.89532e-05
6.91494e-05
6.93602e-05
6.95793e-05
6.98012e-05
7.00214e-05
7.02362e-05
7.04427e-05
7.06385e-05
7.0822e-05
7.0992e-05
7.11477e-05
7.12887e-05
7.14149e-05
7.15265e-05
7.16239e-05
7.17075e-05
7.17779e-05
7.18359e-05
7.18822e-05
7.19176e-05
7.19429e-05
7.1959e-05
7.19667e-05
7.2219e-05
7.23237e-05
7.24686e-05
7.2644e-05
7.28415e-05
7.30537e-05
7.32743e-05
7.34976e-05
7.37193e-05
7.39355e-05
7.41433e-05
7.43403e-05
7.4525e-05
7.4696e-05
7.48527e-05
7.49946e-05
7.51217e-05
7.5234e-05
7.53319e-05
7.5416e-05
7.54869e-05
7.55452e-05
7.55918e-05
7.56275e-05
7.5653e-05
7.56692e-05
7.56769e-05
7.59269e-05
7.60322e-05
7.61778e-05
7.63542e-05
7.65527e-05
7.67661e-05
7.69877e-05
7.72122e-05
7.7435e-05
7.76523e-05
7.78611e-05
7.80592e-05
7.82448e-05
7.84167e-05
7.85741e-05
7.87167e-05
7.88444e-05
7.89572e-05
7.90557e-05
7.91402e-05
7.92114e-05
7.927e-05
7.93168e-05
7.93526e-05
7.93782e-05
7.93945e-05
7.94022e-05
7.96495e-05
7.97552e-05
7.99014e-05
8.00784e-05
8.02777e-05
8.04918e-05
8.07143e-05
8.09397e-05
8.11632e-05
8.13813e-05
8.15909e-05
8.17896e-05
8.19759e-05
8.21484e-05
8.23063e-05
8.24494e-05
8.25775e-05
8.26908e-05
8.27895e-05
8.28743e-05
8.29458e-05
8.30046e-05
8.30516e-05
8.30875e-05
8.31132e-05
8.31295e-05
8.31373e-05
8.33811e-05
8.3487e-05
8.36335e-05
8.38109e-05
8.40107e-05
8.42253e-05
8.44483e-05
8.46741e-05
8.48981e-05
8.51166e-05
8.53266e-05
8.55258e-05
8.57124e-05
8.58852e-05
8.60435e-05
8.61868e-05
8.63151e-05
8.64286e-05
8.65275e-05
8.66125e-05
8.6684e-05
8.6743e-05
8.679e-05
8.6826e-05
8.68518e-05
8.68681e-05
8.68759e-05
8.71155e-05
8.72215e-05
8.73681e-05
8.75456e-05
8.77455e-05
8.79602e-05
8.81832e-05
8.84091e-05
8.86333e-05
8.88518e-05
8.90619e-05
8.92611e-05
8.94477e-05
8.96206e-05
8.97789e-05
8.99222e-05
9.00506e-05
9.0164e-05
9.0263e-05
9.03479e-05
9.04195e-05
9.04784e-05
9.05255e-05
9.05615e-05
9.05872e-05
9.06036e-05
9.06114e-05
9.08458e-05
9.09517e-05
9.10981e-05
9.12754e-05
9.1475e-05
9.16894e-05
9.19122e-05
9.21377e-05
9.23615e-05
9.25797e-05
9.27894e-05
9.29883e-05
9.31746e-05
9.33471e-05
9.35052e-05
9.36483e-05
9.37764e-05
9.38896e-05
9.39884e-05
9.40732e-05
9.41446e-05
9.42034e-05
9.42504e-05
9.42863e-05
9.43121e-05
9.43284e-05
9.43362e-05
9.45644e-05
9.46699e-05
9.48158e-05
9.49925e-05
9.51914e-05
9.54051e-05
9.5627e-05
9.58518e-05
9.60747e-05
9.62921e-05
9.6501e-05
9.66991e-05
9.68847e-05
9.70566e-05
9.7214e-05
9.73565e-05
9.74841e-05
9.75969e-05
9.76953e-05
9.77797e-05
9.78509e-05
9.79095e-05
9.79562e-05
9.7992e-05
9.80176e-05
9.80339e-05
9.80416e-05
9.82624e-05
9.83673e-05
9.85124e-05
9.8688e-05
9.88857e-05
9.90981e-05
9.93187e-05
9.95421e-05
9.97637e-05
9.99797e-05
0.000100187
0.000100384
0.000100569
0.000100739
0.000100896
0.000101037
0.000101164
0.000101276
0.000101374
0.000101458
0.000101528
0.000101587
0.000101633
0.000101669
0.000101694
0.00010171
0.000101718
0.00010193
0.000102034
0.000102177
0.000102352
0.000102548
0.000102758
0.000102977
0.000103198
0.000103418
0.000103632
0.000103837
0.000104032
0.000104215
0.000104384
0.000104539
0.000104679
0.000104805
0.000104916
0.000105013
0.000105096
0.000105166
0.000105224
0.00010527
0.000105305
0.00010533
0.000105346
0.000105354
0.000105555
0.000105657
0.0001058
0.000105972
0.000106165
0.000106373
0.000106589
0.000106808
0.000107025
0.000107236
0.000107439
0.000107632
0.000107812
0.000107979
0.000108132
0.00010827
0.000108394
0.000108504
0.000108599
0.000108681
0.00010875
0.000108807
0.000108853
0.000108887
0.000108912
0.000108928
0.000108936
0.000109124
0.000109225
0.000109365
0.000109534
0.000109725
0.000109929
0.000110142
0.000110357
0.00011057
0.000110778
0.000110977
0.000111167
0.000111344
0.000111508
0.000111659
0.000111795
0.000111916
0.000112024
0.000112118
0.000112199
0.000112267
0.000112322
0.000112367
0.000112401
0.000112426
0.000112441
0.000112449
0.000112622
0.000112721
0.000112858
0.000113024
0.00011321
0.000113411
0.000113619
0.000113829
0.000114038
0.000114241
0.000114436
0.000114622
0.000114795
0.000114956
0.000115103
0.000115236
0.000115355
0.00011546
0.000115552
0.000115631
0.000115697
0.000115752
0.000115796
0.000115829
0.000115853
0.000115868
0.000115875
0.000116031
0.000116128
0.000116261
0.000116422
0.000116604
0.000116799
0.000117001
0.000117206
0.000117409
0.000117607
0.000117797
0.000117977
0.000118146
0.000118302
0.000118445
0.000118574
0.00011869
0.000118793
0.000118882
0.000118958
0.000119023
0.000119076
0.000119119
0.000119151
0.000119174
0.000119189
0.000119196
0.000119332
0.000119425
0.000119554
0.00011971
0.000119886
0.000120074
0.00012027
0.000120468
0.000120664
0.000120855
0.000121038
0.000121212
0.000121375
0.000121526
0.000121664
0.000121789
0.000121901
0.000121999
0.000122085
0.000122159
0.000122222
0.000122273
0.000122314
0.000122345
0.000122368
0.000122382
0.000122389
0.000122501
0.000122591
0.000122715
0.000122864
0.000123033
0.000123213
0.000123401
0.00012359
0.000123778
0.000123961
0.000124137
0.000124303
0.000124459
0.000124604
0.000124736
0.000124855
0.000124962
0.000125057
0.000125139
0.00012521
0.000125269
0.000125318
0.000125358
0.000125388
0.000125409
0.000125423
0.000125429
0.000125516
0.000125601
0.000125718
0.00012586
0.00012602
0.000126192
0.000126369
0.000126549
0.000126727
0.000126901
0.000127067
0.000127225
0.000127373
0.000127509
0.000127634
0.000127748
0.000127849
0.000127938
0.000128016
0.000128083
0.00012814
0.000128186
0.000128223
0.000128252
0.000128272
0.000128285
0.000128291
0.00012835
0.000128429
0.000128539
0.000128673
0.000128822
0.000128983
0.00012915
0.000129318
0.000129485
0.000129647
0.000129803
0.000129951
0.000130089
0.000130217
0.000130334
0.000130439
0.000130534
0.000130618
0.000130691
0.000130753
0.000130806
0.00013085
0.000130884
0.000130911
0.00013093
0.000130942
0.000130948
0.000130975
0.000131049
0.000131151
0.000131274
0.000131413
0.000131561
0.000131715
0.00013187
0.000132024
0.000132174
0.000132317
0.000132453
0.000132581
0.000132698
0.000132806
0.000132903
0.000132991
0.000133068
0.000133135
0.000133193
0.000133241
0.000133281
0.000133313
0.000133338
0.000133355
0.000133366
0.000133372
0.000133368
0.000133435
0.000133527
0.000133639
0.000133765
0.000133899
0.000134039
0.000134179
0.000134319
0.000134454
0.000134584
0.000134707
0.000134823
0.000134929
0.000135026
0.000135114
0.000135193
0.000135263
0.000135324
0.000135376
0.00013542
0.000135456
0.000135485
0.000135507
0.000135523
0.000135533
0.000135538
0.000135502
0.000135562
0.000135644
0.000135743
0.000135855
0.000135974
0.000136098
0.000136223
0.000136346
0.000136466
0.000136581
0.00013669
0.000136792
0.000136886
0.000136972
0.00013705
0.00013712
0.000137181
0.000137235
0.000137281
0.00013732
0.000137352
0.000137378
0.000137397
0.000137411
0.00013742
0.000137424
0.000137358
0.00013741
0.000137481
0.000137567
0.000137663
0.000137767
0.000137873
0.000137981
0.000138088
0.000138191
0.00013829
0.000138384
0.000138472
0.000138553
0.000138627
0.000138694
0.000138754
0.000138806
0.000138853
0.000138892
0.000138926
0.000138953
0.000138976
0.000138992
0.000139005
0.000139012
0.000139016
0.000138923
0.000138966
0.000139025
0.000139097
0.000139178
0.000139264
0.000139354
0.000139444
0.000139532
0.000139619
0.000139701
0.000139779
0.000139852
0.00013992
0.000139981
0.000140037
0.000140087
0.000140131
0.000140169
0.000140202
0.00014023
0.000140253
0.000140272
0.000140286
0.000140296
0.000140302
0.000140305
0.00014019
0.000140225
0.000140273
0.00014033
0.000140395
0.000140464
0.000140536
0.000140608
0.000140679
0.000140748
0.000140814
0.000140876
0.000140934
0.000140988
0.000141037
0.000141081
0.000141121
0.000141156
0.000141187
0.000141213
0.000141235
0.000141254
0.000141269
0.00014128
0.000141288
0.000141293
0.000141296
0.000141165
0.000141192
0.000141228
0.000141272
0.000141322
0.000141374
0.000141428
0.000141483
0.000141537
0.000141589
0.000141638
0.000141685
0.000141729
0.00014177
0.000141807
0.00014184
0.00014187
0.000141896
0.000141919
0.000141939
0.000141956
0.00014197
0.000141981
0.00014199
0.000141996
0.000142
0.000142002
0.000141864
0.000141883
0.000141909
0.00014194
0.000141975
0.000142011
0.00014205
0.000142088
0.000142125
0.000142162
0.000142196
0.000142229
0.000142259
0.000142287
0.000142313
0.000142336
0.000142356
0.000142375
0.000142391
0.000142404
0.000142416
0.000142426
0.000142433
0.000142439
0.000142444
0.000142446
0.000142448
0.000142312
0.000142324
0.00014234
0.000142359
0.000142381
0.000142404
0.000142427
0.00014245
0.000142473
0.000142495
0.000142515
0.000142535
0.000142553
0.00014257
0.000142585
0.000142599
0.000142611
0.000142622
0.000142632
0.00014264
0.000142647
0.000142653
0.000142658
0.000142661
0.000142664
0.000142666
0.000142667
0.000142541
0.000142547
0.000142555
0.000142564
0.000142574
0.000142585
0.000142596
0.000142606
0.000142617
0.000142627
0.000142636
0.000142645
0.000142653
0.00014266
0.000142667
0.000142673
0.000142678
0.000142683
0.000142687
0.000142691
0.000142694
0.000142697
0.000142699
0.000142701
0.000142702
0.000142703
0.000142703
0.000142593
0.000142594
0.000142595
0.000142596
0.000142597
0.000142598
0.000142599
0.0001426
0.0001426
0.0001426
0.0001426
0.0001426
0.0001426
0.0001426
0.000142599
0.000142599
0.000142599
0.000142599
0.000142599
0.000142599
0.000142599
0.000142599
0.000142599
0.000142599
0.000142599
0.000142599
0.000142599
0.000142508
0.000142505
0.000142501
0.000142496
0.00014249
0.000142484
0.000142476
0.000142469
0.000142462
0.000142454
0.000142447
0.00014244
0.000142433
0.000142427
0.000142421
0.000142416
0.000142411
0.000142407
0.000142403
0.0001424
0.000142398
0.000142396
0.000142394
0.000142393
0.000142392
0.000142391
0.000142391
0.000142322
0.000142316
0.000142308
0.000142298
0.000142287
0.000142274
0.000142261
0.000142248
0.000142234
0.000142221
0.000142208
0.000142196
0.000142184
0.000142173
0.000142163
0.000142154