/*--------------------------------*- C++ -*----------------------------------*\
| =========                 |                                                 |
| \\      /  F ield         | OpenFOAM: The Open Source CFD Toolbox           |
|  \\    /   O peration     | Version:  2106                                  |
|   \\  /    A nd           | Website:  www.openfoam.com                      |
|    \\/     M anipulation  |                                                 |
\*---------------------------------------------------------------------------*/
FoamFile
{
    version     2.0;
    format      ascii;
    arch        "LSB;label=32;scalar=64";
    class       volScalarField;
    location    "80.00032";
    object      C2H5;
}
// * * * * * * * * * * * * * * * * * * * * * * * * * * * * * * * * * * * * * //

dimensions      [0 0 0 0 0 0 0];

internalField   nonuniform List<scalar> 
3360
(
9.487e-24
9.7923e-24
1.02172e-23
1.07369e-23
1.13298e-23
1.19763e-23
1.26591e-23
1.33621e-23
1.40713e-23
1.47742e-23
1.546e-23
1.61196e-23
1.67453e-23
1.73311e-23
1.78725e-23
1.83662e-23
1.88103e-23
1.92039e-23
1.95472e-23
1.98412e-23
2.00876e-23
2.02889e-23
2.04479e-23
2.05678e-23
2.06522e-23
2.07047e-23
2.07291e-23
4.16167e-23
4.31464e-23
4.53051e-23
4.79934e-23
5.1129e-23
5.464e-23
5.84624e-23
6.25373e-23
6.68101e-23
7.12292e-23
7.57449e-23
8.03091e-23
8.48741e-23
8.9393e-23
9.38197e-23
9.81087e-23
1.02216e-22
1.06097e-22
1.09713e-22
1.13023e-22
1.15992e-22
1.18589e-22
1.20787e-22
1.22565e-22
1.23907e-22
1.24803e-22
1.25249e-22
1.30584e-22
1.36316e-22
1.4446e-22
1.54693e-22
1.66748e-22
1.80383e-22
1.9537e-22
2.11482e-22
2.28491e-22
2.46164e-22
2.64262e-22
2.82549e-22
3.00791e-22
3.18754e-22
3.36217e-22
3.52966e-22
3.68804e-22
3.83556e-22
3.97067e-22
4.09212e-22
4.19892e-22
4.29037e-22
4.36608e-22
4.42592e-22
4.47003e-22
4.4988e-22
4.51281e-22
3.80308e-22
3.99198e-22
4.2622e-22
4.60408e-22
5.00954e-22
5.47101e-22
5.98092e-22
6.53143e-22
7.1143e-22
7.7209e-22
8.34228e-22
8.96936e-22
9.59311e-22
1.02047e-21
1.07959e-21
1.1359e-21
1.18871e-21
1.23745e-21
1.28166e-21
1.321e-21
1.35522e-21
1.38421e-21
1.40795e-21
1.42652e-21
1.44007e-21
1.44882e-21
1.45305e-21
1.11115e-21
1.17075e-21
1.25616e-21
1.36447e-21
1.49321e-21
1.63999e-21
1.80237e-21
1.97775e-21
2.16337e-21
2.35633e-21
2.5536e-21
2.75215e-21
2.94901e-21
3.14132e-21
3.32645e-21
3.50204e-21
3.66606e-21
3.81682e-21
3.95303e-21
4.07375e-21
4.17841e-21
4.26678e-21
4.33894e-21
4.39522e-21
4.43619e-21
4.46258e-21
4.47528e-21
3.27614e-21
3.45915e-21
3.72177e-21
4.05509e-21
4.4515e-21
4.90359e-21
5.40374e-21
5.94379e-21
6.51506e-21
7.1084e-21
7.71436e-21
8.32347e-21
8.92649e-21
9.51462e-21
1.00798e-20
1.06149e-20
1.11139e-20
1.15716e-20
1.19845e-20
1.23497e-20
1.26658e-20
1.29323e-20
1.31496e-20
1.33188e-20
1.34418e-20
1.3521e-20
1.3559e-20
9.73195e-21
1.02881e-20
1.10861e-20
1.20989e-20
1.33034e-20
1.46768e-20
1.61954e-20
1.78344e-20
1.95667e-20
2.13645e-20
2.31989e-20
2.5041e-20
2.68629e-20
2.86381e-20
3.03425e-20
3.19548e-20
3.34567e-20
3.48338e-20
3.60749e-20
3.71722e-20
3.81216e-20
3.89216e-20
3.95736e-20
4.00812e-20
4.04502e-20
4.06876e-20
4.08017e-20
2.90039e-20
3.06771e-20
3.30795e-20
3.61298e-20
3.9758e-20
4.38957e-20
4.84714e-20
5.34091e-20
5.86275e-20
6.40418e-20
6.95645e-20
7.51087e-20
8.05899e-20
8.59285e-20
9.10519e-20
9.58961e-20
1.00407e-19
1.04541e-19
1.08265e-19
1.11556e-19
1.14402e-19
1.16799e-19
1.18752e-19
1.20272e-19
1.21377e-19
1.22087e-19
1.22428e-19
8.66683e-20
9.16971e-20
9.89155e-20
1.0808e-19
1.18979e-19
1.31406e-19
1.45145e-19
1.59967e-19
1.75627e-19
1.91868e-19
2.0843e-19
2.25049e-19
2.41474e-19
2.57467e-19
2.7281e-19
2.87313e-19
3.00815e-19
3.13186e-19
3.24329e-19
3.34176e-19
3.4269e-19
3.49861e-19
3.55703e-19
3.6025e-19
3.63553e-19
3.65677e-19
3.66698e-19
2.58978e-19
2.74039e-19
2.95661e-19
3.23113e-19
3.55764e-19
3.92991e-19
4.34147e-19
4.78543e-19
5.25443e-19
5.74079e-19
6.23665e-19
6.73416e-19
7.22575e-19
7.7043e-19
8.16332e-19
8.59711e-19
9.00086e-19
9.3707e-19
9.70372e-19
9.99795e-19
1.02523e-18
1.04665e-18
1.06409e-18
1.07766e-18
1.08752e-18
1.09386e-18
1.09691e-18
7.74213e-19
8.19295e-19
8.84005e-19
9.66147e-19
1.06382e-18
1.17516e-18
1.29821e-18
1.43092e-18
1.57106e-18
1.71634e-18
1.86442e-18
2.01293e-18
2.15964e-18
2.30241e-18
2.43931e-18
2.56865e-18
2.68901e-18
2.79924e-18
2.89847e-18
2.98613e-18
3.06189e-18
3.12568e-18
3.17763e-18
3.21805e-18
3.24741e-18
3.26628e-18
3.27535e-18
2.31214e-18
2.44672e-18
2.63988e-18
2.88506e-18
3.17653e-18
3.50869e-18
3.87572e-18
4.2714e-18
4.68914e-18
5.12204e-18
5.5631e-18
6.00532e-18
6.44198e-18
6.86677e-18
7.27394e-18
7.6585e-18
8.0162e-18
8.34368e-18
8.63839e-18
8.89864e-18
9.1235e-18
9.31277e-18
9.46686e-18
9.58671e-18
9.67374e-18
9.72969e-18
9.75656e-18
6.89713e-18
7.29821e-18
7.87367e-18
8.60374e-18
9.47126e-18
1.04594e-17
1.15506e-17
1.27263e-17
1.39667e-17
1.52513e-17
1.65593e-17
1.78699e-17
1.91632e-17
2.04205e-17
2.16251e-17
2.27621e-17
2.38191e-17
2.47864e-17
2.56565e-17
2.64245e-17
2.70879e-17
2.7646e-17
2.81003e-17
2.84535e-17
2.871e-17
2.88748e-17
2.8954e-17
2.05136e-17
2.17034e-17
2.34101e-17
2.55742e-17
2.81444e-17
3.10699e-17
3.42983e-17
3.77739e-17
4.14378e-17
4.52292e-17
4.9086e-17
5.29472e-17
5.67541e-17
6.0452e-17
6.39914e-17
6.73296e-17
7.04307e-17
7.32661e-17
7.58148e-17
7.8063e-17
8.00035e-17
8.16353e-17
8.29627e-17
8.39944e-17
8.4743e-17
8.52239e-17
8.54547e-17
6.0792e-17
6.43031e-17
6.9336e-17
7.57131e-17
8.32795e-17
9.18831e-17
1.01366e-16
1.11563e-16
1.22299e-16
1.33393e-16
1.44664e-16
1.55932e-16
1.67027e-16
1.77791e-16
1.88081e-16
1.97774e-16
2.06769e-16
2.14984e-16
2.22361e-16
2.28863e-16
2.3447e-16
2.39181e-16
2.43011e-16
2.45986e-16
2.48143e-16
2.49528e-16
2.50193e-16
1.79122e-16
1.89389e-16
2.04095e-16
2.22708e-16
2.44765e-16
2.6981e-16
2.97373e-16
3.26961e-16
3.5806e-16
3.90142e-16
4.22676e-16
4.55147e-16
4.87063e-16
5.17972e-16
5.47471e-16
5.75216e-16
6.00921e-16
6.24365e-16
6.45388e-16
6.63892e-16
6.79831e-16
6.93209e-16
7.04072e-16
7.12503e-16
7.18611e-16
7.2253e-16
7.24409e-16
5.23846e-16
5.53509e-16
5.95945e-16
6.49578e-16
7.13021e-16
7.84916e-16
8.63869e-16
9.4843e-16
1.0371e-15
1.12835e-15
1.22067e-15
1.31259e-15
1.40272e-15
1.48981e-15
1.57275e-15
1.65059e-15
1.72256e-15
1.78808e-15
1.84673e-15
1.89827e-15
1.94259e-15
1.97974e-15
2.00987e-15
2.03323e-15
2.05013e-15
2.06097e-15
2.06616e-15
1.51665e-15
1.60092e-15
1.72129e-15
1.87312e-15
2.05231e-15
2.25483e-15
2.4766e-15
2.71342e-15
2.96098e-15
3.21497e-15
3.47112e-15
3.72537e-15
3.97395e-15
4.21345e-15
4.44089e-15
4.65379e-15
4.85016e-15
5.02849e-15
5.18779e-15
5.32749e-15
5.44741e-15
5.54776e-15
5.62901e-15
5.6919e-15
5.73737e-15
5.76648e-15
5.78042e-15
4.33436e-15
4.56855e-15
4.90239e-15
5.3224e-15
5.81656e-15
6.37319e-15
6.98055e-15
7.62666e-15
8.2995e-15
8.98711e-15
9.67796e-15
1.03611e-14
1.10266e-14
1.16656e-14
1.22704e-14
1.28348e-14
1.33538e-14
1.38239e-14
1.42427e-14
1.46092e-14
1.49231e-14
1.51852e-14
1.53972e-14
1.55609e-14
1.56791e-14
1.57547e-14
1.57909e-14
1.21821e-14
1.28147e-14
1.37143e-14
1.48425e-14
1.61651e-14
1.76487e-14
1.92605e-14
2.09675e-14
2.27371e-14
2.45373e-14
2.6338e-14
2.8111e-14
2.9831e-14
3.14759e-14
3.30271e-14
3.44696e-14
3.57918e-14
3.69857e-14
3.80465e-14
3.89723e-14
3.97635e-14
4.04229e-14
4.09548e-14
4.13652e-14
4.16611e-14
4.185e-14
4.19402e-14
3.35348e-14
3.51855e-14
3.75261e-14
4.04508e-14
4.38645e-14
4.76763e-14
5.17969e-14
5.61389e-14
6.06171e-14
6.51503e-14
6.96625e-14
7.40846e-14
7.83555e-14
8.24228e-14
8.62432e-14
8.97826e-14
9.30161e-14
9.59267e-14
9.85054e-14
1.0075e-13
1.02664e-13
1.04255e-13
1.05536e-13
1.06523e-13
1.07234e-13
1.07687e-13
1.07903e-13
9e-14
9.41352e-14
9.99807e-14
1.07256e-13
1.15709e-13
1.251e-13
1.35199e-13
1.45784e-13
1.56644e-13
1.67581e-13
1.78412e-13
1.88977e-13
1.99135e-13
2.08767e-13
2.1778e-13
2.26099e-13
2.33674e-13
2.40471e-13
2.46477e-13
2.5169e-13
2.56126e-13
2.59806e-13
2.62764e-13
2.65039e-13
2.66674e-13
2.67715e-13
2.68211e-13
2.34443e-13
2.44344e-13
2.58296e-13
2.7559e-13
2.95592e-13
3.17703e-13
3.41359e-13
3.66025e-13
3.912e-13
4.16426e-13
4.41292e-13
4.65435e-13
4.8855e-13
5.10384e-13
5.30737e-13
5.49461e-13
5.66456e-13
5.81665e-13
5.95067e-13
6.06676e-13
6.1653e-13
6.24693e-13
6.31242e-13
6.36271e-13
6.3988e-13
6.42176e-13
6.43269e-13
5.90623e-13
6.1322e-13
6.44968e-13
6.84175e-13
7.29325e-13
7.79008e-13
8.31909e-13
8.86806e-13
9.42577e-13
9.98212e-13
1.05282e-12
1.10563e-12
1.156e-12
1.20341e-12
1.24746e-12
1.28787e-12
1.32446e-12
1.35711e-12
1.38583e-12
1.41065e-12
1.43168e-12
1.44908e-12
1.46301e-12
1.4737e-12
1.48136e-12
1.48623e-12
1.48855e-12
1.43669e-12
1.48581e-12
1.55464e-12
1.63936e-12
1.73654e-12
1.84305e-12
1.95598e-12
2.07269e-12
2.19078e-12
2.30813e-12
2.42289e-12
2.5335e-12
2.63867e-12
2.73739e-12
2.82887e-12
2.9126e-12
2.98822e-12
3.0556e-12
3.11475e-12
3.1658e-12
3.209e-12
3.24468e-12
3.27324e-12
3.29512e-12
3.31079e-12
3.32074e-12
3.32547e-12
3.37929e-12
3.48091e-12
3.62293e-12
3.79715e-12
3.99624e-12
4.21353e-12
4.44296e-12
4.67905e-12
4.91694e-12
5.15238e-12
5.38173e-12
5.60196e-12
5.81064e-12
6.00587e-12
6.18625e-12
6.35085e-12
6.49914e-12
6.63094e-12
6.74637e-12
6.84579e-12
6.92976e-12
6.99899e-12
7.05432e-12
7.09665e-12
7.12694e-12
7.14615e-12
7.15527e-12
7.72694e-12
7.92651e-12
8.20431e-12
8.5433e-12
8.92826e-12
9.34538e-12
9.78224e-12
1.02278e-11
1.06725e-11
1.11081e-11
1.15278e-11
1.19261e-11
1.22991e-11
1.26437e-11
1.29581e-11
1.32414e-11
1.34933e-11
1.37143e-11
1.39055e-11
1.40682e-11
1.4204e-11
1.43148e-11
1.44023e-11
1.44686e-11
1.45156e-11
1.45451e-11
1.45591e-11
1.72737e-11
1.76424e-11
1.81514e-11
1.87655e-11
1.94529e-11
2.0185e-11
2.09368e-11
2.16866e-11
2.24163e-11
2.31117e-11
2.3762e-11
2.43597e-11
2.49001e-11
2.53812e-11
2.58031e-11
2.61676e-11
2.64776e-11
2.67372e-11
2.69509e-11
2.71236e-11
2.726e-11
2.73651e-11
2.74433e-11
2.7499e-11
2.7536e-11
2.75578e-11
2.75673e-11
3.73633e-11
3.80064e-11
3.88851e-11
3.99303e-11
4.10798e-11
4.22783e-11
4.34785e-11
4.46413e-11
4.57358e-11
4.67395e-11
4.76375e-11
4.84218e-11
4.90901e-11
4.96451e-11
5.0093e-11
5.0443e-11
5.07059e-11
5.08935e-11
5.10181e-11
5.10919e-11
5.11263e-11
5.11321e-11
5.1119e-11
5.10958e-11
5.10698e-11
5.10476e-11
5.10344e-11
7.64419e-11
7.76289e-11
7.92515e-11
8.11836e-11
8.33127e-11
8.55399e-11
8.7781e-11
8.9967e-11
9.20436e-11
9.3971e-11
9.57219e-11
9.72803e-11
9.86399e-11
9.98017e-11
1.00773e-10
1.01566e-10
1.02196e-10
1.0268e-10
1.03037e-10
1.03286e-10
1.03447e-10
1.03538e-10
1.03576e-10
1.0358e-10
1.03563e-10
1.0354e-10
1.03523e-10
1.46448e-10
1.49073e-10
1.5272e-10
1.57164e-10
1.62204e-10
1.67661e-10
1.73379e-10
1.7922e-10
1.85065e-10
1.90813e-10
1.96379e-10
2.01693e-10
2.06698e-10
2.11352e-10
2.15621e-10
2.19485e-10
2.22933e-10
2.25962e-10
2.28578e-10
2.30795e-10
2.3263e-10
2.34109e-10
2.35259e-10
2.36112e-10
2.367e-10
2.37058e-10
2.3722e-10
2.66436e-10
2.7268e-10
2.81486e-10
2.92424e-10
3.05118e-10
3.19228e-10
3.34436e-10
3.50444e-10
3.6697e-10
3.83747e-10
4.00522e-10
4.17062e-10
4.3315e-10
4.48591e-10
4.63213e-10
4.76872e-10
4.89447e-10
5.00848e-10
5.11013e-10
5.19907e-10
5.27521e-10
5.33867e-10
5.38982e-10
5.42918e-10
5.45742e-10
5.47535e-10
5.48385e-10
4.67546e-10
4.80782e-10
4.9956e-10
5.23059e-10
5.50567e-10
5.81424e-10
6.15e-10
6.50678e-10
6.87854e-10
7.25931e-10
7.64328e-10
8.02488e-10
8.3989e-10
8.76046e-10
9.10519e-10
9.42928e-10
9.72958e-10
1.00036e-09
1.02494e-09
1.04659e-09
1.06524e-09
1.08089e-09
1.09357e-09
1.1034e-09
1.1105e-09
1.11504e-09
1.11721e-09
7.86986e-10
8.10203e-10
8.43119e-10
8.84264e-10
9.32352e-10
9.86184e-10
1.04462e-09
1.10653e-09
1.17083e-09
1.23643e-09
1.30232e-09
1.36754e-09
1.43118e-09
1.49245e-09
1.5506e-09
1.60501e-09
1.65519e-09
1.70075e-09
1.74142e-09
1.77707e-09
1.80763e-09
1.83317e-09
1.8538e-09
1.86973e-09
1.88121e-09
1.88853e-09
1.89202e-09
1.24579e-09
1.27924e-09
1.32645e-09
1.3851e-09
1.45316e-09
1.52874e-09
1.61006e-09
1.69543e-09
1.78321e-09
1.87184e-09
1.95988e-09
2.04604e-09
2.12917e-09
2.20828e-09
2.28255e-09
2.35132e-09
2.41411e-09
2.47059e-09
2.52057e-09
2.56401e-09
2.60098e-09
2.63164e-09
2.65626e-09
2.67516e-09
2.6887e-09
2.69729e-09
2.70137e-09
1.8249e-09
1.86519e-09
1.92168e-09
1.99128e-09
2.07121e-09
2.15896e-09
2.25218e-09
2.34873e-09
2.44666e-09
2.5442e-09
2.63981e-09
2.73216e-09
2.82014e-09
2.90284e-09
2.97958e-09
3.04986e-09
3.11334e-09
3.16989e-09
3.21947e-09
3.26219e-09
3.29826e-09
3.32797e-09
3.35165e-09
3.36972e-09
3.38259e-09
3.39072e-09
3.39456e-09
2.46209e-09
2.50334e-09
2.5608e-09
2.63098e-09
2.71077e-09
2.7974e-09
2.88833e-09
2.98136e-09
3.07453e-09
3.16618e-09
3.25491e-09
3.33959e-09
3.41932e-09
3.49345e-09
3.56151e-09
3.62321e-09
3.67844e-09
3.7272e-09
3.76961e-09
3.80588e-09
3.83629e-09
3.86117e-09
3.8809e-09
3.89587e-09
3.90649e-09
3.91317e-09
3.91631e-09
3.07725e-09
3.1143e-09
3.16562e-09
3.22784e-09
3.29798e-09
3.3734e-09
3.45178e-09
3.53112e-09
3.60976e-09
3.6863e-09
3.75965e-09
3.82895e-09
3.89359e-09
3.95313e-09
4.00733e-09
4.05608e-09
4.09938e-09
4.13734e-09
4.17015e-09
4.19805e-09
4.22131e-09
4.24026e-09
4.25521e-09
4.26651e-09
4.2745e-09
4.27951e-09
4.28186e-09
3.61132e-09
3.6414e-09
3.68287e-09
3.73286e-09
3.78882e-09
3.84855e-09
3.91013e-09
3.97195e-09
4.03272e-09
4.09139e-09
4.14716e-09
4.19944e-09
4.24785e-09
4.29213e-09
4.33218e-09
4.36797e-09
4.39959e-09
4.42716e-09
4.45088e-09
4.47095e-09
4.48763e-09
4.50117e-09
4.51182e-09
4.51984e-09
4.5255e-09
4.52904e-09
4.5307e-09
4.0394e-09
4.06204e-09
4.09314e-09
4.13045e-09
4.17202e-09
4.21612e-09
4.26131e-09
4.30641e-09
4.35045e-09
4.39271e-09
4.43263e-09
4.46985e-09
4.50412e-09
4.5353e-09
4.56336e-09
4.58832e-09
4.61028e-09
4.62936e-09
4.64571e-09
4.65951e-09
4.67095e-09
4.6802e-09
4.68747e-09
4.69294e-09
4.69678e-09
4.69919e-09
4.70031e-09
4.3642e-09
4.3803e-09
4.40237e-09
4.42876e-09
4.45804e-09
4.48897e-09
4.52052e-09
4.55184e-09
4.5823e-09
4.61138e-09
4.63872e-09
4.6641e-09
4.68737e-09
4.70845e-09
4.72735e-09
4.74411e-09
4.7588e-09
4.77153e-09
4.78241e-09
4.79158e-09
4.79915e-09
4.80527e-09
4.81007e-09
4.81368e-09
4.81622e-09
4.8178e-09
4.81854e-09
4.60274e-09
4.61372e-09
4.62875e-09
4.64667e-09
4.66648e-09
4.68734e-09
4.70854e-09
4.7295e-09
4.7498e-09
4.76911e-09
4.7872e-09
4.80391e-09
4.81918e-09
4.83297e-09
4.8453e-09
4.85619e-09
4.86571e-09
4.87394e-09
4.88096e-09
4.88685e-09
4.89172e-09
4.89565e-09
4.89872e-09
4.90103e-09
4.90265e-09
4.90367e-09
4.90414e-09
4.77573e-09
4.78298e-09
4.79287e-09
4.80464e-09
4.81762e-09
4.83124e-09
4.84502e-09
4.85861e-09
4.87171e-09
4.88412e-09
4.89571e-09
4.90637e-09
4.91607e-09
4.9248e-09
4.93257e-09
4.93941e-09
4.94538e-09
4.95052e-09
4.95489e-09
4.95855e-09
4.96157e-09
4.96401e-09
4.96591e-09
4.96734e-09
4.96834e-09
4.96897e-09
4.96926e-09
4.90182e-09
4.90646e-09
4.91277e-09
4.92027e-09
4.9285e-09
4.93711e-09
4.94578e-09
4.95429e-09
4.96246e-09
4.97016e-09
4.9773e-09
4.98385e-09
4.98977e-09
4.99507e-09
4.99977e-09
5.00388e-09
5.00745e-09
5.01051e-09
5.01311e-09
5.01528e-09
5.01706e-09
5.01849e-09
5.01961e-09
5.02044e-09
5.02103e-09
5.0214e-09
5.02157e-09
4.99561e-09
4.99848e-09
5.00236e-09
5.00696e-09
5.01198e-09
5.0172e-09
5.02243e-09
5.02753e-09
5.03238e-09
5.03692e-09
5.04109e-09
5.04489e-09
5.04828e-09
5.0513e-09
5.05394e-09
5.05624e-09
5.05822e-09
5.0599e-09
5.06132e-09
5.06249e-09
5.06345e-09
5.06421e-09
5.06481e-09
5.06526e-09
5.06557e-09
5.06576e-09
5.06586e-09
5.06765e-09
5.06933e-09
5.07159e-09
5.07425e-09
5.07714e-09
5.0801e-09
5.08304e-09
5.08587e-09
5.08852e-09
5.09096e-09
5.09317e-09
5.09513e-09
5.09686e-09
5.09836e-09
5.09965e-09
5.10075e-09
5.10167e-09
5.10244e-09
5.10308e-09
5.10359e-09
5.10401e-09
5.10433e-09
5.10459e-09
5.10477e-09
5.1049e-09
5.10498e-09
5.10502e-09
5.12517e-09
5.12606e-09
5.12725e-09
5.12863e-09
5.1301e-09
5.13158e-09
5.133e-09
5.13433e-09
5.13552e-09
5.13658e-09
5.13749e-09
5.13825e-09
5.13887e-09
5.13937e-09
5.13977e-09
5.14007e-09
5.1403e-09
5.14046e-09
5.14058e-09
5.14066e-09
5.14071e-09
5.14075e-09
5.14077e-09
5.14079e-09
5.14079e-09
5.1408e-09
5.1408e-09
5.17299e-09
5.17336e-09
5.17384e-09
5.17437e-09
5.1749e-09
5.17539e-09
5.17581e-09
5.17615e-09
5.17638e-09
5.17652e-09
5.17656e-09
5.17653e-09
5.17642e-09
5.17626e-09
5.17606e-09
5.17583e-09
5.17559e-09
5.17536e-09
5.17513e-09
5.17492e-09
5.17473e-09
5.17457e-09
5.17444e-09
5.17434e-09
5.17427e-09
5.17422e-09
5.1742e-09
5.21421e-09
5.21424e-09
5.21425e-09
5.21422e-09
5.21412e-09
5.21396e-09
5.21371e-09
5.21338e-09
5.21297e-09
5.2125e-09
5.21196e-09
5.21139e-09
5.21079e-09
5.21019e-09
5.20959e-09
5.20901e-09
5.20846e-09
5.20795e-09
5.20749e-09
5.20708e-09
5.20673e-09
5.20644e-09
5.20621e-09
5.20603e-09
5.2059e-09
5.20582e-09
5.20578e-09
5.25084e-09
5.25063e-09
5.25032e-09
5.24991e-09
5.2494e-09
5.24878e-09
5.24808e-09
5.2473e-09
5.24646e-09
5.24557e-09
5.24464e-09
5.24371e-09
5.24278e-09
5.24187e-09
5.24099e-09
5.24017e-09
5.2394e-09
5.23871e-09
5.23809e-09
5.23754e-09
5.23708e-09
5.2367e-09
5.23639e-09
5.23615e-09
5.23599e-09
5.23588e-09
5.23583e-09
5.2841e-09
5.28374e-09
5.28321e-09
5.28253e-09
5.28173e-09
5.28081e-09
5.27979e-09
5.2787e-09
5.27755e-09
5.27637e-09
5.27517e-09
5.27398e-09
5.27281e-09
5.27169e-09
5.27062e-09
5.26962e-09
5.26871e-09
5.26788e-09
5.26714e-09
5.2665e-09
5.26596e-09
5.2655e-09
5.26514e-09
5.26487e-09
5.26467e-09
5.26455e-09
5.26449e-09
5.31478e-09
5.3143e-09
5.31361e-09
5.31275e-09
5.31173e-09
5.31059e-09
5.30935e-09
5.30804e-09
5.30667e-09
5.30527e-09
5.30388e-09
5.3025e-09
5.30116e-09
5.29987e-09
5.29866e-09
5.29754e-09
5.29651e-09
5.29558e-09
5.29476e-09
5.29405e-09
5.29344e-09
5.29294e-09
5.29254e-09
5.29223e-09
5.29202e-09
5.29188e-09
5.29182e-09
5.34332e-09
5.34276e-09
5.34195e-09
5.34095e-09
5.33978e-09
5.33847e-09
5.33706e-09
5.33558e-09
5.33404e-09
5.33249e-09
5.33094e-09
5.32941e-09
5.32794e-09
5.32654e-09
5.32522e-09
5.32399e-09
5.32287e-09
5.32187e-09
5.32098e-09
5.32021e-09
5.31955e-09
5.31901e-09
5.31858e-09
5.31825e-09
5.31801e-09
5.31787e-09
5.3178e-09
5.37001e-09
5.36938e-09
5.36848e-09
5.36737e-09
5.36607e-09
5.36464e-09
5.36309e-09
5.36147e-09
5.3598e-09
5.35811e-09
5.35644e-09
5.3548e-09
5.35322e-09
5.35172e-09
5.3503e-09
5.349e-09
5.3478e-09
5.34673e-09
5.34579e-09
5.34497e-09
5.34427e-09
5.3437e-09
5.34324e-09
5.34289e-09
5.34264e-09
5.34248e-09
5.34241e-09
5.395e-09
5.39431e-09
5.39333e-09
5.39212e-09
5.39073e-09
5.38918e-09
5.38752e-09
5.38578e-09
5.38399e-09
5.3822e-09
5.38042e-09
5.37868e-09
5.377e-09
5.37541e-09
5.37392e-09
5.37254e-09
5.37129e-09
5.37016e-09
5.36916e-09
5.3683e-09
5.36757e-09
5.36696e-09
5.36648e-09
5.36611e-09
5.36585e-09
5.36569e-09
5.36561e-09
5.41834e-09
5.4176e-09
5.41656e-09
5.41527e-09
5.41378e-09
5.41213e-09
5.41036e-09
5.40852e-09
5.40663e-09
5.40474e-09
5.40286e-09
5.40103e-09
5.39927e-09
5.3976e-09
5.39603e-09
5.39459e-09
5.39327e-09
5.39209e-09
5.39105e-09
5.39015e-09
5.38938e-09
5.38875e-09
5.38824e-09
5.38786e-09
5.38758e-09
5.38741e-09
5.38733e-09
5.44007e-09
5.43928e-09
5.43818e-09
5.43681e-09
5.43523e-09
5.43349e-09
5.43162e-09
5.42968e-09
5.4277e-09
5.4257e-09
5.42374e-09
5.42182e-09
5.41997e-09
5.41823e-09
5.41659e-09
5.41508e-09
5.41371e-09
5.41248e-09
5.41139e-09
5.41045e-09
5.40965e-09
5.40899e-09
5.40846e-09
5.40806e-09
5.40778e-09
5.40759e-09
5.40751e-09
5.46016e-09
5.45933e-09
5.45816e-09
5.45671e-09
5.45504e-09
5.45321e-09
5.45125e-09
5.44921e-09
5.44713e-09
5.44504e-09
5.44298e-09
5.44098e-09
5.43905e-09
5.43723e-09
5.43552e-09
5.43395e-09
5.43252e-09
5.43123e-09
5.4301e-09
5.42912e-09
5.42829e-09
5.4276e-09
5.42705e-09
5.42664e-09
5.42634e-09
5.42615e-09
5.42606e-09
5.47855e-09
5.47767e-09
5.47644e-09
5.47491e-09
5.47316e-09
5.47123e-09
5.46917e-09
5.46703e-09
5.46485e-09
5.46267e-09
5.46051e-09
5.45842e-09
5.45641e-09
5.45451e-09
5.45273e-09
5.45109e-09
5.4496e-09
5.44826e-09
5.44709e-09
5.44606e-09
5.4452e-09
5.44448e-09
5.44391e-09
5.44347e-09
5.44316e-09
5.44297e-09
5.44287e-09
5.49516e-09
5.49423e-09
5.49293e-09
5.49133e-09
5.48948e-09
5.48746e-09
5.4853e-09
5.48305e-09
5.48077e-09
5.47848e-09
5.47623e-09
5.47404e-09
5.47194e-09
5.46995e-09
5.4681e-09
5.46639e-09
5.46483e-09
5.46344e-09
5.46221e-09
5.46115e-09
5.46025e-09
5.4595e-09
5.4589e-09
5.45845e-09
5.45812e-09
5.45792e-09
5.45782e-09
5.50987e-09
5.5089e-09
5.50752e-09
5.50583e-09
5.50389e-09
5.50175e-09
5.49948e-09
5.49713e-09
5.49473e-09
5.49233e-09
5.48997e-09
5.48768e-09
5.48548e-09
5.48341e-09
5.48147e-09
5.47968e-09
5.47806e-09
5.47661e-09
5.47532e-09
5.47421e-09
5.47327e-09
5.47249e-09
5.47187e-09
5.47139e-09
5.47106e-09
5.47084e-09
5.47074e-09
5.52253e-09
5.52149e-09
5.52004e-09
5.51826e-09
5.51621e-09
5.51396e-09
5.51156e-09
5.50908e-09
5.50656e-09
5.50404e-09
5.50156e-09
5.49916e-09
5.49685e-09
5.49468e-09
5.49265e-09
5.49078e-09
5.48908e-09
5.48756e-09
5.48622e-09
5.48505e-09
5.48407e-09
5.48325e-09
5.4826e-09
5.4821e-09
5.48175e-09
5.48152e-09
5.48142e-09
5.53292e-09
5.53182e-09
5.53029e-09
5.52839e-09
5.52622e-09
5.52384e-09
5.52131e-09
5.51869e-09
5.51603e-09
5.51337e-09
5.51076e-09
5.50823e-09
5.50581e-09
5.50352e-09
5.50138e-09
5.49942e-09
5.49764e-09
5.49604e-09
5.49463e-09
5.49341e-09
5.49237e-09
5.49152e-09
5.49083e-09
5.49031e-09
5.48993e-09
5.4897e-09
5.48959e-09
5.54079e-09
5.53962e-09
5.53798e-09
5.53597e-09
5.53366e-09
5.53113e-09
5.52845e-09
5.52567e-09
5.52285e-09
5.52004e-09
5.51727e-09
5.51459e-09
5.51203e-09
5.50962e-09
5.50736e-09
5.50529e-09
5.50341e-09
5.50172e-09
5.50024e-09
5.49895e-09
5.49786e-09
5.49696e-09
5.49623e-09
5.49568e-09
5.49529e-09
5.49504e-09
5.49492e-09
5.5458e-09
5.54455e-09
5.5428e-09
5.54065e-09
5.53818e-09
5.53548e-09
5.53262e-09
5.52965e-09
5.52665e-09
5.52365e-09
5.52071e-09
5.51787e-09
5.51515e-09
5.51258e-09
5.51019e-09
5.50799e-09
5.50599e-09
5.50421e-09
5.50263e-09
5.50127e-09
5.50011e-09
5.49915e-09
5.49839e-09
5.4978e-09
5.49738e-09
5.49711e-09
5.49699e-09
5.54754e-09
5.54619e-09
5.54431e-09
5.54199e-09
5.53934e-09
5.53644e-09
5.53337e-09
5.53019e-09
5.52697e-09
5.52376e-09
5.52062e-09
5.51757e-09
5.51466e-09
5.51192e-09
5.50937e-09
5.50702e-09
5.50489e-09
5.50298e-09
5.5013e-09
5.49985e-09
5.49861e-09
5.49759e-09
5.49677e-09
5.49615e-09
5.4957e-09
5.49541e-09
5.49528e-09
5.54548e-09
5.54402e-09
5.54198e-09
5.53947e-09
5.5366e-09
5.53347e-09
5.53014e-09
5.52671e-09
5.52324e-09
5.51978e-09
5.51639e-09
5.51311e-09
5.50998e-09
5.50703e-09
5.50429e-09
5.50176e-09
5.49947e-09
5.49742e-09
5.49562e-09
5.49405e-09
5.49273e-09
5.49163e-09
5.49075e-09
5.49008e-09
5.4896e-09
5.48929e-09
5.48915e-09
5.53898e-09
5.53738e-09
5.53516e-09
5.53242e-09
5.5293e-09
5.52588e-09
5.52227e-09
5.51853e-09
5.51476e-09
5.511e-09
5.50732e-09
5.50376e-09
5.50037e-09
5.49717e-09
5.4942e-09
5.49146e-09
5.48898e-09
5.48676e-09
5.48481e-09
5.48312e-09
5.48168e-09
5.48049e-09
5.47954e-09
5.47881e-09
5.47829e-09
5.47796e-09
5.47781e-09
5.52726e-09
5.5255e-09
5.52305e-09
5.52005e-09
5.51662e-09
5.51287e-09
5.5089e-09
5.50481e-09
5.50067e-09
5.49656e-09
5.49253e-09
5.48864e-09
5.48493e-09
5.48143e-09
5.47818e-09
5.4752e-09
5.47249e-09
5.47007e-09
5.46794e-09
5.46609e-09
5.46453e-09
5.46323e-09
5.46219e-09
5.4614e-09
5.46083e-09
5.46047e-09
5.4603e-09
5.50936e-09
5.50742e-09
5.5047e-09
5.50137e-09
5.49757e-09
5.49342e-09
5.48903e-09
5.48451e-09
5.47994e-09
5.4754e-09
5.47096e-09
5.46667e-09
5.46258e-09
5.45873e-09
5.45515e-09
5.45187e-09
5.44889e-09
5.44622e-09
5.44388e-09
5.44185e-09
5.44012e-09
5.4387e-09
5.43756e-09
5.43668e-09
5.43606e-09
5.43566e-09
5.43547e-09
5.48415e-09
5.48197e-09
5.47894e-09
5.47523e-09
5.47098e-09
5.46636e-09
5.46147e-09
5.45643e-09
5.45134e-09
5.44629e-09
5.44135e-09
5.43658e-09
5.43204e-09
5.42777e-09
5.42379e-09
5.42015e-09
5.41684e-09
5.41389e-09
5.41129e-09
5.40904e-09
5.40713e-09
5.40555e-09
5.40428e-09
5.40331e-09
5.40262e-09
5.40218e-09
5.40197e-09
5.45026e-09
5.44782e-09
5.44441e-09
5.44023e-09
5.43546e-09
5.43026e-09
5.42477e-09
5.41912e-09
5.41341e-09
5.40775e-09
5.40222e-09
5.39688e-09
5.39179e-09
5.38701e-09
5.38257e-09
5.3785e-09
5.3748e-09
5.3715e-09
5.3686e-09
5.36608e-09
5.36395e-09
5.36219e-09
5.36077e-09
5.35969e-09
5.35891e-09
5.35842e-09
5.35819e-09
5.40612e-09
5.40336e-09
5.39949e-09
5.39477e-09
5.38937e-09
5.38349e-09
5.37729e-09
5.37091e-09
5.36447e-09
5.35808e-09
5.35183e-09
5.34582e-09
5.34009e-09
5.33471e-09
5.32971e-09
5.32512e-09
5.32097e-09
5.31726e-09
5.31399e-09
5.31116e-09
5.30877e-09
5.30678e-09
5.30519e-09
5.30397e-09
5.3031e-09
5.30255e-09
5.30228e-09
5.3499e-09
5.34675e-09
5.34236e-09
5.33698e-09
5.33085e-09
5.32416e-09
5.31712e-09
5.30987e-09
5.30256e-09
5.29531e-09
5.28823e-09
5.28141e-09
5.27493e-09
5.26883e-09
5.26317e-09
5.25799e-09
5.25329e-09
5.24909e-09
5.2454e-09
5.2422e-09
5.2395e-09
5.23725e-09
5.23546e-09
5.23408e-09
5.23309e-09
5.23247e-09
5.23217e-09
5.27954e-09
5.27593e-09
5.27091e-09
5.26477e-09
5.25777e-09
5.25014e-09
5.2421e-09
5.23384e-09
5.22551e-09
5.21725e-09
5.2092e-09
5.20144e-09
5.19406e-09
5.18714e-09
5.18071e-09
5.17482e-09
5.16948e-09
5.16472e-09
5.16053e-09
5.15691e-09
5.15383e-09
5.15129e-09
5.14925e-09
5.14769e-09
5.14657e-09
5.14586e-09
5.14553e-09
5.19273e-09
5.18861e-09
5.18286e-09
5.17582e-09
5.16781e-09
5.15909e-09
5.1499e-09
5.14045e-09
5.13094e-09
5.12152e-09
5.11233e-09
5.10348e-09
5.09508e-09
5.08719e-09
5.07987e-09
5.07316e-09
5.06709e-09
5.06167e-09
5.05691e-09
5.05279e-09
5.0493e-09
5.04641e-09
5.0441e-09
5.04232e-09
5.04105e-09
5.04025e-09
5.03987e-09
5.08704e-09
5.08231e-09
5.07572e-09
5.06767e-09
5.05849e-09
5.04851e-09
5.038e-09
5.02721e-09
5.01634e-09
5.00558e-09
4.99509e-09
4.985e-09
4.97542e-09
4.96643e-09
4.95809e-09
4.95045e-09
4.94355e-09
4.93739e-09
4.93197e-09
4.92729e-09
4.92332e-09
4.92004e-09
4.91742e-09
4.9154e-09
4.91396e-09
4.91305e-09
4.91261e-09
4.95992e-09
4.95451e-09
4.94697e-09
4.93776e-09
4.92727e-09
4.91587e-09
4.90387e-09
4.89155e-09
4.87915e-09
4.86689e-09
4.85494e-09
4.84345e-09
4.83255e-09
4.82232e-09
4.81285e-09
4.80417e-09
4.79633e-09
4.78934e-09
4.7832e-09
4.77789e-09
4.77339e-09
4.76967e-09
4.7667e-09
4.76442e-09
4.76279e-09
4.76175e-09
4.76126e-09
4.80891e-09
4.80274e-09
4.79415e-09
4.78365e-09
4.77171e-09
4.75874e-09
4.74508e-09
4.73108e-09
4.71699e-09
4.70307e-09
4.68951e-09
4.67648e-09
4.66413e-09
4.65255e-09
4.64182e-09
4.63201e-09
4.62315e-09
4.61525e-09
4.60831e-09
4.60233e-09
4.59725e-09
4.59307e-09
4.58971e-09
4.58715e-09
4.58531e-09
4.58415e-09
4.5836e-09
4.63182e-09
4.62483e-09
4.61509e-09
4.60321e-09
4.58969e-09
4.57501e-09
4.55958e-09
4.54375e-09
4.52785e-09
4.51214e-09
4.49686e-09
4.48219e-09
4.46828e-09
4.45525e-09
4.4432e-09
4.43218e-09
4.42224e-09
4.41338e-09
4.40561e-09
4.3989e-09
4.39323e-09
4.38854e-09
4.3848e-09
4.38193e-09
4.37989e-09
4.37859e-09
4.37797e-09
4.42701e-09
4.41915e-09
4.40822e-09
4.39487e-09
4.3797e-09
4.36324e-09
4.34595e-09
4.32823e-09
4.31044e-09
4.29288e-09
4.27581e-09
4.25944e-09
4.24393e-09
4.22942e-09
4.21601e-09
4.20376e-09
4.19271e-09
4.18288e-09
4.17426e-09
4.16683e-09
4.16055e-09
4.15537e-09
4.15124e-09
4.14807e-09
4.14581e-09
4.14438e-09
4.1437e-09
4.19377e-09
4.18504e-09
4.17289e-09
4.15807e-09
4.14125e-09
4.123e-09
4.10384e-09
4.08424e-09
4.06457e-09
4.04518e-09
4.02635e-09
4.00831e-09
3.99124e-09
3.97528e-09
3.96055e-09
3.94711e-09
3.935e-09
3.92424e-09
3.91481e-09
3.90669e-09
3.89984e-09
3.8942e-09
3.88969e-09
3.88625e-09
3.8838e-09
3.88225e-09
3.88151e-09
3.9327e-09
3.92314e-09
3.90983e-09
3.89362e-09
3.87523e-09
3.8553e-09
3.8344e-09
3.81303e-09
3.79162e-09
3.77054e-09
3.75009e-09
3.73052e-09
3.71202e-09
3.69477e-09
3.67885e-09
3.66435e-09
3.6513e-09
3.63972e-09
3.62959e-09
3.62089e-09
3.61355e-09
3.60751e-09
3.6027e-09
3.59903e-09
3.59642e-09
3.59477e-09
3.594e-09
3.64619e-09
3.63589e-09
3.62159e-09
3.60417e-09
3.58442e-09
3.56304e-09
3.54066e-09
3.5178e-09
3.49494e-09
3.47245e-09
3.45067e-09
3.42987e-09
3.41024e-09
3.39195e-09
3.37511e-09
3.3598e-09
3.34604e-09
3.33386e-09
3.32322e-09
3.31409e-09
3.30642e-09
3.30011e-09
3.2951e-09
3.29129e-09
3.28858e-09
3.28687e-09
3.28607e-09
3.33877e-09
3.32793e-09
3.31288e-09
3.29457e-09
3.27384e-09
3.25144e-09
3.22801e-09
3.20414e-09
3.18029e-09
3.15689e-09
3.13427e-09
3.11271e-09
3.09241e-09
3.07354e-09
3.05621e-09
3.04049e-09
3.02641e-09
3.01396e-09
3.00313e-09
2.99386e-09
2.98608e-09
2.97971e-09
2.97466e-09
2.97084e-09
2.96812e-09
2.96642e-09
2.96562e-09
3.01765e-09
3.00656e-09
2.99119e-09
2.97253e-09
2.95143e-09
2.92868e-09
2.90494e-09
2.88081e-09
2.85679e-09
2.83328e-09
2.81065e-09
2.78916e-09
2.76904e-09
2.75043e-09
2.73346e-09
2.7182e-09
2.70466e-09
2.69284e-09
2.68266e-09
2.67403e-09
2.66686e-09
2.66105e-09
2.65649e-09
2.65306e-09
2.65065e-09
2.64916e-09
2.64847e-09
2.69424e-09
2.68358e-09
2.6689e-09
2.65122e-09
2.63133e-09
2.60996e-09
2.58775e-09
2.56524e-09
2.54292e-09
2.52117e-09
2.5003e-09
2.48057e-09
2.46216e-09
2.4452e-09
2.42977e-09
2.41593e-09
2.40366e-09
2.39295e-09
2.38374e-09
2.37596e-09
2.36952e-09
2.36434e-09
2.36029e-09
2.35727e-09
2.35517e-09
2.35388e-09
2.35329e-09
2.39255e-09
2.3827e-09
2.36909e-09
2.35264e-09
2.33414e-09
2.31431e-09
2.29376e-09
2.27303e-09
2.25254e-09
2.23267e-09
2.2137e-09
2.19586e-09
2.1793e-09
2.16414e-09
2.15044e-09
2.13822e-09
2.12748e-09
2.11817e-09
2.11023e-09
2.10359e-09
2.09815e-09
2.09382e-09
2.09047e-09
2.08802e-09
2.08633e-09
2.08531e-09
2.08485e-09
2.116e-09
2.10726e-09
2.0952e-09
2.08067e-09
2.0644e-09
2.04705e-09
2.02918e-09
2.01127e-09
1.99371e-09
1.97682e-09
1.96083e-09
1.94593e-09
1.93225e-09
1.91986e-09
1.9088e-09
1.89907e-09
1.89064e-09
1.88345e-09
1.87743e-09
1.87249e-09
1.86853e-09
1.86545e-09
1.86315e-09
1.8615e-09
1.86041e-09
1.85978e-09
1.85951e-09
1.87775e-09
1.8707e-09
1.86102e-09
1.84944e-09
1.83659e-09
1.82302e-09
1.80921e-09
1.79555e-09
1.78235e-09
1.76988e-09
1.7583e-09
1.74774e-09
1.73827e-09
1.72993e-09
1.72272e-09
1.71658e-09
1.71148e-09
1.70733e-09
1.70404e-09
1.70151e-09
1.69964e-09
1.69832e-09
1.69745e-09
1.69694e-09
1.69667e-09
1.69657e-09
1.69656e-09
1.69438e-09
1.68973e-09
1.68343e-09
1.67602e-09
1.66799e-09
1.65975e-09
1.65164e-09
1.64395e-09
1.63688e-09
1.63058e-09
1.62514e-09
1.62061e-09
1.61699e-09
1.61424e-09
1.61232e-09
1.61113e-09
1.61058e-09
1.61057e-09