/*--------------------------------*- C++ -*----------------------------------*\
| =========                 |                                                 |
| \\      /  F ield         | OpenFOAM: The Open Source CFD Toolbox           |
|  \\    /   O peration     | Version:  2106                                  |
|   \\  /    A nd           | Website:  www.openfoam.com                      |
|    \\/     M anipulation  |                                                 |
\*---------------------------------------------------------------------------*/
FoamFile
{
    version     2.0;
    format      ascii;
    arch        "LSB;label=32;scalar=64";
    class       volScalarField;
    location    "80.00032";
    object      C4H2_0;
}
// * * * * * * * * * * * * * * * * * * * * * * * * * * * * * * * * * * * * * //

dimensions      [0 0 0 0 0 0 0];

internalField   nonuniform List<scalar> 
3360
(
1.23773e-18
1.27756e-18
1.33299e-18
1.4008e-18
1.47815e-18
1.56251e-18
1.65158e-18
1.7433e-18
1.83583e-18
1.92753e-18
2.01701e-18
2.10306e-18
2.18469e-18
2.26112e-18
2.33176e-18
2.39617e-18
2.45411e-18
2.50546e-18
2.55024e-18
2.5886e-18
2.62075e-18
2.64701e-18
2.66775e-18
2.6834e-18
2.69441e-18
2.70126e-18
2.70444e-18
5.42956e-18
5.62913e-18
5.91077e-18
6.2615e-18
6.67059e-18
7.12867e-18
7.62735e-18
8.15899e-18
8.71645e-18
9.29298e-18
9.88213e-18
1.04776e-17
1.10732e-17
1.16627e-17
1.22403e-17
1.27998e-17
1.33357e-17
1.38421e-17
1.43138e-17
1.47456e-17
1.5133e-17
1.54718e-17
1.57586e-17
1.59906e-17
1.61656e-17
1.62825e-17
1.63408e-17
1.70368e-17
1.77846e-17
1.88471e-17
2.01822e-17
2.17549e-17
2.35339e-17
2.54891e-17
2.75912e-17
2.98103e-17
3.2116e-17
3.44772e-17
3.68631e-17
3.92429e-17
4.15866e-17
4.38649e-17
4.605e-17
4.81164e-17
5.0041e-17
5.18038e-17
5.33882e-17
5.47816e-17
5.59747e-17
5.69624e-17
5.77431e-17
5.83187e-17
5.8694e-17
5.88767e-17
4.96173e-17
5.20817e-17
5.56072e-17
6.00676e-17
6.53574e-17
7.13781e-17
7.80307e-17
8.52129e-17
9.28174e-17
1.00731e-16
1.08838e-16
1.1702e-16
1.25157e-16
1.33137e-16
1.4085e-16
1.48196e-16
1.55086e-16
1.61445e-16
1.67214e-16
1.72345e-16
1.7681e-16
1.80592e-16
1.8369e-16
1.86113e-16
1.87881e-16
1.89022e-16
1.89573e-16
1.44967e-16
1.52742e-16
1.63886e-16
1.78017e-16
1.94812e-16
2.13962e-16
2.35147e-16
2.58029e-16
2.82247e-16
3.07421e-16
3.33158e-16
3.59062e-16
3.84745e-16
4.09835e-16
4.33988e-16
4.56897e-16
4.78295e-16
4.97965e-16
5.15735e-16
5.31485e-16
5.4514e-16
5.5667e-16
5.66084e-16
5.73426e-16
5.78771e-16
5.82214e-16
5.83871e-16
4.27425e-16
4.51301e-16
4.85564e-16
5.29051e-16
5.80769e-16
6.39752e-16
7.05004e-16
7.75462e-16
8.49993e-16
9.27403e-16
1.00646e-15
1.08593e-15
1.1646e-15
1.24133e-15
1.31507e-15
1.38489e-15
1.44998e-15
1.5097e-15
1.56356e-15
1.61121e-15
1.65246e-15
1.68723e-15
1.71557e-15
1.73765e-15
1.7537e-15
1.76403e-15
1.76899e-15
1.26969e-15
1.34224e-15
1.44635e-15
1.5785e-15
1.73564e-15
1.91482e-15
2.11295e-15
2.32677e-15
2.55279e-15
2.78734e-15
3.02666e-15
3.267e-15
3.50469e-15
3.7363e-15
3.95866e-15
4.16901e-15
4.36496e-15
4.54462e-15
4.70654e-15
4.84971e-15
4.97356e-15
5.07794e-15
5.163e-15
5.22923e-15
5.27737e-15
5.30834e-15
5.32322e-15
3.78401e-15
4.00232e-15
4.31574e-15
4.7137e-15
5.18706e-15
5.72689e-15
6.32386e-15
6.96806e-15
7.64889e-15
8.35526e-15
9.07579e-15
9.79912e-15
1.05142e-14
1.12107e-14
1.18792e-14
1.25112e-14
1.30997e-14
1.3639e-14
1.41248e-14
1.45542e-14
1.49256e-14
1.52383e-14
1.54931e-14
1.56914e-14
1.58355e-14
1.59282e-14
1.59727e-14
1.13073e-14
1.19633e-14
1.29051e-14
1.41007e-14
1.55227e-14
1.71439e-14
1.89365e-14
2.08702e-14
2.29133e-14
2.50323e-14
2.71929e-14
2.93612e-14
3.15041e-14
3.35906e-14
3.55923e-14
3.74845e-14
3.92461e-14
4.08601e-14
4.23138e-14
4.35985e-14
4.47093e-14
4.56449e-14
4.6407e-14
4.70002e-14
4.74312e-14
4.77084e-14
4.78416e-14
3.37878e-14
3.57527e-14
3.85736e-14
4.21552e-14
4.6415e-14
5.12718e-14
5.66414e-14
6.24335e-14
6.85524e-14
7.48977e-14
8.13669e-14
8.78578e-14
9.42713e-14
1.00515e-13
1.06503e-13
1.12163e-13
1.1743e-13
1.22256e-13
1.266e-13
1.30439e-13
1.33757e-13
1.36552e-13
1.38827e-13
1.40598e-13
1.41884e-13
1.42711e-13
1.43109e-13
1.01008e-13
1.0689e-13
1.15332e-13
1.26049e-13
1.38792e-13
1.53318e-13
1.69372e-13
1.86685e-13
2.0497e-13
2.23924e-13
2.43242e-13
2.62619e-13
2.81759e-13
3.00385e-13
3.18246e-13
3.35121e-13
3.50824e-13
3.65205e-13
3.78151e-13
3.89587e-13
3.99472e-13
4.07795e-13
4.14572e-13
4.19845e-13
4.23675e-13
4.26138e-13
4.27321e-13
3.01655e-13
3.19213e-13
3.44414e-13
3.76401e-13
4.14428e-13
4.57764e-13
5.05649e-13
5.57272e-13
6.11772e-13
6.68251e-13
7.25794e-13
7.83489e-13
8.40458e-13
8.95878e-13
9.49e-13
9.99172e-13
1.04584e-12
1.08856e-12
1.12701e-12
1.16097e-12
1.1903e-12
1.215e-12
1.2351e-12
1.25074e-12
1.26209e-12
1.26939e-12
1.2729e-12
8.99839e-13
9.52166e-13
1.02724e-12
1.12249e-12
1.23567e-12
1.36459e-12
1.50696e-12
1.66034e-12
1.82217e-12
1.98977e-12
2.16042e-12
2.33141e-12
2.50014e-12
2.66418e-12
2.82133e-12
2.96967e-12
3.10758e-12
3.23377e-12
3.34729e-12
3.44749e-12
3.53404e-12
3.60686e-12
3.66612e-12
3.71221e-12
3.74567e-12
3.76717e-12
3.7775e-12
2.67632e-12
2.83155e-12
3.05421e-12
3.33656e-12
3.67187e-12
4.05355e-12
4.47475e-12
4.92819e-12
5.40621e-12
5.90086e-12
6.40404e-12
6.9078e-12
7.40446e-12
7.8869e-12
8.34869e-12
8.78421e-12
9.18879e-12
9.55871e-12
9.89123e-12
1.01845e-11
1.04377e-11
1.06506e-11
1.08238e-11
1.09584e-11
1.1056e-11
1.11188e-11
1.11489e-11
7.93124e-12
8.38933e-12
9.04594e-12
9.87794e-12
1.08651e-11
1.19876e-11
1.32248e-11
1.45551e-11
1.59558e-11
1.74032e-11
1.88736e-11
2.03438e-11
2.17913e-11
2.31956e-11
2.45381e-11
2.58027e-11
2.69762e-11
2.8048e-11
2.90105e-11
2.98587e-11
3.05903e-11
3.12049e-11
3.17046e-11
3.20927e-11
3.23742e-11
3.25549e-11
3.26416e-11
2.33692e-11
2.47087e-11
2.66272e-11
2.90556e-11
3.19333e-11
3.52008e-11
3.87968e-11
4.26571e-11
4.67145e-11
5.09e-11
5.51447e-11
5.9381e-11
6.35449e-11
6.75774e-11
7.14262e-11
7.50459e-11
7.83995e-11
8.14581e-11
8.4201e-11
8.66151e-11
8.86946e-11
9.044e-11
9.18573e-11
9.29571e-11
9.3754e-11
9.42653e-11
9.45105e-11
6.83429e-11
7.22129e-11
7.77493e-11
8.47467e-11
9.30239e-11
1.02404e-10
1.12704e-10
1.23737e-10
1.35305e-10
1.47211e-10
1.59255e-10
1.71247e-10
1.83006e-10
1.94369e-10
2.05189e-10
2.15345e-10
2.24735e-10
2.33283e-10
2.40935e-10
2.47659e-10
2.53442e-10
2.58289e-10
2.62219e-10
2.65266e-10
2.67472e-10
2.68886e-10
2.69563e-10
1.97864e-10
2.08858e-10
2.24563e-10
2.44372e-10
2.6775e-10
2.94172e-10
3.23107e-10
3.54004e-10
3.86303e-10
4.19439e-10
4.52858e-10
4.8603e-10
5.18462e-10
5.49708e-10
5.79382e-10
6.07159e-10
6.32778e-10
6.56045e-10
6.76828e-10
6.95054e-10
7.107e-10
7.23792e-10
7.34392e-10
7.42598e-10
7.4853e-10
7.52328e-10
7.54146e-10
5.65444e-10
5.95998e-10
6.39554e-10
6.94352e-10
7.58825e-10
8.31449e-10
9.1069e-10
9.94989e-10
1.08277e-09
1.17249e-09
1.26262e-09
1.35175e-09
1.43858e-09
1.52195e-09
1.60086e-09
1.67449e-09
1.74221e-09
1.80354e-09
1.85819e-09
1.906e-09
1.94695e-09
1.98116e-09
2.0088e-09
2.03017e-09
2.04559e-09
2.05546e-09
2.06017e-09
1.58909e-09
1.67163e-09
1.789e-09
1.9362e-09
2.10876e-09
2.30234e-09
2.51264e-09
2.73537e-09
2.96625e-09
3.20113e-09
3.43608e-09
3.66741e-09
3.89184e-09
4.10646e-09
4.30886e-09
4.49706e-09
4.66957e-09
4.82536e-09
4.96377e-09
5.08456e-09
5.18779e-09
5.27382e-09
5.34323e-09
5.39678e-09
5.43538e-09
5.46003e-09
5.4718e-09
4.37353e-09
4.58892e-09
4.89434e-09
5.27598e-09
5.72143e-09
6.21883e-09
6.75654e-09
7.32313e-09
7.9075e-09
8.49904e-09
9.08785e-09
9.66491e-09
1.02222e-08
1.0753e-08
1.12515e-08
1.17134e-08
1.21353e-08
1.25151e-08
1.28516e-08
1.31445e-08
1.33942e-08
1.36019e-08
1.37691e-08
1.38979e-08
1.39906e-08
1.40497e-08
1.40779e-08
1.17321e-08
1.22718e-08
1.30348e-08
1.39844e-08
1.50877e-08
1.63136e-08
1.76319e-08
1.90136e-08
2.04312e-08
2.18587e-08
2.32727e-08
2.46518e-08
2.59777e-08
2.72352e-08
2.84116e-08
2.94976e-08
3.04864e-08
3.13737e-08
3.21576e-08
3.28382e-08
3.34171e-08
3.38975e-08
3.42837e-08
3.45806e-08
3.4794e-08
3.49299e-08
3.49946e-08
3.05284e-08
3.18217e-08
3.36442e-08
3.59035e-08
3.85164e-08
4.14051e-08
4.44956e-08
4.77181e-08
5.10073e-08
5.43033e-08
5.75521e-08
6.07067e-08
6.37269e-08
6.65797e-08
6.92389e-08
7.16854e-08
7.3906e-08
7.58931e-08
7.76442e-08
7.91608e-08
8.04483e-08
8.15147e-08
8.23704e-08
8.30274e-08
8.34989e-08
8.37988e-08
8.39416e-08
7.6721e-08
7.96789e-08
8.38352e-08
8.89685e-08
9.48804e-08
1.01387e-07
1.08315e-07
1.15505e-07
1.22811e-07
1.30099e-07
1.37253e-07
1.44171e-07
1.5077e-07
1.56982e-07
1.62753e-07
1.68048e-07
1.7284e-07
1.77118e-07
1.8088e-07
1.84132e-07
1.86887e-07
1.89165e-07
1.90991e-07
1.92391e-07
1.93394e-07
1.94032e-07
1.94335e-07
1.85589e-07
1.92056e-07
2.0112e-07
2.12281e-07
2.2509e-07
2.39133e-07
2.54029e-07
2.6943e-07
2.85019e-07
3.00514e-07
3.15671e-07
3.30284e-07
3.44179e-07
3.57223e-07
3.69313e-07
3.80377e-07
3.9037e-07
3.99274e-07
4.0709e-07
4.13835e-07
4.19542e-07
4.24255e-07
4.28027e-07
4.30917e-07
4.32986e-07
4.343e-07
4.34925e-07
4.31164e-07
4.44737e-07
4.63729e-07
4.87061e-07
5.13768e-07
5.42972e-07
5.73867e-07
6.05721e-07
6.37881e-07
6.69771e-07
7.00895e-07
7.30835e-07
7.59254e-07
7.85883e-07
8.10525e-07
8.33044e-07
8.53359e-07
8.71438e-07
8.87291e-07
9.0096e-07
9.12517e-07
9.22055e-07
9.29683e-07
9.35523e-07
9.39704e-07
9.42358e-07
9.43618e-07
9.60513e-07
9.88021e-07
1.02647e-06
1.07365e-06
1.12759e-06
1.18649e-06
1.24873e-06
1.31283e-06
1.37748e-06
1.44154e-06
1.50402e-06
1.5641e-06
1.62111e-06
1.67452e-06
1.72395e-06
1.76912e-06
1.80988e-06
1.84616e-06
1.87799e-06
1.90545e-06
1.92868e-06
1.94786e-06
1.9632e-06
1.97496e-06
1.98338e-06
1.98873e-06
1.99127e-06
2.0478e-06
2.10182e-06
2.17731e-06
2.26995e-06
2.37586e-06
2.49156e-06
2.61388e-06
2.73994e-06
2.86721e-06
2.99346e-06
3.11677e-06
3.23553e-06
3.34842e-06
3.45438e-06
3.55264e-06
3.64264e-06
3.72402e-06
3.79664e-06
3.86049e-06
3.9157e-06
3.96251e-06
4.00125e-06
4.03233e-06
4.05619e-06
4.07331e-06
4.08421e-06
4.08941e-06
4.16483e-06
4.26718e-06
4.41032e-06
4.5861e-06
4.7873e-06
5.00739e-06
5.24043e-06
5.48108e-06
5.72457e-06
5.96668e-06
6.20376e-06
6.43273e-06
6.651e-06
6.85652e-06
7.04768e-06
7.22332e-06
7.38267e-06
7.52531e-06
7.65112e-06
7.76025e-06
7.85308e-06
7.93014e-06
7.99214e-06
8.03989e-06
8.07426e-06
8.0962e-06
8.10668e-06
8.03976e-06
8.2241e-06
8.482e-06
8.79892e-06
9.16196e-06
9.55949e-06
9.98091e-06
1.04167e-05
1.08582e-05
1.12979e-05
1.17293e-05
1.21466e-05
1.25452e-05
1.29212e-05
1.32716e-05
1.35941e-05
1.38874e-05
1.41503e-05
1.43827e-05
1.45847e-05
1.47568e-05
1.49e-05
1.50154e-05
1.51044e-05
1.51686e-05
1.52096e-05
1.52293e-05
1.46359e-05
1.49442e-05
1.53755e-05
1.59051e-05
1.65114e-05
1.71748e-05
1.78775e-05
1.86036e-05
1.93387e-05
2.00702e-05
2.07873e-05
2.14804e-05
2.21419e-05
2.27655e-05
2.33462e-05
2.38805e-05
2.43659e-05
2.48009e-05
2.51852e-05
2.5519e-05
2.58034e-05
2.60398e-05
2.62303e-05
2.63773e-05
2.64833e-05
2.6551e-05
2.65834e-05
2.497e-05
2.54396e-05
2.60955e-05
2.68992e-05
2.78171e-05
2.88188e-05
2.98767e-05
3.09663e-05
3.2066e-05
3.31569e-05
3.42225e-05
3.52494e-05
3.62262e-05
3.71442e-05
3.79964e-05
3.87782e-05
3.94864e-05
4.01195e-05
4.06773e-05
4.11607e-05
4.15715e-05
4.19124e-05
4.21866e-05
4.23977e-05
4.25496e-05
4.26467e-05
4.2693e-05
3.97878e-05
4.04338e-05
4.13338e-05
4.24335e-05
4.36849e-05
4.5045e-05
4.64753e-05
4.79419e-05
4.94151e-05
5.08696e-05
5.22838e-05
5.36403e-05
5.49248e-05
5.61264e-05
5.72374e-05
5.82522e-05
5.91679e-05
5.99835e-05
6.06995e-05
6.13179e-05
6.18418e-05
6.22752e-05
6.26229e-05
6.28898e-05
6.30815e-05
6.32036e-05
6.32619e-05
5.92769e-05
6.00837e-05
6.12046e-05
6.25697e-05
6.41172e-05
6.57917e-05
6.75447e-05
6.93334e-05
7.11215e-05
7.28781e-05
7.45778e-05
7.62001e-05
7.77291e-05
7.9153e-05
8.04636e-05
8.16559e-05
8.27275e-05
8.36782e-05
8.45099e-05
8.52258e-05
8.58304e-05
8.63292e-05
8.67281e-05
8.70336e-05
8.72525e-05
8.73916e-05
8.74579e-05
8.30193e-05
8.39471e-05
8.52333e-05
8.67951e-05
8.85594e-05
9.04614e-05
9.24442e-05
9.44592e-05
9.64647e-05
9.84265e-05
0.000100317
0.000102114
0.0001038
0.000105365
0.000106801
0.000108102
0.000109267
0.000110298
0.000111197
0.000111969
0.00011262
0.000113155
0.000113582
0.000113909
0.000114142
0.00011429
0.000114361
0.000110194
0.000111196
0.000112582
0.000114262
0.000116154
0.000118189
0.000120303
0.000122445
0.00012457
0.000126642
0.000128633
0.00013052
0.000132286
0.000133921
0.000135416
0.000136768
0.000137977
0.000139044
0.000139973
0.000140769
0.000141439
0.000141989
0.000142428
0.000142763
0.000143002
0.000143153
0.000143225
0.000139872
0.000140907
0.000142339
0.00014407
0.000146018
0.000148107
0.000150275
0.000152467
0.000154638
0.00015675
0.000158776
0.000160693
0.000162485
0.000164141
0.000165653
0.000167019
0.000168239
0.000169315
0.000170251
0.000171052
0.000171726
0.000172279
0.000172719
0.000173056
0.000173296
0.000173448
0.00017352
0.000171231
0.000172272
0.000173711
0.000175451
0.000177406
0.000179502
0.000181675
0.000183869
0.000186041
0.000188153
0.000190176
0.00019209
0.000193877
0.000195528
0.000197035
0.000198396
0.000199611
0.000200682
0.000201613
0.000202411
0.000203081
0.000203632
0.00020407
0.000204405
0.000204644
0.000204795
0.000204867
0.000203648
0.000204681
0.000206109
0.000207834
0.000209772
0.00021185
0.000214003
0.000216177
0.000218328
0.00022042
0.000222424
0.000224319
0.000226089
0.000227724
0.000229217
0.000230566
0.00023177
0.000232831
0.000233754
0.000234545
0.00023521
0.000235756
0.000236191
0.000236523
0.00023676
0.000236911
0.000236982
0.000236699
0.000237718
0.000239126
0.000240828
0.000242741
0.000244791
0.000246916
0.000249063
0.000251187
0.000253253
0.000255233
0.000257106
0.000258857
0.000260474
0.000261951
0.000263285
0.000264477
0.000265529
0.000266444
0.000267228
0.000267887
0.000268428
0.00026886
0.00026919
0.000269425
0.000269574
0.000269645
0.00027011
0.000271114
0.000272503
0.000274181
0.000276068
0.000278091
0.000280188
0.000282307
0.000284405
0.000286447
0.000288405
0.000290257
0.000291989
0.00029359
0.000295053
0.000296375
0.000297556
0.000298599
0.000299506
0.000300284
0.000300938
0.000301476
0.000301905
0.000302232
0.000302466
0.000302615
0.000302685
0.000303713
0.000304705
0.000306076
0.000307734
0.000309597
0.000311596
0.00031367
0.000315766
0.000317842
0.000319863
0.000321802
0.000323637
0.000325353
0.00032694
0.000328391
0.000329703
0.000330875
0.00033191
0.000332812
0.000333584
0.000334235
0.000334769
0.000335196
0.000335521
0.000335754
0.000335902
0.000335972
0.000337408
0.00033839
0.000339746
0.000341387
0.000343232
0.000345212
0.000347266
0.000349343
0.000351401
0.000353405
0.000355329
0.00035715
0.000358854
0.00036043
0.000361871
0.000363175
0.00036434
0.000365369
0.000366265
0.000367034
0.000367681
0.000368213
0.000368637
0.000368961
0.000369193
0.00036934
0.00036941
0.000371134
0.000372107
0.000373452
0.000375079
0.000376909
0.000378874
0.000380913
0.000382975
0.000385019
0.00038701
0.000388921
0.000390732
0.000392426
0.000393993
0.000395426
0.000396723
0.000397883
0.000398907
0.0003998
0.000400565
0.000401209
0.000401739
0.000402162
0.000402485
0.000402716
0.000402862
0.000402932
0.000404852
0.000405819
0.000407155
0.000408772
0.000410591
0.000412544
0.000414571
0.000416621
0.000418654
0.000420635
0.000422536
0.000424338
0.000426024
0.000427584
0.000429011
0.000430303
0.000431458
0.000432478
0.000433367
0.00043413
0.000434772
0.0004353
0.000435721
0.000436043
0.000436273
0.000436419
0.000436489
0.000438542
0.000439504
0.000440833
0.000442442
0.000444252
0.000446195
0.000448212
0.000450254
0.000452278
0.00045425
0.000456144
0.000457938
0.000459617
0.000461172
0.000462594
0.000463881
0.000465033
0.000466049
0.000466936
0.000467696
0.000468336
0.000468862
0.000469283
0.000469604
0.000469833
0.000469979
0.000470048
0.00047219
0.000473147
0.000474471
0.000476073
0.000477876
0.000479811
0.000481821
0.000483855
0.000485871
0.000487837
0.000489724
0.000491512
0.000493187
0.000494736
0.000496154
0.000497437
0.000498585
0.000499599
0.000500483
0.000501241
0.00050188
0.000502405
0.000502824
0.000503144
0.000503373
0.000503519
0.000503588
0.000505786
0.00050674
0.000508059
0.000509656
0.000511453
0.000513382
0.000515385
0.000517413
0.000519423
0.000521383
0.000523264
0.000525047
0.000526717
0.000528262
0.000529677
0.000530956
0.000532101
0.000533113
0.000533994
0.000534751
0.000535388
0.000535912
0.00053633
0.000536649
0.000536878
0.000537023
0.000537092
0.000539326
0.000540277
0.000541592
0.000543184
0.000544976
0.0005469
0.000548898
0.000550919
0.000552924
0.000554879
0.000556755
0.000558534
0.0005602
0.000561741
0.000563152
0.000564429
0.000565571
0.00056658
0.00056746
0.000568214
0.00056885
0.000569372
0.00056979
0.000570109
0.000570337
0.000570481
0.00057055
0.000572806
0.000573755
0.000575066
0.000576654
0.000578441
0.00058036
0.000582353
0.00058437
0.00058637
0.000588319
0.000590192
0.000591966
0.000593628
0.000595166
0.000596573
0.000597847
0.000598987
0.000599994
0.000600872
0.000601625
0.000602259
0.00060278
0.000603197
0.000603515
0.000603743
0.000603887
0.000603956
0.000606224
0.00060717
0.000608479
0.000610063
0.000611845
0.00061376
0.000615748
0.00061776
0.000619756
0.000621701
0.000623569
0.00062534
0.000626998
0.000628532
0.000629937
0.000631208
0.000632345
0.00063335
0.000634226
0.000634977
0.00063561
0.000636131
0.000636546
0.000636864
0.000637091
0.000637235
0.000637304
0.000639577
0.000640521
0.000641827
0.000643408
0.000645186
0.000647097
0.00064908
0.000651088
0.00065308
0.000655021
0.000656885
0.000658652
0.000660306
0.000661837
0.000663239
0.000664508
0.000665643
0.000666645
0.000667519
0.000668269
0.000668901
0.00066942
0.000669835
0.000670152
0.000670378
0.000670522
0.000670591
0.000672866
0.000673808
0.000675111
0.000676688
0.000678463
0.000680369
0.000682348
0.000684352
0.000686339
0.000688276
0.000690136
0.000691899
0.00069355
0.000695079
0.000696477
0.000697743
0.000698876
0.000699877
0.000700749
0.000701497
0.000702128
0.000702646
0.00070306
0.000703376
0.000703602
0.000703746
0.000703814
0.000706087
0.000707028
0.000708328
0.000709901
0.000711673
0.000713575
0.00071555
0.00071755
0.000719533
0.000721466
0.000723322
0.000725082
0.000726729
0.000728254
0.00072965
0.000730914
0.000732044
0.000733043
0.000733913
0.00073466
0.000735289
0.000735806
0.000736219
0.000736535
0.000736761
0.000736904
0.000736972
0.000739242
0.00074018
0.000741477
0.000743048
0.000744815
0.000746714
0.000748685
0.00075068
0.000752659
0.000754588
0.000756441
0.000758197
0.000759841
0.000761363
0.000762756
0.000764017
0.000765145
0.000766141
0.00076701
0.000767755
0.000768383
0.000768899
0.000769312
0.000769627
0.000769852
0.000769995
0.000770063
0.000772327
0.000773263
0.000774558
0.000776125
0.000777889
0.000779783
0.000781751
0.000783742
0.000785717
0.000787641
0.00078949
0.000791242
0.000792883
0.000794402
0.000795792
0.00079705
0.000798176
0.000799171
0.000800038
0.000800781
0.000801408
0.000801923
0.000802334
0.000802649
0.000802874
0.000803016
0.000803084
0.000805342
0.000806276
0.000807568
0.000809132
0.000810892
0.000812783
0.000814746
0.000816733
0.000818703
0.000820624
0.000822469
0.000824217
0.000825855
0.00082737
0.000828757
0.000830013
0.000831136
0.000832129
0.000832994
0.000833736
0.000834361
0.000834875
0.000835285
0.000835599
0.000835824
0.000835966
0.000836034
0.000838284
0.000839217
0.000840506
0.000842066
0.000843823
0.000845709
0.000847667
0.00084965
0.000851616
0.000853533
0.000855374
0.000857118
0.000858752
0.000860264
0.000861649
0.000862901
0.000864022
0.000865012
0.000865876
0.000866616
0.00086724
0.000867753
0.000868162
0.000868475
0.000868699
0.000868841
0.000868909
0.000871152
0.000872082
0.000873368
0.000874925
0.000876677
0.000878559
0.000880513
0.000882492
0.000884453
0.000886366
0.000888202
0.000889943
0.000891573
0.000893082
0.000894463
0.000895713
0.000896831
0.000897819
0.00089868
0.000899419
0.000900041
0.000900553
0.000900962
0.000901274
0.000901497
0.000901639
0.000901706
0.00090394
0.000904868
0.000906151
0.000907704
0.000909453
0.00091133
0.00091328
0.000915253
0.00091721
0.000919118
0.00092095
0.000922687
0.000924313
0.000925818
0.000927196
0.000928443
0.000929558
0.000930544
0.000931403
0.00093214
0.000932761
0.000933271
0.000933679
0.00093399
0.000934213
0.000934355
0.000934422
0.000936646
0.000937571
0.000938851
0.000940401
0.000942144
0.000944017
0.000945962
0.00094793
0.000949882
0.000951785
0.000953613
0.000955345
0.000956967
0.000958468
0.000959842
0.000961086
0.000962199
0.000963182
0.000964039
0.000964774
0.000965393
0.000965902
0.000966309
0.00096662
0.000966842
0.000966983
0.00096705
0.000969263
0.000970186
0.000971462
0.000973007
0.000974747
0.000976614
0.000978554
0.000980517
0.000982464
0.000984361
0.000986184
0.000987911
0.000989529
0.000991026
0.000992396
0.000993636
0.000994746
0.000995726
0.000996581
0.000997314
0.000997931
0.000998439
0.000998845
0.000999155
0.000999376
0.000999517
0.000999584
0.00100178
0.0010027
0.00100398
0.00100552
0.00100725
0.00100911
0.00101105
0.001013
0.00101495
0.00101684
0.00101865
0.00102038
0.00102199
0.00102348
0.00102485
0.00102609
0.00102719
0.00102817
0.00102902
0.00102975
0.00103037
0.00103087
0.00103128
0.00103159
0.00103181
0.00103195
0.00103201
0.0010342
0.00103512
0.00103639
0.00103792
0.00103965
0.00104151
0.00104343
0.00104538
0.00104732
0.0010492
0.00105102
0.00105273
0.00105434
0.00105583
0.00105719
0.00105842
0.00105952
0.0010605
0.00106135
0.00106208
0.00106269
0.00106319
0.0010636
0.0010639
0.00106412
0.00106426
0.00106433
0.0010665
0.00106741
0.00106868
0.00107021
0.00107193
0.00107378
0.0010757
0.00107764
0.00107957
0.00108145
0.00108325
0.00108496
0.00108657
0.00108805
0.0010894
0.00109063
0.00109173
0.0010927
0.00109355
0.00109427
0.00109488
0.00109539
0.00109579
0.00109609
0.00109631
0.00109645
0.00109652
0.00109867
0.00109958
0.00110084
0.00110236
0.00110408
0.00110592
0.00110783
0.00110977
0.00111169
0.00111356
0.00111535
0.00111706
0.00111865
0.00112013
0.00112148
0.0011227
0.00112379
0.00112476
0.0011256
0.00112632
0.00112693
0.00112743
0.00112783
0.00112814
0.00112836
0.00112849
0.00112856
0.00113069
0.00113159
0.00113285
0.00113436
0.00113607
0.0011379
0.00113981
0.00114173
0.00114364
0.00114551
0.00114729
0.00114899
0.00115057
0.00115204
0.00115339
0.0011546
0.00115569
0.00115665
0.00115749
0.00115821
0.00115881
0.00115931
0.00115971
0.00116001
0.00116023
0.00116037
0.00116043
0.00116254
0.00116344
0.00116468
0.00116619
0.00116789
0.00116971
0.00117161
0.00117352
0.00117542
0.00117727
0.00117905
0.00118073
0.00118231
0.00118377
0.00118511
0.00118632
0.0011874
0.00118835
0.00118919
0.0011899
0.0011905
0.001191
0.00119139
0.0011917
0.00119191
0.00119205
0.00119211
0.00119419
0.00119508
0.00119632
0.00119782
0.00119951
0.00120132
0.0012032
0.0012051
0.00120699
0.00120883
0.00121059
0.00121227
0.00121383
0.00121528
0.00121661
0.00121781
0.00121888
0.00121983
0.00122066
0.00122137
0.00122197
0.00122246
0.00122285
0.00122315
0.00122337
0.0012235
0.00122357
0.0012256
0.00122649
0.00122772
0.00122921
0.00123088
0.00123268
0.00123454
0.00123643
0.00123831
0.00124013
0.00124188
0.00124354
0.0012451
0.00124653
0.00124785
0.00124904
0.00125011
0.00125105
0.00125187
0.00125257
0.00125317
0.00125365
0.00125404
0.00125434
0.00125455
0.00125469
0.00125475
0.00125675
0.00125763
0.00125884
0.00126032
0.00126198
0.00126376
0.00126561
0.00126748
0.00126933
0.00127114
0.00127287
0.00127452
0.00127606
0.00127748
0.00127879
0.00127997
0.00128102
0.00128195
0.00128277
0.00128346
0.00128405
0.00128453
0.00128492
0.00128521
0.00128542
0.00128556
0.00128562
0.00128756
0.00128844
0.00128964
0.0012911
0.00129274
0.0012945
0.00129633
0.00129818
0.00130001
0.0013018
0.00130352
0.00130514
0.00130666
0.00130807
0.00130936
0.00131053
0.00131157
0.00131249
0.00131329
0.00131398
0.00131456
0.00131504
0.00131542
0.00131571
0.00131592
0.00131605
0.00131611
0.001318
0.00131886
0.00132005
0.00132149
0.00132311
0.00132484
0.00132665
0.00132847
0.00133028
0.00133205
0.00133374
0.00133534
0.00133684
0.00133823
0.0013395
0.00134065
0.00134168
0.00134259
0.00134338
0.00134406
0.00134463
0.0013451
0.00134548
0.00134576
0.00134597
0.0013461
0.00134616
0.00134798
0.00134882
0.00135
0.00135141
0.00135301
0.00135472
0.00135649
0.00135829
0.00136007
0.0013618
0.00136347
0.00136504
0.00136652
0.00136789
0.00136914
0.00137027
0.00137128
0.00137217
0.00137295
0.00137362
0.00137418
0.00137464
0.00137501
0.00137529
0.00137549
0.00137562
0.00137568
0.00137742
0.00137825
0.0013794
0.00138079
0.00138235
0.00138403
0.00138577
0.00138753
0.00138928
0.00139098
0.00139261
0.00139416
0.0013956
0.00139694
0.00139816
0.00139927
0.00140026
0.00140114
0.0014019
0.00140255
0.0014031
0.00140356
0.00140392
0.00140419
0.00140439
0.00140452
0.00140457
0.00140622
0.00140703
0.00140815
0.00140951
0.00141104
0.00141268
0.00141438
0.0014161
0.0014178
0.00141946
0.00142106
0.00142257
0.00142398
0.00142528
0.00142648
0.00142756
0.00142853
0.00142938
0.00143012
0.00143076
0.0014313
0.00143174
0.00143209
0.00143236
0.00143255
0.00143267
0.00143273
0.00143426
0.00143505
0.00143615
0.00143747
0.00143895
0.00144055
0.0014422
0.00144387
0.00144553
0.00144714
0.00144869
0.00145016
0.00145153
0.00145279
0.00145395
0.001455
0.00145594
0.00145677
0.00145749
0.00145811
0.00145863
0.00145906
0.0014594
0.00145966
0.00145984
0.00145996
0.00146002
0.00146143
0.00146219
0.00146325
0.00146453
0.00146596
0.0014675
0.0014691
0.00147072
0.00147232
0.00147388
0.00147537
0.00147678
0.00147811
0.00147933
0.00148045
0.00148146
0.00148237
0.00148316
0.00148386
0.00148445
0.00148496
0.00148537
0.0014857
0.00148595
0.00148613
0.00148624
0.0014863
0.00148757
0.0014883
0.00148932
0.00149054
0.00149192
0.0014934
0.00149493
0.00149648
0.00149802
0.00149951
0.00150094
0.0015023
0.00150357
0.00150474
0.00150581
0.00150678
0.00150764
0.00150841
0.00150907
0.00150964
0.00151012
0.00151052
0.00151083
0.00151107
0.00151124
0.00151135
0.0015114
0.00151252
0.00151322
0.00151419
0.00151536
0.00151667
0.00151808
0.00151954
0.00152101
0.00152247
0.00152389
0.00152525
0.00152654
0.00152774
0.00152885
0.00152987
0.00153079
0.00153161
0.00153233
0.00153296
0.0015335
0.00153396
0.00153433
0.00153463
0.00153486
0.00153502
0.00153512
0.00153517
0.00153613
0.00153679
0.0015377
0.0015388
0.00154003
0.00154136
0.00154273
0.00154412
0.00154549
0.00154683
0.00154811
0.00154932
0.00155045
0.00155149
0.00155245
0.00155331
0.00155408
0.00155476
0.00155535
0.00155586
0.00155628
0.00155663
0.00155691
0.00155712
0.00155728
0.00155737
0.00155742
0.0015582
0.00155882
0.00155967
0.00156069
0.00156184
0.00156308
0.00156436
0.00156565
0.00156692
0.00156816
0.00156935
0.00157047
0.00157152
0.00157249
0.00157337
0.00157417
0.00157488
0.00157551
0.00157606
0.00157653
0.00157692
0.00157725
0.0015775
0.0015777
0.00157784
0.00157793
0.00157797
0.00157858
0.00157914
0.00157992
0.00158086
0.00158192
0.00158305
0.00158423
0.00158541
0.00158658
0.00158771
0.0015888
0.00158983
0.00159078
0.00159167
0.00159247
0.0015932
0.00159385
0.00159443
0.00159492
0.00159535
0.00159571
0.001596
0.00159624
0.00159642
0.00159655
0.00159663
0.00159667
0.00159709
0.0015976
0.00159831
0.00159916
0.00160011
0.00160113
0.00160219
0.00160326
0.00160431
0.00160533
0.0016063
0.00160723
0.00160809
0.00160888
0.0016096
0.00161025
0.00161084
0.00161135
0.00161179
0.00161218
0.0016125
0.00161276
0.00161297
0.00161313
0.00161324
0.00161332
0.00161335
0.00161361
0.00161406
0.00161469
0.00161544
0.00161628
0.00161719
0.00161812
0.00161906
0.00161999
0.00162088
0.00162174
0.00162255
0.00162331
0.001624
0.00162464
0.00162521
0.00162572
0.00162617
0.00162656
0.00162689
0.00162717
0.0016274
0.00162758
0.00162772
0.00162782
0.00162789
0.00162792
0.00162803
0.00162842
0.00162896
0.00162961
0.00163034
0.00163112
0.00163192
0.00163273
0.00163353
0.0016343
0.00163504
0.00163573
0.00163638
0.00163697
0.00163751
0.001638
0.00163844
0.00163882
0.00163915
0.00163943
0.00163967
0.00163987
0.00164002
0.00164014
0.00164022
0.00164028
0.0016403
0.0016403
0.00164063
0.00164108
0.00164163
0.00164224
0.00164289
0.00164356
0.00164424
0.00164491
0.00164555
0.00164616
0.00164674
0.00164728
0.00164777
0.00164822
0.00164862
0.00164898
0.0016493
0.00164957
0.0016498
0.00165
0.00165016
0.00165029
0.00165038
0.00165045
0.0016505
0.00165052
0.00165043
0.0016507
0.00165107
0.00165151
0.00165201
0.00165253
0.00165308
0.00165362
0.00165416
0.00165468
0.00165517
0.00165563
0.00165606
0.00165645
0.00165681
0.00165713
0.00165742
0.00165767
0.00165788
0.00165807
0.00165823
0.00165835
0.00165845
0.00165853
0.00165858
0.00165862
0.00165864
0.00165851
0.00165872
0.001659
0.00165935
0.00165973
0.00166014
0.00166056
0.00166098
0.0016614
0.0016618
0.00166217
0.00166253
0.00166286
0.00166316
0.00166343
0.00166367
0.00166389
0.00166408
0.00166424
0.00166438
0.0016645
0.0016646
0.00166467
0.00166473
0.00166477
0.0016648
0.00166481
0.00166468
0.00166483
0.00166505
0.0016653
0.00166559
0.00166589
0.0016662
0.00166651
0.00166681
0.0016671
0.00166737
0.00166763
0.00166787
0.00166809
0.00166828
0.00166846
0.00166861
0.00166875
0.00166887
0.00166897
0.00166905
0.00166912
0.00166917
0.00166921
0.00166924
0.00166926
0.00166927
0.00166917
0.00166928
0.00166942
0.0016696
0.0016698
0.00167001
0.00167022
0.00167043
0.00167064
0.00167084
0.00167102
0.0016712
0.00167136
0.0016715
0.00167164
0.00167175
0.00167186
0.00167195
0.00167202
0.00167209
0.00167214
0.00167219
0.00167222
0.00167225
0.00167227
0.00167228
0.00167229
0.00167224
0.00167231
0.00167241
0.00167252
0.00167265
0.00167278
0.00167291
0.00167305
0.00167318
0.0016733
0.00167341
0.00167352
0.00167362
0.00167371
0.00167379
0.00167386
0.00167392
0.00167397
0.00167402
0.00167406
0.00167409
0.00167412
0.00167414
0.00167415
0.00167416
0.00167417
0.00167417
0.00167419
0.00167423
0.00167429
0.00167435
0.00167442
0.0016745
0.00167457
0.00167465
0.00167472
0.00167478
0.00167485
0.0016749
0.00167495
0.001675
0.00167504
0.00167508
0.00167511
0.00167514
0.00167516
0.00167518
0.00167519
0.0016752
0.00167521
0.00167522
0.00167523
0.00167523
0.00167523
0.00167532
0.00167534
0.00167536
0.00167539
0.00167542
0.00167545
0.00167549
0.00167552
0.00167555