/*--------------------------------*- C++ -*----------------------------------*\
| =========                 |                                                 |
| \\      /  F ield         | OpenFOAM: The Open Source CFD Toolbox           |
|  \\    /   O peration     | Version:  2106                                  |
|   \\  /    A nd           | Website:  www.openfoam.com                      |
|    \\/     M anipulation  |                                                 |
\*---------------------------------------------------------------------------*/
FoamFile
{
    version     2.0;
    format      ascii;
    arch        "LSB;label=32;scalar=64";
    class       volScalarField;
    location    "80.00032";
    object      CH2CO_0;
}
// * * * * * * * * * * * * * * * * * * * * * * * * * * * * * * * * * * * * * //

dimensions      [0 0 0 0 0 0 0];

internalField   nonuniform List<scalar> 
3360
(
3.48215e-18
3.59422e-18
3.75017e-18
3.94092e-18
4.15853e-18
4.39586e-18
4.64645e-18
4.90449e-18
5.1648e-18
5.4228e-18
5.67453e-18
5.91661e-18
6.14628e-18
6.36131e-18
6.56002e-18
6.74124e-18
6.90423e-18
7.0487e-18
7.1747e-18
7.28261e-18
7.37306e-18
7.44694e-18
7.5053e-18
7.54932e-18
7.58029e-18
7.59955e-18
7.60849e-18
1.52752e-17
1.58367e-17
1.6629e-17
1.76157e-17
1.87666e-17
2.00554e-17
2.14583e-17
2.2954e-17
2.45223e-17
2.61443e-17
2.78018e-17
2.9477e-17
3.11526e-17
3.28112e-17
3.4436e-17
3.60103e-17
3.75177e-17
3.89425e-17
4.02695e-17
4.14844e-17
4.25743e-17
4.35275e-17
4.43344e-17
4.49869e-17
4.54794e-17
4.58082e-17
4.59722e-17
4.79303e-17
5.0034e-17
5.30232e-17
5.67793e-17
6.1204e-17
6.62087e-17
7.17095e-17
7.76233e-17
8.38665e-17
9.03532e-17
9.69961e-17
1.03708e-16
1.10404e-16
1.16997e-16
1.23407e-16
1.29554e-16
1.35368e-16
1.40782e-16
1.45742e-16
1.50199e-16
1.54119e-16
1.57476e-16
1.60255e-16
1.62451e-16
1.6407e-16
1.65126e-16
1.6564e-16
1.3959e-16
1.46524e-16
1.56442e-16
1.6899e-16
1.83873e-16
2.00811e-16
2.19527e-16
2.39733e-16
2.61127e-16
2.83392e-16
3.06199e-16
3.29216e-16
3.5211e-16
3.7456e-16
3.96258e-16
4.16925e-16
4.36309e-16
4.54201e-16
4.70428e-16
4.84865e-16
4.97425e-16
5.08066e-16
5.16781e-16
5.23598e-16
5.28572e-16
5.31784e-16
5.33333e-16
4.07842e-16
4.29716e-16
4.61066e-16
5.00822e-16
5.48073e-16
6.01948e-16
6.61549e-16
7.25922e-16
7.94055e-16
8.64878e-16
9.37286e-16
1.01016e-15
1.08242e-15
1.153e-15
1.22095e-15
1.28541e-15
1.34561e-15
1.40094e-15
1.45094e-15
1.49525e-15
1.53366e-15
1.5661e-15
1.59259e-15
1.61324e-15
1.62828e-15
1.63797e-15
1.64263e-15
1.20249e-15
1.26966e-15
1.36605e-15
1.4884e-15
1.6339e-15
1.79984e-15
1.98341e-15
2.18164e-15
2.39132e-15
2.6091e-15
2.83151e-15
3.05509e-15
3.27642e-15
3.49229e-15
3.69975e-15
3.89616e-15
4.07928e-15
4.2473e-15
4.39883e-15
4.53289e-15
4.64892e-15
4.74674e-15
4.82648e-15
4.8886e-15
4.93375e-15
4.9628e-15
4.97677e-15
3.57206e-15
3.77618e-15
4.06908e-15
4.44085e-15
4.88294e-15
5.38703e-15
5.94445e-15
6.546e-15
7.18186e-15
7.84173e-15
8.51503e-15
9.19117e-15
9.85989e-15
1.05115e-14
1.11371e-14
1.17288e-14
1.22801e-14
1.27856e-14
1.32411e-14
1.36439e-14
1.39923e-14
1.42859e-14
1.45253e-14
1.47116e-14
1.4847e-14
1.49341e-14
1.4976e-14
1.06457e-14
1.12599e-14
1.21416e-14
1.32612e-14
1.4593e-14
1.61117e-14
1.77912e-14
1.96035e-14
2.15189e-14
2.35062e-14
2.55333e-14
2.75682e-14
2.95801e-14
3.15396e-14
3.34201e-14
3.51981e-14
3.68538e-14
3.83711e-14
3.9738e-14
4.0946e-14
4.19906e-14
4.28705e-14
4.35874e-14
4.41453e-14
4.45506e-14
4.48113e-14
4.49366e-14
3.18111e-14
3.36569e-14
3.63064e-14
3.96701e-14
4.36705e-14
4.82317e-14
5.32747e-14
5.8715e-14
6.44628e-14
7.04242e-14
7.65029e-14
8.2603e-14
8.86317e-14
9.45016e-14
1.00133e-13
1.05457e-13
1.10413e-13
1.14953e-13
1.19043e-13
1.22657e-13
1.25782e-13
1.28414e-13
1.30559e-13
1.32228e-13
1.3344e-13
1.3422e-13
1.34594e-13
9.50565e-14
1.00584e-13
1.08521e-13
1.18597e-13
1.30581e-13
1.44245e-13
1.59351e-13
1.75646e-13
1.92861e-13
2.10713e-13
2.28913e-13
2.47174e-13
2.65217e-13
2.82782e-13
2.9963e-13
3.15552e-13
3.30371e-13
3.43946e-13
3.5617e-13
3.66969e-13
3.76305e-13
3.84166e-13
3.90568e-13
3.9555e-13
3.99169e-13
4.01495e-13
4.02613e-13
2.8417e-13
3.00718e-13
3.24469e-13
3.54619e-13
3.90469e-13
4.31335e-13
4.76502e-13
5.25209e-13
5.76648e-13
6.29974e-13
6.84323e-13
7.38836e-13
7.92683e-13
8.45085e-13
8.95335e-13
9.42809e-13
9.86986e-13
1.02744e-12
1.06387e-12
1.09604e-12
1.12385e-12
1.14726e-12
1.16633e-12
1.18117e-12
1.19194e-12
1.19887e-12
1.2022e-12
8.48656e-13
8.98053e-13
9.68954e-13
1.05894e-12
1.16593e-12
1.28785e-12
1.42256e-12
1.56779e-12
1.72112e-12
1.88002e-12
2.0419e-12
2.20422e-12
2.36449e-12
2.52041e-12
2.66986e-12
2.81101e-12
2.9423e-12
3.0625e-12
3.17067e-12
3.26619e-12
3.34873e-12
3.4182e-12
3.47475e-12
3.51875e-12
3.55069e-12
3.57122e-12
3.58109e-12
2.53155e-12
2.67876e-12
2.88998e-12
3.15795e-12
3.47637e-12
3.83906e-12
4.23958e-12
4.6711e-12
5.12639e-12
5.5979e-12
6.07799e-12
6.55904e-12
7.03373e-12
7.49524e-12
7.93736e-12
8.35468e-12
8.74267e-12
9.09769e-12
9.41706e-12
9.69896e-12
9.94244e-12
1.01473e-11
1.0314e-11
1.04437e-11
1.05378e-11
1.05983e-11
1.06274e-11
7.52938e-12
7.9661e-12
8.59251e-12
9.38685e-12
1.03302e-11
1.1404e-11
1.2589e-11
1.38647e-11
1.52095e-11
1.66011e-11
1.80167e-11
1.9434e-11
2.08312e-11
2.21885e-11
2.34877e-11
2.47129e-11
2.58512e-11
2.68919e-11
2.78274e-11
2.86525e-11
2.93648e-11
2.99638e-11
3.04509e-11
3.08296e-11
3.11044e-11
3.12809e-11
3.13656e-11
2.23132e-11
2.3602e-11
2.54493e-11
2.779e-11
3.05672e-11
3.3725e-11
3.72058e-11
4.09484e-11
4.48889e-11
4.8961e-11
5.30978e-11
5.72339e-11
6.13063e-11
6.52571e-11
6.90339e-11
7.25918e-11
7.58931e-11
7.89085e-11
8.16163e-11
8.40027e-11
8.60607e-11
8.779e-11
8.91957e-11
9.02876e-11
9.10794e-11
9.15878e-11
9.18318e-11
6.57451e-11
6.95136e-11
7.4911e-11
8.1743e-11
8.98389e-11
9.90315e-11
1.09148e-10
1.20009e-10
1.31423e-10
1.43199e-10
1.5514e-10
1.67059e-10
1.78773e-10
1.90118e-10
2.00946e-10
2.11129e-10
2.20564e-10
2.29169e-10
2.36886e-10
2.43678e-10
2.49528e-10
2.54438e-10
2.58425e-10
2.6152e-10
2.63762e-10
2.652e-10
2.6589e-10
1.9227e-10
2.03158e-10
2.18734e-10
2.3842e-10
2.61706e-10
2.88095e-10
3.17074e-10
3.48112e-10
3.80658e-10
4.14152e-10
4.48037e-10
4.81775e-10
5.14858e-10
5.46825e-10
5.77267e-10
6.05837e-10
6.32255e-10
6.56303e-10
6.77831e-10
6.96747e-10
7.13017e-10
7.26653e-10
7.37712e-10
7.46284e-10
7.52489e-10
7.56466e-10
7.58372e-10
5.56649e-10
5.8758e-10
6.31762e-10
6.87493e-10
7.53263e-10
8.27598e-10
9.09001e-10
9.95925e-10
1.08679e-09
1.18002e-09
1.27404e-09
1.36736e-09
1.45861e-09
1.54651e-09
1.63e-09
1.70814e-09
1.78022e-09
1.84568e-09
1.90415e-09
1.95542e-09
1.99944e-09
2.03627e-09
2.0661e-09
2.08918e-09
2.10587e-09
2.11656e-09
2.12167e-09
1.59072e-09
1.67668e-09
1.79922e-09
1.95339e-09
2.13478e-09
2.3391e-09
2.56203e-09
2.7992e-09
3.04617e-09
3.29857e-09
3.55215e-09
3.80292e-09
4.0472e-09
4.28175e-09
4.50375e-09
4.71091e-09
4.90142e-09
5.07397e-09
5.22771e-09
5.36222e-09
5.47745e-09
5.57368e-09
5.65146e-09
5.71157e-09
5.75496e-09
5.78271e-09
5.79598e-09
4.47024e-09
4.70245e-09
5.03268e-09
5.44683e-09
5.93231e-09
6.47693e-09
7.06861e-09
7.69524e-09
8.34481e-09
9.00567e-09
9.66668e-09
1.03175e-08
1.09489e-08
1.15528e-08
1.21222e-08
1.26517e-08
1.31371e-08
1.35754e-08
1.39648e-08
1.43047e-08
1.45951e-08
1.48372e-08
1.50324e-08
1.51831e-08
1.52917e-08
1.5361e-08
1.53942e-08
1.23017e-08
1.29077e-08
1.3767e-08
1.48408e-08
1.60941e-08
1.74936e-08
1.90065e-08
2.06007e-08
2.2245e-08
2.39094e-08
2.55661e-08
2.71898e-08
2.8758e-08
3.02514e-08
3.16541e-08
3.29537e-08
3.41409e-08
3.52096e-08
3.61564e-08
3.69805e-08
3.76832e-08
3.82675e-08
3.8738e-08
3.91003e-08
3.93611e-08
3.95275e-08
3.96068e-08
3.29915e-08
3.45102e-08
3.66571e-08
3.93291e-08
4.24337e-08
4.58832e-08
4.95928e-08
5.34811e-08
5.74704e-08
6.14879e-08
6.5467e-08
6.93482e-08
7.308e-08
7.66188e-08
7.99299e-08
8.29863e-08
8.57692e-08
8.82665e-08
9.04728e-08
9.23883e-08
9.40178e-08
9.537e-08
9.64567e-08
9.72924e-08
9.78929e-08
9.82754e-08
9.84577e-08
8.58043e-08
8.94436e-08
9.45721e-08
1.0093e-07
1.08284e-07
1.16414e-07
1.25113e-07
1.34184e-07
1.43443e-07
1.52722e-07
1.6187e-07
1.70752e-07
1.79257e-07
1.8729e-07
1.94779e-07
2.0167e-07
2.07924e-07
2.13521e-07
2.18453e-07
2.22725e-07
2.26352e-07
2.29356e-07
2.31767e-07
2.33617e-07
2.34945e-07
2.3579e-07
2.36193e-07
2.15419e-07
2.23741e-07
2.35435e-07
2.49881e-07
2.6652e-07
2.84836e-07
3.04343e-07
3.24592e-07
3.45169e-07
3.65702e-07
3.8586e-07
4.0536e-07
4.23963e-07
4.41477e-07
4.57755e-07
4.72689e-07
4.86209e-07
4.98281e-07
5.08897e-07
5.18075e-07
5.25853e-07
5.32285e-07
5.3744e-07
5.41393e-07
5.44226e-07
5.46027e-07
5.46884e-07
5.20164e-07
5.3834e-07
5.6382e-07
5.95202e-07
6.31226e-07
6.70738e-07
7.12667e-07
7.56032e-07
7.99946e-07
8.43616e-07
8.86354e-07
9.27573e-07
9.66788e-07
1.00362e-06
1.03776e-06
1.06902e-06
1.09727e-06
1.12245e-06
1.14455e-06
1.16364e-06
1.17979e-06
1.19313e-06
1.20381e-06
1.212e-06
1.21786e-06
1.22158e-06
1.22335e-06
1.20506e-06
1.24305e-06
1.29622e-06
1.36155e-06
1.43637e-06
1.51821e-06
1.60482e-06
1.69417e-06
1.78442e-06
1.87396e-06
1.9614e-06
2.04556e-06
2.12549e-06
2.20043e-06
2.26982e-06
2.33326e-06
2.39053e-06
2.44152e-06
2.48625e-06
2.52483e-06
2.55747e-06
2.58441e-06
2.60597e-06
2.62248e-06
2.6343e-06
2.64181e-06
2.64537e-06
2.67415e-06
2.75025e-06
2.85659e-06
2.98706e-06
3.13616e-06
3.29893e-06
3.47084e-06
3.6478e-06
3.82617e-06
4.00278e-06
4.17489e-06
4.34023e-06
4.49695e-06
4.64362e-06
4.77919e-06
4.90293e-06
5.01444e-06
5.11359e-06
5.20044e-06
5.27528e-06
5.3385e-06
5.39064e-06
5.43232e-06
5.46421e-06
5.48703e-06
5.50151e-06
5.50839e-06
5.67532e-06
5.82107e-06
6.02448e-06
6.2736e-06
6.55776e-06
6.86731e-06
7.19352e-06
7.52856e-06
7.86553e-06
8.19846e-06
8.52226e-06
8.83274e-06
9.12652e-06
9.40102e-06
9.65437e-06
9.88532e-06
1.00932e-05
1.02778e-05
1.04394e-05
1.05785e-05
1.0696e-05
1.07927e-05
1.08701e-05
1.09292e-05
1.09715e-05
1.09983e-05
1.1011e-05
1.14755e-05
1.17414e-05
1.21121e-05
1.25655e-05
1.30821e-05
1.3644e-05
1.42354e-05
1.4842e-05
1.54514e-05
1.60528e-05
1.66371e-05
1.71968e-05
1.77259e-05
1.82199e-05
1.86756e-05
1.90907e-05
1.94641e-05
1.97955e-05
2.00855e-05
2.0335e-05
2.05455e-05
2.0719e-05
2.08575e-05
2.09634e-05
2.10391e-05
2.10871e-05
2.11099e-05
2.2013e-05
2.24755e-05
2.31203e-05
2.39085e-05
2.4806e-05
2.57817e-05
2.68081e-05
2.78603e-05
2.89169e-05
2.99594e-05
3.09719e-05
3.19416e-05
3.28583e-05
3.37141e-05
3.45034e-05
3.52225e-05
3.58694e-05
3.64437e-05
3.69461e-05
3.73784e-05
3.77433e-05
3.80439e-05
3.8284e-05
3.84675e-05
3.85987e-05
3.86819e-05
3.87214e-05
3.98944e-05
4.0658e-05
4.17221e-05
4.30228e-05
4.45034e-05
4.61129e-05
4.78057e-05
4.95413e-05
5.12843e-05
5.30042e-05
5.46753e-05
5.62764e-05
5.77906e-05
5.92049e-05
6.051e-05
6.16997e-05
6.27706e-05
6.37218e-05
6.45545e-05
6.52714e-05
6.58767e-05
6.63757e-05
6.67744e-05
6.70793e-05
6.72974e-05
6.74357e-05
6.75014e-05
6.79714e-05
6.91505e-05
7.07931e-05
7.27998e-05
7.50832e-05
7.75642e-05
8.01726e-05
8.2846e-05
8.553e-05
8.81778e-05
9.07502e-05
9.32146e-05
9.55453e-05
9.77225e-05
9.97317e-05
0.000101563
0.000103213
0.000104678
0.000105961
0.000107065
0.000107998
0.000108768
0.000109382
0.000109853
0.000110189
0.000110402
0.000110504
0.000108443
0.000110117
0.000112447
0.00011529
0.000118521
0.000122025
0.000125704
0.000129467
0.000133239
0.000136954
0.000140556
0.000144003
0.000147257
0.000150292
0.000153089
0.000155636
0.000157927
0.000159959
0.000161737
0.000163267
0.000164558
0.000165622
0.000166472
0.000167121
0.000167585
0.00016788
0.000168019
0.000161882
0.000164045
0.000167051
0.00017071
0.000174856
0.000179342
0.000184035
0.000188822
0.000193603
0.000198297
0.000202835
0.000207161
0.000211235
0.000215023
0.000218505
0.000221667
0.000224503
0.000227014
0.000229206
0.000231087
0.000232672
0.000233976
0.000235016
0.000235809
0.000236376
0.000236735
0.000236905
0.000226827
0.000229373
0.000232901
0.000237186
0.000242026
0.000247244
0.000252683
0.000258209
0.000263707
0.000269083
0.00027426
0.000279176
0.000283788
0.00028806
0.000291974
0.000295516
0.000298685
0.000301482
0.000303917
0.000306003
0.000307757
0.000309196
0.000310343
0.000311216
0.00031184
0.000312234
0.000312421
0.000300225
0.000302986
0.000306804
0.000311429
0.000316638
0.000322233
0.000328044
0.000333925
0.000339755
0.000345434
0.000350882
0.000356038
0.000360858
0.00036531
0.000369376
0.000373047
0.000376321
0.000379206
0.000381713
0.000383856
0.000385655
0.00038713
0.000388303
0.000389196
0.000389833
0.000390235
0.000390426
0.000378405
0.00038121
0.000385085
0.000389769
0.00039503
0.000400666
0.000406505
0.000412397
0.000418222
0.00042388
0.000429294
0.000434406
0.000439173
0.000443567
0.000447572
0.000451182
0.000454397
0.000457226
0.000459681
0.000461779
0.000463537
0.000464979
0.000466124
0.000466996
0.000467618
0.000468011
0.000468197
0.000458016
0.000460741
0.000464501
0.000469039
0.00047413
0.000479575
0.000485206
0.000490879
0.000496478
0.000501909
0.000507098
0.000511991
0.000516548
0.000520745
0.000524567
0.000528009
0.000531073
0.000533767
0.000536105
0.000538102
0.000539776
0.000541148
0.000542238
0.000543068
0.00054366
0.000544034
0.000544212
0.000536604
0.000539178
0.000542729
0.000547012
0.000551814
0.000556946
0.000562249
0.000567589
0.000572855
0.00057796
0.000582836
0.000587433
0.000591713
0.000595653
0.000599242
0.000602473
0.00060535
0.000607881
0.000610076
0.000611952
0.000613526
0.000614815
0.000615841
0.000616622
0.000617179
0.000617532
0.000617699
0.000612674
0.000615073
0.000618381
0.000622372
0.000626844
0.000631625
0.000636565
0.00064154
0.000646446
0.000651203
0.000655748
0.000660032
0.000664024
0.0006677
0.000671049
0.000674066
0.000676753
0.000679118
0.000681171
0.000682926
0.000684398
0.000685606
0.000686567
0.0006873
0.000687823
0.000688154
0.00068831
0.000685494
0.00068772
0.00069079
0.000694494
0.000698646
0.000703087
0.000707677
0.0007123
0.000716863
0.000721289
0.00072552
0.000729511
0.000733231
0.00073666
0.000739785
0.000742602
0.000745113
0.000747324
0.000749245
0.000750887
0.000752267
0.000753399
0.0007543
0.000754987
0.000755478
0.000755789
0.000755936
0.000754837
0.000756905
0.000759758
0.000763202
0.000767064
0.000771197
0.000775471
0.000779779
0.000784033
0.000788162
0.000792112
0.000795841
0.000799318
0.000802526
0.000805451
0.00080809
0.000810443
0.000812517
0.000814319
0.000815861
0.000817157
0.000818221
0.000819069
0.000819715
0.000820177
0.00082047
0.000820609
0.00082076
0.00082269
0.000825353
0.000828569
0.000832179
0.000836042
0.00084004
0.000844072
0.000848057
0.000851927
0.000855631
0.00085913
0.000862396
0.000865409
0.00086816
0.000870642
0.000872857
0.00087481
0.000876508
0.000877962
0.000879184
0.000880188
0.000880988
0.000881599
0.000882035
0.000882312
0.000882443
0.000883464
0.000885275
0.000887775
0.000890795
0.000894186
0.000897817
0.000901577
0.000905371
0.000909123
0.000912768
0.00091626
0.00091956
0.000922641
0.000925486
0.000928084
0.00093043
0.000932524
0.000934371
0.000935978
0.000937354
0.000938512
0.000939463
0.000940221
0.0009408
0.000941213
0.000941475
0.0009416
0.000943203
0.000944912
0.000947272
0.000950123
0.000953326
0.000956757
0.000960311
0.0009639
0.00096745
0.000970901
0.000974208
0.000977335
0.000980256
0.000982954
0.000985419
0.000987646
0.000989634
0.000991388
0.000992915
0.000994223
0.000995324
0.000996228
0.000996949
0.0009975
0.000997893
0.000998143
0.000998261
0.00100024
0.00100186
0.0010041
0.0010068
0.00100984
0.0010131
0.00101648
0.00101989
0.00102326
0.00102655
0.00102969
0.00103267
0.00103545
0.00103802
0.00104036
0.00104249
0.00104438
0.00104605
0.00104751
0.00104876
0.00104981
0.00105067
0.00105136
0.00105188
0.00105226
0.0010525
0.00105261
0.00105482
0.00105637
0.0010585
0.00106108
0.00106398
0.00106708
0.0010703
0.00107356
0.00107678
0.00107991
0.00108291
0.00108576
0.00108841
0.00109087
0.00109311
0.00109514
0.00109695
0.00109855
0.00109995
0.00110114
0.00110214
0.00110297
0.00110363
0.00110413
0.00110449
0.00110472
0.00110483
0.00110717
0.00110865
0.00111069
0.00111316
0.00111593
0.0011189
0.00112199
0.0011251
0.00112818
0.00113119
0.00113406
0.00113679
0.00113933
0.00114169
0.00114384
0.00114578
0.00114752
0.00114906
0.00115039
0.00115154
0.0011525
0.0011533
0.00115393
0.00115441
0.00115476
0.00115498
0.00115508
0.0011575
0.00115891
0.00116087
0.00116324
0.0011659
0.00116875
0.00117171
0.0011747
0.00117766
0.00118055
0.00118331
0.00118593
0.00118838
0.00119064
0.00119271
0.00119458
0.00119625
0.00119772
0.00119901
0.00120011
0.00120104
0.0012018
0.00120241
0.00120288
0.00120321
0.00120342
0.00120352
0.00120596
0.00120733
0.00120921
0.00121149
0.00121405
0.00121679
0.00121964
0.00122252
0.00122537
0.00122815
0.00123081
0.00123333
0.00123569
0.00123787
0.00123986
0.00124166
0.00124327
0.0012447
0.00124593
0.001247
0.00124789
0.00124863
0.00124921
0.00124966
0.00124998
0.00125018
0.00125028
0.00125272
0.00125404
0.00125585
0.00125805
0.00126052
0.00126317
0.00126592
0.00126869
0.00127144
0.00127412
0.00127669
0.00127912
0.0012814
0.0012835
0.00128543
0.00128717
0.00128872
0.0012901
0.00129129
0.00129232
0.00129318
0.00129389
0.00129446
0.00129489
0.0012952
0.0012954
0.00129549
0.00129792
0.00129919
0.00130094
0.00130306
0.00130545
0.00130801
0.00131066
0.00131335
0.001316
0.00131859
0.00132108
0.00132343
0.00132563
0.00132766
0.00132952
0.00133121
0.00133271
0.00133404
0.0013352
0.00133619
0.00133702
0.00133771
0.00133826
0.00133868
0.00133898
0.00133917
0.00133926
0.00134166
0.00134288
0.00134458
0.00134663
0.00134894
0.00135142
0.00135399
0.00135659
0.00135916
0.00136167
0.00136407
0.00136635
0.00136848
0.00137045
0.00137225
0.00137388
0.00137534
0.00137663
0.00137775
0.00137871
0.00137952
0.00138018
0.00138071
0.00138112
0.00138141
0.00138159
0.00138168
0.00138404
0.00138523
0.00138688
0.00138887
0.00139111
0.00139351
0.001396
0.00139852
0.00140101
0.00140344
0.00140577
0.00140798
0.00141005
0.00141196
0.0014137
0.00141528
0.0014167
0.00141794
0.00141903
0.00141996
0.00142075
0.00142139
0.00142191
0.0014223
0.00142258
0.00142276
0.00142285
0.00142517
0.00142632
0.00142792
0.00142985
0.00143202
0.00143435
0.00143677
0.00143921
0.00144164
0.00144399
0.00144626
0.0014484
0.00145041
0.00145226
0.00145396
0.00145549
0.00145686
0.00145807
0.00145913
0.00146003
0.0014608
0.00146142
0.00146192
0.00146231
0.00146258
0.00146275
0.00146283
0.00146511
0.00146624
0.00146779
0.00146966
0.00147177
0.00147403
0.00147638
0.00147876
0.00148111
0.0014834
0.0014856
0.00148768
0.00148963
0.00149143
0.00149308
0.00149457
0.00149591
0.00149708
0.00149811
0.00149899
0.00149973
0.00150034
0.00150083
0.0015012
0.00150146
0.00150163
0.00150171
0.00150395
0.00150504
0.00150655
0.00150837
0.00151042
0.00151262
0.0015149
0.00151721
0.0015195
0.00152173
0.00152387
0.00152589
0.00152779
0.00152954
0.00153115
0.0015326
0.00153389
0.00153504
0.00153604
0.00153689
0.00153761
0.00153821
0.00153868
0.00153904
0.0015393
0.00153946
0.00153954
0.00154173
0.00154279
0.00154426
0.00154603
0.00154803
0.00155017
0.00155239
0.00155464
0.00155687
0.00155904
0.00156112
0.00156309
0.00156494
0.00156664
0.0015682
0.00156961
0.00157088
0.00157199
0.00157296
0.0015738
0.0015745
0.00157508
0.00157554
0.00157589
0.00157614
0.0015763
0.00157637
0.00157852
0.00157955
0.00158098
0.00158271
0.00158465
0.00158674
0.0015889
0.00159109
0.00159326
0.00159537
0.0015974
0.00159932
0.00160112
0.00160278
0.0016043
0.00160568
0.00160691
0.00160799
0.00160894
0.00160975
0.00161043
0.001611
0.00161144
0.00161179
0.00161203
0.00161219
0.00161226
0.00161436
0.00161537
0.00161676
0.00161844
0.00162034
0.00162237
0.00162448
0.00162661
0.00162873
0.00163079
0.00163276
0.00163463
0.00163638
0.001638
0.00163949
0.00164083
0.00164202
0.00164308
0.00164401
0.0016448
0.00164546
0.00164601
0.00164645
0.00164678
0.00164702
0.00164717
0.00164724
0.0016493
0.00165028
0.00165164
0.00165328
0.00165512
0.00165711
0.00165916
0.00166124
0.0016633
0.00166531
0.00166724
0.00166906
0.00167077
0.00167235
0.00167379
0.0016751
0.00167627
0.0016773
0.0016782
0.00167897
0.00167962
0.00168015
0.00168058
0.00168091
0.00168114
0.00168129
0.00168136
0.00168337
0.00168432
0.00168565
0.00168725
0.00168905
0.00169098
0.00169298
0.00169501
0.00169702
0.00169898
0.00170086
0.00170264
0.0017043
0.00170584
0.00170725
0.00170853
0.00170967
0.00171067
0.00171155
0.0017123
0.00171294
0.00171346
0.00171387
0.00171419
0.00171442
0.00171456
0.00171463
0.00171659
0.00171753
0.00171882
0.00172038
0.00172213
0.00172402
0.00172598
0.00172795
0.00172991
0.00173182
0.00173366
0.00173539
0.00173702
0.00173852
0.00173989
0.00174114
0.00174225
0.00174323
0.00174409
0.00174482
0.00174544
0.00174595
0.00174635
0.00174666
0.00174689
0.00174703
0.00174709
0.001749
0.00174992
0.00175117
0.0017527
0.00175441
0.00175625
0.00175816
0.00176009
0.001762
0.00176386
0.00176565
0.00176734
0.00176893
0.00177039
0.00177174
0.00177295
0.00177403
0.00177499
0.00177583
0.00177654
0.00177715
0.00177764
0.00177804
0.00177834
0.00177856
0.00177869
0.00177876
0.00178062
0.00178151
0.00178274
0.00178422
0.00178589
0.00178769
0.00178955
0.00179143
0.0017933
0.00179511
0.00179686
0.00179851
0.00180006
0.00180148
0.00180279
0.00180398
0.00180503
0.00180597
0.00180678
0.00180748
0.00180807
0.00180855
0.00180894
0.00180923
0.00180944
0.00180958
0.00180964
0.00181145
0.00181232
0.00181352
0.00181497
0.00181659
0.00181834
0.00182016
0.00182199
0.00182381
0.00182559
0.00182729
0.0018289
0.0018304
0.0018318
0.00183307
0.00183423
0.00183526
0.00183617
0.00183696
0.00183764
0.00183822
0.00183869
0.00183907
0.00183935
0.00183956
0.00183969
0.00183975
0.00184151
0.00184235
0.00184352
0.00184493
0.00184652
0.00184822
0.00184999
0.00185178
0.00185355
0.00185528
0.00185694
0.00185851
0.00185998
0.00186133
0.00186258
0.0018637
0.00186471
0.0018656
0.00186637
0.00186703
0.00186759
0.00186805
0.00186842
0.0018687
0.0018689
0.00186902
0.00186909
0.00187078
0.0018716
0.00187274
0.00187412
0.00187566
0.00187732
0.00187905
0.00188079
0.00188251
0.0018842
0.00188581
0.00188734
0.00188877
0.00189009
0.0018913
0.0018924
0.00189337
0.00189424
0.00189499
0.00189564
0.00189618
0.00189663
0.00189699
0.00189726
0.00189745
0.00189758
0.00189764
0.00189927
0.00190007
0.00190118
0.00190251
0.00190402
0.00190563
0.00190731
0.001909
0.00191068
0.00191232
0.00191389
0.00191537
0.00191676
0.00191805
0.00191923
0.00192029
0.00192124
0.00192208
0.00192282
0.00192344
0.00192397
0.00192441
0.00192475
0.00192502
0.00192521
0.00192533
0.00192539
0.00192695
0.00192773
0.0019288
0.0019301
0.00193157
0.00193314
0.00193476
0.00193641
0.00193804
0.00193963
0.00194115
0.00194259
0.00194394
0.00194519
0.00194634
0.00194737
0.00194829
0.00194911
0.00194982
0.00195043
0.00195094
0.00195136
0.0019517
0.00195196
0.00195214
0.00195226
0.00195232
0.00195381
0.00195456
0.0019556
0.00195686
0.00195828
0.0019598
0.00196138
0.00196297
0.00196455
0.00196609
0.00196757
0.00196897
0.00197028
0.00197149
0.00197259
0.00197359
0.00197449
0.00197528
0.00197597
0.00197656
0.00197705
0.00197746
0.00197779
0.00197804
0.00197822
0.00197833
0.00197838
0.00197979
0.00198052
0.00198153
0.00198275
0.00198412
0.00198559
0.00198712
0.00198866
0.00199019
0.00199167
0.0019931
0.00199445
0.00199572
0.00199689
0.00199795
0.00199892
0.00199979
0.00200055
0.00200121
0.00200179
0.00200227
0.00200266
0.00200298
0.00200322
0.00200339
0.0020035
0.00200355
0.00200487
0.00200557
0.00200654
0.00200772
0.00200904
0.00201046
0.00201193
0.00201341
0.00201489
0.00201632
0.00201769
0.002019
0.00202021
0.00202134
0.00202237
0.0020233
0.00202413
0.00202487
0.00202551
0.00202606
0.00202652
0.0020269
0.0020272
0.00202743
0.0020276
0.0020277
0.00202775
0.00202898
0.00202965
0.00203058
0.00203171
0.00203298
0.00203434
0.00203575
0.00203718
0.00203859
0.00203997
0.00204129
0.00204253
0.0020437
0.00204478
0.00204577
0.00204666
0.00204746
0.00204816
0.00204878
0.0020493
0.00204975
0.00205011
0.0020504
0.00205062
0.00205078
0.00205088
0.00205093
0.00205205
0.00205269
0.00205358
0.00205466
0.00205587
0.00205717
0.00205852
0.00205988
0.00206123
0.00206254
0.0020638
0.00206499
0.00206611
0.00206714
0.00206808
0.00206893
0.00206969
0.00207036
0.00207095
0.00207145
0.00207187
0.00207222
0.0020725
0.00207271
0.00207286
0.00207295
0.002073
0.002074
0.00207461
0.00207546
0.00207648
0.00207763
0.00207887
0.00208015
0.00208144
0.00208272
0.00208397
0.00208516
0.00208629
0.00208735
0.00208832
0.00208921
0.00209002
0.00209074
0.00209138
0.00209193
0.00209241
0.00209281
0.00209314
0.0020934
0.0020936
0.00209374
0.00209383
0.00209387
0.00209475
0.00209532
0.00209612
0.00209709
0.00209817
0.00209934
0.00210054
0.00210176
0.00210297
0.00210414
0.00210526
0.00210633
0.00210732
0.00210824
0.00210908
0.00210984
0.00211051
0.00211111
0.00211163
0.00211208
0.00211245
0.00211276
0.00211301
0.0021132
0.00211333
0.00211342
0.00211346
0.00211419
0.00211473
0.00211548
0.00211638
0.0021174
0.00211849
0.00211961
0.00212075
0.00212187
0.00212297
0.00212402
0.00212501
0.00212593
0.00212679
0.00212757
0.00212828
0.00212891
0.00212947
0.00212995
0.00213037
0.00213071
0.002131
0.00213123
0.00213141
0.00213153
0.00213161
0.00213165
0.00213224
0.00213274
0.00213343
0.00213427
0.00213521
0.00213621
0.00213725
0.0021383
0.00213934
0.00214035
0.00214132
0.00214223
0.00214309
0.00214388
0.0021446
0.00214525
0.00214583
0.00214634
0.00214679
0.00214717
0.00214749
0.00214775
0.00214796
0.00214812
0.00214824
0.00214831
0.00214835
0.0021488
0.00214925
0.00214989
0.00215065
0.00215151
0.00215242
0.00215337
0.00215433
0.00215528
0.0021562
0.00215708
0.00215791
0.00215869
0.0021594
0.00216006
0.00216065
0.00216118
0.00216164
0.00216205
0.00216239
0.00216268
0.00216292
0.00216311
0.00216326
0.00216336
0.00216343
0.00216346
0.00216377
0.00216418
0.00216475
0.00216544
0.00216621
0.00216703
0.00216789
0.00216875
0.0021696
0.00217042
0.00217121
0.00217196
0.00217265
0.00217329
0.00217388
0.00217441
0.00217488
0.0021753
0.00217566
0.00217597
0.00217623
0.00217644
0.00217661
0.00217674
0.00217683
0.00217689
0.00217692
0.00217709
0.00217746
0.00217796
0.00217857
0.00217925
0.00217998
0.00218073
0.00218149
0.00218224
0.00218297
0.00218366
0.00218432
0.00218493
0.0021855
0.00218601
0.00218647
0.00218689
0.00218725
0.00218757
0.00218784
0.00218807
0.00218826
0.0021884
0.00218852
0.0021886
0.00218865
0.00218868
0.00218873
0.00218904
0.00218948
0.00219001
0.0021906
0.00219123
0.00219188
0.00219254
0.00219319
0.00219381
0.00219441
0.00219498
0.0021955
0.00219599
0.00219643
0.00219683
0.00219719
0.0021975
0.00219777
0.002198
0.0021982
0.00219836
0.00219849
0.00219858
0.00219865
0.0021987
0.00219872
0.00219867
0.00219894
0.00219931
0.00219976
0.00220026
0.00220079
0.00220134
0.0022019
0.00220244
0.00220297
0.00220348
0.00220395
0.0022044
0.0022048
0.00220517
0.00220551
0.00220581
0.00220607
0.0022063
0.00220649
0.00220666
0.00220679
0.0022069
0.00220698
0.00220704
0.00220707
0.00220709
0.00220696
0.00220719
0.00220749
0.00220786
0.00220828
0.00220872
0.00220917
0.00220963
0.00221008
0.00221051
0.00221093
0.00221132
0.00221168
0.00221202
0.00221232
0.00221259
0.00221284
0.00221305
0.00221324
0.0022134
0.00221353
0.00221364
0.00221373
0.00221379
0.00221384
0.00221387
0.00221388
0.00221371
0.00221389
0.00221414
0.00221443
0.00221477
0.00221512
0.00221549
0.00221585
0.00221621
0.00221656
0.00221689
0.00221721
0.0022175
0.00221776
0.00221801
0.00221822
0.00221842
0.00221859
0.00221874
0.00221886
0.00221897
0.00221906
0.00221913
0.00221918
0.00221922
0.00221924
0.00221925
0.00221905
0.0022192
0.00221939
0.00221962
0.00221989
0.00222016
0.00222045
0.00222074
0.00222102
0.00222129
0.00222155
0.0022218
0.00222202
0.00222223
0.00222242
0.00222259
0.00222274
0.00222287
0.00222299
0.00222309
0.00222317
0.00222324
0.00222329
0.00222333
0.00222336
0.00222338
0.00222339
0.00222319
0.0022233
0.00222345
0.00222363
0.00222383
0.00222404
0.00222426
0.00222448
0.00222469
0.0022249
0.0022251
0.00222528
0.00222546
0.00222561
0.00222576
0.00222589
0.002226
0.0022261
0.00222619
0.00222626
0.00222632
0.00222637
0.00222642
0.00222645
0.00222647
0.00222648
0.00222649
0.00222631
0.00222639
0.0022265
0.00222663
0.00222678
0.00222694
0.00222711
0.00222727
0.00222743
0.00222759
0.00222773
0.00222787
0.002228
0.00222812
0.00222822
0.00222832
0.0022284
0.00222848
0.00222854
0.0022286
0.00222864
0.00222868
0.00222871
0.00222873
0.00222875
0.00222876
0.00222877
0.00222861
0.00222867
0.00222875
0.00222885
0.00222896
0.00222908
0.0022292
0.00222932
0.00222944
0.00222955
0.00222966
0.00222976
0.00222986
0.00222994
0.00223002
0.00223009
0.00223015
0.00223021
0.00223026
0.0022303
0.00223033
0.00223036
0.00223038
0.0022304
0.00223041
0.00223042
0.00223042
0.00223029
0.00223034
0.0022304
0.00223047
0.00223055
0.00223064
0.00223073
0.00223082
0.0022309
0.00223099
0.00223107
0.00223114
0.00223121
0.00223127
0.00223133
0.00223138
0.00223143
0.00223147
0.0022315
0.00223153
0.00223156
0.00223158
0.0022316
0.00223161
0.00223162
0.00223162
0.00223163
0.00223152
0.00223156
0.0022316
0.00223166
0.00223172
0.00223178
0.00223184
0.00223191
0.00223197
0.00223204
0.0022321
0.00223215
0.0022322
0.00223225
0.00223229
0.00223233
0.00223237
0.0022324
0.00223242
0.00223245
0.00223246
0.00223248
0.00223249
0.0022325
0.00223251
0.00223251
0.00223251
0.00223243
0.00223246
0.00223249
0.00223253
0.00223257
0.00223262
0.00223267
0.00223272
0.00223277
0.00223282
0.00223286
0.0022329
0.00223294
0.00223298
0.00223301
0.00223304
0.00223306
0.00223309
0.00223311
0.00223312
0.00223314
0.00223315
0.00223316
0.00223317
0.00223317
0.00223318
0.00223318
0.00223311
0.00223313
0.00223315
0.00223318
0.00223322
0.00223325
0.00223329
0.00223333
0.00223336
0.0022334
0.00223343
0.00223346
0.00223349
0.00223352
0.00223355
0.00223357
0.00223359
0.00223361
0.00223362
0.00223363
0.00223365
0.00223365
0.00223366
0.00223367
0.00223367
0.00223367
0.00223367
0.00223361
0.00223363
0.00223365
0.00223367
0.0022337
0.00223372
0.00223375
0.00223378
0.00223381
0.00223384
0.00223386
0.00223389
0.00223391
0.00223393
0.00223395
0.00223397
0.00223398
0.00223399
0.00223401
0.00223402
0.00223402
0.00223403
0.00223404
0.00223404
0.00223404
0.00223404