/*--------------------------------*- C++ -*----------------------------------*\
| =========                 |                                                 |
| \\      /  F ield         | OpenFOAM: The Open Source CFD Toolbox           |
|  \\    /   O peration     | Version:  2106                                  |
|   \\  /    A nd           | Website:  www.openfoam.com                      |
|    \\/     M anipulation  |                                                 |
\*---------------------------------------------------------------------------*/
FoamFile
{
    version     2.0;
    format      ascii;
    arch        "LSB;label=32;scalar=64";
    class       volScalarField;
    location    "80.00032";
    object      CH3CO_0;
}
// * * * * * * * * * * * * * * * * * * * * * * * * * * * * * * * * * * * * * //

dimensions      [0 0 0 0 0 0 0];

internalField   nonuniform List<scalar> 
3360
(
2.82515e-39
3.01928e-39
3.30066e-39
3.66284e-39
4.10064e-39
4.60873e-39
5.18088e-39
5.80959e-39
6.48606e-39
7.20028e-39
7.94124e-39
8.69724e-39
9.45626e-39
1.02064e-38
1.0936e-38
1.16343e-38
1.22915e-38
1.28991e-38
1.34502e-38
1.39393e-38
1.43629e-38
1.47189e-38
1.50073e-38
1.52295e-38
1.53885e-38
1.54887e-38
1.55356e-38
4.84656e-38
5.22403e-38
5.78047e-38
6.51249e-38
7.42101e-38
8.50808e-38
9.77497e-38
1.12207e-37
1.28412e-37
1.4628e-37
1.65686e-37
1.86451e-37
2.08348e-37
2.31098e-37
2.54382e-37
2.77838e-37
3.01078e-37
3.23696e-37
3.4528e-37
3.6543e-37
3.83771e-37
3.99969e-37
4.13743e-37
4.24882e-37
4.33244e-37
4.38771e-37
4.41484e-37
4.6896e-37
5.12426e-37
5.77417e-37
6.64443e-37
7.74586e-37
9.09051e-37
1.06886e-36
1.25456e-36
1.46607e-36
1.70244e-36
1.96178e-36
2.24128e-36
2.53719e-36
2.84493e-36
3.15918e-36
3.47415e-36
3.78377e-36
4.082e-36
4.36307e-36
4.62175e-36
4.85353e-36
5.05482e-36
5.22306e-36
5.3567e-36
5.4553e-36
5.51936e-36
5.5503e-36
3.97773e-36
4.39428e-36
5.02481e-36
5.88091e-36
6.98025e-36
8.34162e-36
9.98116e-36
1.19091e-35
1.4127e-35
1.66257e-35
1.9384e-35
2.23683e-35
2.55333e-35
2.88236e-35
3.21759e-35
3.55224e-35
3.8794e-35
4.1924e-35
4.48512e-35
4.75224e-35
4.98948e-35
5.19366e-35
5.36276e-35
5.49593e-35
5.59336e-35
5.65617e-35
5.68629e-35
3.39988e-35
3.78367e-35
4.36798e-35
5.16678e-35
6.19978e-35
7.48752e-35
9.04741e-35
1.08904e-34
1.30179e-34
1.54202e-34
1.80745e-34
2.09459e-34
2.39875e-34
2.71432e-34
3.035e-34
3.35415e-34
3.66514e-34
3.96167e-34
4.23804e-34
4.48942e-34
4.71198e-34
4.90296e-34
5.06071e-34
5.18464e-34
5.27511e-34
5.33333e-34
5.36121e-34
2.95515e-34
3.30217e-34
3.83222e-34
4.55928e-34
5.50249e-34
6.68164e-34
8.11339e-34
9.80806e-34
1.17669e-33
1.39803e-33
1.64266e-33
1.90723e-33
2.18731e-33
2.47763e-33
2.77229e-33
3.06513e-33
3.35005e-33
3.62128e-33
3.87366e-33
4.10284e-33
4.30543e-33
4.47901e-33
4.62219e-33
4.73452e-33
4.81642e-33
4.86907e-33
4.89427e-33
2.60168e-33
2.91375e-33
3.39095e-33
4.04636e-33
4.89766e-33
5.96291e-33
7.25717e-33
8.78954e-33
1.05607e-32
1.25614e-32
1.47713e-32
1.71596e-32
1.96857e-32
2.23016e-32
2.49539e-32
2.75872e-32
3.01466e-32
3.25808e-32
3.48438e-32
3.68971e-32
3.87107e-32
4.02635e-32
4.15435e-32
4.25472e-32
4.32786e-32
4.37485e-32
4.39732e-32
2.30019e-32
2.57829e-32
3.00387e-32
3.58875e-32
4.34884e-32
5.3003e-32
6.4565e-32
7.82533e-32
9.40712e-32
1.11931e-31
1.31647e-31
1.5294e-31
1.75443e-31
1.98725e-31
2.22309e-31
2.45701e-31
2.68413e-31
2.8999e-31
3.10028e-31
3.28189e-31
3.44212e-31
3.57915e-31
3.69197e-31
3.78032e-31
3.84462e-31
3.88588e-31
3.90557e-31
2.03651e-31
2.28344e-31
2.66117e-31
3.18008e-31
3.85405e-31
4.69709e-31
5.72058e-31
6.93095e-31
8.32788e-31
9.90295e-31
1.16392e-30
1.35114e-30
1.5487e-30
1.75276e-30
1.95914e-30
2.16351e-30
2.36162e-30
2.54953e-30
2.72376e-30
2.88142e-30
3.02028e-30
3.13884e-30
3.23627e-30
3.31241e-30
3.36771e-30
3.4031e-30
3.41995e-30
1.79267e-30
2.00945e-30
2.34087e-30
2.79574e-30
3.38583e-30
4.12288e-30
5.01621e-30
6.07071e-30
7.28529e-30
8.65181e-30
1.01548e-29
1.17715e-29
1.34734e-29
1.52268e-29
1.69956e-29
1.87425e-29
2.04314e-29
2.20289e-29
2.35057e-29
2.48381e-29
2.60079e-29
2.70033e-29
2.78183e-29
2.84527e-29
2.89113e-29
2.92034e-29
2.93416e-29
1.56417e-29
1.75199e-29
2.03868e-29
2.43135e-29
2.93948e-29
3.57235e-29
4.33697e-29
5.23642e-29
6.26858e-29
7.42538e-29
8.69256e-29
1.00501e-28
1.1473e-28
1.29327e-28
1.43988e-28
1.58404e-28
1.72278e-28
1.8534e-28
1.97358e-28
2.08146e-28
2.17568e-28
2.25538e-28
2.32023e-28
2.37035e-28
2.40629e-28
2.42896e-28
2.43957e-28
1.34169e-28
1.50059e-28
1.74256e-28
2.07289e-28
2.49868e-28
3.02659e-28
3.66122e-28
4.40374e-28
5.25094e-28
6.19473e-28
7.22214e-28
8.31573e-28
9.45446e-28
1.06149e-27
1.17723e-27
1.29023e-27
1.3982e-27
1.49909e-27
1.59119e-27
1.67317e-27
1.74411e-27
1.80354e-27
1.85135e-27
1.88783e-27
1.9136e-27
1.92957e-27
1.93689e-27
1.12204e-27
1.25207e-27
1.44927e-27
1.71708e-27
2.06014e-27
2.48246e-27
2.98619e-27
3.5706e-27
4.23147e-27
4.96086e-27
5.74723e-27
6.57599e-27
7.43025e-27
8.29175e-27
9.14199e-27
9.9631e-27
1.07388e-26
1.14552e-26
1.2101e-26
1.26681e-26
1.31517e-26
1.35501e-26
1.38645e-26
1.4099e-26
1.42601e-26
1.43565e-26
1.43987e-26
9.02015e-27
1.00305e-26
1.15541e-26
1.36077e-26
1.62145e-26
1.93906e-26
2.31361e-26
2.74287e-26
3.22204e-26
3.74378e-26
4.29846e-26
4.87464e-26
5.45978e-26
6.04095e-26
6.60554e-26
7.14196e-26
7.6401e-26
8.09181e-26
8.49107e-26
8.83412e-26
9.11946e-26
9.34776e-26
9.5217e-26
9.64582e-26
9.72628e-26
9.77068e-26
9.78791e-26
6.86179e-26
7.59262e-26
8.68548e-26
1.01425e-25
1.19679e-25
1.41593e-25
1.67019e-25
1.95654e-25
2.27033e-25
2.60547e-25
2.9547e-25
3.31004e-25
3.66328e-25
4.00645e-25
4.33225e-25
4.63435e-25
4.90772e-25
5.14868e-25
5.35499e-25
5.52585e-25
5.66182e-25
5.76471e-25
5.8375e-25
5.88421e-25
5.90979e-25
5.92006e-25
5.92157e-25
4.83088e-25
5.30864e-25
6.01489e-25
6.94237e-25
8.08372e-25
9.4263e-25
1.09496e-24
1.26246e-24
1.44143e-24
1.62756e-24
1.81624e-24
2.00277e-24
2.18272e-24
2.35209e-24
2.50756e-24
2.64654e-24
2.76728e-24
2.86883e-24
2.95103e-24
3.01442e-24
3.06022e-24
3.09026e-24
3.10685e-24
3.11283e-24
3.11145e-24
3.10636e-24
3.10162e-24
3.0689e-24
3.34167e-24
3.73867e-24
4.24957e-24
4.86327e-24
5.56572e-24
6.33922e-24
7.16277e-24
8.01312e-24
8.86622e-24
9.6987e-24
1.04893e-23
1.12198e-23
1.1876e-23
1.24477e-23
1.29288e-23
1.33175e-23
1.36151e-23
1.38263e-23
1.39586e-23
1.40216e-23
1.40271e-23
1.39885e-23
1.39211e-23
1.38416e-23
1.37684e-23
1.37211e-23
1.70803e-23
1.83836e-23
2.02425e-23
2.25723e-23
2.52841e-23
2.8279e-23
3.14493e-23
3.46838e-23
3.78736e-23
4.09195e-23
4.37368e-23
4.6259e-23
4.84391e-23
5.02496e-23
5.16806e-23
5.2738e-23
5.34402e-23
5.38165e-23
5.39039e-23
5.37463e-23
5.33925e-23
5.28959e-23
5.23139e-23
5.17083e-23
5.11445e-23
5.06926e-23
5.04272e-23
8.08487e-23
8.58144e-23
9.27157e-23
1.01077e-22
1.10421e-22
1.20271e-22
1.30168e-22
1.39695e-22
1.48504e-22
1.56321e-22
1.62959e-22
1.68312e-22
1.72348e-22
1.75092e-22
1.7662e-22
1.77041e-22
1.76486e-22
1.75105e-22
1.73056e-22
1.70502e-22
1.67612e-22
1.64561e-22
1.61526e-22
1.58693e-22
1.56254e-22
1.54413e-22
1.53381e-22
3.17576e-22
3.31868e-22
3.51083e-22
3.7336e-22
3.96947e-22
4.20266e-22
4.41992e-22
4.61106e-22
4.76913e-22
4.89027e-22
4.97328e-22
5.01915e-22
5.03041e-22
5.01066e-22
4.9641e-22
4.89522e-22
4.80858e-22
4.70866e-22
4.5998e-22
4.48623e-22
4.37206e-22
4.26138e-22
4.15826e-22
4.06689e-22
3.99153e-22
3.93664e-22
3.90681e-22
1.02467e-21
1.05387e-21
1.09134e-21
1.13205e-21
1.17159e-21
1.2065e-21
1.2343e-21
1.25355e-21
1.26372e-21
1.26496e-21
1.25794e-21
1.24366e-21
1.22326e-21
1.19794e-21
1.16885e-21
1.13711e-21
1.1037e-21
1.06956e-21
1.03551e-21
1.00233e-21
9.70761e-22
9.41511e-22
9.15289e-22
8.92809e-22
8.74802e-22
8.6202e-22
8.55235e-22
2.74956e-21
2.78811e-21
2.83321e-21
2.87534e-21
2.90692e-21
2.92288e-21
2.92061e-21
2.89964e-21
2.86109e-21
2.80709e-21
2.74034e-21
2.66368e-21
2.5799e-21
2.49155e-21
2.4009e-21
2.30992e-21
2.22031e-21
2.13354e-21
2.05088e-21
1.97345e-21
1.90232e-21
1.83844e-21
1.7828e-21
1.73632e-21
1.69999e-21
1.67477e-21
1.66166e-21
6.35781e-21
6.38487e-21
6.40564e-21
6.40607e-21
6.3761e-21
6.31043e-21
6.20822e-21
6.07211e-21
5.90691e-21
5.71856e-21
5.51316e-21
5.29637e-21
5.07303e-21
4.84728e-21
4.62282e-21
4.40302e-21
4.19097e-21
3.98953e-21
3.80133e-21
3.62878e-21
3.47408e-21
3.33924e-21
3.22611e-21
3.13613e-21
3.06865e-21
3.02348e-21
3.00072e-21
1.31905e-20
1.3213e-20
1.32166e-20
1.31782e-20
1.30789e-20
1.29084e-20
1.2666e-20
1.23601e-20
1.20072e-20
1.1631e-20
1.12616e-20
1.0936e-20
1.06533e-20
1.03985e-20
1.01626e-20
9.94048e-21
9.72935e-21
9.52829e-21
9.33757e-21
9.1583e-21
8.99225e-21
8.84164e-21
8.70904e-21
8.59724e-21
8.50911e-21
8.44758e-21
8.41547e-21
2.50233e-20
2.52108e-20
2.55378e-20
2.60624e-20
2.66856e-20
2.73499e-20
2.80202e-20
2.86748e-20
2.93e-20
2.98866e-20
3.04277e-20
3.09173e-20
3.13499e-20
3.17214e-20
3.2029e-20
3.22724e-20
3.24529e-20
3.25742e-20
3.26415e-20
3.26618e-20
3.26433e-20
3.25955e-20
3.25286e-20
3.24534e-20
3.23809e-20
3.23222e-20
3.22878e-20
6.26607e-20
6.4626e-20
6.7352e-20
7.06638e-20
7.44025e-20
7.84291e-20
8.26234e-20
8.68804e-20
9.11068e-20
9.52183e-20
9.9138e-20
1.02797e-19
1.06136e-19
1.09108e-19
1.1168e-19
1.13837e-19
1.1558e-19
1.16925e-19
1.17907e-19
1.18567e-19
1.18956e-19
1.19131e-19
1.19148e-19
1.19064e-19
1.18933e-19
1.18802e-19
1.18718e-19
1.97022e-19
2.04281e-19
2.14322e-19
2.2645e-19
2.40007e-19
2.54363e-19
2.68917e-19
2.83121e-19
2.96497e-19
3.08669e-19
3.19378e-19
3.28484e-19
3.35958e-19
3.41859e-19
3.4631e-19
3.49475e-19
3.51535e-19
3.52679e-19
3.5309e-19
3.52943e-19
3.52397e-19
3.51601e-19
3.50687e-19
3.49773e-19
3.48964e-19
3.4835e-19
3.4801e-19
6.4034e-19
6.586e-19
6.83311e-19
7.12341e-19
7.43824e-19
7.76203e-19
8.08271e-19
8.39167e-19
8.68341e-19
8.95497e-19
9.20527e-19
9.43454e-19
9.64385e-19
9.83468e-19
1.00086e-18
1.01673e-18
1.03119e-18
1.04436e-18
1.05629e-18
1.06701e-18
1.07654e-18
1.08483e-18
1.09186e-18
1.09757e-18
1.10191e-18
1.10484e-18
1.10631e-18
1.77691e-18
1.82204e-18
1.88485e-18
1.96171e-18
2.04977e-18
2.14681e-18
2.25128e-18
2.3622e-18
2.47904e-18
2.60158e-18
2.72981e-18
2.86372e-18
3.0032e-18
3.14792e-18
3.29721e-18
3.44997e-18
3.60471e-18
3.75945e-18
3.91184e-18
4.05916e-18
4.19846e-18
4.32659e-18
4.4404e-18
4.53675e-18
4.61271e-18
4.66558e-18
4.693e-18
4.69951e-18
4.85513e-18
5.07935e-18
5.36658e-18
5.71398e-18
6.12074e-18
6.58769e-18
7.11679e-18
7.71056e-18
8.37143e-18
9.10106e-18
9.89958e-18
1.0765e-17
1.16928e-17
1.26751e-17
1.37012e-17
1.47567e-17
1.58248e-17
1.68855e-17
1.79172e-17
1.88969e-17
1.98006e-17
2.06048e-17
2.12866e-17
2.18245e-17
2.21991e-17
2.23935e-17
1.27304e-17
1.3308e-17
1.41568e-17
1.52712e-17
1.66551e-17
1.83187e-17
2.02752e-17
2.25387e-17
2.51213e-17
2.80303e-17
3.12661e-17
3.48193e-17
3.86698e-17
4.2785e-17
4.71194e-17
5.16153e-17
5.62038e-17
6.08058e-17
6.53351e-17
6.97003e-17
7.38075e-17
7.75634e-17
8.08775e-17
8.36648e-17
8.58476e-17
8.73574e-17
8.81357e-17
3.5003e-17
3.69022e-17
3.97028e-17
4.33893e-17
4.79727e-17
5.34753e-17
5.9921e-17
6.73263e-17
7.56934e-17
8.5004e-17
9.5214e-17
1.06251e-16
1.18012e-16
1.30363e-16
1.43146e-16
1.56173e-16
1.6924e-16
1.82127e-16
1.94607e-16
2.0645e-16
2.17432e-16
2.27337e-16
2.35964e-16
2.43132e-16
2.48683e-16
2.52482e-16
2.54422e-16
9.17981e-17
9.67739e-17
1.04057e-16
1.13545e-16
1.25189e-16
1.38952e-16
1.54789e-16
1.72631e-16
1.9237e-16
2.13854e-16
2.36884e-16
2.61212e-16
2.86548e-16
3.12562e-16
3.38892e-16
3.65158e-16
3.90967e-16
4.15925e-16
4.39647e-16
4.61764e-16
4.81933e-16
4.9984e-16
5.15209e-16
5.27805e-16
5.37434e-16
5.43946e-16
5.47234e-16
2.14e-16
2.24072e-16
2.38643e-16
2.5734e-16
2.79873e-16
3.0597e-16
3.35342e-16
3.67667e-16
4.02576e-16
4.39649e-16
4.78424e-16
5.184e-16
5.59047e-16
5.99821e-16
6.40171e-16
6.79555e-16
7.17453e-16
7.53378e-16
7.86881e-16
8.17562e-16
8.4507e-16
8.69107e-16
8.89432e-16
9.05858e-16
9.18253e-16
9.26533e-16
9.30667e-16
4.28141e-16
4.44149e-16
4.67035e-16
4.95951e-16
5.30173e-16
5.69017e-16
6.11807e-16
6.57856e-16
7.06454e-16
7.56878e-16
8.08405e-16
8.6032e-16
9.11933e-16
9.62584e-16
1.01166e-15
1.0586e-15
1.10291e-15
1.14415e-15
1.18194e-15
1.21598e-15
1.24603e-15
1.27191e-15
1.29349e-15
1.3107e-15
1.32354e-15
1.33202e-15
1.33621e-15
7.36521e-16
7.57268e-16
7.86616e-16
8.2319e-16
8.65779e-16
9.13261e-16
9.64572e-16
1.0187e-15
1.07467e-15
1.13157e-15
1.18857e-15
1.24486e-15
1.29976e-15
1.35265e-15
1.40297e-15
1.45029e-15
1.49422e-15
1.53447e-15
1.57081e-15
1.60308e-15
1.6312e-15
1.65511e-15
1.67481e-15
1.69036e-15
1.70183e-15
1.70934e-15
1.71301e-15
1.11256e-15
1.13535e-15
1.16732e-15
1.20671e-15
1.25198e-15
1.30173e-15
1.35465e-15
1.40959e-15
1.46549e-15
1.52139e-15
1.57649e-15
1.63005e-15
1.68148e-15
1.73029e-15
1.77607e-15
1.81853e-15
1.85743e-15
1.89262e-15
1.92402e-15
1.9516e-15
1.97537e-15
1.99538e-15
2.01171e-15
2.02448e-15
2.03383e-15
2.03989e-15
2.04284e-15
1.51462e-15
1.53673e-15
1.56753e-15
1.60516e-15
1.64796e-15
1.69447e-15
1.74338e-15
1.79352e-15
1.8439e-15
1.89367e-15
1.94211e-15
1.98864e-15
2.0328e-15
2.07423e-15
2.11267e-15
2.14794e-15
2.17994e-15
2.20861e-15
2.23396e-15
2.25604e-15
2.27491e-15
2.29067e-15
2.30345e-15
2.31337e-15
2.32058e-15
2.32523e-15
2.32748e-15
1.90553e-15
1.92513e-15
1.95231e-15
1.98529e-15
2.02254e-15
2.06269e-15
2.10453e-15
2.14705e-15
2.18939e-15
2.23082e-15
2.27079e-15
2.30885e-15
2.34466e-15
2.37797e-15
2.40864e-15
2.43656e-15
2.46171e-15
2.48408e-15
2.50374e-15
2.52074e-15
2.53518e-15
2.54718e-15
2.55685e-15
2.56432e-15
2.56972e-15
2.57319e-15
2.57486e-15
2.26225e-15
2.2786e-15
2.30119e-15
2.32849e-15
2.35916e-15
2.39202e-15
2.42607e-15
2.46044e-15
2.49444e-15
2.52751e-15
2.5592e-15
2.58918e-15
2.61722e-15
2.64315e-15
2.66689e-15
2.68838e-15
2.70762e-15
2.72466e-15
2.73956e-15
2.75238e-15
2.76322e-15
2.77219e-15
2.77938e-15
2.78492e-15
2.78891e-15
2.79146e-15
2.79268e-15
2.57583e-15
2.58897e-15
2.60708e-15
2.62889e-15
2.65331e-15
2.67936e-15
2.70624e-15
2.73326e-15
2.75987e-15
2.78562e-15
2.8102e-15
2.83334e-15
2.85489e-15
2.87473e-15
2.89281e-15
2.90912e-15
2.92366e-15
2.93648e-15
2.94764e-15
2.95722e-15
2.96528e-15
2.97193e-15
2.97724e-15
2.98132e-15
2.98424e-15
2.98611e-15
2.987e-15
2.84686e-15
2.85721e-15
2.87145e-15
2.88857e-15
2.90768e-15
2.92802e-15
2.94895e-15
2.96991e-15
2.99049e-15
3.01035e-15
3.02923e-15
3.04695e-15
3.06339e-15
3.07849e-15
3.09219e-15
3.10451e-15
3.11545e-15
3.12507e-15
3.13342e-15
3.14055e-15
3.14654e-15
3.15145e-15
3.15537e-15
3.15837e-15
3.16051e-15
3.16187e-15
3.16252e-15
3.08062e-15
3.08872e-15
3.09986e-15
3.11323e-15
3.12814e-15
3.14397e-15
3.16022e-15
3.17646e-15
3.19237e-15
3.20768e-15
3.22219e-15
3.23579e-15
3.24836e-15
3.25986e-15
3.27028e-15
3.27961e-15
3.28788e-15
3.29512e-15
3.30137e-15
3.3067e-15
3.31116e-15
3.31481e-15
3.31771e-15
3.31991e-15
3.32149e-15
3.32248e-15
3.32295e-15
3.28382e-15
3.2902e-15
3.29896e-15
3.30946e-15
3.32115e-15
3.33354e-15
3.34625e-15
3.35892e-15
3.37131e-15
3.38321e-15
3.39446e-15
3.40497e-15
3.41467e-15
3.42351e-15
3.4315e-15
3.43863e-15
3.44492e-15
3.45041e-15
3.45514e-15
3.45916e-15
3.4625e-15
3.46523e-15
3.46738e-15
3.46901e-15
3.47017e-15
3.4709e-15
3.47124e-15
3.46289e-15
3.46797e-15
3.47494e-15
3.48329e-15
3.49257e-15
3.50241e-15
3.51247e-15
3.52249e-15
3.53227e-15
3.54164e-15
3.55048e-15
3.55872e-15
3.56629e-15
3.57318e-15
3.57938e-15
3.5849e-15
3.58974e-15
3.59396e-15
3.59757e-15
3.60062e-15
3.60315e-15
3.6052e-15
3.60682e-15
3.60803e-15
3.60889e-15
3.60943e-15
3.60968e-15
3.62321e-15
3.62733e-15
3.63297e-15
3.63972e-15
3.64722e-15
3.65516e-15
3.66326e-15
3.67133e-15
3.67918e-15
3.68668e-15
3.69374e-15
3.7003e-15
3.70632e-15
3.71177e-15
3.71665e-15
3.72098e-15
3.72477e-15
3.72804e-15
3.73084e-15
3.73318e-15
3.73512e-15
3.73668e-15
3.73789e-15
3.7388e-15
3.73944e-15
3.73984e-15
3.74002e-15
3.76903e-15
3.77243e-15
3.77708e-15
3.78265e-15
3.78883e-15
3.79535e-15
3.80201e-15
3.80862e-15
3.81503e-15
3.82115e-15
3.8269e-15
3.83221e-15
3.83707e-15
3.84146e-15
3.84537e-15
3.84881e-15
3.85181e-15
3.85439e-15
3.85658e-15
3.8584e-15
3.8599e-15
3.86109e-15
3.86201e-15
3.86269e-15
3.86317e-15
3.86346e-15
3.8636e-15
3.90355e-15
3.90641e-15
3.91032e-15
3.915e-15
3.92018e-15
3.92565e-15
3.93122e-15
3.93674e-15
3.94208e-15
3.94716e-15
3.95192e-15
3.9563e-15
3.96028e-15
3.96387e-15
3.96704e-15
3.96983e-15
3.97224e-15
3.97429e-15
3.97602e-15
3.97745e-15
3.97861e-15
3.97952e-15
3.98023e-15
3.98074e-15
3.98109e-15
3.98131e-15
3.9814e-15
4.02912e-15
4.03157e-15
4.03493e-15
4.03893e-15
4.04336e-15
4.04802e-15
4.05276e-15
4.05744e-15
4.06197e-15
4.06625e-15
4.07025e-15
4.07391e-15
4.07723e-15
4.0802e-15
4.08281e-15
4.08508e-15
4.08704e-15
4.08869e-15
4.09006e-15
4.09119e-15
4.09209e-15
4.09279e-15
4.09332e-15
4.09371e-15
4.09397e-15
4.09412e-15
4.09419e-15
4.14748e-15
4.14961e-15
4.15253e-15
4.156e-15
4.15985e-15
4.16388e-15
4.16797e-15
4.172e-15
4.17589e-15
4.17955e-15
4.18295e-15
4.18605e-15
4.18884e-15
4.19132e-15
4.19349e-15
4.19536e-15
4.19696e-15
4.19829e-15
4.19938e-15
4.20027e-15
4.20097e-15
4.2015e-15
4.2019e-15
4.20218e-15
4.20236e-15
4.20246e-15
4.20251e-15
4.25986e-15
4.26174e-15
4.26431e-15
4.26736e-15
4.27073e-15
4.27427e-15
4.27784e-15
4.28135e-15
4.28471e-15
4.28787e-15
4.29079e-15
4.29344e-15
4.29581e-15
4.29789e-15
4.2997e-15
4.30125e-15
4.30255e-15
4.30362e-15
4.30449e-15
4.30517e-15
4.30571e-15
4.3061e-15
4.30639e-15
4.30658e-15
4.3067e-15
4.30677e-15
4.3068e-15
4.36716e-15
4.36884e-15
4.37112e-15
4.37383e-15
4.37681e-15
4.37993e-15
4.38307e-15
4.38615e-15
4.38908e-15
4.39183e-15
4.39434e-15
4.39661e-15
4.39863e-15
4.40038e-15
4.40189e-15
4.40316e-15
4.40421e-15
4.40507e-15
4.40575e-15
4.40627e-15
4.40666e-15
4.40694e-15
4.40713e-15
4.40726e-15
4.40732e-15
4.40736e-15
4.40737e-15
4.47004e-15
4.47153e-15
4.47357e-15
4.47599e-15
4.47864e-15
4.48141e-15
4.48419e-15
4.48689e-15
4.48946e-15
4.49185e-15
4.49402e-15
4.49597e-15
4.49768e-15
4.49915e-15
4.5004e-15
4.50143e-15
4.50227e-15
4.50293e-15
4.50344e-15
4.50382e-15
4.50409e-15
4.50427e-15
4.50439e-15
4.50444e-15
4.50447e-15
4.50447e-15
4.50447e-15
4.56895e-15
4.57029e-15
4.57212e-15
4.57428e-15
4.57665e-15
4.5791e-15
4.58156e-15
4.58394e-15
4.58619e-15
4.58826e-15
4.59013e-15
4.59179e-15
4.59323e-15
4.59445e-15
4.59546e-15
4.59628e-15
4.59693e-15
4.59743e-15
4.59779e-15
4.59804e-15
4.59821e-15
4.5983e-15
4.59833e-15
4.59834e-15
4.59832e-15
4.5983e-15
4.59828e-15
4.66423e-15
4.66544e-15
4.66708e-15
4.66901e-15
4.67111e-15
4.67329e-15
4.67546e-15
4.67755e-15
4.6795e-15
4.68129e-15
4.68289e-15
4.68428e-15
4.68547e-15
4.68646e-15
4.68727e-15
4.6879e-15
4.68837e-15
4.68872e-15
4.68894e-15
4.68908e-15
4.68914e-15
4.68915e-15
4.68912e-15
4.68907e-15
4.68902e-15
4.68897e-15
4.68894e-15
4.75613e-15
4.75721e-15
4.75867e-15
4.76039e-15
4.76225e-15
4.76418e-15
4.76608e-15
4.76789e-15
4.76958e-15
4.7711e-15
4.77244e-15
4.77359e-15
4.77455e-15
4.77533e-15
4.77594e-15
4.77639e-15
4.7767e-15
4.7769e-15
4.777e-15
4.77702e-15
4.77699e-15
4.77692e-15
4.77683e-15
4.77673e-15
4.77664e-15
4.77657e-15
4.77653e-15
4.84479e-15
4.84574e-15
4.84704e-15
4.84856e-15
4.8502e-15
4.85188e-15
4.85353e-15
4.85509e-15
4.85651e-15
4.85778e-15
4.85888e-15
4.8598e-15
4.86054e-15
4.86112e-15
4.86154e-15
4.86181e-15
4.86197e-15
4.86203e-15
4.86201e-15
4.86193e-15
4.8618e-15
4.86166e-15
4.86151e-15
4.86136e-15
4.86124e-15
4.86115e-15
4.8611e-15
4.9303e-15
4.93114e-15
4.93228e-15
4.93361e-15
4.93503e-15
4.93648e-15
4.93788e-15
4.93919e-15
4.94037e-15
4.94139e-15
4.94226e-15
4.94295e-15
4.94348e-15
4.94385e-15
4.94409e-15
4.9442e-15
4.9442e-15
4.94413e-15
4.94399e-15
4.9438e-15
4.94359e-15
4.94337e-15
4.94316e-15
4.94297e-15
4.94282e-15
4.94271e-15
4.94265e-15
5.0127e-15
5.01343e-15
5.01441e-15
5.01555e-15
5.01676e-15
5.01797e-15
5.01913e-15
5.0202e-15
5.02113e-15
5.02192e-15
5.02254e-15
5.02302e-15
5.02333e-15
5.02351e-15
5.02356e-15
5.02351e-15
5.02336e-15
5.02315e-15
5.02289e-15
5.0226e-15
5.0223e-15
5.02201e-15
5.02174e-15
5.02151e-15
5.02132e-15
5.02119e-15
5.02112e-15
5.09195e-15
5.09257e-15
5.0934e-15
5.09434e-15
5.09534e-15
5.09632e-15
5.09724e-15
5.09806e-15
5.09874e-15
5.09929e-15
5.09968e-15
5.09993e-15
5.10003e-15
5.10001e-15
5.09988e-15
5.09965e-15
5.09935e-15
5.09901e-15
5.09862e-15
5.09823e-15
5.09784e-15
5.09748e-15
5.09715e-15
5.09687e-15
5.09665e-15
5.09649e-15
5.09641e-15
5.16797e-15
5.16848e-15
5.16914e-15
5.1699e-15
5.17068e-15
5.17142e-15
5.17209e-15
5.17265e-15
5.17309e-15
5.17338e-15
5.17353e-15
5.17355e-15
5.17343e-15
5.1732e-15
5.17288e-15
5.17248e-15
5.17203e-15
5.17153e-15
5.17103e-15
5.17053e-15
5.17005e-15
5.16961e-15
5.16921e-15
5.16888e-15
5.16863e-15
5.16845e-15
5.16836e-15
5.2406e-15
5.24099e-15
5.24149e-15
5.24204e-15
5.24259e-15
5.24308e-15
5.2435e-15
5.24379e-15
5.24396e-15
5.244e-15
5.24389e-15
5.24366e-15
5.24332e-15
5.24287e-15
5.24235e-15
5.24177e-15
5.24115e-15
5.24051e-15
5.23987e-15
5.23925e-15
5.23868e-15
5.23815e-15
5.23769e-15
5.23731e-15
5.23702e-15
5.23682e-15
5.23672e-15
5.30959e-15
5.30985e-15
5.31018e-15
5.31051e-15
5.31082e-15
5.31105e-15
5.31119e-15
5.3112e-15
5.31109e-15
5.31084e-15
5.31047e-15
5.30998e-15
5.30939e-15
5.30871e-15
5.30797e-15
5.30719e-15
5.30639e-15
5.30559e-15
5.30481e-15
5.30408e-15
5.30339e-15
5.30278e-15
5.30225e-15
5.30182e-15
5.30149e-15
5.30126e-15
5.30115e-15
5.37461e-15
5.37474e-15
5.37487e-15
5.37498e-15
5.37502e-15
5.37497e-15
5.3748e-15
5.37451e-15
5.37409e-15
5.37354e-15
5.37287e-15
5.3721e-15
5.37123e-15
5.37031e-15
5.36933e-15
5.36834e-15
5.36734e-15
5.36636e-15
5.36543e-15
5.36456e-15
5.36376e-15
5.36305e-15
5.36244e-15
5.36195e-15
5.36157e-15
5.36132e-15
5.36119e-15
5.43522e-15
5.43519e-15
5.43511e-15
5.43496e-15
5.43471e-15
5.43435e-15
5.43385e-15
5.43322e-15
5.43246e-15
5.43157e-15
5.43057e-15
5.42948e-15
5.42832e-15
5.42711e-15
5.42587e-15
5.42464e-15
5.42342e-15
5.42225e-15
5.42114e-15
5.42012e-15
5.41919e-15
5.41838e-15
5.41768e-15
5.41712e-15
5.4167e-15
5.41641e-15
5.41627e-15
5.49082e-15
5.49062e-15
5.49031e-15
5.48987e-15
5.48929e-15
5.48857e-15
5.4877e-15
5.48669e-15
5.48554e-15
5.48427e-15
5.48291e-15
5.48146e-15
5.47996e-15
5.47843e-15
5.4769e-15
5.47539e-15
5.47392e-15
5.47253e-15
5.47123e-15
5.47003e-15
5.46896e-15
5.46802e-15
5.46723e-15
5.46659e-15
5.46611e-15
5.46579e-15
5.46563e-15
5.54067e-15
5.54028e-15
5.5397e-15
5.53893e-15
5.53798e-15
5.53685e-15
5.53556e-15
5.53411e-15
5.53252e-15
5.53082e-15
5.52902e-15
5.52717e-15
5.52528e-15
5.52338e-15
5.52151e-15
5.51969e-15
5.51794e-15
5.51629e-15
5.51476e-15
5.51336e-15
5.51212e-15
5.51104e-15
5.51014e-15
5.50941e-15
5.50887e-15
5.5085e-15
5.50832e-15
5.58384e-15
5.58322e-15
5.58233e-15
5.58118e-15
5.5798e-15
5.5782e-15
5.57641e-15
5.57446e-15
5.57236e-15
5.57015e-15
5.56786e-15
5.56553e-15
5.56319e-15
5.56087e-15
5.5586e-15
5.55642e-15
5.55434e-15
5.55239e-15
5.5506e-15
5.54897e-15
5.54753e-15
5.54629e-15
5.54525e-15
5.54442e-15
5.5438e-15
5.54339e-15
5.54319e-15
5.61915e-15
5.61828e-15
5.61702e-15
5.61543e-15
5.61354e-15
5.6114e-15
5.60903e-15
5.60648e-15
5.60379e-15
5.60099e-15
5.59812e-15
5.59524e-15
5.59237e-15
5.58955e-15
5.58681e-15
5.5842e-15
5.58173e-15
5.57943e-15
5.57733e-15
5.57544e-15
5.57377e-15
5.57233e-15
5.57113e-15
5.57018e-15
5.56947e-15
5.56901e-15
5.56878e-15
5.64519e-15
5.644e-15
5.64232e-15
5.64021e-15
5.63773e-15
5.63494e-15
5.63189e-15
5.62864e-15
5.62525e-15
5.62175e-15
5.61821e-15
5.61466e-15
5.61117e-15
5.60776e-15
5.60448e-15
5.60136e-15
5.59843e-15
5.59572e-15
5.59325e-15
5.59104e-15
5.5891e-15
5.58743e-15
5.58605e-15
5.58496e-15
5.58414e-15
5.58361e-15
5.58335e-15
5.66021e-15
5.65867e-15
5.65648e-15
5.65375e-15
5.65057e-15
5.64702e-15
5.64317e-15
5.63909e-15
5.63486e-15
5.63054e-15
5.62619e-15
5.62187e-15
5.61764e-15
5.61353e-15
5.6096e-15
5.60588e-15
5.60241e-15
5.59921e-15
5.59631e-15
5.59372e-15
5.59145e-15
5.58952e-15
5.58792e-15
5.58665e-15
5.58572e-15
5.5851e-15
5.5848e-15
5.66215e-15
5.66018e-15
5.6574e-15
5.65394e-15
5.64993e-15
5.64547e-15
5.64067e-15
5.63562e-15
5.6304e-15
5.62511e-15
5.6198e-15
5.61457e-15
5.60945e-15
5.60452e-15
5.59982e-15
5.5954e-15
5.59128e-15
5.5875e-15
5.58408e-15
5.58104e-15
5.57839e-15
5.57614e-15
5.57428e-15
5.57281e-15
5.57173e-15
5.57102e-15
5.57068e-15
5.64858e-15
5.6461e-15
5.64261e-15
5.63829e-15
5.63329e-15
5.62777e-15
5.62184e-15
5.61564e-15
5.60926e-15
5.6028e-15
5.59637e-15
5.59005e-15
5.5839e-15
5.57799e-15
5.57238e-15
5.56712e-15
5.56224e-15
5.55778e-15
5.55375e-15
5.55018e-15
5.54708e-15
5.54444e-15
5.54228e-15
5.54057e-15
5.53932e-15
5.5385e-15
5.5381e-15
5.61665e-15
5.61357e-15
5.60925e-15
5.60392e-15
5.59777e-15
5.59098e-15
5.58373e-15
5.57616e-15
5.56841e-15
5.5606e-15
5.55284e-15
5.54524e-15
5.53787e-15
5.53081e-15
5.52413e-15
5.51788e-15
5.5121e-15
5.50683e-15
5.5021e-15
5.4979e-15
5.49427e-15
5.49119e-15
5.48866e-15
5.48667e-15
5.48521e-15
5.48426e-15
5.4838e-15
5.56317e-15
5.55939e-15
5.55409e-15
5.54756e-15
5.54006e-15
5.5318e-15
5.523e-15
5.51384e-15
5.50448e-15
5.49508e-15
5.48577e-15
5.47667e-15
5.46787e-15
5.45948e-15
5.45155e-15
5.44415e-15
5.43732e-15
5.43111e-15
5.42554e-15
5.42062e-15
5.41636e-15
5.41276e-15
5.40981e-15
5.4075e-15
5.4058e-15
5.4047e-15
5.40416e-15
5.48456e-15
5.47997e-15
5.47354e-15
5.46563e-15
5.45656e-15
5.44659e-15
5.43599e-15
5.42498e-15
5.41377e-15
5.40253e-15
5.39142e-15
5.38058e-15
5.37014e-15
5.36019e-15
5.35082e-15
5.34209e-15
5.33406e-15
5.32676e-15
5.32022e-15
5.31446e-15
5.30949e-15
5.30529e-15
5.30185e-15
5.29916e-15
5.29719e-15
5.29591e-15
5.29529e-15
5.37702e-15
5.37149e-15
5.36377e-15
5.35428e-15
5.3434e-15
5.33148e-15
5.31882e-15
5.30569e-15
5.29235e-15
5.27901e-15
5.26585e-15
5.25304e-15
5.24072e-15
5.229e-15
5.21798e-15
5.20774e-15
5.19833e-15
5.18979e-15
5.18216e-15
5.17545e-15
5.16966e-15
5.16478e-15
5.16079e-15
5.15767e-15
5.15539e-15
5.15391e-15
5.1532e-15
5.23663e-15
5.23005e-15
5.22086e-15
5.20958e-15
5.19667e-15
5.18254e-15
5.16756e-15
5.15206e-15
5.13633e-15
5.12063e-15
5.10517e-15
5.09014e-15
5.07571e-15
5.06201e-15
5.04915e-15
5.03721e-15
5.02626e-15
5.01635e-15
5.0075e-15
4.99972e-15
4.99302e-15
4.98738e-15
4.98278e-15
4.97918e-15
4.97656e-15
4.97486e-15
4.97404e-15
5.05963e-15
5.05189e-15
5.04108e-15
5.02782e-15
5.01266e-15
4.9961e-15
4.97857e-15
4.96045e-15
4.94209e-15
4.92379e-15
4.90579e-15
4.88834e-15
4.8716e-15
4.85573e-15
4.84086e-15
4.82707e-15
4.81445e-15
4.80303e-15
4.79285e-15
4.78391e-15
4.77622e-15
4.76976e-15
4.76449e-15
4.76038e-15
4.75738e-15
4.75544e-15
4.7545e-15
4.84279e-15
4.83379e-15
4.82123e-15
4.80584e-15
4.78827e-15
4.76909e-15
4.74881e-15
4.72789e-15
4.70671e-15
4.68564e-15
4.66495e-15
4.6449e-15
4.62571e-15
4.60754e-15
4.59053e-15
4.57479e-15
4.56039e-15
4.54738e-15
4.5358e-15
4.52565e-15
4.51691e-15
4.50958e-15
4.50361e-15
4.49896e-15
4.49557e-15
4.49338e-15
4.49232e-15
4.58386e-15
4.57354e-15
4.55916e-15
4.54155e-15
4.52147e-15
4.49957e-15
4.47645e-15
4.45263e-15
4.42856e-15
4.40462e-15
4.38117e-15
4.35847e-15
4.33677e-15
4.31625e-15
4.29707e-15
4.27934e-15
4.26314e-15
4.24852e-15
4.23552e-15
4.22414e-15
4.21436e-15
4.20615e-15
4.19948e-15
4.19429e-15
4.1905e-15
4.18806e-15
4.18688e-15
4.28218e-15
4.27055e-15
4.25435e-15
4.23454e-15
4.21196e-15
4.18738e-15
4.16146e-15
4.13478e-15
4.10786e-15
4.08114e-15
4.05498e-15
4.02971e-15
4.00557e-15
3.98279e-15
3.96152e-15
3.94188e-15
3.92395e-15
3.90781e-15
3.89346e-15
3.88091e-15
3.87014e-15
3.86111e-15
3.85378e-15
3.84807e-15
3.84392e-15
3.84124e-15
3.83994e-15
3.93935e-15
3.92649e-15
3.90859e-15
3.88673e-15
3.86184e-15
3.83478e-15
3.80627e-15
3.77698e-15
3.74746e-15
3.7182e-15
3.68961e-15
3.66202e-15
3.63572e-15
3.61092e-15
3.58779e-15
3.56647e-15
3.54704e-15
3.52956e-15
3.51404e-15
3.50048e-15
3.48886e-15
3.47913e-15
3.47123e-15
3.46509e-15
3.46063e-15
3.45775e-15
3.45636e-15
3.55988e-15
3.54598e-15
3.52665e-15
3.50305e-15
3.47623e-15
3.4471e-15
3.41647e-15
3.38503e-15
3.35341e-15
3.32212e-15
3.29158e-15
3.26217e-15
3.23417e-15
3.20781e-15
3.18327e-15
3.16068e-15
3.14012e-15
3.12164e-15
3.10526e-15
3.09097e-15
3.07874e-15
3.06851e-15
3.06021e-15
3.05377e-15
3.04909e-15
3.04608e-15
3.04463e-15
3.15171e-15
3.13708e-15
3.11674e-15
3.09194e-15
3.06379e-15
3.03327e-15
3.00122e-15
2.9684e-15
2.93544e-15
2.90288e-15
2.87117e-15
2.84068e-15
2.81171e-15
2.78449e-15
2.75919e-15
2.73593e-15
2.71481e-15
2.69585e-15
2.67907e-15
2.66446e-15
2.65196e-15
2.64152e-15
2.63307e-15
2.62652e-15
2.62176e-15
2.6187e-15
2.61723e-15
2.72652e-15
2.71159e-15
2.69085e-15
2.66561e-15
2.637e-15
2.60604e-15
2.5736e-15
2.54044e-15
2.50722e-15
2.47448e-15
2.44268e-15
2.41217e-15
2.38325e-15
2.35616e-15
2.33105e-15
2.30804e-15
2.2872e-15
2.26856e-15
2.25212e-15
2.23783e-15
2.22565e-15
2.2155e-15
2.20729e-15
2.20094e-15
2.19634e-15
2.19339e-15
2.19197e-15
2.29989e-15
2.28529e-15
2.26507e-15
2.24053e-15
2.21279e-15
2.18282e-15
2.1515e-15
2.11957e-15
2.08765e-15
2.05627e-15
2.02585e-15
1.99674e-15
1.96922e-15
1.94348e-15
1.91967e-15
1.89788e-15
1.87818e-15
1.86057e-15
1.84506e-15
1.8316e-15
1.82014e-15
1.8106e-15
1.80291e-15
1.79697e-15
1.79267e-15
1.78992e-15
1.7886e-15
1.89256e-15
1.87882e-15
1.85979e-15
1.83671e-15
1.81065e-15
1.78256e-15
1.75328e-15
1.7235e-15
1.6938e-15
1.66469e-15
1.63656e-15
1.60971e-15
1.58439e-15
1.56077e-15
1.53899e-15
1.51911e-15
1.50117e-15
1.48519e-15
1.47115e-15
1.45899e-15
1.44867e-15
1.4401e-15
1.4332e-15
1.42789e-15
1.42406e-15
1.4216e-15
1.42043e-15
1.5173e-15
1.50489e-15
1.48771e-15
1.46691e-15
1.44349e-15
1.41832e-15
1.39216e-15
1.36562e-15
1.33926e-15
1.3135e-15
1.2887e-15
1.26512e-15
1.24297e-15
1.22239e-15
1.20347e-15
1.18627e-15
1.17082e-15
1.15709e-15
1.14507e-15
1.13471e-15
1.12593e-15
1.11868e-15
1.11286e-15
1.10839e-15
1.10518e-15
1.10313e-15
1.10216e-15
1.18777e-15
1.17713e-15
1.16245e-15
1.14472e-15
1.12482e-15
1.1035e-15
1.08142e-15
1.05913e-15
1.03708e-15
1.01563e-15
9.95073e-16
9.75615e-16
9.57418e-16
9.4059e-16
9.25197e-16
9.11271e-16
8.98816e-16
8.87812e-16
8.78221e-16
8.69993e-16
8.63064e-16
8.57363e-16
8.52815e-16
8.4934e-16
8.46855e-16
8.4528e-16
8.44532e-16
9.1501e-16
9.06469e-16
8.94708e-16
8.80551e-16
8.6472e-16
8.47839e-16
8.30442e-16
8.1297e-16
7.95781e-16
7.7916e-16
7.63322e-16
7.48429e-16
7.34592e-16
7.21881e-16
7.10334e-16