/*--------------------------------*- C++ -*----------------------------------*\
| =========                 |                                                 |
| \\      /  F ield         | OpenFOAM: The Open Source CFD Toolbox           |
|  \\    /   O peration     | Version:  2106                                  |
|   \\  /    A nd           | Website:  www.openfoam.com                      |
|    \\/     M anipulation  |                                                 |
\*---------------------------------------------------------------------------*/
FoamFile
{
    version     2.0;
    format      ascii;
    arch        "LSB;label=32;scalar=64";
    class       volScalarField;
    location    "80.00032";
    object      CH3COCH3;
}
// * * * * * * * * * * * * * * * * * * * * * * * * * * * * * * * * * * * * * //

dimensions      [0 0 0 0 0 0 0];

internalField   nonuniform List<scalar> 
3360
(
0.0136842
0.0136842
0.0136842
0.0136842
0.0136842
0.0136842
0.0136842
0.0136842
0.0136842
0.0136842
0.0136842
0.0136842
0.0136842
0.0136842
0.0136842
0.0136842
0.0136842
0.0136842
0.0136842
0.0136842
0.0136842
0.0136842
0.0136842
0.0136842
0.0136842
0.0136842
0.0136842
0.0136842
0.0136842
0.0136842
0.0136842
0.0136842
0.0136842
0.0136842
0.0136842
0.0136842
0.0136842
0.0136842
0.0136842
0.0136842
0.0136842
0.0136842
0.0136842
0.0136842
0.0136842
0.0136842
0.0136842
0.0136842
0.0136842
0.0136842
0.0136842
0.0136842
0.0136842
0.0136842
0.0136842
0.0136842
0.0136842
0.0136842
0.0136842
0.0136842
0.0136842
0.0136842
0.0136842
0.0136842
0.0136842
0.0136842
0.0136842
0.0136842
0.0136842
0.0136842
0.0136842
0.0136842
0.0136842
0.0136842
0.0136842
0.0136842
0.0136842
0.0136842
0.0136842
0.0136842
0.0136842
0.0136842
0.0136842
0.0136842
0.0136842
0.0136842
0.0136842
0.0136842
0.0136842
0.0136842
0.0136842
0.0136842
0.0136842
0.0136842
0.0136842
0.0136842
0.0136842
0.0136842
0.0136842
0.0136842
0.0136842
0.0136842
0.0136842
0.0136842
0.0136842
0.0136842
0.0136842
0.0136842
0.0136842
0.0136842
0.0136842
0.0136842
0.0136842
0.0136842
0.0136842
0.0136842
0.0136842
0.0136842
0.0136842
0.0136842
0.0136842
0.0136842
0.0136842
0.0136842
0.0136842
0.0136842
0.0136842
0.0136842
0.0136842
0.0136842
0.0136842
0.0136842
0.0136842
0.0136842
0.0136842
0.0136842
0.0136842
0.0136842
0.0136842
0.0136842
0.0136842
0.0136842
0.0136842
0.0136842
0.0136842
0.0136842
0.0136842
0.0136842
0.0136842
0.0136842
0.0136842
0.0136842
0.0136842
0.0136842
0.0136842
0.0136842
0.0136842
0.0136842
0.0136842
0.0136842
0.0136842
0.0136842
0.0136842
0.0136842
0.0136842
0.0136842
0.0136842
0.0136842
0.0136842
0.0136842
0.0136842
0.0136842
0.0136842
0.0136842
0.0136842
0.0136842
0.0136842
0.0136842
0.0136842
0.0136842
0.0136842
0.0136842
0.0136842
0.0136842
0.0136842
0.0136842
0.0136842
0.0136842
0.0136842
0.0136842
0.0136842
0.0136842
0.0136842
0.0136842
0.0136842
0.0136842
0.0136842
0.0136842
0.0136842
0.0136842
0.0136842
0.0136842
0.0136842
0.0136842
0.0136842
0.0136842
0.0136842
0.0136842
0.0136842
0.0136842
0.0136842
0.0136842
0.0136842
0.0136842
0.0136842
0.0136842
0.0136842
0.0136842
0.0136842
0.0136842
0.0136842
0.0136842
0.0136842
0.0136842
0.0136842
0.0136842
0.0136842
0.0136842
0.0136842
0.0136842
0.0136842
0.0136842
0.0136842
0.0136842
0.0136842
0.0136842
0.0136842
0.0136842
0.0136842
0.0136842
0.0136842
0.0136842
0.0136842
0.0136842
0.0136842
0.0136842
0.0136842
0.0136842
0.0136842
0.0136842
0.0136842
0.0136842
0.0136842
0.0136842
0.0136842
0.0136842
0.0136842
0.0136842
0.0136842
0.0136842
0.0136842
0.0136842
0.0136842
0.0136842
0.0136842
0.0136842
0.0136842
0.0136842
0.0136842
0.0136842
0.0136842
0.0136842
0.0136842
0.0136842
0.0136842
0.0136842
0.0136842
0.0136842
0.0136842
0.0136842
0.0136842
0.0136842
0.0136842
0.0136842
0.0136842
0.0136842
0.0136842
0.0136842
0.0136842
0.0136842
0.0136842
0.0136842
0.0136842
0.0136842
0.0136842
0.0136842
0.0136842
0.0136842
0.0136842
0.0136842
0.0136842
0.0136842
0.0136842
0.0136842
0.0136842
0.0136842
0.0136842
0.0136842
0.0136842
0.0136842
0.0136842
0.0136842
0.0136842
0.0136842
0.0136842
0.0136842
0.0136842
0.0136842
0.0136842
0.0136842
0.0136842
0.0136842
0.0136842
0.0136842
0.0136842
0.0136842
0.0136842
0.0136842
0.0136842
0.0136842
0.0136842
0.0136842
0.0136842
0.0136842
0.0136842
0.0136842
0.0136842
0.0136842
0.0136842
0.0136842
0.0136842
0.0136842
0.0136842
0.0136842
0.0136842
0.0136842
0.0136842
0.0136842
0.0136842
0.0136842
0.0136842
0.0136842
0.0136842
0.0136842
0.0136842
0.0136842
0.0136842
0.0136842
0.0136842
0.0136842
0.0136842
0.0136842
0.0136842
0.0136842
0.0136842
0.0136842
0.0136842
0.0136842
0.0136842
0.0136842
0.0136842
0.0136842
0.0136842
0.0136842
0.0136842
0.0136842
0.0136842
0.0136842
0.0136842
0.0136842
0.0136842
0.0136842
0.0136842
0.0136842
0.0136842
0.0136842
0.0136842
0.0136842
0.0136842
0.0136842
0.0136842
0.0136842
0.0136842
0.0136842
0.0136842
0.0136842
0.0136842
0.0136842
0.0136842
0.0136842
0.0136842
0.0136842
0.0136842
0.0136842
0.0136842
0.0136842
0.0136842
0.0136842
0.0136842
0.0136842
0.0136842
0.0136842
0.0136842
0.0136842
0.0136842
0.0136842
0.0136842
0.0136842
0.0136842
0.0136842
0.0136842
0.0136842
0.0136842
0.0136842
0.0136842
0.0136842
0.0136842
0.0136842
0.0136842
0.0136842
0.0136842
0.0136842
0.0136842
0.0136842
0.0136842
0.0136842
0.0136842
0.0136842
0.0136842
0.0136842
0.0136842
0.0136842
0.0136842
0.0136842
0.0136842
0.0136842
0.0136842
0.0136842
0.0136842
0.0136842
0.0136842
0.0136842
0.0136842
0.0136842
0.0136842
0.0136842
0.0136842
0.0136842
0.0136842
0.0136842
0.0136842
0.0136842
0.0136842
0.0136842
0.0136842
0.0136842
0.0136842
0.0136842
0.0136842
0.0136842
0.0136842
0.0136842
0.0136842
0.0136842
0.0136842
0.0136842
0.0136842
0.0136842
0.0136842
0.0136842
0.0136842
0.0136842
0.0136842
0.0136842
0.0136842
0.0136842
0.0136842
0.0136842
0.0136842
0.0136842
0.0136842
0.0136842
0.0136842
0.0136842
0.0136842
0.0136842
0.0136842
0.0136842
0.0136842
0.0136842
0.0136842
0.0136842
0.0136842
0.0136842
0.0136842
0.0136842
0.0136842
0.0136842
0.0136842
0.0136842
0.0136842
0.0136842
0.0136842
0.0136842
0.0136842
0.0136842
0.0136842
0.0136842
0.0136842
0.0136842
0.0136842
0.0136842
0.0136842
0.0136842
0.0136842
0.0136842
0.0136842
0.0136842
0.0136842
0.0136842
0.0136842
0.0136842
0.0136842
0.0136842
0.0136842
0.0136842
0.0136842
0.0136842
0.0136842
0.0136842
0.0136842
0.0136842
0.0136842
0.0136842
0.0136842
0.0136842
0.0136842
0.0136842
0.0136842
0.0136842
0.0136842
0.0136842
0.0136842
0.0136842
0.0136842
0.0136842
0.0136841
0.0136841
0.0136841
0.0136841
0.0136841
0.0136841
0.0136841
0.0136841
0.0136841
0.0136841
0.0136841
0.0136842
0.0136841
0.0136841
0.0136841
0.0136841
0.0136841
0.0136841
0.0136841
0.0136841
0.0136841
0.0136841
0.0136841
0.0136841
0.0136841
0.0136841
0.0136841
0.0136841
0.0136841
0.0136841
0.0136841
0.0136841
0.0136841
0.0136841
0.0136841
0.0136841
0.0136841
0.0136841
0.0136841
0.0136841
0.0136841
0.0136841
0.013684
0.013684
0.013684
0.013684
0.013684
0.013684
0.013684
0.0136839
0.0136839
0.0136839
0.0136839
0.0136839
0.0136839
0.0136839
0.0136839
0.0136839
0.0136839
0.0136839
0.0136839
0.0136839
0.0136839
0.0136839
0.0136839
0.0136839
0.0136839
0.0136839
0.0136838
0.0136838
0.0136838
0.0136838
0.0136837
0.0136837
0.0136837
0.0136836
0.0136836
0.0136836
0.0136835
0.0136835
0.0136835
0.0136835
0.0136835
0.0136835
0.0136834
0.0136834
0.0136834
0.0136834
0.0136834
0.0136834
0.0136834
0.0136834
0.0136834
0.0136834
0.0136834
0.0136833
0.0136833
0.0136832
0.0136831
0.0136831
0.013683
0.013683
0.0136829
0.0136828
0.0136828
0.0136827
0.0136827
0.0136826
0.0136826
0.0136825
0.0136825
0.0136825
0.0136825
0.0136824
0.0136824
0.0136824
0.0136824
0.0136824
0.0136824
0.0136824
0.0136824
0.0136823
0.0136822
0.0136821
0.013682
0.0136818
0.0136817
0.0136816
0.0136814
0.0136813
0.0136812
0.0136811
0.013681
0.0136809
0.0136808
0.0136807
0.0136806
0.0136805
0.0136805
0.0136804
0.0136804
0.0136804
0.0136803
0.0136803
0.0136803
0.0136803
0.0136803
0.0136801
0.01368
0.0136798
0.0136796
0.0136793
0.0136791
0.0136788
0.0136786
0.0136783
0.013678
0.0136778
0.0136776
0.0136774
0.0136772
0.013677
0.0136768
0.0136767
0.0136765
0.0136764
0.0136763
0.0136763
0.0136762
0.0136761
0.0136761
0.0136761
0.0136761
0.0136758
0.0136756
0.0136753
0.0136749
0.0136745
0.0136741
0.0136736
0.0136731
0.0136726
0.0136721
0.0136716
0.0136712
0.0136707
0.0136703
0.0136699
0.0136696
0.0136693
0.013669
0.0136688
0.0136686
0.0136684
0.0136683
0.0136681
0.0136681
0.013668
0.013668
0.0136679
0.0136672
0.0136668
0.0136663
0.0136656
0.0136648
0.013664
0.0136631
0.0136622
0.0136613
0.0136604
0.0136595
0.0136587
0.0136579
0.0136572
0.0136565
0.0136559
0.0136554
0.0136549
0.0136544
0.0136541
0.0136537
0.0136535
0.0136533
0.0136531
0.013653
0.0136529
0.0136529
0.0136515
0.0136508
0.0136498
0.0136487
0.0136473
0.0136459
0.0136443
0.0136428
0.0136412
0.0136396
0.0136381
0.0136367
0.0136353
0.013634
0.0136328
0.0136317
0.0136308
0.0136299
0.0136291
0.0136285
0.0136279
0.0136275
0.0136271
0.0136269
0.0136267
0.0136265
0.0136265
0.0136246
0.0136235
0.0136219
0.0136199
0.0136177
0.0136153
0.0136127
0.0136101
0.0136074
0.0136048
0.0136023
0.0135999
0.0135976
0.0135954
0.0135934
0.0135916
0.01359
0.0135885
0.0135873
0.0135862
0.0135852
0.0135845
0.0135838
0.0135834
0.013583
0.0135828
0.0135827
0.0135821
0.0135803
0.0135778
0.0135747
0.0135712
0.0135674
0.0135634
0.0135593
0.0135552
0.0135511
0.0135472
0.0135434
0.0135398
0.0135364
0.0135333
0.0135304
0.0135278
0.0135256
0.0135236
0.0135218
0.0135204
0.0135191
0.0135182
0.0135174
0.0135169
0.0135166
0.0135164
0.0135201
0.0135175
0.0135139
0.0135094
0.0135044
0.013499
0.0134933
0.0134874
0.0134815
0.0134757
0.01347
0.0134646
0.0134595
0.0134547
0.0134503
0.0134462
0.0134426
0.0134394
0.0134365
0.0134341
0.013432
0.0134303
0.0134289
0.0134279
0.0134271
0.0134266
0.0134264
0.013437
0.0134336
0.0134289
0.0134231
0.0134166
0.0134095
0.0134021
0.0133945
0.0133869
0.0133794
0.0133722
0.0133653
0.0133588
0.0133527
0.0133471
0.013342
0.0133374
0.0133334
0.0133298
0.0133268
0.0133242
0.0133221
0.0133204
0.0133191
0.0133181
0.0133176
0.0133173
0.0133346
0.0133306
0.0133249
0.0133181
0.0133103
0.013302
0.0132932
0.0132843
0.0132755
0.0132668
0.0132584
0.0132505
0.013243
0.013236
0.0132297
0.0132239
0.0132187
0.0132142
0.0132102
0.0132067
0.0132039
0.0132015
0.0131996
0.0131982
0.0131971
0.0131965
0.0131962
0.0132172
0.0132127
0.0132065
0.013199
0.0131906
0.0131815
0.013172
0.0131624
0.0131529
0.0131436
0.0131347
0.0131263
0.0131184
0.013111
0.0131044
0.0130983
0.0130929
0.0130882
0.013084
0.0130805
0.0130775
0.013075
0.0130731
0.0130716
0.0130706
0.0130699
0.0130696
0.0130903
0.0130857
0.0130793
0.0130716
0.013063
0.0130537
0.0130441
0.0130343
0.0130247
0.0130154
0.0130064
0.012998
0.0129901
0.0129828
0.0129761
0.0129701
0.0129648
0.0129601
0.012956
0.0129525
0.0129495
0.0129471
0.0129452
0.0129438
0.0129427
0.0129421
0.0129418
0.0129593
0.0129547
0.0129485
0.0129409
0.0129325
0.0129234
0.012914
0.0129046
0.0128952
0.0128862
0.0128775
0.0128693
0.0128617
0.0128546
0.0128482
0.0128425
0.0128373
0.0128328
0.0128289
0.0128255
0.0128227
0.0128204
0.0128186
0.0128172
0.0128162
0.0128155
0.0128152
0.0128282
0.0128239
0.0128179
0.0128107
0.0128027
0.012794
0.0127851
0.0127761
0.0127672
0.0127586
0.0127504
0.0127426
0.0127354
0.0127287
0.0127227
0.0127172
0.0127123
0.012708
0.0127043
0.0127011
0.0126985
0.0126963
0.0126945
0.0126932
0.0126923
0.0126917
0.0126914
0.0126998
0.0126958
0.0126901
0.0126834
0.0126758
0.0126676
0.0126592
0.0126508
0.0126424
0.0126343
0.0126266
0.0126192
0.0126124
0.0126062
0.0126004
0.0125953
0.0125907
0.0125867
0.0125831
0.0125801
0.0125776
0.0125755
0.0125739
0.0125726
0.0125718
0.0125712
0.0125709
0.0125755
0.0125716
0.0125664
0.01256
0.0125529
0.0125453
0.0125374
0.0125294
0.0125216
0.012514
0.0125067
0.0124998
0.0124934
0.0124875
0.0124821
0.0124772
0.0124729
0.0124691
0.0124658
0.0124629
0.0124605
0.0124586
0.012457
0.0124558
0.012455
0.0124545
0.0124542
0.0124557
0.0124521
0.0124471
0.0124412
0.0124345
0.0124273
0.0124199
0.0124124
0.012405
0.0123978
0.012391
0.0123845
0.0123784
0.0123729
0.0123678
0.0123632
0.0123591
0.0123555
0.0123523
0.0123496
0.0123474
0.0123455
0.012344
0.0123429
0.0123421
0.0123416
0.0123413
0.0123406
0.0123372
0.0123325
0.0123269
0.0123206
0.0123138
0.0123068
0.0122997
0.0122928
0.012286
0.0122795
0.0122733
0.0122676
0.0122623
0.0122574
0.0122531
0.0122492
0.0122458
0.0122428
0.0122402
0.0122381
0.0122363
0.0122349
0.0122338
0.012233
0.0122325
0.0122323
0.01223
0.0122268
0.0122224
0.012217
0.012211
0.0122046
0.0121979
0.0121912
0.0121846
0.0121781
0.0121719
0.0121661
0.0121606
0.0121556
0.012151
0.0121468
0.0121431
0.0121398
0.012137
0.0121345
0.0121325
0.0121308
0.0121294
0.0121284
0.0121277
0.0121272
0.012127
0.0121236
0.0121205
0.0121163
0.0121112
0.0121055
0.0120994
0.012093
0.0120866
0.0120803
0.0120741
0.0120682
0.0120626
0.0120574
0.0120526
0.0120481
0.0120442
0.0120406
0.0120375
0.0120347
0.0120324
0.0120304
0.0120288
0.0120275
0.0120265
0.0120258
0.0120253
0.0120251
0.012021
0.0120181
0.0120141
0.0120092
0.0120037
0.0119979
0.0119918
0.0119857
0.0119796
0.0119737
0.011968
0.0119626
0.0119576
0.011953
0.0119487
0.0119449
0.0119415
0.0119384
0.0119358
0.0119335
0.0119316
0.0119301
0.0119288
0.0119279
0.0119272
0.0119268
0.0119266
0.011922
0.0119192
0.0119154
0.0119107
0.0119054
0.0118998
0.0118939
0.011888
0.0118822
0.0118765
0.011871
0.0118658
0.011861
0.0118565
0.0118524
0.0118487
0.0118454
0.0118425
0.01184
0.0118378
0.011836
0.0118345
0.0118333
0.0118324
0.0118317
0.0118313
0.0118311
0.0118263
0.0118236
0.0118199
0.0118153
0.0118103
0.0118048
0.0117992
0.0117935
0.0117878
0.0117823
0.011777
0.011772
0.0117674
0.011763
0.0117591
0.0117555
0.0117523
0.0117495
0.0117471
0.0117449
0.0117432
0.0117417
0.0117406
0.0117397
0.011739
0.0117386
0.0117384
0.0117335
0.0117309
0.0117273
0.0117229
0.011718
0.0117127
0.0117073
0.0117018
0.0116963
0.011691
0.0116858
0.011681
0.0116765
0.0116723
0.0116685
0.011665
0.0116619
0.0116592
0.0116568
0.0116548
0.011653
0.0116516
0.0116505
0.0116496
0.011649
0.0116486
0.0116484
0.0116435
0.0116409
0.0116374
0.0116332
0.0116284
0.0116233
0.011618
0.0116127
0.0116074
0.0116022
0.0115972
0.0115925
0.0115881
0.0115841
0.0115804
0.011577
0.011574
0.0115713
0.011569
0.0115671
0.0115654
0.011564
0.0115629
0.0115621
0.0115615
0.0115611
0.0115609
0.0115559
0.0115535
0.0115501
0.0115459
0.0115413
0.0115364
0.0115312
0.011526
0.0115208
0.0115158
0.011511
0.0115064
0.0115022
0.0114982
0.0114946
0.0114913
0.0114884
0.0114858
0.0114836
0.0114817
0.01148
0.0114787
0.0114776
0.0114768
0.0114762
0.0114759
0.0114757
0.0114707
0.0114683
0.011465
0.011461
0.0114565
0.0114517
0.0114467
0.0114416
0.0114366
0.0114317
0.011427
0.0114225
0.0114184
0.0114145
0.011411
0.0114078
0.011405
0.0114025
0.0114003
0.0113984
0.0113968
0.0113955
0.0113945
0.0113937
0.0113931
0.0113928
0.0113926
0.0113877
0.0113853
0.0113821
0.0113782
0.0113738
0.0113691
0.0113642
0.0113593
0.0113544
0.0113496
0.0113451
0.0113407
0.0113367
0.0113329
0.0113295
0.0113264
0.0113236
0.0113212
0.011319
0.0113172
0.0113157
0.0113144
0.0113134
0.0113126
0.0113121
0.0113117
0.0113115
0.0113066
0.0113044
0.0113012
0.0112974
0.0112931
0.0112886
0.0112838
0.011279
0.0112742
0.0112695
0.0112651
0.0112609
0.0112569
0.0112532
0.0112499
0.0112469
0.0112442
0.0112418
0.0112397
0.0112379
0.0112364
0.0112351
0.0112342
0.0112334
0.0112329
0.0112325
0.0112324
0.0112275
0.0112253
0.0112222
0.0112185
0.0112143
0.0112099
0.0112052
0.0112005
0.0111958
0.0111913
0.0111869
0.0111828
0.0111789
0.0111754
0.0111721
0.0111691
0.0111665
0.0111641
0.0111621
0.0111604
0.0111589
0.0111577
0.0111567
0.011156
0.0111555
0.0111551
0.011155
0.0111502
0.011148
0.011145
0.0111414
0.0111373
0.0111329
0.0111284
0.0111238
0.0111192
0.0111148
0.0111105
0.0111065
0.0111027
0.0110992
0.011096
0.0110931
0.0110905
0.0110882
0.0110862
0.0110845
0.0110831
0.0110819
0.011081
0.0110802
0.0110797
0.0110794
0.0110793
0.0110746
0.0110724
0.0110695
0.0110659
0.0110619
0.0110577
0.0110532
0.0110487
0.0110442
0.0110399
0.0110357
0.0110318
0.0110281
0.0110247
0.0110215
0.0110187
0.0110162
0.0110139
0.011012
0.0110103
0.0110089
0.0110077
0.0110068
0.0110061
0.0110056
0.0110053
0.0110051
0.0110005
0.0109984
0.0109956
0.0109921
0.0109882
0.010984
0.0109796
0.0109752
0.0109709
0.0109666
0.0109625
0.0109586
0.010955
0.0109517
0.0109486
0.0109458
0.0109434
0.0109412
0.0109393
0.0109376
0.0109362
0.0109351
0.0109342
0.0109335
0.010933
0.0109327
0.0109326
0.010928
0.010926
0.0109232
0.0109198
0.0109159
0.0109118
0.0109075
0.0109032
0.010899
0.0108948
0.0108908
0.010887
0.0108835
0.0108802
0.0108772
0.0108745
0.010872
0.0108699
0.010868
0.0108664
0.0108651
0.0108639
0.0108631
0.0108624
0.0108619
0.0108616
0.0108614
0.010857
0.010855
0.0108522
0.0108489
0.0108451
0.0108411
0.0108369
0.0108327
0.0108285
0.0108244
0.0108205
0.0108168
0.0108133
0.0108101
0.0108071
0.0108045
0.0108021
0.0108
0.0107982
0.0107966
0.0107953
0.0107942
0.0107933
0.0107927
0.0107922
0.0107919
0.0107917
0.0107873
0.0107854
0.0107827
0.0107794
0.0107757
0.0107718
0.0107677
0.0107635
0.0107594
0.0107554
0.0107516
0.0107479
0.0107445
0.0107414
0.0107385
0.0107359
0.0107336
0.0107315
0.0107297
0.0107282
0.0107269
0.0107258
0.0107249
0.0107243
0.0107238
0.0107235
0.0107234
0.0107191
0.0107172
0.0107145
0.0107113
0.0107077
0.0107038
0.0106998
0.0106957
0.0106917
0.0106878
0.010684
0.0106805
0.0106771
0.010674
0.0106712
0.0106686
0.0106663
0.0106643
0.0106626
0.0106611
0.0106598
0.0106587
0.0106579
0.0106573
0.0106568
0.0106565
0.0106564
0.0106522
0.0106503
0.0106477
0.0106445
0.010641
0.0106372
0.0106333
0.0106293
0.0106253
0.0106215
0.0106178
0.0106143
0.010611
0.010608
0.0106052
0.0106027
0.0106004
0.0105985
0.0105967
0.0105953
0.010594
0.010593
0.0105922
0.0105915
0.0105911
0.0105908
0.0105907
0.0105865
0.0105847
0.0105821
0.0105791
0.0105756
0.0105719
0.010568
0.0105641
0.0105602
0.0105565
0.0105528
0.0105494
0.0105462
0.0105432
0.0105405
0.010538
0.0105358
0.0105339
0.0105322
0.0105308
0.0105295
0.0105285
0.0105277
0.0105271
0.0105267
0.0105264
0.0105263
0.0105222
0.0105204
0.0105179
0.0105149
0.0105115
0.0105078
0.010504
0.0105002
0.0104964
0.0104927
0.0104892
0.0104858
0.0104827
0.0104798
0.0104771
0.0104747
0.0104725
0.0104706
0.010469
0.0104675
0.0104663
0.0104653
0.0104646
0.010464
0.0104635
0.0104633
0.0104631
0.0104592
0.0104574
0.010455
0.010452
0.0104487
0.0104451
0.0104414
0.0104376
0.0104339
0.0104303
0.0104268
0.0104235
0.0104204
0.0104176
0.010415
0.0104126
0.0104105
0.0104086
0.010407
0.0104056
0.0104044
0.0104035
0.0104027
0.0104021
0.0104017
0.0104014
0.0104013
0.0103975
0.0103957
0.0103933
0.0103904
0.0103872
0.0103837
0.01038
0.0103764
0.0103727
0.0103692
0.0103658
0.0103625
0.0103595
0.0103567
0.0103542
0.0103519
0.0103498
0.010348
0.0103464
0.010345
0.0103439
0.0103429
0.0103422
0.0103416
0.0103412
0.0103409
0.0103408
0.0103371
0.0103354
0.010333
0.0103302
0.010327
0.0103236
0.01032
0.0103164
0.0103129
0.0103094
0.0103061
0.0103029
0.0103
0.0102972
0.0102947
0.0102925
0.0102904
0.0102887
0.0102871
0.0102858
0.0102846
0.0102837
0.010283
0.0102824
0.010282
0.0102818
0.0102816
0.010278
0.0102764
0.0102741
0.0102713
0.0102682
0.0102649
0.0102614
0.0102579
0.0102544
0.010251
0.0102478
0.0102447
0.0102418
0.0102391
0.0102367
0.0102345
0.0102325
0.0102308
0.0102293
0.0102279
0.0102269
0.010226
0.0102252
0.0102247
0.0102243
0.010224
0.0102239
0.0102204
0.0102188
0.0102166
0.0102139
0.0102109
0.0102076
0.0102042
0.0102008
0.0101974
0.0101941
0.0101909
0.0101879
0.0101851
0.0101825
0.0101801
0.010178
0.0101761
0.0101744
0.0101729
0.0101716
0.0101706
0.0101697
0.010169
0.0101684
0.0101681
0.0101678
0.0101677
0.0101644
0.0101628
0.0101606
0.010158
0.010155
0.0101519
0.0101486
0.0101453
0.010142
0.0101387
0.0101357
0.0101327
0.01013
0.0101275
0.0101252
0.0101231
0.0101212
0.0101196
0.0101181
0.0101169
0.0101159
0.010115
0.0101143
0.0101138
0.0101134
0.0101132
0.0101131
0.0101099
0.0101084
0.0101063
0.0101037
0.0101009
0.0100978
0.0100946
0.0100914
0.0100882
0.0100851
0.0100821
0.0100792
0.0100766
0.0100741
0.0100719
0.0100699
0.0100681
0.0100665
0.0100651
0.0100639
0.0100629
0.010062
0.0100614
0.0100609
0.0100605
0.0100603
0.0100602
0.0100572
0.0100557
0.0100537
0.0100512
0.0100485
0.0100455
0.0100424
0.0100393
0.0100362
0.0100332
0.0100303
0.0100276
0.010025
0.0100226
0.0100205
0.0100185
0.0100168
0.0100152
0.0100139
0.0100127
0.0100118
0.010011
0.0100103
0.0100098
0.0100095
0.0100093
0.0100092
0.0100064
0.010005
0.010003
0.0100007
0.009998
0.00999513
0.00999216
0.00998916
0.00998619
0.00998329
0.00998052
0.00997789
0.00997543
0.00997316
0.00997108
0.0099692
0.00996752
0.00996604
0.00996475
0.00996364
0.00996271
0.00996194
0.00996133
0.00996086
0.00996053
0.00996032
0.00996022
0.0099577
0.00995634
0.00995446
0.00995219
0.00994963
0.00994689
0.00994405
0.00994118
0.00993833
0.00993557
0.00993291
0.0099304
0.00992805
0.00992588
0.00992389
0.0099221
0.00992049
0.00991908
0.00991785
0.00991679
0.0099159
0.00991517
0.00991458
0.00991414
0.00991382
0.00991362
0.00991352
0.00991126
0.00990997
0.00990818
0.00990602
0.00990359
0.00990098
0.00989828
0.00989555
0.00989285
0.00989022
0.0098877
0.00988531
0.00988308
0.00988102
0.00987914
0.00987744
0.00987592
0.00987458
0.00987341
0.0098724
0.00987156
0.00987087
0.00987032
0.00986989
0.00986959
0.0098694
0.00986931
0.00986733
0.00986611
0.00986442
0.00986238
0.00986009
0.00985763
0.00985508
0.00985251
0.00984996
0.00984749
0.00984511
0.00984287
0.00984077
0.00983883
0.00983706
0.00983546
0.00983403
0.00983277
0.00983167
0.00983073
0.00982994
0.00982929
0.00982877
0.00982837
0.00982809
0.00982791
0.00982783
0.00982614
0.009825
0.00982342
0.00982152
0.00981937
0.00981708
0.0098147
0.0098123
0.00980993
0.00980762
0.00980541
0.00980332
0.00980136
0.00979956
0.00979791
0.00979642
0.00979509
0.00979392
0.0097929
0.00979202
0.00979129
0.00979068
0.0097902
0.00978983
0.00978957
0.0097894
0.00978932
0.00978795
0.0097869
0.00978544
0.00978368
0.0097817
0.00977958
0.00977739
0.00977517
0.00977299
0.00977086
0.00976882
0.0097669
0.0097651
0.00976344
0.00976193
0.00976056
0.00975934
0.00975826
0.00975732
0.00975652
0.00975584
0.00975529
0.00975485
0.00975451
0.00975427
0.00975411
0.00975404
0.00975299
0.00975203
0.0097507
0.0097491
0.0097473
0.00974537
0.00974337
0.00974136
0.00973937
0.00973744
0.00973559
0.00973385
0.00973222
0.00973072
0.00972934
0.00972811
0.009727
0.00972603
0.00972518
0.00972445
0.00972384
0.00972334
0.00972294
0.00972264
0.00972242
0.00972228
0.00972222
0.00972148
0.00972062
0.00971943
0.00971799
0.00971638
0.00971465
0.00971287
0.00971107
0.00970929
0.00970757
0.00970592
0.00970436
0.00970291
0.00970157
0.00970035
0.00969925
0.00969827
0.0096974
0.00969665
0.00969601
0.00969547
0.00969502
0.00969467
0.0096944
0.0096942
0.00969408
0.00969402
0.00969359
0.00969283
0.00969178
0.00969052
0.0096891
0.00968759
0.00968602
0.00968445
0.00968289
0.00968138
0.00967994
0.00967858
0.00967732
0.00967615
0.00967508
0.00967412
0.00967327
0.00967252
0.00967186
0.0096713
0.00967083
0.00967045
0.00967014
0.0096699
0.00966974
0.00966963
0.00966958
0.00966941
0.00966876
0.00966785
0.00966677
0.00966555
0.00966425
0.00966291
0.00966156
0.00966023
0.00965894
0.00965771
0.00965655
0.00965548
0.00965448
0.00965358
0.00965276
0.00965203
0.0096514
0.00965084
0.00965037
0.00964997
0.00964964
0.00964938
0.00964918
0.00964904
0.00964895
0.00964891
0.00964896
0.00964841
0.00964765
0.00964674
0.00964573
0.00964464
0.00964352
0.0096424
0.00964129
0.00964022
0.00963919
0.00963823
0.00963734
0.00963651
0.00963576
0.00963509
0.00963449
0.00963396
0.0096335
0.00963311
0.00963278
0.00963251
0.0096323
0.00963214
0.00963202
0.00963195
0.00963191
0.00963212
0.00963168
0.00963106
0.00963032
0.0096295
0.00962862
0.00962771
0.0096268
0.0096259
0.00962504
0.00962421
0.00962344
0.00962272
0.00962206
0.00962146
0.00962092
0.00962043
0.00962001
0.00961965
0.00961933
0.00961907
0.00961886
0.00961869
0.00961856
0.00961846
0.0096184
0.00961838
0.00961868
0.00961833
0.00961785
0.00961727
0.00961662
0.00961592
0.00961521
0.0096145
0.0096138
0.00961312
0.00961248
0.00961188
0.00961131
0.0096108
0.00961033
0.00960991
0.00960954
0.00960922
0.00960893
0.00960869
0.00960849
0.00960832
0.00960819
0.00960809
0.00960802
0.00960797
0.00960795
0.0096083
0.00960803
0.00960766
0.00960722
0.00960672
0.00960619
0.00960565
0.00960511
0.00960458
0.00960407
0.00960358
0.00960313
0.00960271
0.00960232
0.00960197
0.00960166
0.00960138
0.00960113
0.00960092
0.00960074
0.00960059
0.00960046
0.00960037
0.00960029
0.00960024
0.0096002
0.00960019
0.00960052
0.00960033
0.00960005
0.00959973
0.00959936
0.00959898
0.00959858
0.00959819
0.0095978
0.00959743
0.00959707
0.00959674
0.00959643
0.00959615
0.0095959
0.00959567
0.00959547
0.00959529
0.00959514
0.00959501
0.0095949
0.00959481
0.00959474
0.00959469
0.00959465
0.00959462
0.00959461
0.0095949
0.00959476
0.00959457
0.00959434
0.00959408
0.0095938
0.00959352
0.00959324
0.00959297
0.00959271
0.00959246
0.00959222
0.00959201
0.00959181
0.00959163
0.00959147
0.00959133
0.00959121
0.0095911
0.00959101
0.00959093
0.00959087
0.00959082
0.00959078
0.00959076
0.00959074
0.00959073
0.00959096
0.00959086
0.00959072
0.00959056
0.00959038
0.0095902
0.00959
0.00958981
0.00958962
0.00958944
0.00958927
0.00958911
0.00958896
0.00958882
0.0095887
0.00958859
0.00958849
0.00958841
0.00958834
0.00958827
0.00958822
0.00958818
0.00958815
0.00958812
0.0095881
0.00958809
0.00958808
0.00958824
0.00958817
0.00958808
0.00958797
0.00958785
0.00958772
0.00958759
0.00958746
0.00958733
0.00958721
0.00958709
0.00958698
0.00958688
0.00958679
0.0095867
0.00958663
0.00958656
0.00958651
0.00958646
0.00958641
0.00958638
0.00958635
0.00958633
0.00958631
0.0095863
0.00958629
0.00958628
0.00958639
0.00958634
0.00958628
0.0095862
0.00958612
0.00958603
0.00958594
0.00958585
0.00958576
0.00958568
0.0095856
0.00958552
0.00958546
0.00958539
0.00958533
0.00958528
0.00958524
0.0095852
0.00958516
0.00958514
0.00958511
0.00958509
0.00958508
0.00958506
0.00958506
0.00958505
0.00958505
0.00958511
0.00958508
0.00958503
0.00958498
0.00958492
0.00958486
0.0095848
0.00958474
0.00958468
0.00958462
0.00958456
0.00958451
0.00958446
0.00958442
0.00958438
0.00958435
0.00958431
0.00958429
0.00958426
0.00958424
0.00958423
0.00958421
0.0095842
0.00958419
0.00958419
0.00958418
0.00958418
0.00958421
0.00958419
0.00958416
0.00958413
0.00958409
0.00958404
0.009584
0.00958396
0.00958392
0.00958387
0.00958384
0.0095838
0.00958377
0.00958374
0.00958371
0.00958368
0.00958366
0.00958364
0.00958363
0.00958361
0.0095836
0.00958359
0.00958359
0.00958358
0.00958358
0.00958357
0.00958357
0.00958358
0.00958357
0.00958355
0.00958352
0.0095835
0.00958347
0.00958344
0.00958341
0.00958338
0.00958335
0.00958333
0.0095833
0.00958328
0.00958326
0.00958324
0.00958323
0.00958321
0.0095832
0.00958319
0.00958318
0.00958317
0.00958317
0.00958316
0.00958316
0.00958316
0.00958315
0.00958315
0.00958315
0.00958314
0.00958312
0.00958311
0.00958309
0.00958307
0.00958305
0.00958303
0.00958302
0.009583
0.00958298
0.00958297
0.00958296
0.00958295
0.00958293
0.00958293
0.00958292
0.00958291
0.0095829
0.0095829
0.0095829
0.00958289
0.00958289
0.00958289
0.00958289
0.00958289
0.00958289
0.00958286
0.00958285
0.00958284
0.00958283
0.00958283
0.00958282
0.00958281
0.0095828
0.00958279
0.00958278
0.00958277
0.00958277
0.00958276
0.00958276
0.00958275
0.00958275
0.00958275
0.00958274
0.00958274
0.00958274
0.00958274
0.00958274
0.00958274
0.00958274
0.00958274
0.00958274
0.00958274
0.00958268
0.00958268
0.00958268
0.00958268
0.00958267
0.00958267
0.00958267
0.00958267
0.00958267
0.00958267
0.00958266
0.00958266
0.00958266
0.00958267
0.00958267
0.00958267
0.00958267
0.00958267
0.00958267
0.00958267
0.00958267
0.00958267
0.00958268
0.00958268
0.00958268
0.00958268
0.00958268
0.0095826
0.0095826
0.0095826
0.00958261
0.00958261
0.00958261
0.00958262
0.00958262
0.00958262
0.00958263
0.00958263
0.00958264
0.00958264
0.00958265
0.00958265
0.00958266
0.00958266
0.00958267
0.00958267
0.00958268
0.00958268
0.00958268
0.00958268
0.00958268
0.00958269
0.00958269
0.00958269
0.00958259
0.00958259
0.0095826
0.0095826
0.00958261
0.00958262
0.00958263
0.00958263
0.00958264
0.00958265
0.00958266
0.00958267
0.00958268
0.00958269
0.0095827
0.0095827
0.00958271
0.00958272
0.00958272
0.00958273
0.00958273
0.00958274
0.00958274
0.00958274
0.00958274
0.00958275
0.00958275
0.00958263
0.00958263
0.00958264
0.00958265
0.00958266
0.00958267
0.00958268
0.00958269
0.0095827
0.00958272
0.00958273
0.00958274
0.00958275
0.00958276
0.00958278
0.00958279
0.00958279
0.0095828
0.00958281
0.00958282
0.00958282
0.00958283
0.00958283
0.00958283
0.00958284
0.00958284
0.00958284
0.0095827
0.00958271
0.00958272
0.00958273
0.00958274
0.00958275
0.00958277
0.00958278
0.0095828
0.00958281
0.00958283
0.00958284
0.00958285
0.00958287
0.00958288
0.00958289
0.0095829
0.00958291
0.00958292
0.00958293
0.00958293
0.00958294
0.00958294
0.00958295
0.00958295
0.00958295
0.00958295
0.0095828
0.0095828
0.00958281
0.00958283
0.00958284
0.00958286
0.00958287
0.00958289
0.00958291
0.00958292
0.00958294
0.00958296
0.00958297
0.00958299
0.009583
0.00958302
0.00958303
0.00958304
0.00958305
0.00958306
0.00958306
0.00958307
0.00958308
0.00958308
0.00958308
0.00958308
0.00958309
0.00958291
0.00958292
0.00958293
0.00958294
0.00958296
0.00958298
0.00958299
0.00958301
0.00958303
0.00958305
0.00958307
0.00958309
0.00958311
0.00958312
0.00958314
0.00958315
0.00958317
0.00958318
0.00958319
0.0095832
0.00958321
0.00958322
0.00958322
0.00958323
0.00958323
0.00958323
0.00958323
0.00958304
0.00958305
0.00958306
0.00958307
0.00958309
0.00958311
0.00958313
0.00958315
0.00958317
0.00958319
0.00958321
0.00958323
0.00958325
0.00958327
0.00958329
0.00958331
0.00958332
0.00958334
0.00958335
0.00958336
0.00958337
0.00958338
0.00958338
0.00958339
0.00958339
0.00958339
0.00958339
0.00958318
0.00958319
0.0095832
0.00958322
0.00958324
0.00958326
0.00958328
0.0095833
0.00958332
0.00958335
0.00958337
0.00958339
0.00958342