/*--------------------------------*- C++ -*----------------------------------*\
| =========                 |                                                 |
| \\      /  F ield         | OpenFOAM: The Open Source CFD Toolbox           |
|  \\    /   O peration     | Version:  2106                                  |
|   \\  /    A nd           | Website:  www.openfoam.com                      |
|    \\/     M anipulation  |                                                 |
\*---------------------------------------------------------------------------*/
FoamFile
{
    version     2.0;
    format      ascii;
    arch        "LSB;label=32;scalar=64";
    class       surfaceScalarField;
    location    "80.00032";
    object      phi;
}
// * * * * * * * * * * * * * * * * * * * * * * * * * * * * * * * * * * * * * //

dimensions      [1 0 -1 0 0 0 0];

oriented        oriented;

internalField   nonuniform List<scalar> 
6572
(
-1.49047e-10
4.14361e-10
3.90129e-11
-3.19858e-10
6.41473e-10
-5.42164e-10
8.33286e-10
-8.07226e-10
9.93368e-10
-1.10643e-09
1.12455e-09
-1.43105e-09
1.22915e-09
-1.77213e-09
1.30908e-09
-2.12049e-09
1.36606e-09
-2.46677e-09
1.40164e-09
-2.80162e-09
1.41735e-09
-3.11576e-09
1.41463e-09
-3.39996e-09
1.39474e-09
-3.64565e-09
1.35944e-09
-3.8449e-09
1.31033e-09
-3.99039e-09
1.24885e-09
-4.07547e-09
1.17646e-09
-4.0943e-09
1.09461e-09
-4.04189e-09
1.00474e-09
-3.91416e-09
9.0831e-10
-3.70804e-09
8.06759e-10
-3.42142e-09
7.0147e-10
-3.05312e-09
5.93721e-10
-2.60282e-09
4.84674e-10
-2.07097e-09
3.75377e-10
-1.45872e-09
2.66764e-10
-7.6781e-10
1.59635e-10
5.4177e-11
-1.01035e-10
4.88278e-10
2.71179e-11
-2.11554e-10
7.51992e-10
-3.48304e-10
9.70036e-10
-5.00947e-10
1.14601e-09
-6.59584e-10
1.28319e-09
-8.15044e-10
1.3846e-09
-9.59136e-10
1.45318e-09
-1.08487e-09
1.4918e-09
-1.18661e-09
1.50338e-09
-1.26026e-09
1.491e-09
-1.30443e-09
1.45879e-09
-1.31886e-09
1.40917e-09
-1.30402e-09
1.3446e-09
-1.26127e-09
1.26758e-09
-1.193e-09
1.18059e-09
-1.1025e-09
1.08596e-09
-9.93805e-10
9.85915e-10
-8.71556e-10
8.82493e-10
-7.40787e-10
7.7754e-10
-6.06723e-10
6.72695e-10
-4.74631e-10
5.69378e-10
-3.49703e-10
4.68792e-10
-2.36961e-10
3.71932e-10
-1.41262e-10
2.79678e-10
-6.70814e-11
1.92584e-10
-1.8493e-11
1.11047e-10
3.5684e-11
-8.01156e-11
5.4723e-10
2.11637e-11
-1.66955e-10
8.38832e-10
-2.71313e-10
1.07439e-09
-3.83395e-10
1.25809e-09
-4.94492e-10
1.39429e-09
-5.97277e-10
1.48739e-09
-6.86225e-10
1.54212e-09
-7.57496e-10
1.56307e-09
-8.0886e-10
1.55474e-09
-8.39396e-10
1.52154e-09
-8.48305e-10
1.4677e-09
-8.36331e-10
1.3972e-09
-8.05101e-10
1.31337e-09
-7.5696e-10
1.21944e-09
-6.9486e-10
1.11849e-09
-6.22172e-10
1.01327e-09
-5.42478e-10
9.06221e-10
-4.59375e-10
7.9939e-10
-3.7631e-10
6.94475e-10
-2.96416e-10
5.92802e-10
-2.22429e-10
4.95391e-10
-1.56655e-10
4.03017e-10
-1.00955e-10
3.16232e-10
-5.66747e-11
2.35397e-10
-2.47982e-11
1.60708e-10
-5.98062e-12
9.22291e-11
2.97034e-11
-3.77092e-11
5.74507e-10
1.04328e-11
-7.67924e-11
8.77915e-10
-1.22467e-10
1.12007e-09
-1.6978e-10
1.30541e-09
-2.14471e-10
1.43898e-09
-2.53293e-10
1.52621e-09
-2.83864e-10
1.5727e-09
-3.04815e-10
1.58402e-09
-3.15634e-10
1.56556e-09
-3.1655e-10
1.52245e-09
-3.08399e-10
1.45955e-09
-2.92409e-10
1.38121e-09
-2.70296e-10
1.29126e-09
-2.43932e-10
1.19308e-09
-2.1508e-10
1.08963e-09
-1.85282e-10
9.83474e-10
-1.55811e-10
8.7675e-10
-1.27663e-10
7.71241e-10
-1.01567e-10
6.68379e-10
-7.80552e-11
5.6929e-10
-5.74917e-11
4.74828e-10
-4.00847e-11
3.8561e-10
-2.59088e-11
3.02057e-10
-1.49279e-11
2.24416e-10
-7.01965e-12
1.52799e-10
-1.99472e-12
8.72042e-11
2.77087e-11
-1.91491e-11
5.88678e-10
4.97811e-12
-3.93976e-11
8.98163e-10
-6.24439e-11
1.14311e-09
-8.54929e-11
1.32846e-09
-1.06462e-10
1.45995e-09
-1.23993e-10
1.54374e-09
-1.37249e-10
1.58595e-09
-1.45844e-10
1.59261e-09
-1.49802e-10
1.56952e-09
-1.49422e-10
1.52207e-09
-1.45114e-10
1.45525e-09
-1.37419e-10
1.37351e-09
-1.27004e-10
1.28084e-09
-1.14602e-10
1.18068e-09
-1.0095e-10
1.07598e-09
-8.67313e-11
9.69255e-10
-7.25458e-11
8.62565e-10
-5.88974e-11
7.57593e-10
-4.61911e-11
6.55673e-10
-3.47375e-11
5.57837e-10
-2.47609e-11
4.64851e-10
-1.64098e-11
3.77259e-10
-9.76817e-12
2.95415e-10
-4.86608e-12
2.19514e-10
-1.69029e-12
1.49624e-10
-1.93382e-13
8.57073e-11
2.75153e-11
-9.30881e-12
5.95272e-10
2.7142e-12
-1.82998e-11
9.07154e-10
-2.82055e-11
1.15302e-09
-3.77067e-11
1.33796e-09
-4.582e-11
1.46806e-09
-5.19492e-11
1.54987e-09
-5.58325e-11
1.58983e-09
-5.74655e-11
1.59425e-09
-5.70346e-11
1.56909e-09
-5.48528e-11
1.51989e-09
-5.1299e-11
1.45169e-09
-4.67701e-11
1.36899e-09
-4.16463e-11
1.27572e-09
-3.62663e-11
1.1753e-09
-3.09126e-11
1.07063e-09
-2.58047e-11
9.64147e-10
-2.10986e-11
8.57859e-10
-1.68922e-11
7.53386e-10
-1.32327e-11
6.52013e-10
-1.0126e-11
5.5473e-10
-7.54671e-12
4.62272e-10
-5.44657e-12
3.75159e-10
-3.76282e-12
2.93731e-10
-2.42486e-12
2.18176e-10
-1.35972e-12
1.48558e-10
-4.96217e-13
8.48438e-11
2.70191e-11
-4.8155e-12
5.98919e-10
1.16908e-12
-1.01986e-11
9.12537e-10
-1.65035e-11
1.15933e-09
-2.29999e-11
1.34445e-09
-2.90438e-11
1.4741e-09
-3.40866e-11
1.55491e-09
-3.7825e-11
1.59357e-09
-4.01459e-11
1.59657e-09
-4.10764e-11
1.57002e-09
-4.07383e-11
1.51955e-09
-3.93097e-11
1.45026e-09
-3.6996e-11
1.36667e-09
-3.40087e-11
1.27273e-09
-3.05513e-11
1.17184e-09
-2.68111e-11
1.06689e-09
-2.29547e-11
9.6029e-10
-1.91259e-11
8.5403e-10
-1.54464e-11
7.49707e-10
-1.20171e-11
6.48584e-10
-8.91943e-12
5.51632e-10
-6.21767e-12
4.5957e-10
-3.96065e-12
3.72902e-10
-2.18347e-12
2.91954e-10
-9.09098e-13
2.16902e-10
-1.49713e-13
1.47799e-10
9.19091e-14
8.46022e-11
2.7111e-11
-1.82741e-12
6.00149e-10
5.96874e-13
-3.44267e-12
9.14153e-10
-5.2033e-12
1.16109e-09
-6.86581e-12
1.34612e-09
-8.23221e-12
1.47547e-09
-9.17219e-12
1.55585e-09
-9.63326e-12
1.59403e-09
-9.63013e-12
1.59657e-09
-9.22602e-12
1.56961e-09
-8.51249e-12
1.51884e-09
-7.59185e-12
1.44934e-09
-6.56353e-12
1.36564e-09
-5.51499e-12
1.27168e-09
-4.51631e-12
1.17084e-09
-3.61805e-12
1.06599e-09
-2.85131e-12
9.59524e-10
-2.22946e-12
8.53408e-10
-1.75068e-12
7.49228e-10
-1.40106e-12
6.48234e-10
-1.15776e-12
5.51389e-10
-9.92008e-13
4.59404e-10
-8.71781e-13
3.72782e-10
-7.64166e-13
2.91846e-10
-6.37199e-13
2.16775e-10
-4.61351e-13
1.47623e-10
-2.10512e-13
8.43513e-11
2.69005e-11
-1.84957e-12
6.01573e-10
4.25395e-13
-3.9579e-12
9.16261e-10
-6.40442e-12
1.16353e-09
-8.89878e-12
1.34861e-09
-1.12118e-11
1.47778e-09
-1.31792e-11
1.55782e-09
-1.46993e-11
1.59555e-09
-1.57244e-11
1.59759e-09
-1.62495e-11
1.57014e-09
-1.63009e-11
1.51889e-09
-1.59262e-11
1.44897e-09
-1.51855e-11
1.3649e-09
-1.41456e-11
1.27064e-09
-1.28755e-11
1.16957e-09
-1.14432e-11
1.06456e-09
-9.91367e-12
9.57994e-10
-8.34797e-12
8.51842e-10
-6.80196e-12
7.47682e-10
-5.326e-12
6.46758e-10
-3.96459e-12
5.50028e-10
-2.75614e-12
4.58196e-10
-1.73293e-12
3.71759e-10
-9.21101e-13
2.91035e-10
-3.40796e-13
2.16194e-10
-6.33012e-15
1.47289e-10
7.34335e-14
8.42716e-11
2.69739e-11
-6.79242e-13
6.0201e-10
2.42905e-13
-1.2256e-12
9.16807e-10
-1.80975e-12
1.16412e-09
-2.35299e-12
1.34915e-09
-2.79295e-12
1.47822e-09
-3.0912e-12
1.55812e-09
-3.23348e-12
1.5957e-09
-3.22588e-12
1.59758e-09
-3.08921e-12
1.57e-09
-2.85314e-12
1.51865e-09
-2.55092e-12
1.44867e-09
-2.21523e-12
1.36457e-09
-1.87515e-12
1.2703e-09
-1.55428e-12
1.16925e-09
-1.26974e-12
1.06427e-09
-1.032e-12
9.57756e-10
-8.45159e-13
8.51656e-10
-7.07648e-13
7.47544e-10
-6.13171e-13
6.46664e-10
-5.5178e-13
5.49966e-10
-5.10986e-13
4.58155e-10
-4.7682e-13
3.71725e-10
-4.3475e-13
2.90992e-10
-3.70523e-13
2.1613e-10
-2.70847e-13
1.47189e-10
-1.23842e-13
8.41246e-11
2.68501e-11
-1.034e-12
6.02809e-10
2.34866e-13
-2.22729e-12
9.18001e-10
-3.62743e-12
1.16552e-09
-5.07781e-12
1.3506e-09
-6.4532e-12
1.4796e-09
-7.66057e-12
1.55933e-09
-8.63729e-12
1.59667e-09
-9.34746e-12
1.59829e-09
-9.77734e-12
1.57043e-09
-9.93069e-12
1.51881e-09
-9.82444e-12
1.44856e-09
-9.48498e-12
1.36423e-09
-8.94512e-12
1.26976e-09
-8.2416e-12
1.16854e-09
-7.41321e-12
1.06344e-09
-6.49923e-12
9.56843e-10
-5.538e-12
8.50694e-10
-4.56722e-12
7.46574e-10
-3.62238e-12
6.45719e-10
-2.73605e-12
5.4908e-10
-1.93718e-12
4.57356e-10
-1.25053e-12
3.71038e-10
-6.96513e-13
2.90438e-10
-2.91057e-13
2.15725e-10
-4.57149e-14
1.46944e-10
3.21104e-14
8.40467e-11
2.68822e-11
-6.34273e-13
6.03237e-10
2.05973e-13
-1.21116e-12
9.18578e-10
-1.86882e-12
1.16617e-09
-2.53541e-12
1.35127e-09
-3.14953e-12
1.48021e-09
-3.66565e-12
1.55984e-09
-4.05532e-12
1.59706e-09
-4.30574e-12
1.59854e-09
-4.41719e-12
1.57054e-09
-4.3998e-12
1.51879e-09
-4.27046e-12
1.44843e-09
-4.04987e-12
1.36401e-09
-3.76019e-12
1.26947e-09
-3.42313e-12
1.16821e-09
-3.05859e-12
1.06308e-09
-2.68378e-12
9.56468e-10
-2.31336e-12
8.50324e-10
-1.95738e-12
7.46218e-10
-1.62431e-12
6.45386e-10
-1.3197e-12
5.48775e-10
-1.04628e-12
4.57083e-10
-8.04258e-13
3.70796e-10
-5.91776e-13
2.90226e-10
-4.05361e-13
2.15538e-10
-2.40447e-13
1.46779e-10
-9.18012e-14
8.38981e-11
2.67904e-11
-1.62102e-12
6.04448e-10
4.10204e-13
-3.39937e-12
9.20356e-10
-5.49548e-12
1.16827e-09
-7.6852e-12
1.35346e-09
-9.77976e-12
1.48231e-09
-1.16315e-11
1.5617e-09
-1.31351e-11
1.59857e-09
-1.42258e-11
1.59963e-09
-1.48753e-11
1.57119e-09
-1.50857e-11
1.519e-09
-1.48842e-11
1.44823e-09
-1.43162e-11
1.36344e-09
-1.34398e-11
1.26859e-09
-1.23208e-11
1.16709e-09
-1.10276e-11
1.06179e-09
-9.62774e-12
9.55068e-10
-8.18459e-12
8.48881e-10
-6.75601e-12
7.44789e-10
-5.38996e-12
6.4402e-10
-4.12621e-12
5.47511e-10
-2.9969e-12
4.55953e-10
-2.02715e-12
3.69826e-10
-1.23564e-12
2.89434e-10
-6.35204e-13
2.14938e-10
-2.33441e-13
1.46377e-10
-3.33586e-14
8.3698e-11
2.6757e-11
-1.73537e-12
6.05696e-10
4.87463e-13
-3.51276e-12
9.22133e-10
-5.58354e-12
1.17034e-09
-7.72281e-12
1.3556e-09
-9.73872e-12
1.48432e-09
-1.1483e-11
1.56344e-09
-1.28543e-11
1.59994e-09
-1.37956e-11
1.60058e-09
-1.42901e-11
1.57169e-09
-1.43531e-11
1.51906e-09
-1.40251e-11
1.4479e-09
-1.33636e-11
1.36278e-09
-1.24364e-11
1.26767e-09
-1.13134e-11
1.16597e-09
-1.0063e-11
1.06054e-09
-8.74853e-12
9.53753e-10
-7.42615e-12
8.47558e-10
-6.14266e-12
7.43506e-10
-4.93555e-12
6.42813e-10
-3.83327e-12
5.46409e-10
-2.85608e-12
4.54976e-10
-2.01702e-12
3.68987e-10
-1.32296e-12
2.8874e-10
-7.75647e-13
2.1439e-10
-3.7271e-13
1.45974e-10
-1.08559e-13
8.34339e-11
2.66485e-11
-2.76491e-12
6.07732e-10
7.28747e-13
-5.73384e-12
9.25102e-10
-9.24192e-12
1.17385e-09
-1.29272e-11
1.35928e-09
-1.64809e-11
1.48788e-09
-1.96588e-11
1.56662e-09
-2.22845e-11
1.60256e-09
-2.42464e-11
1.60254e-09
-2.54911e-11
1.57293e-09
-2.60142e-11
1.51959e-09
-2.58506e-11
1.44774e-09
-2.50646e-11
1.36199e-09
-2.37415e-11
1.26634e-09
-2.19804e-11
1.1642e-09
-1.9887e-11
1.05844e-09
-1.75683e-11
9.51435e-10
-1.51271e-11
8.45117e-10
-1.26601e-11
7.41039e-10
-1.02556e-11
6.40408e-10
-7.99096e-12
5.44145e-10
-5.93146e-12
4.52917e-10
-4.12985e-12
3.67186e-10
-2.62654e-12
2.87237e-10
-1.45026e-12
2.13214e-10
-6.19083e-13
1.45143e-10
-1.41584e-13
8.29564e-11
2.65069e-11
-3.45885e-12
6.10247e-10
9.43629e-13
-7.08297e-12
9.28726e-10
-1.13381e-11
1.1781e-09
-1.57758e-11
1.36372e-09
-2.00132e-11
1.49211e-09
-2.37505e-11
1.57035e-09
-2.67763e-11
1.60559e-09
-2.89634e-11
1.60472e-09
-3.02598e-11
1.57423e-09
-3.06763e-11
1.52e-09
-3.02723e-11
1.44733e-09
-2.91423e-11
1.36086e-09
-2.7404e-11
1.26461e-09
-2.51883e-11
1.16199e-09
-2.263e-11
1.05588e-09
-1.98604e-11
9.48665e-10
-1.70013e-11
8.42258e-10
-1.41619e-11
7.38199e-10
-1.14363e-11
6.37683e-10
-8.90255e-12
5.41611e-10
-6.62249e-12
4.50637e-10
-4.64282e-12
3.65206e-10
-2.99607e-12
2.8559e-10
-1.70225e-12
2.1192e-10
-7.70479e-13
1.44211e-10
-2.00777e-13
8.23867e-11
2.63061e-11
-4.40266e-12
6.13473e-10
1.17645e-12
-9.06117e-12
9.33385e-10
-1.45061e-11
1.18355e-09
-2.01446e-11
1.36936e-09
-2.54789e-11
1.49745e-09
-3.01272e-11
1.575e-09
-3.38283e-11
1.60929e-09
-3.64339e-11
1.60733e-09
-3.78944e-11
1.57569e-09
-3.82402e-11
1.52035e-09
-3.75629e-11
1.44666e-09
-3.59961e-11
1.35929e-09
-3.36992e-11
1.26231e-09
-3.0842e-11
1.15913e-09
-2.75941e-11
1.05264e-09
-2.41166e-11
9.45187e-10
-2.05572e-11
8.38699e-10
-1.70462e-11
7.34688e-10
-1.36951e-11
6.34332e-10
-1.05955e-11
5.38511e-10
-7.8204e-12
4.47862e-10
-5.42453e-12
3.6281e-10
-3.4464e-12
2.83612e-10
-1.90994e-12
2.10384e-10
-8.26416e-13
1.43128e-10
-1.96339e-13
8.17566e-11
2.61098e-11
-5.1379e-12
6.17216e-10
1.39544e-12
-1.05025e-11
9.3875e-10
-1.6739e-11
1.18979e-09
-2.31562e-11
1.37578e-09
-2.91786e-11
1.50347e-09
-3.43723e-11
1.5802e-09
-3.8449e-11
1.61337e-09
-4.12543e-11
1.61014e-09
-4.27485e-11
1.57718e-09
-4.29828e-11
1.52058e-09
-4.20752e-11
1.44575e-09
-4.01876e-11
1.35741e-09
-3.7507e-11
1.25963e-09
-3.42288e-11
1.15585e-09
-3.05455e-11
1.04895e-09
-2.6637e-11
9.41279e-10
-2.26659e-11
8.34728e-10
-1.87729e-11
7.30795e-10
-1.50764e-11
6.30635e-10
-1.16721e-11
5.35107e-10
-8.63385e-12
4.44823e-10
-6.01559e-12
3.60192e-10
-3.85344e-12
2.8145e-10
-2.16793e-12
2.08698e-10
-9.66319e-13
1.41926e-10
-2.44893e-13
8.10352e-11
2.58649e-11
-5.79648e-12
6.21453e-10
1.55906e-12
-1.18646e-11
9.44818e-10
-1.88819e-11
1.1968e-09
-2.60487e-11
1.38294e-09
-3.27106e-11
1.51013e-09
-3.83854e-11
1.58587e-09
-4.27638e-11
1.61775e-09
-4.56926e-11
1.61306e-09
-4.71487e-11
1.57864e-09
-4.72091e-11
1.52064e-09
-4.60219e-11
1.44456e-09
-4.37799e-11
1.35517e-09
-4.06983e-11
1.25655e-09
-3.69975e-11
1.15215e-09
-3.28904e-11
1.04485e-09
-2.85731e-11
9.36962e-10
-2.422e-11
8.30375e-10
-1.99805e-11
7.26556e-10
-1.59783e-11
6.26633e-10
-1.2312e-11
5.31441e-10
-9.05693e-12
4.41568e-10
-6.26692e-12
3.57402e-10
-3.97706e-12
2.7916e-10
-2.20627e-12
2.06928e-10
-9.59806e-13
1.4068e-10
-2.31718e-13
8.03071e-11
2.56332e-11
-5.98588e-12
6.25813e-10
1.62615e-12
-1.21881e-11
9.5102e-10
-1.9313e-11
1.20393e-09
-2.653e-11
1.39016e-09
-3.3169e-11
1.51677e-09
-3.8748e-11
1.59145e-09
-4.29709e-11
1.62197e-09
-4.57052e-11
1.6158e-09
-4.69514e-11
1.57988e-09
-4.68091e-11
1.5205e-09
-4.54447e-11
1.4432e-09
-4.30641e-11
1.35278e-09
-3.989e-11
1.25337e-09
-3.61451e-11
1.14841e-09
-3.20399e-11
1.04074e-09
-2.7765e-11
9.32687e-10
-2.34869e-11
8.26096e-10
-1.93459e-11
7.22415e-10
-1.54563e-11
6.22743e-10
-1.19076e-11
5.27892e-10
-8.76643e-12
4.38427e-10
-6.07931e-12
3.54715e-10
-3.87511e-12
2.76956e-10
-2.16778e-12
2.0522e-10
-9.5891e-13
1.39471e-10
-2.40031e-13
7.95882e-11
2.53931e-11
-5.78903e-12
6.30038e-10
1.5638e-12
-1.17859e-11
9.57017e-10
-1.86346e-11
1.21078e-09
-2.55168e-11
1.39704e-09
-3.17844e-11
1.52304e-09
-3.69839e-11
1.59665e-09
-4.08488e-11
1.62583e-09
-4.32736e-11
1.61822e-09
-4.42797e-11
1.58089e-09
-4.39801e-11
1.5202e-09
-4.25466e-11
1.44176e-09
-4.01835e-11
1.35042e-09
-3.71059e-11
1.25029e-09
-3.35247e-11
1.14483e-09
-2.96363e-11
1.03685e-09
-2.56163e-11
9.28667e-10
-2.16159e-11
8.22096e-10
-1.77617e-11
7.18561e-10
-1.41553e-11
6.19137e-10
-1.0876e-11
5.24613e-10
-7.98217e-12
4.35533e-10
-5.514e-12
3.52246e-10
-3.4961e-12
2.74938e-10
-1.93989e-12
2.03664e-10
-8.45854e-13
1.38377e-10
-2.05723e-13
7.89481e-11
2.51874e-11
-5.03353e-12
6.33702e-10
1.37009e-12
-1.0204e-11
9.62187e-10
-1.60751e-11
1.21665e-09
-2.19336e-11
1.4029e-09
-2.72235e-11
1.52833e-09
-3.15649e-11
1.60099e-09
-3.47442e-11
1.62901e-09
-3.66875e-11
1.62017e-09
-3.74284e-11
1.58163e-09
-3.70752e-11
1.51985e-09
-3.57824e-11
1.44047e-09
-3.37275e-11
1.34837e-09
-3.10936e-11
1.24766e-09
-2.80577e-11
1.14179e-09
-2.47822e-11
1.03358e-09
-2.14108e-11
9.25295e-10
-1.80665e-11
8.18752e-10
-1.48511e-11
7.15345e-10
-1.18464e-11
6.16132e-10
-9.11557e-12
5.21882e-10
-6.70505e-12
4.33123e-10
-4.6469e-12
3.50188e-10
-2.96065e-12
2.73252e-10
-1.65542e-12
2.02359e-10
-7.31695e-13
1.37453e-10
-1.82956e-13
7.83993e-11
2.50045e-11
-3.93385e-12
6.36571e-10
1.06485e-12
-7.97998e-12
9.66233e-10
-1.2559e-11
1.22123e-09
-1.7109e-11
1.40745e-09
-2.11978e-11
1.53242e-09
-2.45361e-11
1.60433e-09
-2.69661e-11
1.63144e-09
-2.84389e-11
1.62164e-09
-2.89866e-11
1.58218e-09
-2.8697e-11
1.51956e-09
-2.76908e-11
1.43946e-09
-2.61045e-11
1.34678e-09
-2.40775e-11
1.24563e-09
-2.17435e-11
1.13946e-09
-1.92247e-11
1.03106e-09
-1.66297e-11
9.227e-10
-1.40513e-11
8.16173e-10
-1.1567e-11
7.12861e-10
-9.23967e-12
6.13805e-10
-7.11867e-12
5.19761e-10
-5.24116e-12
4.31245e-10
-3.63362e-12
3.48581e-10
-2.3134e-12
2.71932e-10
-1.28992e-12
2.01335e-10
-5.66049e-13
1.36729e-10
-1.39224e-13
7.79725e-11
2.48652e-11
-2.5515e-12
6.38427e-10
6.95446e-13
-5.16215e-12
9.68844e-10
-8.11388e-12
1.22418e-09
-1.10467e-11
1.41038e-09
-1.36856e-11
1.53506e-09
-1.58482e-11
1.60649e-09
-1.74359e-11
1.63303e-09
-1.84183e-11
1.62262e-09
-1.88153e-11
1.58258e-09
-1.86807e-11
1.51942e-09
-1.8088e-11
1.43887e-09
-1.71203e-11
1.34581e-09
-1.58625e-11
1.24438e-09
-1.43967e-11
1.13799e-09
-1.27985e-11
1.02946e-09
-1.11359e-11
9.21038e-10
-9.46813e-12
8.14506e-10
-7.84581e-12
7.11239e-10
-6.31121e-12
6.12271e-10
-4.89878e-12
5.18348e-10
-3.63577e-12
4.29982e-10
-2.54303e-12
3.47488e-10
-1.63565e-12
2.71024e-10
-9.23672e-13
2.00623e-10
-4.12779e-13
1.36218e-10
-1.0485e-13
7.76646e-11
2.47604e-11
-1.11825e-12
6.39244e-10
3.00961e-13
-2.27554e-12
9.70001e-10
-3.59257e-12
1.2255e-09
-4.91436e-12
1.41171e-09
-6.12319e-12
1.53627e-09
-7.14031e-12
1.60751e-09
-7.92147e-12
1.63381e-09
-8.44971e-12
1.62315e-09
-8.72802e-12
1.58285e-09
-8.77278e-12
1.51947e-09
-8.60866e-12
1.43871e-09
-8.26494e-12
1.34547e-09
-7.77294e-12
1.24388e-09
-7.16429e-12
1.13738e-09
-6.4699e-12
1.02877e-09
-5.71929e-12
9.20287e-10
-4.94009e-12
8.13726e-10
-4.15782e-12
7.10456e-10
-3.39572e-12
6.11508e-10
-2.67459e-12
5.17627e-10
-2.01274e-12
4.2932e-10
-1.426e-12
3.46901e-10
-9.27693e-13
2.70526e-10
-5.28686e-13
2.00224e-10
-2.37488e-13
1.35927e-10
-6.03366e-14
7.74874e-11
2.47001e-11
3.02285e-13
6.39023e-10
-8.17428e-14
6.06964e-13
9.69697e-10
9.37856e-13
1.22516e-09
1.24352e-12
1.4114e-09
1.48461e-12
1.53603e-09
1.6363e-12
1.60736e-09
1.68827e-12
1.63376e-09
1.6429e-12
1.6232e-09
1.51238e-12
1.58298e-09
1.31544e-12
1.51967e-09
1.07415e-12
1.43895e-09
8.11101e-13
1.34573e-09
5.47297e-13
1.24415e-09
3.00584e-13
1.13763e-09
8.47922e-14
1.02898e-09
-9.06672e-14
9.20463e-10
-2.2073e-13
8.13856e-10
-3.04347e-13
7.1054e-10
-3.43939e-13
6.11548e-10
-3.44751e-13
5.17628e-10
-3.14166e-13
4.2929e-10
-2.61041e-13
3.46848e-10
-1.95087e-13
2.7046e-10
-1.26329e-13
2.00156e-10
-6.4654e-14
1.35865e-10
-1.94299e-14
7.74422e-11
2.46806e-11
1.60442e-12
6.37857e-10
-4.37803e-13
3.24157e-12
9.68059e-10
5.08401e-12
1.22332e-09
6.89752e-12
1.40959e-09
8.50081e-12
1.53442e-09
9.77254e-12
1.60609e-09
1.06482e-11
1.63288e-09
1.11114e-11
1.62273e-09
1.11823e-11
1.58291e-09
1.09064e-11
1.51994e-09
1.03442e-11
1.43951e-09
9.56261e-12
1.34651e-09
8.62876e-12
1.24508e-09
7.60531e-12
1.13865e-09
6.54763e-12
1.03004e-09
5.50221e-12
9.21508e-10
4.50615e-12
8.14852e-10
3.58734e-12
7.11459e-10
2.76512e-12
6.1237e-10
2.05124e-12
5.18342e-10
1.45102e-12
4.2989e-10
9.64453e-13
3.47335e-10
5.87382e-13
2.70837e-10
3.12493e-13
2.0043e-10
1.30262e-13
1.36048e-10
2.97563e-14
7.75427e-11
2.47104e-11
2.7828e-12
6.35829e-10
-7.54678e-13
5.64755e-12
9.65195e-10
8.89866e-12
1.22007e-09
1.21381e-11
1.40635e-09
1.50545e-11
1.53151e-09
1.74344e-11
1.60371e-09
1.91571e-11
1.63116e-09
2.0181e-11
1.62171e-09
2.05259e-11
1.58257e-09
2.02548e-11
1.52021e-09
1.94581e-11
1.44031e-09
1.82399e-11
1.34773e-09
1.67081e-11
1.24661e-09
1.49667e-11
1.14039e-09
1.31107e-11
1.03189e-09
1.12233e-11
9.23395e-10
9.3746e-12
8.16701e-10
7.62102e-12
7.13212e-10
6.00604e-12
6.13985e-10
4.56121e-12
5.19787e-10
3.30744e-12
4.31144e-10
2.25652e-12
3.48386e-10
1.41262e-12
2.71681e-10
7.73693e-13
2.01069e-10
3.32836e-13
1.36488e-10
7.94904e-14
7.7796e-11
2.47899e-11
3.79165e-12
6.33065e-10
-1.02835e-12
7.70987e-12
9.61277e-10
1.21857e-11
1.2156e-09
1.66868e-11
1.40185e-09
2.0791e-11
1.5274e-09
2.42022e-11
1.6003e-09
2.67448e-11
1.62862e-09
2.83473e-11
1.62011e-09
2.90208e-11
1.5819e-09
2.8836e-11
1.5204e-09
2.79034e-11
1.44124e-09
2.63554e-11
1.34928e-09
2.43329e-11
1.24864e-09
2.19751e-11
1.14275e-09
1.94127e-11
1.03446e-09
1.67628e-11
9.26045e-10
1.4127e-11
8.19337e-10
1.15902e-11
7.15749e-10
9.22067e-12
6.16355e-10
7.0709e-12
5.21936e-10
5.17916e-12
4.33035e-10
3.5709e-12
3.49994e-10
2.26065e-12
2.72991e-10
1.25365e-12
2.02076e-10
5.47555e-13
1.37194e-10
1.33934e-13
7.82097e-11
2.49238e-11
4.60739e-12
6.29705e-10
-1.24648e-12
9.39279e-12
9.56491e-10
1.48905e-11
1.2101e-09
2.04619e-11
1.39628e-09
2.55946e-11
1.52227e-09
2.99216e-11
1.59597e-09
3.32169e-11
1.62532e-09
3.53777e-11
1.61794e-09
3.6401e-11
1.58087e-09
3.6358e-11
1.52044e-09
3.53702e-11
1.44223e-09
3.359e-11
1.35106e-09
3.11837e-11
1.25104e-09
2.83194e-11
1.14562e-09
2.51578e-11
1.03762e-09
2.18463e-11
9.29357e-10
1.85153e-11
8.22668e-10
1.52762e-11
7.18988e-10
1.22215e-11
6.1941e-10
9.42447e-12
5.24733e-10
6.94131e-12
4.35519e-10
4.8121e-12
3.52123e-10
3.06289e-12
2.7474e-10
1.70756e-12
2.03432e-10
7.49743e-13
1.38152e-10
1.84564e-13
7.87748e-11
2.51084e-11
5.16575e-12
6.25936e-10
-1.39677e-12
1.05486e-11
9.51108e-10
1.67617e-11
1.20388e-09
2.30983e-11
1.38994e-09
2.89847e-11
1.51638e-09
3.40029e-11
1.59095e-09
3.78871e-11
1.62144e-09
4.05075e-11
1.61532e-09
4.18449e-11
1.57954e-09
4.19649e-11
1.52032e-09
4.09926e-11
1.4432e-09
3.90904e-11
1.35296e-09
3.64406e-11
1.25369e-09
3.32306e-11
1.14883e-09
2.96426e-11
1.04121e-09
2.58464e-11
9.33153e-10
2.19947e-11
8.2652e-10
1.82204e-11
7.22763e-10
1.46357e-11
6.22994e-10
1.13315e-11
5.28038e-10
8.37931e-12
4.38471e-10
5.83247e-12
3.5467e-10
3.7277e-12
2.76845e-10
2.0873e-12
2.05072e-10
9.21107e-13
1.39318e-10
2.28417e-13
7.94675e-11
2.53368e-11
5.42088e-12
6.21978e-10
-1.46376e-12
1.10872e-11
9.45442e-10
1.76516e-11
1.19732e-09
2.43785e-11
1.38321e-09
3.06664e-11
1.51009e-09
3.60707e-11
1.58555e-09
4.03028e-11
1.61721e-09
4.3214e-11
1.61241e-09
4.47716e-11
1.57798e-09
4.5033e-11
1.52006e-09
4.41203e-11
1.44411e-09
4.21978e-11
1.35488e-09
3.94539e-11
1.25644e-09
3.60839e-11
1.1522e-09
3.22809e-11
1.04501e-09
2.8227e-11
9.37207e-10
2.40877e-11
8.30659e-10
2.0009e-11
7.26841e-10
1.61152e-11
6.26888e-10
1.25095e-11
5.31643e-10
9.27394e-12
4.41706e-10
6.47112e-12
3.57473e-10
4.14579e-12
2.79171e-10
2.3268e-12
2.06891e-10
1.02912e-12
1.40616e-10
2.55877e-13
8.02408e-11
2.55927e-11
5.33744e-12
6.18082e-10
-1.44086e-12
1.09261e-11
9.39853e-10
1.74168e-11
1.19083e-09
2.40902e-11
1.37654e-09
3.03543e-11
1.50383e-09
3.57688e-11
1.58013e-09
4.00415e-11
1.61293e-09
4.30174e-11
1.60944e-09
4.46558e-11
1.57634e-09
4.50055e-11
1.51971e-09
4.41805e-11
1.44494e-09
4.23381e-11
1.35673e-09
3.9661e-11
1.25911e-09
3.63418e-11
1.15552e-09
3.2572e-11
1.04878e-09
2.85335e-11
9.41245e-10
2.4393e-11
8.34799e-10
2.02983e-11
7.30936e-10
1.63763e-11
6.3081e-10
1.27337e-11
5.35286e-10
9.456e-12
4.44984e-10
6.60924e-12
3.60319e-10
4.24153e-12
2.81538e-10
2.38485e-12
2.08748e-10
1.05702e-12
1.41944e-10
2.63627e-13
8.10342e-11
2.58563e-11
4.94068e-12
6.14474e-10
-1.33292e-12
1.01207e-11
9.34673e-10
1.61452e-11
1.18481e-09
2.23505e-11
1.37033e-09
2.81885e-11
1.49799e-09
3.32481e-11
1.57507e-09
3.72562e-11
1.60893e-09
4.00649e-11
1.60663e-09
4.16322e-11
1.57477e-09
4.19993e-11
1.51934e-09
4.12691e-11
1.44567e-09
3.95853e-11
1.35841e-09
3.71153e-11
1.26158e-09
3.40385e-11
1.15859e-09
3.05331e-11
1.05229e-09
2.67689e-11
9.4501e-10
2.29021e-11
8.38666e-10
1.90718e-11
7.34766e-10
1.5398e-11
6.34484e-10
1.19814e-11
5.38703e-10
8.90333e-12
4.48062e-10
6.22696e-12
3.62996e-10
3.99863e-12
2.83767e-10
2.24955e-12
2.10497e-10
9.97561e-13
1.43196e-10
2.48943e-13
8.17828e-11
2.61052e-11
4.29982e-12
6.11335e-10
-1.16026e-12
8.80857e-12
9.30164e-10
1.40544e-11
1.17956e-09
1.94602e-11
1.36493e-09
2.45486e-11
1.4929e-09
2.89597e-11
1.57066e-09
3.24561e-11
1.60543e-09
3.49078e-11
1.60418e-09
3.62774e-11
1.5734e-09
3.66005e-11
1.51902e-09
3.5966e-11
1.4463e-09
3.44994e-11
1.35988e-09
3.23475e-11
1.26374e-09
2.96659e-11
1.16127e-09
2.66103e-11
1.05534e-09
2.3329e-11
9.48291e-10
1.99584e-11
8.42037e-10
1.66197e-11
7.38105e-10
1.34178e-11
6.37686e-10
1.04402e-11
5.4168e-10
7.758e-12
4.50744e-10
5.42599e-12
3.65328e-10
3.4845e-12
2.85708e-10
1.96061e-12
2.12021e-10
8.69725e-13
1.44287e-10
2.17227e-13
8.24353e-11
2.63225e-11
3.5286e-12
6.08758e-10
-9.52113e-13
7.22774e-12
9.26465e-10
1.15295e-11
1.17526e-09
1.59591e-11
1.3605e-09
2.01242e-11
1.48874e-09
2.37305e-11
1.56705e-09
2.65826e-11
1.60258e-09
2.85749e-11
1.60218e-09
2.96782e-11
1.5723e-09
2.9923e-11
1.51877e-09
2.93841e-11
1.44684e-09
2.81658e-11
1.3611e-09
2.63894e-11
1.26551e-09
2.41834e-11
1.16348e-09
2.16759e-11
1.05785e-09
1.89884e-11
9.50978e-10
1.62323e-11
8.44793e-10
1.35066e-11
7.40831e-10
1.08961e-11
6.40296e-10
8.47175e-12
5.44104e-10
6.29054e-12
4.52926e-10
4.39638e-12
3.67222e-10
2.8212e-12
2.87283e-10
1.58618e-12
2.13256e-10
7.03043e-13
1.4517e-10
1.75424e-13
8.29629e-11
2.64979e-11
2.74224e-12
6.06756e-10
-7.40302e-13
5.61428e-12
9.23593e-10
8.95036e-12
1.17192e-09
1.23804e-11
1.35707e-09
1.55989e-11
1.48552e-09
1.83778e-11
1.56428e-09
2.05663e-11
1.60039e-09
2.20844e-11
1.60067e-09
2.29116e-11
1.57147e-09
2.30738e-11
1.51861e-09
2.26312e-11
1.44728e-09
2.16663e-11
1.36206e-09
2.02746e-11
1.2669e-09
1.85566e-11
1.1652e-09
1.66117e-11
1.05979e-09
1.4534e-11
9.53056e-10
1.24093e-11
8.46918e-10
1.03131e-11
7.42927e-10
8.31005e-12
6.42299e-10
6.45373e-12
5.45961e-10
4.78683e-12
4.54592e-10
3.34196e-12
3.68667e-10
2.14247e-12
2.88483e-10
1.2035e-12
2.14195e-10
5.33046e-13
1.4584e-10
1.32951e-13
8.3363e-11
2.66308e-11
2.03392e-12
6.05271e-10
-5.49205e-13
4.16198e-12
9.21465e-10
6.63042e-12
1.16945e-09
9.16335e-12
1.35453e-09
1.15339e-11
1.48315e-09
1.35732e-11
1.56224e-09
1.5171e-11
1.59879e-09
1.62698e-11
1.59957e-09
1.68562e-11
1.57089e-09
1.69516e-11
1.51852e-09
1.66024e-11
1.44763e-09
1.58712e-11
1.36279e-09
1.48298e-11
1.26794e-09
1.3553e-11
1.16647e-09
1.21146e-11
1.06123e-09
1.05839e-11
9.54587e-10
9.02347e-12
8.48478e-10
7.48846e-12
7.44462e-10
6.02554e-12
6.43762e-10
4.67305e-12
5.47313e-10
3.46135e-12
4.55804e-10
2.41331e-12
3.69715e-10
1.54506e-12
2.89351e-10
8.66728e-13
2.14873e-10
3.83318e-13
1.46324e-10
9.5434e-14
8.36509e-11
2.67263e-11
1.45149e-12
6.04212e-10
-3.9218e-13
2.96821e-12
9.19948e-10
4.72493e-12
1.1677e-09
6.52396e-12
1.35274e-09
8.20322e-12
1.48147e-09
9.64275e-12
1.5608e-09
1.07648e-11
1.59767e-09
1.15296e-11
1.5988e-09
1.19293e-11
1.57049e-09
1.19804e-11
1.51847e-09
1.17173e-11
1.4479e-09
1.11855e-11
1.36332e-09
1.04369e-11
1.26869e-09
9.52496e-12
1.16739e-09
8.50229e-12
1.06225e-09
7.41785e-12
9.55671e-10
6.31579e-12
8.4958e-10
5.23458e-12
7.45543e-10
4.20666e-12
6.4479e-10
3.25847e-12
5.48261e-10
2.41076e-12
4.56652e-10
1.67896e-12
3.70447e-10
1.0738e-12
2.89956e-10
6.01815e-13
2.15345e-10
2.65959e-13
1.4666e-10
6.61862e-14
8.38507e-11
2.67925e-11
1.00701e-12
6.03477e-10
-2.72098e-13
2.05846e-12
9.18897e-10
3.27474e-12
1.16648e-09
4.51817e-12
1.35149e-09
5.67617e-12
1.48031e-09
6.66585e-12
1.55981e-09
7.43385e-12
1.5969e-09
7.95345e-12
1.59828e-09
8.22001e-12
1.57022e-09
8.24588e-12
1.51844e-09
8.05552e-12
1.44809e-09
7.68109e-12
1.3637e-09
7.15876e-12
1.26922e-09
6.52586e-12
1.16802e-09
5.81866e-12
1.06296e-09
5.07091e-12
9.56419e-10
4.31286e-12
8.50338e-10
3.57075e-12
7.46285e-10
2.86658e-12
6.45494e-10
2.21819e-12
5.4891e-10
1.63946e-12
4.57231e-10
1.14066e-12
3.70946e-10
7.28783e-13
2.90368e-10
4.08009e-13
2.15666e-10
1.80086e-13
1.46888e-10
4.47381e-14
8.3986e-11
2.68372e-11
6.84594e-13
6.02978e-10
-1.85095e-13
1.39872e-12
9.18183e-10
2.22399e-12
1.16565e-09
3.06662e-12
1.35065e-09
3.85008e-12
1.47953e-09
4.51818e-12
1.55914e-09
5.03499e-12
1.59638e-09
5.38276e-12
1.59794e-09
5.55876e-12
1.57004e-09
5.5718e-12
1.51843e-09
5.43882e-12
1.44822e-09
5.1819e-12
1.36395e-09
4.82575e-12
1.26957e-09
4.39575e-12
1.16845e-09
3.91647e-12
1.06344e-09
3.41072e-12
9.56925e-10
2.89886e-12
8.5085e-10
2.39848e-12
7.46786e-10
1.92429e-12
6.45968e-10
1.48817e-12
5.49346e-10
1.09932e-12
4.57619e-10
7.64492e-13
3.7128e-10
4.88251e-13
2.90644e-10
2.73272e-13
2.15881e-10
1.20611e-13
1.4704e-10
2.99752e-14
8.40767e-11
2.68672e-11
4.59858e-13
6.02642e-10
-1.24295e-13
9.39463e-13
9.17703e-10
1.49337e-12
1.1651e-09
2.05847e-12
1.35008e-09
2.58333e-12
1.479e-09
3.03026e-12
1.55869e-09
3.37529e-12
1.59604e-09
3.60667e-12
1.5977e-09
3.72276e-12
1.56993e-09
3.72964e-12
1.51842e-09
3.63883e-12
1.44831e-09
3.46524e-12
1.36413e-09
3.22553e-12
1.26981e-09
2.93673e-12
1.16874e-09
2.61534e-12
1.06376e-09
2.2766e-12
9.57264e-10
1.93409e-12
8.51193e-10
1.59956e-12
7.4712e-10
1.28278e-12
6.46285e-10
9.91639e-13
5.49637e-10
7.32216e-13
4.57879e-10
5.08969e-13
3.71504e-10
3.24896e-13
2.90828e-10
1.81732e-13
2.16024e-10
8.01395e-14
1.47142e-10
1.98887e-14
8.41369e-11
2.68871e-11
3.06428e-13
6.02419e-10
-8.28857e-14
6.25793e-13
9.17384e-10
9.94516e-13
1.16473e-09
1.37051e-12
1.34971e-09
1.71953e-12
1.47865e-09
2.01651e-12
1.55839e-09
2.24552e-12
1.59581e-09
2.39882e-12
1.59755e-09
2.47537e-12
1.56985e-09
2.47929e-12
1.51842e-09
2.4183e-12
1.44837e-09
2.30236e-12
1.36424e-09
2.14258e-12
1.26997e-09
1.9503e-12
1.16893e-09
1.73649e-12
1.06398e-09
1.51128e-12
9.57489e-10
1.28369e-12
8.5142e-10
1.06148e-12
7.47343e-10
8.51153e-13
6.46496e-10
6.57906e-13
5.4983e-10
4.85761e-13
4.58051e-10
3.37654e-13
3.71652e-10
2.15556e-13
2.9095e-10
1.206e-13
2.16119e-10
5.32105e-14
1.47209e-10
1.32207e-14
8.41769e-11
2.69003e-11
2.0385e-13
6.0227e-10
-5.50911e-14
4.16452e-13
9.17171e-10
6.61784e-13
1.16449e-09
9.1189e-13
1.34946e-09
1.14397e-12
1.47842e-09
1.34135e-12
1.5582e-09
1.49347e-12
1.59566e-09
1.59518e-12
1.59745e-09
1.64584e-12
1.5698e-09
1.6482e-12
1.51841e-09
1.60742e-12
1.44841e-09
1.53014e-12
1.36432e-09
1.42375e-12
1.27008e-09
1.29581e-12
1.16906e-09
1.15359e-12
1.06412e-09
1.00384e-12
9.57638e-10
8.52552e-13
8.51571e-10
7.04878e-13
7.4749e-10
5.65121e-13
6.46635e-10
4.3674e-13
5.49959e-10
3.22399e-13
4.58165e-10
2.24042e-13
3.7175e-10
1.42977e-13
2.91031e-10
7.99507e-14
2.16182e-10
3.52426e-14
1.47254e-10
8.74001e-15
8.42034e-11
2.6909e-11
1.3498e-13
6.02171e-10
-3.65044e-14
2.75647e-13
9.17031e-10
4.38017e-13
1.16432e-09
6.03542e-13
1.34929e-09
7.57131e-13
1.47827e-09
8.87758e-13
1.55807e-09