/*--------------------------------*- C++ -*----------------------------------*\
| =========                 |                                                 |
| \\      /  F ield         | OpenFOAM: The Open Source CFD Toolbox           |
|  \\    /   O peration     | Version:  2106                                  |
|   \\  /    A nd           | Website:  www.openfoam.com                      |
|    \\/     M anipulation  |                                                 |
\*---------------------------------------------------------------------------*/
FoamFile
{
    version     2.0;
    format      ascii;
    arch        "LSB;label=32;scalar=64";
    class       volScalarField;
    location    "80.00032";
    object      Qdot;
}
// * * * * * * * * * * * * * * * * * * * * * * * * * * * * * * * * * * * * * //

dimensions      [1 -1 -3 0 0 0 0];

internalField   nonuniform List<scalar> 
3360
(
-5.05711e-14
-5.21617e-14
-5.43752e-14
-5.70826e-14
-6.01713e-14
-6.35399e-14
-6.70967e-14
-7.07593e-14
-7.44541e-14
-7.81161e-14
-8.1689e-14
-8.51251e-14
-8.8385e-14
-9.1437e-14
-9.42575e-14
-9.68297e-14
-9.91433e-14
-1.01194e-13
-1.02982e-13
-1.04514e-13
-1.05798e-13
-1.06846e-13
-1.07675e-13
-1.083e-13
-1.08739e-13
-1.09013e-13
-1.0914e-13
-2.17955e-13
-2.25925e-13
-2.37172e-13
-2.51178e-13
-2.67515e-13
-2.85808e-13
-3.05722e-13
-3.26953e-13
-3.49214e-13
-3.72238e-13
-3.95765e-13
-4.19545e-13
-4.43329e-13
-4.66872e-13
-4.89935e-13
-5.12281e-13
-5.33679e-13
-5.53902e-13
-5.72738e-13
-5.89983e-13
-6.05453e-13
-6.18984e-13
-6.30436e-13
-6.39698e-13
-6.46688e-13
-6.51355e-13
-6.53683e-13
-6.81513e-13
-7.11378e-13
-7.53814e-13
-8.07138e-13
-8.69953e-13
-9.41003e-13
-1.01909e-12
-1.10305e-12
-1.19168e-12
-1.28377e-12
-1.37808e-12
-1.47337e-12
-1.56842e-12
-1.66203e-12
-1.75302e-12
-1.84029e-12
-1.92283e-12
-1.99969e-12
-2.0701e-12
-2.13338e-12
-2.18902e-12
-2.23667e-12
-2.27612e-12
-2.3073e-12
-2.33028e-12
-2.34527e-12
-2.35257e-12
-1.98296e-12
-2.08141e-12
-2.22225e-12
-2.40043e-12
-2.61175e-12
-2.85227e-12
-3.11803e-12
-3.40496e-12
-3.70876e-12
-4.02492e-12
-4.3488e-12
-4.67564e-12
-5.00076e-12
-5.31955e-12
-5.62768e-12
-5.92115e-12
-6.19642e-12
-6.45048e-12
-6.68092e-12
-6.88591e-12
-7.06426e-12
-7.21535e-12
-7.33909e-12
-7.43586e-12
-7.50647e-12
-7.55205e-12
-7.57402e-12
-5.79307e-12
-6.10379e-12
-6.54911e-12
-7.11385e-12
-7.78509e-12
-8.55043e-12
-9.39714e-12
-1.03117e-11
-1.12797e-11
-1.22859e-11
-1.33147e-11
-1.43502e-11
-1.53768e-11
-1.63798e-11
-1.73454e-11
-1.82612e-11
-1.91167e-11
-1.9903e-11
-2.06134e-11
-2.12431e-11
-2.17889e-11
-2.22498e-11
-2.26261e-11
-2.29196e-11
-2.31331e-11
-2.32707e-11
-2.33368e-11
-1.70867e-11
-1.80415e-11
-1.94119e-11
-2.11512e-11
-2.32199e-11
-2.55794e-11
-2.81899e-11
-3.1009e-11
-3.39913e-11
-3.70892e-11
-4.02534e-11
-4.34344e-11
-4.65839e-11
-4.9656e-11
-5.26086e-11
-5.54043e-11
-5.80111e-11
-6.04031e-11
-6.25604e-11
-6.44691e-11
-6.61213e-11
-6.75142e-11
-6.86498e-11
-6.95344e-11
-7.01773e-11
-7.0591e-11
-7.07899e-11
-5.0803e-11
-5.3709e-11
-5.78795e-11
-6.3174e-11
-6.94711e-11
-7.66528e-11
-8.45965e-11
-9.31714e-11
-1.02238e-10
-1.1165e-10
-1.21256e-10
-1.30906e-10
-1.40453e-10
-1.49759e-10
-1.58696e-10
-1.67153e-10
-1.75034e-10
-1.82262e-10
-1.88779e-10
-1.94542e-10
-1.99531e-10
-2.03736e-10
-2.07165e-10
-2.09836e-10
-2.1178e-10
-2.13032e-10
-2.13637e-10
-1.51687e-10
-1.60458e-10
-1.73054e-10
-1.89055e-10
-2.08095e-10
-2.2982e-10
-2.5386e-10
-2.79817e-10
-3.0727e-10
-3.35774e-10
-3.64872e-10
-3.94105e-10
-4.2303e-10
-4.51226e-10
-4.78309e-10
-5.03938e-10
-5.27825e-10
-5.49735e-10
-5.69492e-10
-5.86972e-10
-6.02105e-10
-6.14869e-10
-6.25285e-10
-6.33411e-10
-6.39335e-10
-6.4317e-10
-6.4505e-10
-4.54888e-10
-4.81409e-10
-5.195e-10
-5.67897e-10
-6.25511e-10
-6.91276e-10
-7.64079e-10
-8.42725e-10
-9.25941e-10
-1.01238e-09
-1.10067e-09
-1.18943e-09
-1.2773e-09
-1.36301e-09
-1.4454e-09
-1.52344e-09
-1.59623e-09
-1.66307e-09
-1.72341e-09
-1.77687e-09
-1.82322e-09
-1.86239e-09
-1.89444e-09
-1.91953e-09
-1.93792e-09
-1.94996e-09
-1.95603e-09
-1.36829e-09
-1.4486e-09
-1.56404e-09
-1.71083e-09
-1.88574e-09
-2.08561e-09
-2.30712e-09
-2.5467e-09
-2.80053e-09
-3.06457e-09
-3.33464e-09
-3.60653e-09
-3.87612e-09
-4.13952e-09
-4.39312e-09
-4.63373e-09
-4.85859e-09
-5.06546e-09
-5.25262e-09
-5.41882e-09
-5.56335e-09
-5.68591e-09
-5.78663e-09
-5.86599e-09
-5.92475e-09
-5.96391e-09
-5.98469e-09
-4.13862e-09
-4.38373e-09
-4.73629e-09
-5.1851e-09
-5.7206e-09
-6.33344e-09
-7.01381e-09
-7.7511e-09
-8.53385e-09
-9.34983e-09
-1.01864e-08
-1.10306e-08
-8.61476e-08
-8.69697e-08
-8.77635e-08
-8.85188e-08
-8.92269e-08
-8.98806e-08
-9.04742e-08
-9.10036e-08
-9.15741e-08
-9.19687e-08
7.49373e-08
7.46772e-08
7.44815e-08
7.43473e-08
7.4271e-08
-8.68852e-08
-8.76409e-08
-8.87294e-08
-9.01178e-08
-9.18858e-08
7.3442e-08
7.1321e-08
6.90155e-08
6.65595e-08
6.39902e-08
6.13464e-08
5.87158e-08
-1.82833e-08
-2.09132e-08
-2.34634e-08
-2.59011e-08
-2.81975e-08
-3.03282e-08
-3.22739e-08
-3.41277e-08
1.31568e-07
1.30246e-07
1.2914e-07
1.28246e-07
1.27606e-07
1.27117e-07
1.26815e-07
-2.02781e-08
-2.26488e-08
-2.60704e-08
-3.04458e-08
1.3143e-07
5.11071e-08
4.43489e-08
3.69694e-08
2.9119e-08
1.13613e-07
1.05023e-07
2.19936e-08
1.32091e-08
1.71641e-07
8.8883e-08
8.07247e-08
7.29878e-08
-8.62768e-09
1.51952e-07
1.45931e-07
1.40629e-07
6.16469e-08
5.76939e-08
5.44408e-08
5.1873e-08
4.99662e-08
4.86884e-08
8.28261e-09
1.67955e-07
8.26141e-08
-5.80381e-09
1.44278e-07
5.01601e-08
1.20926e-07
1.8939e-07
8.87338e-08
1.53921e-07
1.43461e-07
2.06566e-07
2.69331e-07
3.3218e-07
1.54123e-07
2.18358e-07
2.83839e-07
3.50885e-07
2.52638e-07
3.23565e-07
3.96814e-07
3.04998e-07
2.90047e-07
3.70244e-07
3.6006e-07
3.52132e-07
2.7209e-07
2.60428e-07
2.53727e-07
3.09917e-07
2.81188e-07
4.09571e-07
4.54069e-07
4.15438e-07
4.42923e-07
5.55987e-07
4.95717e-07
5.97577e-07
6.21463e-07
7.17517e-07
7.38485e-07
7.60345e-07
8.59775e-07
9.61699e-07
1.03142e-06
1.18129e-06
1.13368e-06
1.16796e-06
1.21029e-06
1.25872e-06
1.2253e-06
1.20043e-06
1.25836e-06
1.32448e-06
7.17553e-07
8.34854e-07
8.37554e-07
9.89281e-07
1.12163e-06
1.1442e-06
1.3903e-06
1.62522e-06
1.75611e-06
1.87913e-06
2.14713e-06
2.32288e-06
2.65443e-06
2.79193e-06
3.02111e-06
3.31031e-06
3.53266e-06
3.8295e-06
3.97771e-06
4.22387e-06
4.36724e-06
4.52155e-06
4.61449e-06
4.81538e-06
4.86254e-06
5.01677e-06
5.0149e-06
2.48184e-06
2.70537e-06
2.92789e-06
3.30422e-06
3.68503e-06
4.15175e-06
4.77611e-06
5.4899e-06
6.18392e-06
7.02398e-06
7.9432e-06
8.85066e-06
9.80002e-06
1.07244e-05
1.17159e-05
1.27452e-05
1.36712e-05
1.46229e-05
1.55306e-05
1.6378e-05
1.71946e-05
1.79767e-05
1.86435e-05
1.91782e-05
1.97552e-05
2.00755e-05
2.04375e-05
9.25545e-06
9.89358e-06
1.09732e-05
1.22185e-05
1.39982e-05
1.59141e-05
1.83686e-05
2.10106e-05
2.39691e-05
2.73473e-05
3.10128e-05
3.47644e-05
3.88661e-05
4.30191e-05
4.7324e-05
5.1715e-05
5.60197e-05
6.02471e-05
6.43254e-05
6.82291e-05
7.18516e-05
7.53069e-05
7.83634e-05
8.11731e-05
8.36377e-05
8.58333e-05
8.77102e-05
3.584e-05
3.8626e-05
4.28035e-05
4.84206e-05
5.5555e-05
6.40248e-05
7.40597e-05
8.56476e-05
9.86908e-05
0.000113235
0.00012924
0.000146247
0.000164406
0.000183318
0.000202796
0.00022244
0.000242175
0.000261583
0.000280461
0.000298601
0.000315689
0.000331633
0.000346407
0.000359757
0.000371665
0.000382113
0.000391086
0.000149607
0.00016199
0.000180489
0.00020518
0.000236356
0.000274266
0.000319169
0.00037118
0.000430377
0.000496299
0.00056847
0.0006465
0.000729257
0.000815713
0.000904738
0.000995013
0.00108538
0.00117455
0.0012613
0.00134477
0.00142386
0.00149787
0.00156614
0.00162834
0.00168421
0.00173346
0.0017761
0.000671425
0.000728131
0.000812848
0.000926135
0.00106926
0.00124346
0.00144983
0.00168853
0.0019593
0.00226056
0.00258992
0.00294389
0.00331809
0.00370773
0.00410705
0.00451073
0.004913
0.00530863
0.0056925
0.00606037
0.00640838
0.00673354
0.00703349
0.00730668
0.00755194
0.00776895
0.00795782
0.00318558
0.00345135
0.00384791
0.00437641
0.00504067
0.00584459
0.00679006
0.00787581
0.00909656
0.0104425
0.0118998
0.0134506
0.015074
0.0167474
0.0184467
0.0201485
0.0218298
0.0234699
0.02505
0.0265542
0.0279696
0.0292859
0.0304959
0.0315951
0.0325811
0.0334539
0.0342152
0.0154725
0.0167105
0.018547
0.0209757
0.0240005
0.0276224
0.0318325
0.0366072
0.0419061
0.0476719
0.0538331
0.0603066
0.0670022
0.073827
0.0806891
0.0875013
0.0941835
0.100665
0.106886
0.112796
0.118356
0.123538
0.128287
0.13223
0.135728
0.138791
0.141435
0.0734561
0.0789973
0.0871719
0.0979099
0.111185
0.126969
0.145207
0.165807
0.188644
0.213566
0.240411
0.267472
0.294532
0.321781
0.348833
0.375332
0.400958
0.425433
0.448528
0.470058
0.489886
0.507917
0.524097
0.538407
0.55086
0.561494
0.570373
0.329565
0.353982
0.389904
0.434876
0.490122
0.555337
0.630109
0.713873
0.80589
0.905265
1.01097
1.12186
1.23674
1.35434
1.47336
1.5925
1.71045
1.82592
1.93767
2.04452
2.14538
2.23925
2.3253
2.4028
2.4712
2.53012
2.5793
1.34164
1.43218
1.565
1.73844
1.95169
2.20418
2.49513
2.82332
3.18676
3.58256
4.00665
4.45374
4.91732
5.38986
5.86322
6.32914
6.77979
7.20838
7.60947
7.97926
8.31556
8.61768
8.88619
9.12258
9.32899
9.50793
9.66206
5.27882
5.61469
6.10301
6.73176
7.48909
8.35996
9.32423
10.3561
11.4249
12.4977
13.5427
14.5326
15.4475
16.2761
17.0148
17.6665
18.2383
18.7394
19.1801
19.57
19.918
20.2318
20.5181
20.7822
21.0283
21.2599
21.4796
18.4893
19.258
20.3185
21.592
23.0029
24.4809
25.9658
27.4115
28.7882
30.0812
31.2882
32.4157
33.4753
34.4815
35.4511
36.3953
37.3254
38.2507
39.1779
40.1115
41.0537
42.0051
42.9645
43.9299
44.8981
45.8658
46.829
41.9441
42.927
44.2755
45.8954
47.7101
49.6637
51.7198
53.8516
56.0491
58.3125
60.6483
63.066
65.576
68.1868
70.9041
73.7297
76.6616
79.6934
82.8154
86.015
89.2771
92.5853
95.9221
99.2699
102.612
105.931
109.212
76.1056
77.8394
80.289
83.3475
86.9348
90.9922
95.479
100.368
105.642
111.287
117.291
123.64
130.315
137.294
144.545
152.034
159.721
167.561
175.509
183.518
191.543
199.538
207.461
215.275
222.944
230.437
237.73
132.545
136.122
141.232
147.695
155.373
164.157
173.951
184.671
196.235
208.561
221.561
235.142
249.205
263.646
278.356
293.228
308.153
323.029
337.757
352.248
366.42
380.202
393.534
406.366
418.657
430.38
441.513
225.785
232.326
241.662
253.443
267.384
283.233
300.758
319.734
339.938
361.147
383.136
405.681
428.559
451.556
474.465
497.095
519.269
540.83
561.645
581.592
600.581
618.538
635.412
651.168
665.791
679.277
691.636
363.771
373.626
387.613
405.13
425.663
448.747
473.944
500.838
529.029
558.132
587.78
617.621
647.342
676.631
705.228
732.897
759.437
784.682
808.492
830.741
851.38
870.364
887.677
903.322
917.324
929.727
940.583
539.723
552.031
569.386
590.936
615.937
643.718
673.651
705.163
737.723
770.838
804.064
836.999
869.285
900.571
930.62
959.209
986.161
1011.34
1034.65
1056.04
1075.47
1092.94
1108.49
1122.15
1134
1144.09
1152.52
733.822
746.955
765.365
788.046
814.12
842.795
873.362
905.144
937.575
970.142
1002.39
1033.94
1064.46
1093.68
1121.38
1147.4
1171.62
1193.97
1214.38
1232.86
1249.41
1264.07
1276.89
1287.95
1297.31
1305.08
1311.34
923.345
935.726
952.987
974.105
998.179
1024.41
1052.08
1080.57
1109.34
1137.92
1165.93
1193.03
1218.99
1243.59
1266.68
1288.17
1307.98
1326.08
1342.47
1357.17
1370.22
1381.66
1391.56
1400.01
1407.06
1412.82
1417.37
1090.85
1101.39
1116.03
1133.84
1154.01
1175.81
1198.62
1221.92
1245.23
1268.19
1290.49
1311.89
1332.21
1351.31
1369.11
1385.53
1400.57
1414.22
1426.49
1437.43
1447.07
1455.47
1462.71
1468.83
1473.91
1478.03
1481.25
1227.15
1235.45
1246.92
1260.81
1276.45
1293.25
1310.71
1328.41
1346
1363.2
1379.79
1395.59
1410.49
1424.4
1437.28
1449.1
1459.86
1469.57
1478.25
1485.96
1492.72
1498.59
1503.63
1507.87
1511.39
1514.23
1516.44
1330.85
1336.97
1345.4
1355.57
1366.96
1379.14
1391.72
1404.4
1416.93
1429.1
1440.76
1451.82
1462.18
1471.8
1480.66
1488.75
1496.08
1502.67
1508.54
1513.73
1518.27
1522.2
1525.56
1528.39
1530.73
1532.62
1534.09
1405.47
1409.74
1415.61
1422.67
1430.54
1438.92
1447.53
1456.17
1464.66
1472.86
1480.69
1488.06
1494.94
1501.3
1507.12
1512.42
1517.2
1521.48
1525.27
1528.62
1531.54
1534.06
1536.22
1538.03
1539.52
1540.72
1541.66
1456.69
1459.53
1463.42
1468.08
1473.27
1478.76
1484.38
1489.99
1495.48
1500.75
1505.76
1510.45
1514.8
1518.8
1522.45
1525.75
1528.72
1531.36
1533.7
1535.75
1537.53
1539.06
1540.37
1541.46
1542.36
1543.09
1543.65
1490.43
1492.22
1494.67
1497.6
1500.84
1504.25
1507.73
1511.18
1514.53
1517.73
1520.75
1523.56
1526.15
1528.51
1530.65
1532.57
1534.28
1535.8
1537.13
1538.28
1539.28
1540.14
1540.86
1541.46
1541.95
1542.34
1542.64
1511.78
1512.84
1514.28
1515.99
1517.88
1519.85
1521.84
1523.8
1525.69
1527.47
1529.12
1530.65
1532.03
1533.28
1534.4
1535.38
1536.25
1537
1537.65
1538.2
1538.67
1539.06
1539.39
1539.65
1539.86
1540.02
1540.13
1524.7
1525.26
1526.02
1526.91
1527.88
1528.87
1529.86
1530.81
1531.71
1532.54
1533.28
1533.95
1534.53
1535.03
1535.46
1535.82
1536.12
1536.36
1536.56
1536.71
1536.82
1536.9
1536.96
1536.99
1537
1537.01
1536.99
1532.08
1532.31
1532.6
1532.95
1533.3
1533.65
1533.97
1534.26
1534.5
1534.7
1534.84
1534.94
1534.99
1535
1534.98
1534.92
1534.85
1534.75
1534.64
1534.53
1534.4
1534.28
1534.15
1534.03
1533.92
1533.81
1533.71
1535.9
1535.91
1535.91
1535.89
1535.84
1535.77
1535.66
1535.51
1535.32
1535.1
1534.86
1534.58
1534.29
1533.98
1533.66
1533.34
1533.01
1532.7
1532.39
1532.09
1531.81
1531.55
1531.31
1531.08
1530.88
1530.7
1530.54
1537.51
1537.37
1537.18
1536.93
1536.63
1536.27
1535.88
1535.45
1534.99
1534.51
1534
1533.49
1532.97
1532.46
1531.95
1531.45
1530.97
1530.51
1530.07
1529.66
1529.27
1528.92
1528.59
1528.3
1528.04
1527.8
1527.6
1537.78
1537.56
1537.24
1536.84
1536.37
1535.85
1535.27
1534.66
1534.03
1533.37
1532.71
1532.04
1531.38
1530.73
1530.1
1529.49
1528.91
1528.35
1527.83
1527.34
1526.89
1526.48
1526.1
1525.76
1525.46
1525.19
1524.96
1537.28
1537
1536.61
1536.11
1535.54
1534.91
1534.22
1533.5
1532.75
1531.99
1531.23
1530.46
1529.71
1528.98
1528.27
1527.59
1526.94
1526.32
1525.75
1525.21
1524.72
1524.26
1523.85
1523.48
1523.15
1522.86
1522.6
1536.37
1536.05
1535.61
1535.06
1534.42
1533.72
1532.96
1532.17
1531.36
1530.53
1529.7
1528.88
1528.07
1527.28
1526.53
1525.8
1525.11
1524.46
1523.85
1523.28
1522.76
1522.28
1521.84
1521.45
1521.1
1520.79
1520.52
1535.25
1534.92
1534.44
1533.86
1533.18
1532.44
1531.64
1530.81
1529.95
1529.08
1528.22
1527.36
1526.52
1525.7
1524.91
1524.15
1523.44
1522.76
1522.13
1521.54
1521
1520.5
1520.05
1519.64
1519.28
1518.96
1518.68
1534.06
1533.71
1533.22
1532.62
1531.92
1531.15
1530.33
1529.47
1528.59
1527.7
1526.81
1525.93
1525.07
1524.23
1523.42
1522.65
1521.92
1521.23
1520.58
1519.98
1519.42
1518.92
1518.45
1518.04
1517.67
1517.34
1517.05
1532.87
1532.51
1532.01
1531.39
1530.68
1529.9
1529.07
1528.2
1527.3
1526.4
1525.49
1524.6
1523.72
1522.87
1522.06
1521.27
1520.53
1519.83
1519.18
1518.57
1518
1517.49
1517.02
1516.59
1516.22
1515.88
1515.59
1531.7
1531.34
1530.84
1530.21
1529.5
1528.71
1527.86
1526.98
1526.08
1525.17
1524.26
1523.36
1522.48
1521.62
1520.79
1520.01
1519.26
1518.55
1517.89
1517.27
1516.7
1516.18
1515.71
1515.28
1514.9
1514.56
1514.26
1530.57
1530.21
1529.7
1529.08
1528.36
1527.56
1526.72
1525.83
1524.93
1524.01
1523.09
1522.19
1521.3
1520.44
1519.61
1518.82
1518.07
1517.36
1516.69
1516.07
1515.5
1514.97
1514.49
1514.06
1513.67
1513.33
1513.03
1529.48
1529.11
1528.6
1527.98
1527.25
1526.46
1525.61
1524.72
1523.81
1522.89
1521.97
1521.07
1520.18
1519.31
1518.48
1517.68
1516.93
1516.21
1515.54
1514.92
1514.34
1513.82
1513.33
1512.9
1512.51
1512.16
1511.85
1528.4
1528.04
1527.52
1526.89
1526.17
1525.37
1524.52
1523.63
1522.72
1521.8
1520.88
1519.97
1519.07
1518.21
1517.37
1516.57
1515.81
1515.09
1514.42
1513.79
1513.21
1512.68
1512.2
1511.76
1511.36
1511.01
1510.7
1527.32
1526.95
1526.44
1525.8
1525.08
1524.28
1523.42
1522.53
1521.62
1520.69
1519.77
1518.85
1517.96
1517.08
1516.25
1515.44
1514.68
1513.96
1513.28
1512.65
1512.07
1511.53
1511.04
1510.6
1510.2
1509.85
1509.54
1526.19
1525.83
1525.31
1524.68
1523.95
1523.14
1522.28
1521.39
1520.47
1519.54
1518.61
1517.69
1516.79
1515.91
1515.07
1514.26
1513.49
1512.76
1512.08
1511.45
1510.86
1510.32
1509.83
1509.38
1508.98
1508.63
1508.31
1525
1524.63
1524.11
1523.47
1522.74
1521.93
1521.06
1520.16
1519.23
1518.29
1517.36
1516.43
1515.52
1514.64
1513.79
1512.98
1512.2
1511.47
1510.78
1510.14
1509.55
1509.01
1508.51
1508.06
1507.65
1507.29
1506.98
1523.69
1523.32
1522.79
1522.15
1521.4
1520.58
1519.71
1518.8
1517.86
1516.91
1515.97
1515.03
1514.11
1513.22
1512.36
1511.54
1510.76
1510.02
1509.33
1508.68
1508.08
1507.53
1507.03
1506.57
1506.16
1505.8
1505.48
1522.21
1521.83
1521.3
1520.64
1519.89
1519.06
1518.17
1517.25
1516.3
1515.34
1514.38
1513.43
1512.5
1511.6
1510.72
1509.89
1509.1
1508.35
1507.65
1506.99
1506.39
1505.83
1505.32
1504.86
1504.45
1504.08
1503.75
1520.5
1520.11
1519.57
1518.9
1518.13
1517.29
1516.38
1515.44
1514.47
1513.5
1512.52
1511.55
1510.61
1509.69
1508.8
1507.95
1507.14
1506.38
1505.67
1505
1504.39
1503.82
1503.31
1502.84
1502.42
1502.05
1501.72
1518.48
1518.08
1517.52
1516.84
1516.05
1515.19
1514.26
1513.3
1512.3
1511.3
1510.3
1509.31
1508.35
1507.41
1506.5
1505.63
1504.81
1504.03
1503.3
1502.62
1501.99
1501.42
1500.89
1500.42
1499.99
1499.61
1499.28
1516.05
1515.64
1515.07
1514.36
1513.55
1512.66
1511.7
1510.71
1509.69
1508.66
1507.63
1506.61
1505.61
1504.65
1503.71
1502.82
1501.98
1501.18
1500.43
1499.73
1499.09
1498.5
1497.96
1497.47
1497.04
1496.65
1496.31
1513.11
1512.68
1512.09
1511.35
1510.51
1509.58
1508.59
1507.56
1506.5
1505.43
1504.36
1503.31
1502.28
1501.27
1500.31
1499.39
1498.51
1497.69
1496.92
1496.2
1495.54
1494.93
1494.38
1493.88
1493.43
1493.03
1492.69
1509.51
1509.07
1508.44
1507.67
1506.79
1505.82
1504.78
1503.7
1502.59
1501.47
1500.36
1499.25
1498.18
1497.13
1496.13
1495.17
1494.26
1493.4
1492.6
1491.85
1491.17
1490.54
1489.96
1489.45
1488.99
1488.58
1488.22
1505.09
1504.62
1503.96
1503.15
1502.21
1501.18
1500.09
1498.95
1497.78
1496.6
1495.42
1494.26
1493.13
1492.03
1490.97
1489.96
1489.01
1488.11
1487.27
1486.49
1485.77
1485.12
1484.52
1483.98
1483.5
1483.08
1482.71
1499.64
1499.14
1498.43
1497.56
1496.57
1495.47
1494.3
1493.08
1491.84
1490.58
1489.33
1488.09
1486.89
1485.72
1484.6
1483.53
1482.52
1481.57
1480.69
1479.86
1479.11
1478.42
1477.79
1477.23
1476.73
1476.29
1475.91
1492.92
1492.38
1491.62
1490.68
1489.6
1488.42
1487.16
1485.85
1484.5
1483.15
1481.8
1480.48
1479.18
1477.93
1476.73
1475.59
1474.51
1473.5
1472.55
1471.68
1470.88
1470.14
1469.48
1468.89
1468.36
1467.9
1467.5
1484.63
1484.04
1483.21
1482.18
1481.01
1479.72
1478.35
1476.92
1475.46
1473.99
1472.53
1471.09
1469.68
1468.33
1467.03
1465.8
1464.63
1463.54
1462.52
1461.59
1460.72
1459.94
1459.23
1458.6
1458.04
1457.55
1457.13
1474.43
1473.77
1472.85
1471.73
1470.43
1469.01
1467.5
1465.93
1464.32
1462.71
1461.1
1459.53
1457.99
1456.51
1455.09
1453.75
1452.48
1451.29
1450.19
1449.17
1448.24
1447.39
1446.63
1445.95
1445.35
1444.82
1444.37
1461.89
1461.16
1460.14
1458.88
1457.44
1455.86
1454.18
1452.44
1450.66
1448.87
1447.09
1445.35
1443.65
1442.01
1440.45
1438.97
1437.57
1436.27
1435.06
1433.94
1432.92
1432
1431.17
1430.43
1429.78
1429.22
1428.73
1446.55
1445.72
1444.58
1443.17
1441.55
1439.78
1437.9
1435.94
1433.95
1431.95
1429.96
1428.01
1426.12
1424.3
1422.56
1420.91
1419.37
1417.92
1416.58
1415.35
1414.23
1413.21
1412.3
1411.49
1410.78
1410.17
1409.64
1427.84
1426.91
1425.61
1424.02
1422.19
1420.19
1418.07
1415.86
1413.61
1411.36
1409.12
1406.93
1404.81
1402.77
1400.82
1398.97
1397.24
1395.63
1394.13
1392.76
1391.51
1390.39
1389.38
1388.49
1387.71
1387.03
1386.46
1405.16
1404.1
1402.62
1400.81
1398.73
1396.46
1394.05
1391.55
1389
1386.45
1383.92
1381.44
1379.04
1376.73
1374.54
1372.46
1370.51
1368.7
1367.02
1365.49
1364.09
1362.83
1361.71
1360.71
1359.85
1359.1
1358.47
1377.82
1376.61
1374.92
1372.85
1370.48
1367.89
1365.14
1362.3
1359.4
1356.49
1353.62
1350.81
1348.09
1345.48
1342.99
1340.64
1338.44
1336.39
1334.5
1332.78
1331.2
1329.79
1328.53
1327.42
1326.45
1325.62
1324.91
1345.09
1343.71
1341.78
1339.41
1336.71
1333.75
1330.61
1327.36
1324.06
1320.76
1317.49
1314.29
1311.2
1308.23
1305.41
1302.75
1300.26
1297.94
1295.81
1293.86
1292.09
1290.49
1289.07
1287.82
1286.74
1285.8
1285.02
1306.23
1304.65
1302.44
1299.74
1296.65
1293.28
1289.7
1286
1282.24
1278.48
1274.76
1271.13
1267.62
1264.25
1261.06
1258.04
1255.22
1252.6
1250.19
1247.98
1245.98
1244.18
1242.58
1241.17
1239.95
1238.9
1238.01
1260.51
1258.71
1256.2
1253.13
1249.61
1245.77
1241.71
1237.5
1233.23
1228.96
1224.75
1220.64
1216.66
1212.85
1209.24
1205.83
1202.64
1199.68
1196.96
1194.47
1192.22
1190.19
1188.39
1186.8
1185.42
1184.23
1183.24
1207.31
1205.27
1202.43
1198.94
1194.96
1190.62
1186.02
1181.27
1176.45
1171.64
1166.88
1162.25
1157.77
1153.48
1149.42
1145.58
1142
1138.68
1135.62
1132.82
1130.29
1128.01
1125.99
1124.2
1122.65
1121.32
1120.19
1146.14
1143.85
1140.65
1136.74
1132.27
1127.4
1122.24
1116.92
1111.52
1106.13
1100.81
1095.63
1090.63
1085.84
1081.3
1077.02
1073.03
1069.32
1065.91
1062.79
1059.96
1057.42
1055.16
1053.16
1051.42
1049.93
1048.66
1076.81
1074.26
1070.7
1066.35
1061.39
1055.97
1050.25
1044.35
1038.37
1032.4
1026.52
1020.79
1015.26
1009.97
1004.95
1000.23
995.817
991.725
987.956
984.511
981.385
978.573
976.064
973.848
971.912
970.241
968.821
999.462
996.66
992.754
987.978
982.535
976.604
970.34
963.88
957.34
950.819
944.398
938.145
932.116
926.351
920.884
915.739
910.932
906.472
902.362
898.603
895.19
892.114
889.365
886.931
884.798
882.95
881.372
914.726
911.695
907.474
902.315
896.44
890.042
883.293
876.338
869.303
862.293
855.397
848.685
842.217
836.035
830.174
824.659
819.505
814.722
810.312
806.274
802.602
799.288
796.319
793.683
791.364
789.346
787.611
823.771
820.553
816.074
810.604
804.38
797.609
790.472
783.126
775.702
768.312
761.048
753.985
747.181
740.684
734.526
728.733
723.32
718.295
713.66
709.412
705.544
702.045
698.902
696.101
693.626
691.46
689.584
728.373
725.033
720.389
714.725
708.287
701.291
693.926
686.353
678.708
671.106
663.641
656.387
649.404
642.738
636.422
630.478
624.921
619.759
614.992
610.616
606.624
603.005
599.744
596.827
594.237
591.957
589.968
631.072
627.687
622.981
617.246
610.733
603.664
596.23
588.597
580.901
573.256
565.757
558.478
551.476
544.795
538.467
532.513
526.946
521.77
516.987
512.59
508.572
504.919
501.618
498.654
496.01
493.667
491.608
534.385
531.04
526.395
520.739
514.324
507.372
500.072
492.587
485.052
477.452
470.132
463.036
456.219
449.721
443.571
437.787
432.379
427.352
422.702
418.424
414.508
410.941
407.71
404.797
402.188
399.863
397.806
441.063
437.856
433.405
427.994
421.867
415.237
408.289
401.178
394.034
386.961
380.044
373.349
366.925
360.81
355.026
349.591
344.511
339.788
335.418
331.393
327.704
324.337
321.279
318.513
316.023
313.794
311.809
354.29
351.314
347.189
342.182
336.524
330.413
324.024
317.499
310.959
304.499
298.195
292.107
286.276
280.734
275.502
270.59
266.003
261.741
257.798
254.167
250.835
247.79
245.019
242.506
240.237
238.197
236.37
276.474
273.812
270.129
265.666
260.633
255.213
249.56
243.803
238.05
232.383
226.87
221.559
216.487
211.678
207.147
202.902
198.945
195.273
191.88
188.756
185.89
183.271
180.885
178.719
176.758
174.99
173.402
209.528
207.243
204.087
200.271
195.98
191.372
186.583
181.723
176.883
172.134
167.53
163.111
158.905
154.931
151.199
147.713
144.472
141.472
138.705
136.162
133.833
131.707
129.771
128.013
126.422
124.986
123.694
154.509
152.635
150.052
146.938
143.447
139.713
135.847
131.941
128.068
124.285
120.635
117.147
113.843
110.734
107.827
105.123
102.619
100.31
98.188
96.2443
94.4692
92.8527
91.3846
90.0546
88.8529
87.7697
86.7959
111.501
110.039
108.029
105.614
102.917
100.045
97.0859
94.111
91.1769
88.3264
85.5908
82.9915
80.5424
78.251
76.1198
74.1478
72.3312
70.6642
69.1399
67.7504
66.4874
65.3426
64.3074
63.3738
62.5339
61.7801
61.1054
79.6278
78.5468
77.0645
75.2896
73.3161
71.2241
69.0796
66.9355
64.8329
62.8019
60.8642
59.034
57.3197
55.7251
54.2506
52.894
51.6515
50.5177
49.4868
48.5524
47.708
46.947
46.263
45.65
45.1021
44.6138
44.18
57.225
56.4646
55.4246
54.1832
52.808
51.3563
49.8748
48.4003
46.9608
45.5768
44.2621
43.0257
41.8724
40.8038
39.8194
38.9171
38.0935
37.3448
36.6664
36.0537
35.5021
35.007
34.564
34.1688
33.8174
33.5061
33.2314
42.1376
41.6194
40.9114
40.0672
39.1332
38.1482
37.1436
36.1441
35.1679
34.2282
33.334
32.4906
31.701
30.9659
30.3009
29.7187
29.184
28.6951
28.25
27.8462
27.4813
27.1526
26.8577
26.5941
26.3595
26.1516
25.9684
32.1022
31.7433
31.2514
30.6623
30.0064
29.3406
28.6713
27.9997
27.3381
26.6954
26.0777
25.4892
24.9322
24.4081
23.9171
23.4592
23.0335
22.6392
22.2749
21.9396
21.6318
21.3503
21.0937
20.8607
20.6502
20.4609
20.2918
25.3294
25.078
24.7318
24.3146
23.8468
23.3457
22.8252
22.2968
21.7693
21.2493
20.7419
20.2505
19.778
19.326
18.8961
18.4892
18.1102
17.7575
17.4282
17.1223
16.8394
16.5792
16.3412
16.1247
15.929
15.7534
15.5969
20.2952
20.0896
19.8045
19.4581
19.0655
18.64
18.1925
17.7324
17.2747
16.8181
16.3673
15.9265
15.4993
15.0887
14.697
14.3262
13.9775
13.6516
13.3488
13.0691
12.812
12.577
12.3633
12.17
11.9961
11.8406
11.7026
16.1838
16.0039
15.7532
15.4465
15.0968
14.7155
14.3128
13.8977
13.4782
13.0609
12.6515
12.2543
11.873
11.51
11.1671
10.8454
10.5453
10.267
10.0102
9.77439
9.55897
9.3631
9.18589
9.02641
8.8837
8.75682
8.64483
12.6931
12.5301
12.3038
12.0284
11.7165
11.3794
11.0266
10.6666
10.3062
9.95103
9.60548
9.27295
8.95595
8.65624
8.37495
8.11273
7.86976
7.64595
7.44092
7.25411
7.08483
6.93231
6.79573
6.67424
6.567
6.47315
6.39191
9.78215
9.64468
9.45457
9.22441
8.96521
8.68656
8.39668
8.10247
7.80961
7.52265
7.24515
6.97979
6.72848
6.49253
6.2727
6.06936
5.88252
5.71197
5.5573
5.41796
5.29331
5.18263
5.08518
5.00023
4.92703
4.86294
4.80864
7.48761
7.37708
7.22457
7.0405
6.834
6.61297
6.38416
6.15317
5.92456
5.70189
5.48792
5.28466
5.09351
4.9154
4.75081
4.59993
4.46267
4.3367
4.22309
4.12265
4.03419
3.95669
3.89014
3.8338
3.78694
3.74891
3.7191
5.7426
5.6567
5.53845
5.39618
5.23714
5.0676
4.89287
4.71731
4.54442
4.37693
4.21692
4.06451
3.92062
3.78809
3.66636
3.55551
3.45579
3.3668
3.28806
3.21905
3.15925
3.10814
3.06519
3.02988
3.00173
2.98026
2.96505
4.44968
4.38463
4.29524
4.18794
4.06834
3.94126
3.80855
3.67586
3.54608
3.42043
3.30087
3.18863
3.0843
2.98822
2.9005
2.82109
2.74984
2.68651
2.63079
2.58234
2.54054
2.50471
2.47523
2.45169
2.43373
2.42071
2.41231
3.5031
3.45396
3.38658
3.30555
3.21521
3.11948
3.02139
2.9234
2.8274
2.73487
2.64687
2.56414
2.48718
2.41625
2.35147
2.29258
2.23913
2.19179
2.15033
2.11451
2.08336
2.05742
2.03638
2.01995
2.00782
1.99972
1.99538
2.81106
2.77433
2.72391
2.66347
2.59617
2.52472
2.45137
2.37796
2.30592
2.23634
2.17003
2.10701
2.04798
1.9936
1.94398
1.89887
1.85809
1.82203
1.79052
1.76336
1.74032
1.72119
1.70574
1.69375
1.68501
1.67931
1.67645
2.30306
2.27524
2.23703
2.19116
2.14001
2.0856
2.02963
1.97274
1.91682
1.86281
1.81136
1.76273
1.71698
1.67485
1.63643
1.60171
1.57064
1.54311
1.51901
1.49819
1.48049
1.46574
1.45377
1.44442
1.43753
1.43294
1.4305
1.92235
1.90055
1.87061
1.83467
1.7946
1.75199
1.70818
1.66412
1.62038
1.57816
1.53795
1.50011
1.46488
1.43239
1.40271
1.37584
1.35175
1.33036
1.31158
1.2953
1.28139
1.26973
1.26019
1.25264
1.24696
1.24302
1.24071
1.62905
1.6121
1.58865
1.5603
1.52869
1.49511
1.4606
1.42603
1.39208
1.35927
1.32801
1.29856
1.27111
1.24578
1.22261
1.20161
1.18275
1.16598
1.15121
1.13836
1.12734
1.11804
1.11037
1.10421
1.09948
1.09608
1.09391
1.40079
1.38734
1.36886
1.34667
1.32193
1.29563
1.26859
1.24149
1.21487
1.18913
1.1646
1.14149
1.11994
1.10004
1.08184
1.06532
1.05047
1.03725
1.02558
1.01541
1.00665
0.999217
0.993039
0.988033
0.984121
0.981229
0.979288
1.2223
1.21167
1.19706
1.17952
1.15996
1.13916
1.11778
1.09635
1.0753
1.05495
1.03556
1.01729
1.00026
0.984526
0.970129
0.957067
0.945317
0.934842
0.925591
0.917506
0.910527
0.904588
0.899624
0.895573
0.89237
0.889959
0.888284
1.08109
1.07261
1.06096
1.04696
1.03136
1.01478
0.997728
0.980644
0.963866
0.947654
0.932203
0.917649
0.904083
0.891557
0.880094
0.869692
0.860332
0.851984
0.844606
0.838152
0.832572
0.827813
0.823823
0.820551
0.817947
0.815964
0.814558
0.968001
0.961178
0.951803
0.940548
0.927999
0.914659
0.90095
0.887216
0.873731
0.860704
0.84829
0.836601
0.825707
0.815649
0.806446
0.798095
0.79058
0.783877
0.777952
0.772766
0.768279
0.764449
0.761232
0.758588
0.756476
0.754858
0.753698
0.876456
0.870921
0.863317
0.854189
0.844012
0.833196
0.822082
0.810951
0.800022
0.789468
0.779412
0.769945
0.761124
0.752982
0.745533
0.738775
0.732695
0.727273
0.72248
0.718286
0.714656
0.711558
0.708955
0.706814
0.705101
0.703787
0.70284
0.801875
0.797356
0.791147
0.783696
0.77539
0.766564
0.757498
0.748419
0.739509
0.730906
0.722713
0.715002
0.70782
0.701193
0.695133
0.689638
0.684696
0.680291
0.676399
0.672995
0.670051
0.667539
0.66543
0.663696
0.662309
0.661244
0.660477
0.741891
0.73819
0.733107
0.727009
0.720215
0.713
0.705592
0.69818
0.690912
0.6839
0.677227
0.670954
0.665116
0.659736
0.65482
0.650367
0.646368
0.642805
0.639661
0.636914
0.63454
0.632516
0.630817
0.629421
0.628305
0.627448
0.626829
0.699264
0.696201
0.691996
0.686955
0.681345
0.675395
0.669295
0.663202
0.657237
0.651494
0.646041
0.640925
0.636176
0.631809
0.627829
0.624232
0.621008
0.618143
0.61562
0.613418
0.611518
0.609898
0.608539
0.60742
0.606522
0.605828
0.605319
-4.97866e-14
-2.14066e-13
-6.66976e-13
-1.9354e-12
-5.64295e-12
-1.66265e-11
-4.94012e-11
-1.47461e-10
-4.42105e-10
-1.32961e-09
-4.0206e-09
-8.65218e-08
-1.91391e-08
1.2039e-08
2.72448e-07
6.6618e-07
2.48358e-06
8.86586e-06
3.43877e-05
0.000143833
0.000644816
0.00306057
0.0148883
0.0708321
0.318056
1.29859
5.11833
18.1104
41.4565
75.2608
130.815
222.62
358.987
533.724
727.398
917.27
1085.66
1223.06
1327.83
1403.35
1455.28
1489.54
1511.25
1524.42
1531.96
1535.89
1537.57
1537.89
1537.42
1536.52
1535.42
1534.24
1533.04
1531.88
1530.75
1529.66
1528.58
1527.5
1526.37
1525.18
1523.87
1522.4
1520.69
1518.67
1516.25
1513.32
1509.73
1505.32
1499.89
1493.19
1484.93
1474.75
1462.25
1446.95
1428.3
1405.68