/*--------------------------------*- C++ -*----------------------------------*\
| =========                 |                                                 |
| \\      /  F ield         | OpenFOAM: The Open Source CFD Toolbox           |
|  \\    /   O peration     | Version:  2212                                  |
|   \\  /    A nd           | Website:  www.openfoam.com                      |
|    \\/     M anipulation  |                                                 |
\*---------------------------------------------------------------------------*/
FoamFile
{
    version     2.0;
    format      ascii;
    arch        "LSB;label=32;scalar=64";
    class       volScalarField;
    location    "9.0545968";
    object      A2_0;
}
// * * * * * * * * * * * * * * * * * * * * * * * * * * * * * * * * * * * * * //

dimensions      [0 0 0 0 0 0 0];

internalField   nonuniform List<scalar> 
33600
(
3.23272e-28
3.3267e-28
3.46864e-28
3.65822e-28
3.89584e-28
4.18236e-28
4.51902e-28
4.90731e-28
5.34893e-28
5.84569e-28
6.39943e-28
7.01195e-28
7.68486e-28
8.41951e-28
9.21682e-28
1.00772e-27
1.10002e-27
1.19846e-27
1.30279e-27
1.41261e-27
1.52736e-27
1.64622e-27
1.76802e-27
1.89084e-27
2.01076e-27
2.11901e-27
2.19388e-27
1.04325e-27
1.07368e-27
1.11964e-27
1.18102e-27
1.25797e-27
1.35076e-27
1.45979e-27
1.58557e-27
1.72863e-27
1.88959e-27
2.06904e-27
2.26757e-27
2.48572e-27
2.72394e-27
2.98255e-27
3.26168e-27
3.56123e-27
3.88079e-27
4.21957e-27
4.57631e-27
4.94918e-27
5.33567e-27
5.73242e-27
6.13506e-27
6.53581e-27
6.92031e-27
7.22807e-27
1.91947e-27
1.9758e-27
2.06088e-27
2.1745e-27
2.31695e-27
2.48874e-27
2.69065e-27
2.92359e-27
3.18864e-27
3.4869e-27
3.81955e-27
4.18771e-27
4.59242e-27
5.03459e-27
5.51487e-27
6.03366e-27
6.59093e-27
7.18621e-27
7.81846e-27
8.48604e-27
9.18666e-27
9.91743e-27
1.06743e-26
1.14514e-26
1.22331e-26
1.29806e-26
1.355e-26
2.97174e-27
3.05969e-27
3.19251e-27
3.36991e-27
3.59233e-27
3.86064e-27
4.17606e-27
4.54009e-27
4.95444e-27
5.42095e-27
5.9415e-27
6.51798e-27
7.15219e-27
7.84571e-27
8.59987e-27
9.41564e-27
1.02935e-26
1.12336e-26
1.22353e-26
1.32977e-26
1.4419e-26
1.55968e-26
1.68258e-26
1.80937e-26
1.93649e-26
2.05495e-26
2.13986e-26
4.22192e-27
4.34817e-27
4.53884e-27
4.79354e-27
5.11294e-27
5.49834e-27
5.9516e-27
6.47496e-27
7.071e-27
7.74252e-27
8.49245e-27
9.32377e-27
1.02394e-26
1.1242e-26
1.23343e-26
1.35184e-26
1.47961e-26
1.6169e-26
1.76382e-26
1.92041e-26
2.08661e-26
2.2621e-26
2.44576e-26
2.63473e-26
2.82159e-26
2.98983e-26
3.10398e-26
5.69441e-27
5.86679e-27
6.12714e-27
6.47496e-27
6.91128e-27
7.43798e-27
8.05774e-27
8.77382e-27
9.59e-27
1.05104e-26
1.15394e-26
1.26817e-26
1.39418e-26
1.53244e-26
1.6834e-26
1.84751e-26
2.0252e-26
2.21687e-26
2.42288e-26
2.64345e-26
2.8785e-26
3.12726e-26
3.38726e-26
3.65262e-26
3.91018e-26
4.13454e-26
4.28016e-26
7.41672e-27
7.64437e-27
7.98821e-27
8.44771e-27
9.02434e-27
9.72082e-27
1.05409e-26
1.14893e-26
1.25714e-26
1.37931e-26
1.51611e-26
1.66822e-26
1.83636e-26
2.02129e-26
2.22377e-26
2.4446e-26
2.68455e-26
2.94438e-26
3.22473e-26
3.52591e-26
3.84755e-26
4.18778e-26
4.5417e-26
4.89884e-26
5.23888e-26
5.52669e-26
5.70713e-26
9.42016e-27
9.71376e-27
1.01573e-26
1.07502e-26
1.14946e-26
1.23945e-26
1.34549e-26
1.46826e-26
1.60852e-26
1.76712e-26
1.94501e-26
2.14323e-26
2.36286e-26
2.60507e-26
2.87108e-26
3.16215e-26
3.47952e-26
3.82438e-26
4.19756e-26
4.5993e-26
5.02839e-26
5.48104e-26
5.94867e-26
6.41481e-26
6.85066e-26
7.21085e-26
7.43069e-26
1.17406e-26
1.21127e-26
1.26748e-26
1.34267e-26
1.43713e-26
1.55141e-26
1.68624e-26
1.84253e-26
2.02135e-26
2.22392e-26
2.45159e-26
2.70587e-26
2.98835e-26
3.30077e-26
3.64494e-26
4.02274e-26
4.43597e-26
4.8862e-26
5.37439e-26
5.90026e-26
6.46115e-26
7.05031e-26
7.65419e-26
8.24894e-26
8.79612e-26
9.23951e-26
9.50459e-26
1.44195e-26
1.48846e-26
1.55876e-26
1.65284e-26
1.77114e-26
1.9144e-26
2.08363e-26
2.28009e-26
2.50527e-26
2.76085e-26
3.04876e-26
3.37111e-26
3.73018e-26
4.12846e-26
4.56852e-26
5.05297e-26
5.58423e-26
6.1642e-26
6.7937e-26
7.47141e-26
8.19242e-26
8.94588e-26
9.71193e-26
1.04579e-25
1.11347e-25
1.16744e-25
1.19919e-25
1.75049e-26
1.80802e-26
1.89501e-26
2.01152e-26
2.15815e-26
2.33593e-26
2.54623e-26
2.79078e-26
3.07161e-26
3.39105e-26
3.75174e-26
4.1566e-26
4.60883e-26
5.11183e-26
5.6691e-26
6.2841e-26
6.95988e-26
7.69855e-26
8.50038e-26
9.36242e-26
1.02765e-25
1.12265e-25
1.21847e-25
1.31084e-25
1.39364e-25
1.45881e-25
1.49665e-25
2.10525e-26
2.17581e-26
2.28256e-26
2.42565e-26
2.60592e-26
2.82477e-26
3.08407e-26
3.38613e-26
3.73369e-26
4.12993e-26
4.57843e-26
5.08314e-26
5.64838e-26
6.27869e-26
6.9787e-26
7.75278e-26
8.60458e-26
9.53618e-26
1.05468e-25
1.16312e-25
1.27768e-25
1.39607e-25
1.51461e-25
1.62784e-25
1.72831e-25
1.80654e-25
1.85149e-25
2.51273e-26
2.59869e-26
2.7288e-26
2.90336e-26
3.12355e-26
3.39122e-26
3.70889e-26
4.07965e-26
4.50716e-26
4.99565e-26
5.54989e-26
6.17516e-26
6.87714e-26
7.66174e-26
8.53488e-26
9.50193e-26
1.0567e-25
1.17319e-25
1.29943e-25
1.43454e-25
1.57673e-25
1.72289e-25
1.86823e-25
2.00597e-25
2.12711e-25
2.2206e-25
2.27387e-25
2.98052e-26
3.08464e-26
3.24237e-26
3.45417e-26
3.72165e-26
4.04732e-26
4.43448e-26
4.88722e-26
5.41036e-26
6.00949e-26
6.69086e-26
7.46134e-26
8.3283e-26
9.29928e-26
1.03816e-25
1.15818e-25
1.29042e-25
1.435e-25
1.59143e-25
1.75843e-25
1.93348e-25
2.11251e-25
2.28946e-25
2.45597e-25
2.60133e-25
2.71267e-25
2.77567e-25
3.51747e-26
3.64302e-26
3.83334e-26
4.08917e-26
4.41268e-26
4.80717e-26
5.27698e-26
5.82743e-26
6.46484e-26
7.19643e-26
8.03032e-26
8.97532e-26
1.00408e-25
1.12362e-25
1.25705e-25
1.40512e-25
1.56829e-25
1.74653e-25
1.93907e-25
2.14404e-25
2.35809e-25
2.57598e-25
2.79013e-25
2.99043e-25
3.16417e-25
3.29642e-25
3.37081e-25
4.13392e-26
4.28472e-26
4.5135e-26
4.82136e-26
5.21118e-26
5.68728e-26
6.25528e-26
6.92209e-26
7.69582e-26
8.58576e-26
9.60227e-26
1.07565e-25
1.20603e-25
1.35251e-25
1.51618e-25
1.6979e-25
1.89809e-25
2.11657e-25
2.35213e-25
2.60222e-25
2.86246e-25
3.1262e-25
3.38415e-25
3.62412e-25
3.83113e-25
3.98786e-25
4.07559e-25
4.84194e-26
5.02249e-26
5.29663e-26
5.66593e-26
6.13418e-26
6.70697e-26
7.39154e-26
8.19672e-26
9.13287e-26
1.02118e-25
1.14465e-25
1.28511e-25
1.44401e-25
1.62275e-25
1.82262e-25
2.04456e-25
2.28897e-25
2.55538e-25
2.84209e-25
3.14566e-25
3.4605e-25
3.77832e-25
4.08778e-25
4.37433e-25
4.62036e-25
4.80578e-25
4.90914e-25
5.65564e-26
5.87122e-26
6.19882e-26
6.64063e-26
7.20159e-26
7.88886e-26
8.71166e-26
9.68121e-26
1.08106e-25
1.21147e-25
1.36097e-25
1.53132e-25
1.72428e-25
1.94156e-25
2.18464e-25
2.45456e-25
2.75161e-25
3.07501e-25
3.42237e-25
3.78925e-25
4.16855e-25
4.55007e-25
4.9201e-25
5.26134e-25
5.55311e-25
5.77215e-25
5.89381e-25
6.59149e-26
6.84831e-26
7.2389e-26
7.76625e-26
8.43671e-26
9.25939e-26
1.0246e-25
1.14105e-25
1.27695e-25
1.43415e-25
1.61465e-25
1.82061e-25
2.05417e-25
2.31737e-25
2.61191e-25
2.93891e-25
3.29853e-25
3.68953e-25
4.10872e-25
4.5504e-25
5.00573e-25
5.46224e-25
5.90345e-25
6.30887e-25
6.65428e-25
6.91271e-25
7.05581e-25
7.66873e-26
7.97407e-26
8.43884e-26
9.06704e-26
9.86676e-26
1.08495e-25
1.20299e-25
1.34257e-25
1.50571e-25
1.69472e-25
1.91208e-25
2.16039e-25
2.44225e-25
2.76005e-25
3.11576e-25
3.51055e-25
3.94437e-25
4.41543e-25
4.91955e-25
5.44951e-25
5.99442e-25
6.53915e-25
7.064e-25
7.54473e-25
7.95304e-25
8.25763e-25
8.42583e-25
8.90983e-26
9.27224e-26
9.82434e-26
1.05714e-25
1.15236e-25
1.26954e-25
1.41051e-25
1.57745e-25
1.77289e-25
1.99964e-25
2.26074e-25
2.55935e-25
2.89855e-25
3.28118e-25
3.70946e-25
4.18461e-25
4.70629e-25
5.27202e-25
5.87642e-25
6.51047e-25
7.16086e-25
7.80931e-25
8.43238e-25
9.00147e-25
9.48352e-25
9.84219e-25
1.00398e-24
1.0341e-25
1.07706e-25
1.14254e-25
1.23124e-25
1.34444e-25
1.48394e-25
1.65199e-25
1.85131e-25
2.08498e-25
2.35644e-25
2.6694e-25
3.02762e-25
3.43482e-25
3.89429e-25
4.40854e-25
4.9788e-25
5.60437e-25
6.28191e-25
7.00459e-25
7.76128e-25
8.53575e-25
9.30611e-25
1.00445e-24
1.07172e-24
1.12857e-24
1.17077e-24
1.19398e-24
1.1993e-25
1.25014e-25
1.32772e-25
1.43289e-25
1.56728e-25
1.73309e-25
1.93313e-25
2.1707e-25
2.44958e-25
2.77396e-25
3.14829e-25
3.57711e-25
4.06481e-25
4.61522e-25
5.23117e-25
5.91385e-25
6.66212e-25
7.47156e-25
8.33364e-25
9.23468e-25
1.01551e-24
1.10686e-24
1.19423e-24
1.27366e-24
1.34064e-24
1.39027e-24
1.4175e-24
1.39015e-25
1.45026e-25
1.54205e-25
1.66661e-25
1.82595e-25
2.02279e-25
2.26055e-25
2.54328e-25
2.87558e-25
3.2625e-25
3.70941e-25
4.22173e-25
4.80461e-25
5.46252e-25
6.19862e-25
7.01406e-25
7.90706e-25
8.87198e-25
9.89819e-25
1.0969e-24
1.20609e-24
1.31426e-24
1.41751e-24
1.51119e-24
1.59004e-24
1.64836e-24
1.68032e-24
1.61084e-25
1.68184e-25
1.79033e-25
1.9377e-25
2.12641e-25
2.35979e-25
2.64203e-25
2.97804e-25
3.37339e-25
3.83417e-25
4.3668e-25
4.97774e-25
5.67306e-25
6.45791e-25
7.33582e-25
8.30782e-25
9.37143e-25
1.05194e-24
1.17388e-24
1.30093e-24
1.43026e-24
1.55817e-24
1.68004e-24
1.79043e-24
1.88319e-24
1.9517e-24
1.98918e-24
1.86625e-25
1.95004e-25
2.07816e-25
2.25234e-25
2.47559e-25
2.75201e-25
3.08665e-25
3.48546e-25
3.95516e-25
4.50309e-25
5.13688e-25
5.86421e-25
6.69219e-25
7.62678e-25
8.6719e-25
9.82842e-25
1.10929e-24
1.24564e-24
1.39029e-24
1.5408e-24
1.69378e-24
1.84485e-24
1.98857e-24
2.11855e-24
2.2276e-24
2.30803e-24
2.35199e-24
2.16209e-25
2.26089e-25
2.41207e-25
2.61776e-25
2.88164e-25
3.20868e-25
3.60501e-25
4.07781e-25
4.63515e-25
5.28579e-25
6.03887e-25
6.90342e-25
7.88781e-25
8.99888e-25
1.0241e-24
1.16148e-24
1.31157e-24
1.47327e-24
1.64461e-24
1.82267e-24
2.00342e-24
2.18165e-24
2.35098e-24
2.50391e-24
2.63206e-24
2.72645e-24
2.77799e-24
2.50501e-25
2.62144e-25
2.79969e-25
3.04239e-25
3.35403e-25
3.74062e-25
4.20954e-25
4.76944e-25
5.42998e-25
6.20164e-25
7.09524e-25
8.12147e-25
9.29009e-25
1.0609e-24
1.2083e-24
1.37125e-24
1.54915e-24
1.74063e-24
1.94333e-24
2.15374e-24
2.36707e-24
2.57717e-24
2.77652e-24
2.95634e-24
3.10685e-24
3.21759e-24
3.278e-24
2.90281e-25
3.03991e-25
3.24994e-25
3.53612e-25
3.90388e-25
4.36046e-25
4.91476e-25
5.57713e-25
6.35914e-25
7.27325e-25
8.33229e-25
9.54886e-25
1.09344e-24
1.24979e-24
1.42448e-24
1.61749e-24
1.82808e-24
2.05456e-24
2.29408e-24
2.54246e-24
2.79401e-24
3.04146e-24
3.27599e-24
3.48732e-24
3.66401e-24
3.7939e-24
3.86469e-24
3.36457e-25
3.52593e-25
3.77325e-25
4.11048e-25
4.54414e-25
5.08298e-25
5.73764e-25
6.52052e-25
7.4454e-25
8.5271e-25
9.78081e-25
1.12213e-24
1.2862e-24
1.47132e-24
1.67809e-24
1.90644e-24
2.15543e-24
2.42301e-24
2.70576e-24
2.99868e-24
3.29505e-24
3.5863e-24
3.86206e-24
4.11029e-24
4.31764e-24
4.46994e-24
4.55288e-24
3.90091e-25
4.09073e-25
4.38181e-25
4.77894e-25
5.28999e-25
5.92544e-25
6.69803e-25
7.62254e-25
8.7154e-25
9.99416e-25
1.14768e-24
1.31806e-24
1.51213e-24
1.73107e-24
1.97554e-24
2.24541e-24
2.5395e-24
2.85533e-24
3.18879e-24
3.53396e-24
3.88288e-24
4.22546e-24
4.54951e-24
4.84097e-24
5.08423e-24
5.26276e-24
5.35992e-24
4.52425e-25
4.74744e-25
5.08985e-25
5.55727e-25
6.15915e-25
6.90803e-25
7.81914e-25
8.91006e-25
1.02003e-24
1.17107e-24
1.34623e-24
1.54757e-24
1.77688e-24
2.03556e-24
2.32432e-24
2.64294e-24
2.98998e-24
3.36242e-24
3.75538e-24
4.16182e-24
4.57233e-24
4.97505e-24
5.35569e-24
5.69777e-24
5.98306e-24
6.1923e-24
6.3061e-24
5.24908e-25
5.5114e-25
5.914e-25
6.46387e-25
7.17234e-25
8.05437e-25
9.1281e-25
1.04144e-24
1.19365e-24
1.3719e-24
1.57867e-24
1.81636e-24
2.08709e-24
2.39243e-24
2.73319e-24
3.10904e-24
3.51821e-24
3.95707e-24
4.4198e-24
4.89807e-24
5.38077e-24
5.85396e-24
6.30087e-24
6.70221e-24
7.03671e-24
7.2819e-24
7.41518e-24
6.09236e-25
6.40053e-25
6.87371e-25
7.52028e-25
8.35379e-25
9.39205e-25
1.06567e-24
1.21724e-24
1.39668e-24
1.60687e-24
1.85075e-24
2.13114e-24
2.45049e-24
2.81062e-24
3.21241e-24
3.65542e-24
4.13748e-24
4.65423e-24
5.19877e-24
5.76122e-24
6.32851e-24
6.88424e-24
7.40876e-24
7.8795e-24
8.27161e-24
8.55885e-24
8.71492e-24
7.07386e-25
7.43579e-25
7.9917e-25
8.75165e-25
9.73179e-25
1.09533e-24
1.24419e-24
1.42269e-24
1.63408e-24
1.88177e-24
2.16922e-24
2.49973e-24
2.87614e-24
3.30056e-24
3.77397e-24
4.29577e-24
4.86331e-24
5.47139e-24
6.11182e-24
6.77292e-24
7.43932e-24
8.09173e-24
8.70713e-24
9.25912e-24
9.71864e-24
1.00551e-23
1.02378e-23
8.21674e-25
8.64165e-25
9.29452e-25
1.01874e-24
1.13395e-24
1.2776e-24
1.45272e-24
1.66281e-24
1.91169e-24
2.20339e-24
2.54197e-24
2.93128e-24
3.37465e-24
3.87451e-24
4.43192e-24
5.04611e-24
5.71387e-24
6.42902e-24
7.18183e-24
7.95852e-24
8.741e-24
9.50664e-24
1.02284e-23
1.08755e-23
1.1414e-23
1.18081e-23
1.2022e-23
9.54802e-25
1.00467e-24
1.08132e-24
1.18618e-24
1.32155e-24
1.4904e-24
1.69634e-24
1.94347e-24
2.23633e-24
2.57965e-24
2.97821e-24
3.43651e-24
3.95842e-24
4.54675e-24
5.20267e-24
5.92519e-24
6.71045e-24
7.55107e-24
8.43555e-24
9.34766e-24
1.02661e-23
1.11643e-23
1.20107e-23
1.27691e-23
1.33999e-23
1.38614e-23
1.41118e-23
1.10993e-24
1.16844e-24
1.25841e-24
1.38152e-24
1.54051e-24
1.73891e-24
1.98096e-24
2.27154e-24
2.61597e-24
3.01983e-24
3.48873e-24
4.02794e-24
4.64196e-24
5.33402e-24
6.10544e-24
6.95494e-24
7.8779e-24
8.86556e-24
9.9043e-24
1.0975e-23
1.20527e-23
1.31061e-23
1.40984e-23
1.49871e-23
1.57259e-23
1.62663e-23
1.65594e-23
1.29075e-24
1.35939e-24
1.46494e-24
1.60945e-24
1.79612e-24
2.02914e-24
2.31354e-24
2.65505e-24
3.05994e-24
3.53479e-24
4.08616e-24
4.72023e-24
5.44223e-24
6.2559e-24
7.16269e-24
8.16102e-24
9.24534e-24
1.04053e-23
1.16247e-23
1.28812e-23
1.41453e-23
1.53805e-23
1.65434e-23
1.75846e-23
1.84499e-23
1.90826e-23
1.94257e-23
1.50158e-24
1.58207e-24
1.7059e-24
1.87546e-24
2.09456e-24
2.36815e-24
2.70217e-24
3.10337e-24
3.57914e-24
4.1372e-24
4.78526e-24
5.53052e-24
6.37909e-24
7.33529e-24
8.40074e-24
9.57345e-24
1.08468e-23
1.22085e-23
1.36396e-23
1.51136e-23
1.6596e-23
1.80439e-23
1.94066e-23
2.06263e-23
2.16396e-23
2.23802e-23
2.27818e-23
1.74745e-24
1.84184e-24
1.98705e-24
2.18596e-24
2.44306e-24
2.76419e-24
3.15634e-24
3.6275e-24
4.18633e-24
4.84191e-24
5.60327e-24
6.47885e-24
7.47576e-24
8.59898e-24
9.85031e-24
1.12273e-23
1.27221e-23
1.43202e-23
1.59991e-23
1.77278e-23
1.94657e-23
2.11627e-23
2.27592e-23
2.41877e-23
2.53742e-23
2.62411e-23
2.67111e-23
2.03428e-24
2.14492e-24
2.31519e-24
2.54846e-24
2.85006e-24
3.22687e-24
3.68715e-24
4.24026e-24
4.89642e-24
5.66627e-24
6.56041e-24
7.58869e-24
8.7594e-24
1.00783e-23
1.15474e-23
1.31637e-23
1.49179e-23
1.67927e-23
1.87618e-23
2.07887e-23
2.28258e-23
2.48142e-23
2.66844e-23
2.83573e-23
2.97464e-23
3.07611e-23
3.1311e-23
2.36894e-24
2.49862e-24
2.69821e-24
2.97173e-24
3.32545e-24
3.76749e-24
4.30755e-24
4.95667e-24
5.72685e-24
6.63058e-24
7.68027e-24
8.88745e-24
1.02618e-23
1.18099e-23
1.35341e-23
1.54307e-23
1.74886e-23
1.96875e-23
2.19964e-23
2.43724e-23
2.67596e-23
2.90891e-23
3.12796e-23
3.32384e-23
3.48645e-23
3.60521e-23
3.66956e-23
2.75949e-24
2.91145e-24
3.14539e-24
3.46603e-24
3.88078e-24
4.39919e-24
5.03271e-24
5.79429e-24
6.69802e-24
7.75858e-24
8.99048e-24
1.04072e-23
1.202e-23
1.38367e-23
1.58596e-23
1.80845e-23
2.0498e-23
2.30764e-23
2.5783e-23
2.85676e-23
3.13646e-23
3.40934e-23
3.66586e-23
3.8952e-23
4.08554e-23
4.22452e-23
4.29981e-23
3.21534e-24
3.3934e-24
3.66753e-24
4.04334e-24
4.52955e-24
5.1374e-24
5.88035e-24
6.77363e-24
7.83379e-24
9.07802e-24
1.05233e-23
1.21855e-23
1.40777e-23
1.62087e-23
1.85815e-23
2.11907e-23
2.40207e-23
2.70433e-23
3.02156e-23
3.34784e-23
3.6755e-23
3.9951e-23
4.29547e-23
4.56394e-23
4.78672e-23
4.94936e-23
5.03746e-23
3.74751e-24
3.9561e-24
4.27729e-24
4.71768e-24
5.28754e-24
6.00012e-24
6.87121e-24
7.91871e-24
9.16204e-24
1.06214e-23
1.23166e-23
1.42662e-23
1.64855e-23
1.89847e-23
2.17671e-23
2.48264e-23
2.81439e-23
3.16864e-23
3.54037e-23
3.92263e-23
4.30642e-23
4.68068e-23
5.03235e-23
5.34663e-23
5.60736e-23
5.79767e-23
5.90074e-23
4.36885e-24
4.61318e-24
4.98945e-24
5.50544e-24
6.17323e-24
7.0084e-24
8.02952e-24
9.25759e-24
1.07154e-23
1.24266e-23
1.44145e-23
1.67007e-23
1.93029e-23
2.22333e-23
2.54953e-23
2.90813e-23
3.29695e-23
3.71207e-23
4.14759e-23
4.59535e-23
5.04483e-23
5.48305e-23
5.89475e-23
6.26259e-23
6.56772e-23
6.7904e-23
6.91098e-23
5.09441e-24
5.38056e-24
5.82129e-24
6.42576e-24
7.20819e-24
8.18687e-24
9.38362e-24
1.08231e-23
1.2532e-23
1.45381e-23
1.68687e-23
1.95489e-23
2.25995e-23
2.60346e-23
2.9858e-23
3.40608e-23
3.8617e-23
4.34806e-23
4.85823e-23
5.38265e-23
5.90897e-23
6.42204e-23
6.90396e-23
7.33448e-23
7.69154e-23
7.95208e-23
8.09315e-23
5.94177e-24
6.27686e-24
6.79303e-24
7.50106e-24
8.41766e-24
9.56433e-24
1.09667e-23
1.26536e-23
1.46565e-23
1.70079e-23
1.97396e-23
2.28811e-23
2.64567e-23
3.04825e-23
3.49632e-23
3.98877e-23
4.52258e-23
5.09231e-23
5.68984e-23
6.30396e-23
6.92022e-23
7.52084e-23
8.08492e-23
8.58876e-23
9.00656e-23
9.31139e-23
9.47641e-23
6.93147e-24
7.32383e-24
7.92828e-24
8.75751e-24
9.83114e-24
1.11744e-23
1.28174e-23
1.47941e-23
1.71411e-23
1.98965e-23
2.30978e-23
2.67793e-23
3.09694e-23
3.56868e-23
4.09367e-23
4.67061e-23
5.29591e-23
5.96322e-23
6.66298e-23
7.38206e-23
8.10353e-23
8.8066e-23
9.46678e-23
1.00564e-22
1.05452e-22
1.09019e-22
1.10949e-22
8.08755e-24
8.54693e-24
9.25468e-24
1.02257e-23
1.14831e-23
1.30565e-23
1.49812e-23
1.72969e-23
2.00467e-23
2.32752e-23
2.70261e-23
3.13397e-23
3.62489e-23
4.17758e-23
4.7926e-23
5.46841e-23
6.2008e-23
6.98228e-23
7.80166e-23
8.64355e-23
9.48811e-23
1.0311e-22
1.10836e-22
1.17736e-22
1.23455e-22
1.27627e-22
1.29886e-22
9.4381e-24
9.97589e-24
1.08045e-23
1.19415e-23
1.3414e-23
1.52566e-23
1.75109e-23
2.02234e-23
2.34447e-23
2.72268e-23
3.1621e-23
3.66744e-23
4.24254e-23
4.88995e-23
5.61034e-23
6.40186e-23
7.25955e-23
8.17464e-23
9.13398e-23
1.01195e-22
1.11081e-22
1.20712e-22
1.29754e-22
1.37826e-22
1.44518e-22
1.49399e-22
1.5204e-22
1.1016e-23
1.16455e-23
1.26156e-23
1.39467e-23
1.56708e-23
1.78286e-23
2.04686e-23
2.36455e-23
2.74185e-23
3.18486e-23
3.69957e-23
4.29148e-23
4.96509e-23
5.72337e-23
6.56706e-23
7.49398e-23
8.49829e-23
9.5697e-23
1.06928e-22
1.18465e-22
1.30035e-22
1.41306e-22
1.51886e-22
1.61331e-22
1.6916e-22
1.74869e-22
1.77959e-22
1.28595e-23
1.35964e-23
1.47319e-23
1.62903e-23
1.83088e-23
2.08354e-23
2.39267e-23
2.76471e-23
3.20657e-23
3.7254e-23
4.32822e-23
5.02145e-23
5.81035e-23
6.69835e-23
7.68632e-23
8.77168e-23
9.94755e-23
1.12019e-22
1.25165e-22
1.38669e-22
1.5221e-22
1.654e-22
1.77779e-22
1.88829e-22
1.97988e-22
2.04667e-22
2.08281e-22
1.50137e-23
1.58761e-23
1.72053e-23
1.90295e-23
2.13925e-23
2.43505e-23
2.797e-23
3.23263e-23
3.75004e-23
4.3576e-23
5.06352e-23
5.87531e-23
6.7991e-23
7.83891e-23
8.99571e-23
1.02664e-22
1.1643e-22
1.31113e-22
1.46502e-22
1.62305e-22
1.78152e-22
1.93586e-22
2.0807e-22
2.20998e-22
2.31712e-22
2.39524e-22
2.43752e-22
1.75309e-23
1.85403e-23
2.00959e-23
2.22311e-23
2.49972e-23
2.84599e-23
3.26975e-23
3.77978e-23
4.38559e-23
5.09698e-23
5.92354e-23
6.87406e-23
7.9557e-23
9.17313e-23
1.05275e-22
1.20151e-22
1.36265e-22
1.53452e-22
1.71462e-22
1.89957e-22
2.08501e-22
2.26559e-22
2.43505e-22
2.5863e-22
2.71163e-22
2.80301e-22
2.85245e-22
2.04726e-23
2.16538e-23
2.34744e-23
2.59734e-23
2.92111e-23
3.32644e-23
3.8225e-23
4.41959e-23
5.12884e-23
5.96171e-23
6.92943e-23
8.04227e-23
9.3086e-23
1.07338e-22
1.23193e-22
1.40607e-22
1.59469e-22
1.79584e-22
2.00661e-22
2.22304e-22
2.44003e-22
2.65132e-22
2.84957e-22
3.0265e-22
3.1731e-22
3.27999e-22
3.33781e-22
2.39105e-23
2.52927e-23
2.74232e-23
3.03479e-23
3.41372e-23
3.88815e-23
4.4688e-23
5.16775e-23
5.99802e-23
6.97302e-23
8.1059e-23
9.40866e-23
1.08911e-22
1.25595e-22
1.44153e-22
1.64535e-22
1.86611e-22
2.10152e-22
2.34818e-22
2.60144e-22
2.85532e-22
3.10252e-22
3.33445e-22
3.54142e-22
3.71291e-22
3.83792e-22
3.90555e-22
2.79285e-23
2.95458e-23
3.20389e-23
3.54615e-23
3.98962e-23
4.54488e-23
5.2245e-23
6.04261e-23
7.01446e-23
8.15576e-23
9.48187e-23
1.10068e-22
1.2742e-22
1.46949e-22
1.6867e-22
1.92526e-22
2.18362e-22
2.45911e-22
2.74774e-22
3.04407e-22
3.34111e-22
3.63031e-22
3.90163e-22
4.14373e-22
4.34431e-22
4.49053e-22
4.56963e-22
3.26246e-23
3.4517e-23
3.74342e-23
4.14392e-23
4.66288e-23
5.31271e-23
6.1081e-23
7.06563e-23
8.20312e-23
9.53896e-23
1.10911e-22
1.2876e-22
1.4907e-22
1.71926e-22
1.97348e-22
2.25267e-22
2.55501e-22
2.87738e-22
3.2151e-22
3.56182e-22
3.90934e-22
4.24766e-22
4.56505e-22
4.84824e-22
5.08284e-22
5.25386e-22
5.34636e-22
3.81135e-23
4.03276e-23
4.37409e-23
4.84273e-23
5.45e-23
6.21045e-23
7.14128e-23
8.26189e-23
9.59316e-23
1.11566e-22
1.29732e-22
1.50622e-22
1.74392e-22
2.01141e-22
2.30892e-22
2.63563e-22
2.98942e-22
3.36663e-22
3.76178e-22
4.16742e-22
4.57398e-22
4.96976e-22
5.34102e-22
5.67226e-22
5.94666e-22
6.14667e-22
6.25486e-22
4.45293e-23
4.71198e-23
5.11134e-23
5.65967e-23
6.37024e-23
7.26008e-23
8.34935e-23
9.66075e-23
1.12187e-22
1.30484e-22
1.51744e-22
1.76191e-22
2.04008e-22
2.35312e-22
2.70126e-22
3.08356e-22
3.49754e-22
3.93889e-22
4.4012e-22
4.87577e-22
5.35138e-22
5.81435e-22
6.24862e-22
6.63606e-22
6.95699e-22
7.19091e-22
7.31743e-22
5.20287e-23
5.50594e-23
5.97318e-23
6.61472e-23
7.44614e-23
8.48734e-23
9.76194e-23
1.12965e-22
1.31196e-22
1.52608e-22
1.77487e-22
2.06096e-22
2.38647e-22
2.75278e-22
3.16016e-22
3.60748e-22
4.09185e-22
4.60822e-22
5.1491e-22
5.70427e-22
6.26064e-22
6.8022e-22
7.31015e-22
7.76331e-22
8.13866e-22
8.41223e-22
8.56019e-22
6.07952e-23
6.43406e-23
6.98069e-23
7.73127e-23
8.70402e-23
9.92227e-23
1.14137e-22
1.32093e-22
1.53426e-22
1.7848e-22
2.07593e-22
2.4107e-22
2.79159e-22
3.22021e-22
3.69688e-22
4.22027e-22
4.78697e-22
5.39108e-22
6.02384e-22
6.6733e-22
7.32412e-22
7.95757e-22
8.55169e-22
9.0817e-22
9.52068e-22
9.84062e-22
1.00137e-21
7.10428e-23
7.51905e-23
8.15853e-23
9.03664e-23
1.01747e-22
1.16e-22
1.3345e-22
1.5446e-22
1.79421e-22
2.08737e-22
2.42802e-22
2.81973e-22
3.2654e-22
3.7669e-22
4.32461e-22
4.93697e-22
5.59997e-22
6.30671e-22
7.04694e-22
7.80665e-22
8.56793e-22
9.30886e-22
1.00037e-21
1.06236e-21
1.1137e-21
1.15112e-21
1.17135e-21
8.30223e-23
8.78743e-23
9.53551e-23
1.05628e-22
1.18942e-22
1.35618e-22
1.56033e-22
1.80615e-22
2.0982e-22
2.44121e-22
2.83978e-22
3.29809e-22
3.81954e-22
4.40629e-22
5.05879e-22
5.77519e-22
6.55083e-22
7.3776e-22
8.24351e-22
9.13217e-22
1.00226e-21
1.08892e-21
1.1702e-21
1.24269e-21
1.30273e-21
1.34649e-21
1.37015e-21
9.70266e-23
1.02702e-22
1.11453e-22
1.23471e-22
1.39047e-22
1.58555e-22
1.8244e-22
2.11199e-22
2.45368e-22
2.855e-22
3.32131e-22
3.85753e-22
4.4676e-22
5.15407e-22
5.91743e-22
6.75554e-22
7.6629e-22
8.63006e-22
9.64294e-22
1.06824e-21
1.17239e-21
1.27375e-21
1.36881e-21
1.45359e-21
1.52381e-21
1.57498e-21
1.60265e-21
1.13398e-22
1.20037e-22
1.30274e-22
1.44332e-22
1.62553e-22
1.85375e-22
2.13318e-22
2.46963e-22
2.86938e-22
3.33889e-22
3.88445e-22
4.51178e-22
5.22551e-22
6.0286e-22
6.92163e-22
7.90207e-22
8.9635e-22
1.00948e-21
1.12796e-21
1.24954e-21
1.37136e-21
1.48991e-21
1.60108e-21
1.70023e-21
1.78234e-21
1.84218e-21
1.87454e-21
1.32538e-22
1.40304e-22
1.52278e-22
1.68722e-22
1.90037e-22
2.16735e-22
2.49423e-22
2.88783e-22
3.35549e-22
3.90476e-22
4.543e-22
5.2769e-22
6.11187e-22
7.05136e-22
8.09605e-22
9.24295e-22
1.04846e-21
1.18079e-21
1.31937e-21
1.46158e-21
1.60405e-21
1.7427e-21
1.87271e-21
1.98866e-21
2.08469e-21
2.15466e-21
2.1925e-21
1.54914e-22
1.63997e-22
1.78004e-22
1.97239e-22
2.22172e-22
2.53402e-22
2.91641e-22
3.37685e-22
3.92394e-22
4.5665e-22
5.31314e-22
6.17168e-22
7.14844e-22
8.24746e-22
9.46951e-22
1.08111e-21
1.22634e-21
1.38113e-21
1.54322e-21
1.70954e-21
1.87618e-21
2.03832e-21
2.19037e-21
2.32597e-21
2.43826e-21
2.52009e-21
2.56433e-21
1.81074e-22
1.91698e-22
2.08081e-22
2.3058e-22
2.59745e-22
2.96277e-22
3.41007e-22
3.94869e-22
4.58867e-22
5.34033e-22
6.21375e-22
7.21806e-22
8.36067e-22
9.64625e-22
1.10757e-21
1.2645e-21
1.43438e-21
1.61542e-21
1.805e-21
1.99953e-21
2.19441e-21
2.38404e-21
2.56185e-21
2.72042e-21
2.85173e-21
2.94741e-21
2.99915e-21
2.11658e-22
2.24085e-22
2.43247e-22
2.69564e-22
3.03677e-22
3.46409e-22
3.98731e-22
4.61736e-22
5.36598e-22
6.24525e-22
7.26694e-22
8.44174e-22
9.77829e-22
1.12821e-21
1.29541e-21
1.47897e-21
1.67766e-21
1.88941e-21
2.11114e-21
2.33865e-21
2.56656e-21
2.78832e-21
2.99626e-21
3.18169e-21
3.33524e-21
3.44712e-21
3.50762e-21
2.47415e-22
2.6195e-22
2.84362e-22
3.15143e-22
3.55045e-22
4.05027e-22
4.66228e-22
5.39926e-22
6.27494e-22
7.30345e-22
8.49854e-22
9.87273e-22
1.14361e-21
1.31951e-21
1.51508e-21
1.72977e-21
1.96217e-21
2.20983e-21
2.46915e-21
2.73522e-21
3.00175e-21
3.26109e-21
3.50425e-21
3.72109e-21
3.90064e-21
4.03147e-21
4.1022e-21
2.89221e-22
3.0622e-22
3.32433e-22
3.68436e-22
4.15106e-22
4.73568e-22
5.45154e-22
6.31356e-22
7.33784e-22
8.54088e-22
9.93877e-22
1.15461e-21
1.33748e-21
1.54321e-21
1.77196e-21
2.02307e-21
2.29487e-21
2.58452e-21
2.8878e-21
3.19896e-21
3.51067e-21
3.81394e-21
4.09828e-21
4.35185e-21
4.5618e-21
4.71476e-21
4.79747e-21
3.38098e-22
3.57979e-22
3.88638e-22
4.30747e-22
4.85333e-22
5.53712e-22
6.37441e-22
7.38269e-22
8.58074e-22
9.98789e-22
1.16229e-21
1.3503e-21
1.56418e-21
1.80482e-21
2.07236e-21
2.36605e-21
2.68394e-21
3.02269e-21
3.37737e-21
3.74126e-21
4.10577e-21
4.46041e-21
4.79291e-21
5.08941e-21
5.3349e-21
5.51376e-21
5.61047e-21
3.95244e-22
4.18496e-22
4.54353e-22
5.03602e-22
5.67446e-22
6.47423e-22
7.45354e-22
8.63284e-22
1.00341e-21
1.168e-21
1.35924e-21
1.57913e-21
1.82929e-21
2.11074e-21
2.42365e-21
2.76713e-21
3.13891e-21
3.53507e-21
3.94986e-21
4.3754e-21
4.80166e-21
5.21636e-21
5.60516e-21
5.95185e-21
6.2389e-21
6.44803e-21
6.5611e-21
4.62057e-22
4.89252e-22
5.31188e-22
5.88787e-22
6.63457e-22
7.56996e-22
8.71536e-22
1.00947e-21
1.17336e-21
1.36586e-21
1.58954e-21
1.84672e-21
2.13931e-21
2.46847e-21
2.83444e-21
3.23614e-21
3.67093e-21
4.13423e-21
4.61929e-21
5.11692e-21
5.61538e-21
6.10031e-21
6.55493e-21
6.96031e-21
7.29594e-21
7.54046e-21
7.67266e-21
5.40174e-22
5.71979e-22
6.21025e-22
6.88389e-22
7.75719e-22
8.85119e-22
1.01908e-21
1.1804e-21
1.37209e-21
1.59723e-21
1.85884e-21
2.15963e-21
2.50182e-21
2.8868e-21
3.3148e-21
3.78459e-21
4.29306e-21
4.83486e-21
5.40209e-21
5.98401e-21
6.56687e-21
7.1339e-21
7.66548e-21
8.13947e-21
8.5319e-21
8.81779e-21
8.97236e-21
6.31509e-22
6.68704e-22
7.26063e-22
8.04847e-22
9.06981e-22
1.03493e-21
1.1916e-21
1.38028e-21
1.60447e-21
1.86778e-21
2.17374e-21
2.52554e-21
2.92574e-21
3.37596e-21
3.87651e-21
4.42591e-21
5.02053e-21
5.65412e-21
6.31743e-21
6.99789e-21
7.67944e-21
8.34247e-21
8.96402e-21
9.51822e-21
9.97705e-21
1.03113e-20
1.0492e-20
7.38296e-22
7.81795e-22
8.48877e-22
9.41014e-22
1.06046e-21
1.2101e-21
1.39333e-21
1.61399e-21
1.87619e-21
2.18414e-21
2.54197e-21
2.9534e-21
3.42143e-21
3.94796e-21
4.53333e-21
5.17582e-21
5.87118e-21
6.61209e-21
7.38773e-21
8.18341e-21
8.98034e-21
9.75559e-21
1.04823e-20
1.11303e-20
1.16668e-20
1.20575e-20
1.22688e-20
8.63152e-22
9.14023e-22
9.92473e-22
1.10023e-21
1.23992e-21
1.41492e-21
1.62921e-21
1.88728e-21
2.19392e-21
2.55407e-21
2.97255e-21
3.45371e-21
4.00106e-21
4.61682e-21
5.30136e-21
6.0527e-21
6.86584e-21
7.73223e-21
8.63921e-21
9.5696e-21
1.05014e-20
1.14079e-20
1.22576e-20
1.30152e-20
1.36424e-20
1.40993e-20
1.43463e-20
1.00913e-21
1.06862e-21
1.16037e-21
1.28638e-21
1.44975e-21
1.65441e-21
1.90502e-21
2.20682e-21
2.56544e-21
2.98663e-21
3.47603e-21
4.03873e-21
4.67883e-21
5.39891e-21
6.19943e-21
7.07803e-21
8.02888e-21
9.04198e-21
1.01025e-20
1.11904e-20
1.22799e-20
1.33398e-20
1.43332e-20
1.5219e-20
1.59522e-20
1.64864e-20
1.67751e-20
1.17982e-21
1.24939e-21
1.35668e-21
1.50404e-21
1.6951e-21
1.93444e-21
2.22752e-21
2.58047e-21
2.99985e-21
3.49242e-21
4.06475e-21
4.72279e-21
5.47134e-21
6.31341e-21
7.24952e-21
8.27692e-21
9.38879e-21
1.05734e-20
1.18135e-20
1.30855e-20
1.43594e-20
1.55985e-20
1.676e-20
1.77956e-20
1.86528e-20
1.92773e-20
1.96148e-20
1.37938e-21
1.46074e-21
1.58621e-21
1.75854e-21
1.98196e-21
2.26186e-21
2.60461e-21
3.01736e-21
3.50781e-21
4.08384e-21
4.75314e-21
5.52266e-21
6.39801e-21
7.38271e-21
8.47736e-21
9.67874e-21
1.09789e-20
1.2364e-20
1.38139e-20
1.53012e-20
1.67906e-20
1.82394e-20
1.95973e-20
2.0808e-20
2.18102e-20
2.25402e-20
2.29348e-20
1.61271e-21
1.70785e-21
1.85457e-21
2.05611e-21
2.31738e-21
2.6447e-21
3.04552e-21
3.5282e-21
4.10174e-21
4.77537e-21
5.55805e-21
6.45792e-21
7.48154e-21
8.63301e-21
9.91302e-21
1.13178e-20
1.2838e-20
1.44576e-20
1.61529e-20
1.78918e-20
1.96332e-20
2.13269e-20
2.29145e-20
2.43299e-20
2.55015e-20
2.63549e-20
2.68162e-20
1.88552e-21
1.99678e-21
2.16836e-21
2.40403e-21
2.70957e-21
3.09234e-21
3.56106e-21
4.12551e-21
4.79621e-21
5.58394e-21
6.4992e-21
7.55149e-21
8.74846e-21
1.00949e-20
1.15916e-20
1.32342e-20
1.50117e-20
1.69054e-20
1.88876e-20
2.09206e-20
2.29565e-20
2.49367e-20
2.67927e-20
2.84473e-20
2.98169e-20
3.08145e-20
3.13538e-20
2.20449e-21
2.33459e-21
2.53523e-21
2.81083e-21
3.16812e-21
3.61573e-21
4.16385e-21
4.82392e-21
5.60822e-21
6.52938e-21
7.59964e-21
8.83013e-21
1.02298e-20
1.18042e-20
1.35543e-20
1.54749e-20
1.75532e-20
1.97673e-20
2.20848e-20
2.44617e-20
2.68419e-20
2.91569e-20
3.13266e-20
3.32608e-20
3.48619e-20
3.6028e-20
3.66584e-20
2.57742e-21
2.72956e-21
2.96419e-21
3.28647e-21
3.70428e-21
4.2277e-21
4.86866e-21
5.64052e-21
6.55766e-21
7.63481e-21
8.88632e-21
1.03252e-20
1.19618e-20
1.38027e-20
1.58491e-20
1.80947e-20
2.05247e-20
2.31133e-20
2.58228e-20
2.86016e-20
3.13842e-20
3.40906e-20
3.6627e-20
3.88881e-20
4.07596e-20
4.21228e-20
4.28596e-20
3.01346e-21
3.19137e-21
3.46573e-21
3.84259e-21
4.33116e-21
4.94323e-21
5.69273e-21
6.59532e-21
7.66777e-21
8.92732e-21
1.03907e-20
1.20732e-20
1.39869e-20
1.61394e-20
1.8532e-20
2.11577e-20
2.39987e-20
2.70252e-20
3.01929e-20
3.34416e-20
3.66946e-20
3.98583e-20
4.28233e-20
4.54664e-20
4.76541e-20
4.92474e-20
5.01087e-20
3.52327e-21
3.7313e-21
4.05213e-21
4.4928e-21
5.06411e-21
5.77983e-21
6.65626e-21
7.71168e-21
8.96572e-21
1.04385e-20
1.21497e-20
1.41169e-20
1.63545e-20
1.88714e-20
2.16689e-20
2.47387e-20
2.80603e-20
3.15987e-20
3.53019e-20
3.90998e-20
4.29026e-20
4.66009e-20
5.00669e-20
5.31564e-20
5.57135e-20
5.75759e-20
5.85825e-20
4.11932e-21
4.36258e-21
4.73773e-21
5.25303e-21
5.92108e-21
6.75799e-21
7.78282e-21
9.01693e-21
1.04833e-20
1.22054e-20
1.42063e-20
1.65065e-20
1.91227e-20