/*--------------------------------*- C++ -*----------------------------------*\
| =========                 |                                                 |
| \\      /  F ield         | OpenFOAM: The Open Source CFD Toolbox           |
|  \\    /   O peration     | Version:  2212                                  |
|   \\  /    A nd           | Website:  www.openfoam.com                      |
|    \\/     M anipulation  |                                                 |
\*---------------------------------------------------------------------------*/
FoamFile
{
    version     2.0;
    format      ascii;
    arch        "LSB;label=32;scalar=64";
    class       volScalarField;
    location    "9.0545968";
    object      AC3H5;
}
// * * * * * * * * * * * * * * * * * * * * * * * * * * * * * * * * * * * * * //

dimensions      [0 0 0 0 0 0 0];

internalField   nonuniform List<scalar> 
33600
(
7.09883e-39
7.30492e-39
7.61619e-39
8.0319e-39
8.55294e-39
9.18122e-39
9.9194e-39
1.07708e-38
1.1739e-38
1.28281e-38
1.40422e-38
1.5385e-38
1.68601e-38
1.84706e-38
2.02184e-38
2.21044e-38
2.41277e-38
2.62855e-38
2.85723e-38
3.09797e-38
3.34949e-38
3.61005e-38
3.87704e-38
4.14627e-38
4.40917e-38
4.64649e-38
4.81064e-38
2.29087e-38
2.3576e-38
2.45839e-38
2.593e-38
2.76172e-38
2.96518e-38
3.20426e-38
3.48003e-38
3.7937e-38
4.14657e-38
4.53999e-38
4.97522e-38
5.45346e-38
5.97567e-38
6.54256e-38
7.15442e-38
7.81103e-38
8.5115e-38
9.25408e-38
1.0036e-37
1.08533e-37
1.17005e-37
1.25702e-37
1.34528e-37
1.43313e-37
1.51743e-37
1.5849e-37
4.21492e-38
4.33844e-38
4.525e-38
4.77415e-38
5.08649e-38
5.46317e-38
5.90587e-38
6.41661e-38
6.99769e-38
7.6516e-38
8.38085e-38
9.18792e-38
1.00751e-37
1.10444e-37
1.20971e-37
1.32343e-37
1.44558e-37
1.57606e-37
1.71464e-37
1.86096e-37
2.01453e-37
2.1747e-37
2.34061e-37
2.51094e-37
2.68229e-37
2.84616e-37
2.971e-37
6.52541e-38
6.71825e-38
7.00949e-38
7.39848e-38
7.88616e-38
8.47444e-38
9.166e-38
9.96412e-38
1.08725e-37
1.18952e-37
1.30364e-37
1.43001e-37
1.56903e-37
1.72104e-37
1.88635e-37
2.06515e-37
2.25757e-37
2.46361e-37
2.68316e-37
2.916e-37
3.16176e-37
3.41991e-37
3.68928e-37
3.96719e-37
4.24582e-37
4.50548e-37
4.69162e-37
9.27026e-38
9.54709e-38
9.96516e-38
1.05236e-37
1.12239e-37
1.20689e-37
1.30626e-37
1.421e-37
1.55166e-37
1.69887e-37
1.86326e-37
2.04548e-37
2.24617e-37
2.46594e-37
2.70533e-37
2.96485e-37
3.24488e-37
3.54577e-37
3.86775e-37
4.21093e-37
4.57518e-37
4.95978e-37
5.36229e-37
5.77646e-37
6.186e-37
6.55473e-37
6.80492e-37
1.25029e-37
1.28809e-37
1.34517e-37
1.42143e-37
1.51709e-37
1.63256e-37
1.76843e-37
1.9254e-37
2.10432e-37
2.30607e-37
2.53162e-37
2.78198e-37
3.05816e-37
3.36118e-37
3.69203e-37
4.05169e-37
4.44109e-37
4.86113e-37
5.31256e-37
5.79592e-37
6.31101e-37
6.85614e-37
7.42591e-37
8.0074e-37
8.57183e-37
9.06352e-37
9.38263e-37
1.62837e-37
1.67829e-37
1.75367e-37
1.8544e-37
1.98082e-37
2.1335e-37
2.31327e-37
2.52116e-37
2.75834e-37
3.02613e-37
3.32595e-37
3.65931e-37
4.02781e-37
4.43307e-37
4.8768e-37
5.3607e-37
5.88649e-37
6.45584e-37
7.07013e-37
7.73008e-37
8.43484e-37
9.18032e-37
9.95579e-37
1.07383e-36
1.14834e-36
1.2114e-36
1.25094e-36
2.06812e-37
2.13249e-37
2.22971e-37
2.35969e-37
2.52288e-37
2.72012e-37
2.95257e-37
3.22166e-37
3.52906e-37
3.87665e-37
4.26651e-37
4.70089e-37
5.18218e-37
5.71292e-37
6.2958e-37
6.93355e-37
7.62894e-37
8.38449e-37
9.20212e-37
1.00823e-36
1.10223e-36
1.2014e-36
1.30385e-36
1.40597e-36
1.50146e-36
1.58036e-36
1.62853e-36
2.57739e-37
2.65895e-37
2.78217e-37
2.94697e-37
3.15403e-37
3.4045e-37
3.70001e-37
4.04253e-37
4.43442e-37
4.87834e-37
5.37725e-37
5.93442e-37
6.55337e-37
7.23788e-37
7.99194e-37
8.81962e-37
9.72492e-37
1.07112e-36
1.17807e-36
1.29326e-36
1.41613e-36
1.54518e-36
1.67746e-36
1.80773e-36
1.92759e-36
2.02471e-36
2.08277e-36
3.16526e-37
3.2672e-37
3.42128e-37
3.62748e-37
3.88676e-37
4.20072e-37
4.57159e-37
5.00211e-37
5.49553e-37
6.05557e-37
6.6864e-37
7.39264e-37
8.17933e-37
9.05185e-37
1.00159e-36
1.10771e-36
1.22408e-36
1.35111e-36
1.48899e-36
1.63743e-36
1.79534e-36
1.96036e-36
2.12813e-36
2.29151e-36
2.43972e-36
2.55791e-36
2.62743e-36
3.84222e-37
3.96831e-37
4.15896e-37
4.41428e-37
4.73562e-37
5.12519e-37
5.58603e-37
6.12187e-37
6.73717e-37
7.43703e-37
8.22723e-37
9.11417e-37
1.01048e-36
1.12066e-36
1.24272e-36
1.37742e-36
1.52543e-36
1.6872e-36
1.8628e-36
2.05157e-36
2.25174e-36
2.45975e-36
2.66957e-36
2.87183e-36
3.05311e-36
3.1958e-36
3.27865e-36
4.62049e-37
4.77512e-37
5.00905e-37
5.32259e-37
5.7176e-37
6.19713e-37
6.76525e-37
7.42702e-37
8.18845e-37
9.05647e-37
1.00389e-36
1.11444e-36
1.23824e-36
1.37629e-36
1.52959e-36
1.69911e-36
1.88564e-36
2.08963e-36
2.31092e-36
2.54834e-36
2.79914e-36
3.05834e-36
3.31785e-36
3.56574e-36
3.78567e-36
3.95692e-36
4.05532e-36
5.51429e-37
5.70262e-37
5.98772e-37
6.37019e-37
6.85259e-37
7.43903e-37
8.13496e-37
8.94713e-37
9.88357e-37
1.09535e-36
1.21674e-36
1.35368e-36
1.50741e-36
1.67922e-36
1.87041e-36
2.08215e-36
2.31535e-36
2.57038e-36
2.84673e-36
3.1425e-36
3.45374e-36
3.77366e-36
4.09179e-36
4.39326e-36
4.65839e-36
4.86299e-36
4.97957e-36
6.5402e-37
6.76831e-37
7.11385e-37
7.57785e-37
8.16382e-37
8.87721e-37
9.72526e-37
1.07169e-36
1.18626e-36
1.31747e-36
1.46668e-36
1.6354e-36
1.82523e-36
2.03782e-36
2.27478e-36
2.53751e-36
2.82699e-36
3.14345e-36
3.48585e-36
3.85134e-36
4.23445e-36
4.62624e-36
5.01344e-36
5.37781e-36
5.69587e-36
5.93949e-36
6.07733e-36
7.71758e-37
7.99259e-37
8.40949e-37
8.96987e-37
9.67848e-37
1.05425e-36
1.15714e-36
1.27769e-36
1.41727e-36
1.57747e-36
1.76005e-36
1.96694e-36
2.2002e-36
2.46188e-36
2.75394e-36
3.07803e-36
3.43513e-36
3.82521e-36
4.24654e-36
4.69506e-36
5.16343e-36
5.64014e-36
6.10867e-36
6.54686e-36
6.92693e-36
7.21623e-36
7.37895e-36
9.06903e-37
9.39931e-37
9.90039e-37
1.05746e-36
1.14284e-36
1.2471e-36
1.37148e-36
1.51748e-36
1.68689e-36
1.88173e-36
2.10425e-36
2.35692e-36
2.64228e-36
2.96289e-36
3.32108e-36
3.71872e-36
4.15679e-36
4.63481e-36
5.15018e-36
5.69731e-36
6.2666e-36
6.84353e-36
7.40774e-36
7.9326e-36
8.38535e-36
8.72813e-36
8.91999e-36
1.06209e-36
1.10163e-36
1.16167e-36
1.24253e-36
1.34507e-36
1.47048e-36
1.62037e-36
1.79664e-36
2.00157e-36
2.23774e-36
2.508e-36
2.8154e-36
3.16313e-36
3.55427e-36
3.99159e-36
4.47717e-36
5.01187e-36
5.59465e-36
6.22178e-36
6.88577e-36
7.57435e-36
8.2694e-36
8.94613e-36
9.57273e-36
1.01107e-35
1.05161e-35
1.07421e-35
1.24041e-36
1.28762e-36
1.35935e-36
1.45608e-36
1.57889e-36
1.72935e-36
1.90946e-36
2.12169e-36
2.36888e-36
2.65428e-36
2.98146e-36
3.3542e-36
3.7764e-36
4.25176e-36
4.78352e-36
5.37394e-36
6.02368e-36
6.73097e-36
7.49062e-36
8.29288e-36
9.12225e-36
9.95642e-36
1.07654e-35
1.15114e-35
1.21492e-35
1.2628e-35
1.28939e-35
1.44546e-36
1.50169e-36
1.58719e-36
1.70264e-36
1.8494e-36
2.02947e-36
2.2454e-36
2.50026e-36
2.79766e-36
3.14161e-36
3.53655e-36
3.98713e-36
4.49805e-36
5.07375e-36
5.71796e-36
6.4331e-36
7.2195e-36
8.07445e-36
8.99097e-36
9.95658e-36
1.0952e-35
1.19498e-35
1.29142e-35
1.38003e-35
1.45552e-35
1.512e-35
1.54327e-35
1.68144e-36
1.74828e-36
1.85001e-36
1.9875e-36
2.16253e-36
2.3776e-36
2.6359e-36
2.9413e-36
3.29825e-36
3.71175e-36
4.18722e-36
4.73035e-36
5.34679e-36
6.04179e-36
6.81961e-36
7.6828e-36
8.63126e-36
9.66103e-36
1.0763e-35
1.19213e-35
1.31122e-35
1.43027e-35
1.54496e-35
1.65e-35
1.73921e-35
1.80576e-35
1.84251e-35
1.95326e-36
2.03257e-36
2.1534e-36
2.31687e-36
2.52523e-36
2.78163e-36
3.09004e-36
3.45526e-36
3.88278e-36
4.37874e-36
4.94978e-36
5.60278e-36
6.34449e-36
7.18107e-36
8.11738e-36
9.15604e-36
1.02963e-35
1.15328e-35
1.28536e-35
1.42391e-35
1.56602e-35
1.7077e-35
1.84382e-35
1.96813e-35
2.07343e-35
2.15177e-35
2.19493e-35
2.26664e-36
2.36063e-36
2.50391e-36
2.69798e-36
2.94564e-36
3.2508e-36
3.61841e-36
4.05435e-36
4.56539e-36
5.15904e-36
5.84333e-36
6.62655e-36
7.51674e-36
8.5211e-36
9.64509e-36
1.08914e-35
1.22584e-35
1.37389e-35
1.53178e-35
1.69709e-35
1.86627e-35
2.03454e-35
2.19581e-35
2.34273e-35
2.46688e-35
2.55904e-35
2.6097e-35
2.62828e-36
2.73951e-36
2.90921e-36
3.13928e-36
3.43323e-36
3.7959e-36
4.23337e-36
4.75288e-36
5.36267e-36
6.07188e-36
6.8902e-36
7.82757e-36
8.89351e-36
1.00964e-35
1.14423e-35
1.2934e-35
1.45688e-35
1.6337e-35
1.822e-35
2.0188e-35
2.21981e-35
2.4193e-35
2.61008e-35
2.78351e-35
2.92974e-35
3.03808e-35
3.09753e-35
3.046e-36
3.17747e-36
3.37823e-36
3.65066e-36
3.99911e-36
4.42954e-36
4.94942e-36
5.56756e-36
6.29399e-36
7.13975e-36
8.11653e-36
9.23614e-36
1.05098e-35
1.19473e-35
1.35555e-35
1.53367e-35
1.72872e-35
1.93946e-35
2.16356e-35
2.39739e-35
2.63579e-35
2.87194e-35
3.09733e-35
3.30183e-35
3.47393e-35
3.60122e-35
3.67097e-35
3.5289e-36
3.68417e-36
3.92141e-36
4.24365e-36
4.65623e-36
5.16648e-36
5.78347e-36
6.51794e-36
7.38201e-36
8.389e-36
9.55288e-36
1.08877e-35
1.24067e-35
1.41212e-35
1.60387e-35
1.81614e-35
2.0484e-35
2.29907e-35
2.56528e-35
2.84263e-35
3.12494e-35
3.40411e-35
3.67009e-35
3.911e-35
4.11341e-35
4.26288e-35
4.34467e-35
4.08765e-36
4.27084e-36
4.55095e-36
4.93173e-36
5.41976e-36
6.02394e-36
6.75532e-36
7.62687e-36
8.65325e-36
9.85039e-36
1.1235e-35
1.28238e-35
1.46322e-35
1.66732e-35
1.89554e-35
2.14805e-35
2.42411e-35
2.72175e-35
3.03747e-35
3.36595e-35
3.69981e-35
4.02945e-35
4.34302e-35
4.62659e-35
4.8645e-35
5.03995e-35
5.13584e-35
4.73468e-36
4.95065e-36
5.28109e-36
5.73066e-36
6.30738e-36
7.02207e-36
7.88809e-36
8.9211e-36
1.01387e-35
1.15599e-35
1.32048e-35
1.50928e-35
1.72423e-35
1.96682e-35
2.23799e-35
2.53786e-35
2.86546e-35
3.21834e-35
3.59223e-35
3.98074e-35
4.37509e-35
4.76391e-35
5.13327e-35
5.46683e-35
5.74631e-35
5.95217e-35
6.06456e-35
5.48451e-36
5.73895e-36
6.12848e-36
6.65885e-36
7.33979e-36
8.18442e-36
9.20883e-36
1.04319e-35
1.18746e-35
1.35598e-35
1.5511e-35
1.77517e-35
2.03029e-35
2.31818e-35
2.6399e-35
2.9955e-35
3.3837e-35
3.80147e-35
4.24368e-35
4.70267e-35
5.16798e-35
5.62619e-35
6.06092e-35
6.45304e-35
6.7812e-35
7.02265e-35
7.15435e-35
6.35412e-36
6.65368e-36
7.11256e-36
7.73779e-36
8.54116e-36
9.53849e-36
1.07491e-35
1.21957e-35
1.39033e-35
1.58991e-35
1.82111e-35
2.08667e-35
2.38906e-35
2.73027e-35
3.11144e-35
3.53255e-35
3.99196e-35
4.48597e-35
5.00838e-35
5.55005e-35
6.09858e-35
6.63814e-35
7.14946e-35
7.61017e-35
7.99532e-35
8.27844e-35
8.43273e-35
7.3633e-36
7.71579e-36
8.25604e-36
8.9926e-36
9.93974e-36
1.11165e-35
1.2546e-35
1.42553e-35
1.62744e-35
1.86356e-35
2.13719e-35
2.45155e-35
2.80954e-35
3.21343e-35
3.6645e-35
4.16259e-35
4.70564e-35
5.28916e-35
5.90569e-35
6.54434e-35
7.19044e-35
7.82533e-35
8.42639e-35
8.96741e-35
9.41929e-35
9.75117e-35
9.9319e-35
8.5352e-36
8.94976e-36
9.58544e-36
1.04527e-35
1.15686e-35
1.29559e-35
1.46426e-35
1.66606e-35
1.90459e-35
2.18365e-35
2.50717e-35
2.87891e-35
3.30225e-35
3.77981e-35
4.31299e-35
4.90149e-35
5.54275e-35
6.23131e-35
6.95825e-35
7.71063e-35
8.4711e-35
9.21769e-35
9.92385e-35
1.05589e-34
1.10889e-34
1.14779e-34
1.16895e-34
9.89684e-36
1.03842e-35
1.11318e-35
1.21522e-35
1.34662e-35
1.51008e-35
1.70894e-35
1.94701e-35
2.22855e-35
2.55808e-35
2.9402e-35
3.37936e-35
3.87949e-35
4.44358e-35
5.07319e-35
5.76784e-35
6.52435e-35
7.33614e-35
8.19257e-35
9.07828e-35
9.97278e-35
1.08502e-34
1.16795e-34
1.24247e-34
1.30461e-34
1.35018e-34
1.37497e-34
1.14798e-35
1.20524e-35
1.29312e-35
1.41314e-35
1.56777e-35
1.76025e-35
1.99454e-35
2.2752e-35
2.60725e-35
2.99604e-35
3.447e-35
3.96534e-35
4.55563e-35
5.22132e-35
5.96413e-35
6.78335e-35
7.67508e-35
8.63141e-35
9.63965e-35
1.06816e-34
1.17332e-34
1.27639e-34
1.37373e-34
1.46114e-34
1.53398e-34
1.58737e-34
1.61639e-34
1.33209e-35
1.39935e-35
1.50261e-35
1.6437e-35
1.82557e-35
2.0521e-35
2.32797e-35
2.6586e-35
3.04994e-35
3.50831e-35
4.04009e-35
4.65138e-35
5.34752e-35
6.13245e-35
7.0081e-35
7.97346e-35
9.02378e-35
1.01496e-34
1.13358e-34
1.25609e-34
1.37964e-34
1.50067e-34
1.61488e-34
1.71738e-34
1.80275e-34
1.86528e-34
1.89926e-34
1.54633e-35
1.6253e-35
1.74659e-35
1.91238e-35
2.1262e-35
2.39264e-35
2.7173e-35
3.10656e-35
3.56748e-35
4.10749e-35
4.73412e-35
5.45449e-35
6.27482e-35
7.19968e-35
8.23114e-35
9.36791e-35
1.06042e-34
1.19286e-34
1.33234e-34
1.4763e-34
1.62141e-34
1.76345e-34
1.89743e-34
2.01759e-34
2.11762e-34
2.19085e-34
2.23062e-34
1.79573e-35
1.88842e-35
2.03083e-35
2.22557e-35
2.47683e-35
2.79009e-35
3.17194e-35
3.62998e-35
4.17251e-35
4.80831e-35
5.54621e-35
6.39456e-35
7.36058e-35
8.44954e-35
9.66374e-35
1.10015e-34
1.24557e-34
1.4013e-34
1.56521e-34
1.73431e-34
1.90465e-34
2.07131e-34
2.22842e-34
2.36925e-34
2.48643e-34
2.57218e-34
2.61873e-34
2.08617e-35
2.19493e-35
2.36208e-35
2.59074e-35
2.88589e-35
3.25401e-35
3.70294e-35
4.24161e-35
4.87986e-35
5.62799e-35
6.49639e-35
7.49483e-35
8.63171e-35
9.91309e-35
1.13415e-34
1.29148e-34
1.46246e-34
1.64547e-34
1.83801e-34
2.03654e-34
2.23644e-34
2.43191e-34
2.6161e-34
2.78113e-34
2.91837e-34
3.01878e-34
3.07326e-34
2.42452e-35
2.5521e-35
2.74823e-35
3.01663e-35
3.3632e-35
3.79563e-35
4.32317e-35
4.95638e-35
5.70684e-35
6.58669e-35
7.6081e-35
8.78251e-35
1.01197e-34
1.16267e-34
1.33063e-34
1.51556e-34
1.71647e-34
1.93144e-34
2.15751e-34
2.39052e-34
2.62502e-34
2.85424e-34
3.07011e-34
3.26345e-34
3.42418e-34
3.54172e-34
3.60548e-34
2.8188e-35
2.96842e-35
3.1985e-35
3.51345e-35
3.92026e-35
4.42803e-35
5.04769e-35
5.79171e-35
6.67369e-35
7.70794e-35
8.90872e-35
1.02894e-34
1.18614e-34
1.36328e-34
1.56066e-34
1.77795e-34
2.01393e-34
2.26634e-34
2.53168e-34
2.80506e-34
3.08007e-34
3.34878e-34
3.60174e-34
3.82822e-34
4.01643e-34
4.15401e-34
4.22863e-34
3.27839e-35
3.45382e-35
3.72365e-35
4.09311e-35
4.57049e-35
5.16653e-35
5.89413e-35
6.76798e-35
7.80411e-35
9.0193e-35
1.04303e-34
1.20527e-34
1.38999e-34
1.5981e-34
1.82997e-34
2.08516e-34
2.36222e-34
2.65848e-34
2.96981e-34
3.29045e-34
3.61289e-34
3.92781e-34
4.22419e-34
4.48944e-34
4.7098e-34
4.87084e-34
4.95815e-34
3.81426e-35
4.0199e-35
4.33627e-35
4.76957e-35
5.3296e-35
6.02903e-35
6.88307e-35
7.90903e-35
9.12576e-35
1.0553e-34
1.22103e-34
1.4116e-34
1.62855e-34
1.87297e-34
2.14523e-34
2.44481e-34
2.76999e-34
3.1176e-34
3.48277e-34
3.85874e-34
4.23669e-34
4.60572e-34
4.9529e-34
5.26351e-34
5.52149e-34
5.70997e-34
5.81214e-34
4.43921e-35
4.68022e-35
5.05106e-35
5.55912e-35
6.21592e-35
7.03643e-35
8.03858e-35
9.24271e-35
1.0671e-34
1.23466e-34
1.42925e-34
1.653e-34
1.90772e-34
2.19466e-34
2.51424e-34
2.86581e-34
3.24733e-34
3.65507e-34
4.08328e-34
4.52402e-34
4.96696e-34
5.3993e-34
5.80592e-34
6.16962e-34
6.47161e-34
6.6922e-34
6.81174e-34
5.16821e-35
5.45061e-35
5.88523e-35
6.48079e-35
7.2509e-35
8.21321e-35
9.38879e-35
1.08016e-34
1.24777e-34
1.44442e-34
1.67281e-34
1.93544e-34
2.2344e-34
2.57113e-34
2.94612e-34
3.35858e-34
3.80608e-34
4.28421e-34
4.78622e-34
5.30279e-34
5.82178e-34
6.32822e-34
6.80441e-34
7.23022e-34
7.58369e-34
7.84184e-34
7.98172e-34
6.01873e-35
6.34958e-35
6.85886e-35
7.55686e-35
8.45962e-35
9.58794e-35
1.09666e-34
1.26238e-34
1.45901e-34
1.68974e-34
1.95771e-34
2.26586e-34
2.61663e-34
3.01168e-34
3.45156e-34
3.93531e-34
4.46006e-34
5.02059e-34
5.609e-34
6.21431e-34
6.82232e-34
7.41547e-34
7.97306e-34
8.47155e-34
8.88527e-34
9.18736e-34
9.35101e-34
7.01124e-35
7.39879e-35
7.99544e-35
8.81333e-35
9.87139e-35
1.1194e-34
1.28105e-34
1.47538e-34
1.706e-34
1.97662e-34
2.29095e-34
2.65241e-34
3.06384e-34
3.52718e-34
4.04304e-34
4.61026e-34
5.22544e-34
5.88245e-34
6.57197e-34
7.28116e-34
7.99333e-34
8.68796e-34
9.3408e-34
9.92432e-34
1.04085e-33
1.0762e-33
1.09535e-33
8.1696e-35
8.6235e-35
9.3224e-35
1.02806e-34
1.15204e-34
1.30706e-34
1.49654e-34
1.72438e-34
1.99478e-34
2.31212e-34
2.68073e-34
3.1046e-34
3.58706e-34
4.13035e-34
4.73516e-34
5.4001e-34
6.12114e-34
6.89108e-34
7.69896e-34
8.52971e-34
9.3638e-34
1.01772e-33
1.09415e-33
1.16245e-33
1.21911e-33
1.26048e-33
1.28288e-33
9.52174e-35
1.00533e-34
1.08718e-34
1.19943e-34
1.34468e-34
1.52633e-34
1.7484e-34
2.01545e-34
2.33242e-34
2.70446e-34
3.13662e-34
3.63357e-34
4.19918e-34
4.83607e-34
5.54501e-34
6.32434e-34
7.1693e-34
8.07141e-34
9.01782e-34
9.99084e-34
1.09676e-33
1.19199e-33
1.28146e-33
1.3614e-33
1.42772e-33
1.47612e-33
1.50233e-33
1.11003e-34
1.17227e-34
1.26812e-34
1.39959e-34
1.56974e-34
1.78255e-34
2.04275e-34
2.35571e-34
2.72721e-34
3.16327e-34
3.66982e-34
4.25232e-34
4.91528e-34
5.66175e-34
6.49258e-34
7.4058e-34
8.39581e-34
9.45261e-34
1.05611e-33
1.17007e-33
1.28444e-33
1.39593e-33
1.50066e-33
1.59422e-33
1.67183e-33
1.72846e-33
1.75913e-33
1.29434e-34
1.36721e-34
1.47945e-34
1.6334e-34
1.83268e-34
2.08196e-34
2.38681e-34
2.75349e-34
3.18881e-34
3.69981e-34
4.29344e-34
4.97608e-34
5.753e-34
6.62771e-34
7.60122e-34
8.67116e-34
9.83093e-34
1.10688e-33
1.23671e-33
1.37014e-33
1.50405e-33
1.63457e-33
1.75715e-33
1.86665e-33
1.95747e-33
2.02374e-33
2.05962e-33
1.50956e-34
1.59487e-34
1.72627e-34
1.90653e-34
2.13991e-34
2.43187e-34
2.78895e-34
3.21852e-34
3.72853e-34
4.32725e-34
5.0228e-34
5.82265e-34
6.73294e-34
7.75778e-34
8.89829e-34
1.01517e-33
1.15101e-33
1.29598e-33
1.44802e-33
1.60425e-33
1.76102e-33
1.9138e-33
2.05728e-33
2.18544e-33
2.29171e-33
2.36925e-33
2.41123e-33
1.76091e-34
1.86076e-34
2.01459e-34
2.22564e-34
2.4989e-34
2.84081e-34
3.25902e-34
3.76217e-34
4.3596e-34
5.06098e-34
5.87582e-34
6.81285e-34
7.87925e-34
9.07979e-34
1.04157e-33
1.18838e-33
1.34747e-33
1.51725e-33
1.69526e-33
1.87818e-33
2.0617e-33
2.24054e-33
2.40847e-33
2.55844e-33
2.6828e-33
2.77353e-33
2.82266e-33
2.05447e-34
2.17134e-34
2.35141e-34
2.59847e-34
2.9184e-34
3.31875e-34
3.80849e-34
4.39775e-34
5.09748e-34
5.91901e-34
6.87346e-34
7.97103e-34
9.22013e-34
1.06263e-33
1.2191e-33
1.39103e-33
1.57734e-33
1.77613e-33
1.98455e-33
2.1987e-33
2.41353e-33
2.62285e-33
2.81939e-33
2.9949e-33
3.14042e-33
3.24659e-33
3.30407e-33
2.39737e-34
2.53415e-34
2.7449e-34
3.0341e-34
3.40864e-34
3.87736e-34
4.4508e-34
5.14082e-34
5.96026e-34
6.92239e-34
8.04021e-34
9.32568e-34
1.07886e-33
1.24354e-33
1.42678e-33
1.62811e-33
1.84626e-33
2.07902e-33
2.32303e-33
2.57371e-33
2.82518e-33
3.07018e-33
3.3002e-33
3.50559e-33
3.67589e-33
3.80012e-33
3.86738e-33
2.79793e-34
2.958e-34
3.20465e-34
3.54314e-34
3.98156e-34
4.53028e-34
5.20164e-34
6.00957e-34
6.96909e-34
8.09574e-34
9.40475e-34
1.09101e-33
1.26232e-33
1.45517e-33
1.66973e-33
1.90547e-33
2.16089e-33
2.43339e-33
2.71904e-33
3.01249e-33
3.30683e-33
3.59358e-33
3.86278e-33
4.10316e-33
4.30244e-33
4.44782e-33
4.52653e-33
3.26588e-34
3.45319e-34
3.74184e-34
4.13799e-34
4.65114e-34
5.29345e-34
6.07939e-34
7.02527e-34
8.1487e-34
9.46786e-34
1.10006e-33
1.27632e-33
1.47692e-33
1.70272e-33
1.95394e-33
2.22995e-33
2.52898e-33
2.84799e-33
3.18238e-33
3.52588e-33
3.87039e-33
4.206e-33
4.52106e-33
4.80236e-33
5.03558e-33
5.20571e-33
5.29783e-33
3.8126e-34
4.03177e-34
4.36954e-34
4.83315e-34
5.43372e-34
6.18553e-34
7.10552e-34
8.21281e-34
9.52802e-34
1.10724e-33
1.2867e-33
1.49307e-33
1.72793e-33
1.99229e-33
2.28642e-33
2.60955e-33
2.95962e-33
3.33306e-33
3.72449e-33
4.12655e-33
4.52978e-33
4.92258e-33
5.2913e-33
5.62052e-33
5.89345e-33
6.09257e-33
6.20037e-33
4.45139e-34
4.70782e-34
5.10306e-34
5.64558e-34
6.34842e-34
7.22832e-34
8.30514e-34
9.60127e-34
1.11409e-33
1.29489e-33
1.50497e-33
1.74657e-33
2.02153e-33
2.33102e-33
2.67536e-33
3.05363e-33
3.46343e-33
3.90057e-33
4.35875e-33
4.82935e-33
5.30131e-33
5.76104e-33
6.19258e-33
6.57789e-33
6.89731e-33
7.13035e-33
7.25653e-33
5.19779e-34
5.49781e-34
5.96027e-34
6.59509e-34
7.41756e-34
8.44731e-34
9.70761e-34
1.12247e-33
1.30268e-33
1.51432e-33
1.76025e-33
2.04308e-33
2.36495e-33
2.72726e-33
3.13034e-33
3.57314e-33
4.05285e-33
4.56454e-33
5.10083e-33
5.65166e-33
6.20406e-33
6.74214e-33
7.24721e-33
7.69817e-33
8.07202e-33
8.34478e-33
8.49249e-33
6.06999e-34
6.421e-34
6.96207e-34
7.70486e-34
8.66729e-34
9.87233e-34
1.13473e-33
1.31228e-33
1.52321e-33
1.77094e-33
2.0588e-33
2.38987e-33
2.76665e-33
3.19076e-33
3.66259e-33
4.18092e-33
4.74243e-33
5.34136e-33
5.96909e-33
6.61382e-33
7.26037e-33
7.89016e-33
8.48131e-33
9.00913e-33
9.44672e-33
9.766e-33
9.93891e-33
7.08924e-34
7.49989e-34
8.13292e-34
9.002e-34
1.01281e-33
1.15383e-33
1.32643e-33
1.53423e-33
1.7811e-33
2.07104e-33
2.40798e-33
2.79549e-33
3.23651e-33
3.73294e-33
4.28524e-33
4.89195e-33
5.5492e-33
6.25025e-33
6.985e-33
7.73964e-33
8.4964e-33
9.23354e-33
9.92548e-33
1.05433e-32
1.10555e-32
1.14293e-32
1.16317e-32
8.28041e-34
8.76081e-34
9.5014e-34
1.05182e-33
1.18358e-33
1.34858e-33
1.55057e-33
1.79374e-33
2.08266e-33
2.422e-33
2.81635e-33
3.26992e-33
3.78612e-33
4.36718e-33
5.01364e-33
5.72378e-33
6.4931e-33
7.31367e-33
8.17368e-33
9.05698e-33
9.94277e-33
1.08056e-32
1.16155e-32
1.23387e-32
1.29384e-32
1.33759e-32
1.3613e-32
9.67255e-34
1.02345e-33
1.11009e-33
1.22905e-33
1.38322e-33
1.57628e-33
1.81263e-33
2.0972e-33
2.43531e-33
2.83244e-33
3.29398e-33
3.82483e-33
4.42901e-33
5.10911e-33
5.86577e-33
6.69697e-33
7.59744e-33
8.55792e-33
9.56457e-33
1.05985e-32
1.16353e-32
1.26453e-32
1.35934e-32
1.444e-32
1.5142e-32
1.56544e-32
1.5932e-32
1.12996e-33
1.19571e-33
1.29706e-33
1.43623e-33
1.6166e-33
1.84249e-33
2.11904e-33
2.45204e-33
2.8477e-33
3.31246e-33
3.85262e-33
4.47391e-33
5.18103e-33
5.97704e-33
6.86267e-33
7.83557e-33
8.88956e-33
1.00138e-32
1.11921e-32
1.24024e-32
1.36161e-32
1.47984e-32
1.59083e-32
1.68995e-32
1.77214e-32
1.83213e-32
1.86464e-32
1.32014e-33
1.39705e-33
1.51562e-33
1.67843e-33
1.88945e-33
2.15374e-33
2.47733e-33
2.86697e-33
3.32998e-33
3.87387e-33
4.50601e-33
5.23313e-33
6.06073e-33
6.99239e-33
8.02896e-33
9.16772e-33
1.04014e-32
1.17174e-32
1.30966e-32
1.45133e-32
1.59342e-32
1.73183e-32
1.86178e-32
1.97782e-32
2.07407e-32
2.14433e-32
2.18241e-32
1.54244e-33
1.6324e-33
1.7711e-33
1.96157e-33
2.20845e-33
2.51766e-33
2.89627e-33
3.3522e-33
3.89399e-33
4.53046e-33
5.27024e-33
6.12121e-33
7.0898e-33
8.18022e-33
9.39348e-33
1.07264e-32
1.21704e-32
1.37108e-32
1.53254e-32
1.69839e-32
1.86473e-32
2.02677e-32
2.17892e-32
2.31481e-32
2.42752e-32
2.50981e-32
2.55443e-32
1.80229e-33
1.90752e-33
2.06977e-33
2.29259e-33
2.58141e-33
2.94318e-33
3.38616e-33
3.91964e-33
4.55362e-33
5.29842e-33
6.16415e-33
7.16005e-33
8.29366e-33
9.5699e-33
1.099e-32
1.25501e-32
1.42405e-32
1.60437e-32
1.79338e-32
1.98754e-32
2.18228e-32
2.37202e-32
2.55017e-32
2.70931e-32
2.84132e-32
2.93772e-32
2.99e-32
2.10605e-33
2.22914e-33
2.41894e-33
2.6796e-33
3.01748e-33
3.44074e-33
3.95903e-33
4.58323e-33
5.32508e-33
6.19664e-33
7.20977e-33
8.37528e-33
9.70203e-33
1.11958e-32
1.28579e-32
1.46841e-32
1.66628e-32
1.87737e-32
2.09865e-32
2.32597e-32
2.55399e-32
2.77616e-32
2.9848e-32
3.17118e-32
3.32581e-32
3.43876e-32
3.50002e-32
2.46116e-33
2.60514e-33
2.82716e-33
3.13208e-33
3.52736e-33
4.02255e-33
4.62895e-33
5.35931e-33
6.22736e-33
7.24727e-33
8.43289e-33
9.79691e-33
1.13497e-32
1.3098e-32
1.50436e-32
1.71813e-32
1.94976e-32
2.19689e-32
2.45596e-32
2.72212e-32
2.98912e-32
3.24931e-32
3.49366e-32
3.71197e-32
3.89314e-32
4.02548e-32
4.0973e-32
2.8763e-33
3.04472e-33
3.30444e-33
3.66114e-33
4.12357e-33
4.7029e-33
5.41239e-33
6.26696e-33
7.2827e-33
8.47619e-33
9.86369e-33
1.14601e-32
1.32774e-32
1.53238e-32
1.76012e-32
2.01036e-32
2.28153e-32
2.57086e-32
2.8742e-32
3.18586e-32
3.49854e-32
3.80327e-32
4.08948e-32
4.34524e-32
4.55752e-32
4.71263e-32
4.79682e-32
3.36166e-33
3.55867e-33
3.86247e-33
4.27975e-33
4.82074e-33
5.49852e-33
6.32863e-33
7.32854e-33
8.51709e-33
9.91373e-33
1.15375e-32
1.34058e-32
1.5533e-32
1.79283e-32
2.05941e-32
2.35236e-32
2.66984e-32
3.0086e-32
3.3638e-32
3.72878e-32
4.09498e-32
4.45192e-32
4.78722e-32
5.08689e-32
5.33565e-32
5.51748e-32
5.61621e-32
3.92913e-33
4.15958e-33
4.51496e-33
5.00311e-33
5.636e-33
6.42897e-33
7.4002e-33
8.57018e-33
9.96097e-33
1.15954e-32
1.34957e-32
1.56823e-32
1.81721e-32
2.09759e-32
2.40967e-32
2.75264e-32
3.12435e-32
3.52102e-32
3.93698e-32
4.36444e-32
4.79338e-32
5.21152e-32
5.60438e-32
5.95555e-32
6.24713e-32
6.46032e-32
6.57612e-32
4.59263e-33
4.8622e-33
5.27792e-33
5.84898e-33
6.58939e-33
7.51714e-33
8.65351e-33
1.00225e-32
1.165e-32
1.35626e-32
1.57866e-32
1.8346e-32
2.12603e-32
2.45425e-32
2.81959e-32
3.22115e-32
3.6564e-32
4.12092e-32
4.60807e-32
5.10876e-32
5.61125e-32
6.10116e-32
6.56152e-32
6.97311e-32
7.31495e-32
7.56496e-32
7.70082e-32
5.36844e-33
5.68378e-33
6.1701e-33
6.83815e-33
7.70437e-33
8.78981e-33
1.01194e-32
1.17213e-32
1.36258e-32
1.58642e-32
1.84671e-32
2.14627e-32
2.48741e-32
2.87165e-32
3.29939e-32
3.76957e-32
4.27926e-32
4.82328e-32
5.39388e-32
5.98041e-32
6.56915e-32
7.14322e-32
7.68278e-32
8.16528e-32
8.56611e-32
8.85937e-32
9.01881e-32
6.27563e-33
6.6445e-33
7.21342e-33
7.99496e-33
9.00838e-33
1.02783e-32
1.18341e-32
1.37086e-32
1.59373e-32
1.85569e-32
2.16034e-32
2.51099e-32
2.91033e-32
3.36018e-32
3.86101e-32
4.41159e-32
5.00849e-32
5.6457e-32
6.31412e-32
7.0013e-32
7.69117e-32
8.36399e-32
8.99647e-32
9.5622e-32
1.00323e-31
1.03764e-31
1.05636e-31
7.33647e-33
7.76799e-33
8.43354e-33
9.34787e-33
1.05335e-32
1.20194e-32
1.38398e-32
1.60333e-32
1.86415e-32
2.17075e-32
2.52734e-32
2.9378e-32
3.40532e-32
3.93201e-32
4.51846e-32
5.16324e-32
5.86237e-32
6.60879e-32
7.3919e-32
8.19712e-32
9.00563e-32
9.79431e-32
1.05359e-31
1.11993e-31
1.17508e-31
1.21546e-31
1.23744e-31
8.57706e-33
9.08187e-33
9.86049e-33
1.09302e-32
1.23174e-32
1.4056e-32
1.61862e-32
1.87531e-32
2.18055e-32
2.5394e-32
2.95681e-32
3.43732e-32
3.98468e-32
4.60139e-32
5.28816e-32
6.04334e-32
6.86228e-32
7.73676e-32
8.65437e-32
9.59804e-32
1.05458e-31
1.14704e-31
1.234e-31
1.31183e-31
1.37654e-31
1.42395e-31
1.44976e-31
1.00279e-32
1.06185e-32
1.15294e-32
1.27809e-32
1.44041e-32
1.64384e-32
1.89311e-32
2.19351e-32
2.55076e-32
2.9708e-32
3.45942e-32
4.02197e-32
4.66286e-32
5.38504e-32
6.18937e-32
7.07394e-32
8.03336e-32
9.058e-32
1.01334e-31
1.12395e-31
1.23506e-31
1.34349e-31
1.44549e-31
1.53681e-31
1.61276e-31
1.66843e-31
1.69876e-31
1.17248e-32
1.24157e-32
1.34814e-32
1.49458e-32
1.68449e-32
1.92255e-32
2.21425e-32
2.56582e-32
2.98397e-32
3.47564e-32
4.04767e-32
4.70632e-32
5.45679e-32
6.30256e-32
7.24468e-32
8.28094e-32
9.40506e-32
1.06058e-31
1.18663e-31
1.31631e-31
1.44659e-31
1.57377e-31
1.69345e-31
1.80062e-31
1.88979e-31
1.95518e-31
1.99084e-31
1.37095e-32
1.45178e-32
1.57647e-32
1.74781e-32
1.97003e-32
2.24861e-32
2.58999e-32
3.00147e-32
3.49092e-32
4.0665e-32
4.73621e-32
5.50745e-32
6.38631e-32
7.37693e-32
8.48056e-32
9.69469e-32
1.1012e-31
1.24194e-31
1.38971e-31
1.54176e-31
1.69458e-31
1.84378e-31
1.98422e-31
2.11003e-31
2.21477e-31
2.2916e-31
2.33353e-31
1.60309e-32
1.69767e-32
1.84357e-32
2.04404e-32
2.30409e-32
2.6301e-32
3.02964e-32
3.51127e-32
4.08422e-32
4.75807e-32
5.54222e-32
6.44536e-32
7.4747e-32
8.6351e-32
9.92811e-32
1.13508e-31
1.28948e-31
1.45447e-31
1.62773e-31
1.80607e-31
1.98534e-31
2.16043e-31
2.32529e-31
2.47303e-31
2.59607e-31
2.68639e-31
2.73571e-31
1.87464e-32
1.9853e-32
2.15602e-32
2.39061e-32
2.69493e-32
3.07647e-32
3.54411e-32
4.10788e-32
4.77863e-32
5.56759e-32
6.48583e-32
7.54355e-32
8.74925e-32
1.01087e-31
1.16238e-31
1.32912e-31
1.51011e-31
1.70356e-31
1.90676e-31
2.11598e-31
2.32634e-31
2.53186e-31
2.72544e-31
2.89899e-31
3.0436e-31
3.14981e-31
3.20785e-31
2.19231e-32
2.3218e-32
2.52156e-32
2.79609e-32
3.15224e-32
3.5988e-32
4.14618e-32
4.80615e-32
5.59146e-32
6.51528e-32
7.59063e-32
8.82953e-32
1.0242e-31
1.18349e-31
1.36105e-31
1.5565e-31
1.76871e-31
1.99557e-31
2.23395e-31
2.47943e-31
2.72635e-31
2.96767e-31
3.19505e-31
3.39898e-31
3.56899e-31
3.69394e-31
3.76229e-31
2.56394e-32
2.71547e-32
2.94924e-32
3.27053e-32
3.68736e-32
4.21005e-32
4.85082e-32
5.62348e-32
6.54298e-32
7.62483e-32
8.88432e-32
1.03356e-31
1.19905e-31
1.38572e-31
1.59385e-31
1.823e-31
2.07185e-31
2.33797e-31
2.61767e-31
2.9058e-31
3.19571e-31
3.47914e-31
3.74631e-31
3.98604e-31
4.18601e-31
4.33307e-31
4.41359e-31
2.99874e-32
3.17607e-32
3.44966e-32
3.82569e-32
4.31358e-32
4.92543e-32
5.67558e-32
6.58025e-32
7.65699e-32
8.92403e-32
1.03994e-31
1.20997e-31
1.4039e-31
1.62269e-31
1.86669e-31
2.1354e-31
2.42729e-31
2.73954e-31
3.06781e-31
3.40609e-31
3.74658e-31
4.0796e-31
4.39364e-31
4.67556e-31
4.91086e-31
5.08404e-31
5.17895e-31
3.50749e-32
3.71502e-32
4.03523e-32
4.47536e-32
5.04647e-32
5.76275e-32
6.64103e-32
7.70036e-32
8.96137e-32
1.04455e-31
1.21739e-31
1.41663e-31
1.64391e-31
1.9004e-31
2.18651e-31
2.50169e-31
2.84415e-31
3.21061e-31
3.596e-31
3.9933e-31
4.39333e-31
4.78475e-31
5.15403e-31
5.48572e-31
5.76273e-31
5.96675e-31
6.07869e-31
4.1028e-32
4.3457e-32
4.7205e-32
5.2357e-32
5.90428e-32
6.74288e-32
7.77128e-32
9.01186e-32
1.04888e-31
1.22274e-31
1.42526e-31
1.65876e-31
1.92519e-31
2.22593e-31
2.56149e-31
2.93126e-31
3.33316e-31
3.76336e-31
4.21596e-31
4.68272e-31
5.15289e-31
5.61313e-31
6.04756e-31
6.43799e-31
6.76426e-31
7.00477e-31
7.13687e-31
4.79946e-32
5.08378e-32
5.52251e-32
6.12564e-32
6.90839e-32
7.89031e-32
9.09462e-32
1.05476e-31
1.22778e-31
1.43148e-31
1.66881e-31
1.94251e-31
2.25489e-31
2.60758e-31
3.00124e-31
3.43516e-31
3.90695e-31
4.41215e-31
4.94386e-31
5.49243e-31
6.04526e-31
6.58667e-31
7.09798e-31
7.55778e-31
7.94229e-31
8.22597e-31
8.38195e-31
5.61479e-32
5.94763e-32
6.46124e-32
7.16736e-32
8.08388e-32
9.23373e-32
1.06442e-31
1.23462e-31
1.43733e-31
1.67603e-31
1.9542e-31
2.27508e-31
2.64141e-31
3.05514e-31
3.51707e-31
4.02642e-31
4.58043e-31
5.17391e-31
5.79878e-31
6.44377e-31
7.09406e-31
7.73126e-31
8.33337e-31
8.87516e-31
9.32857e-31
9.66339e-31
9.84771e-31
6.56911e-32
6.95876e-32
7.5601e-32
8.38689e-32
9.46015e-32
1.08068e-31
1.2459e-31
1.44529e-31
1.68282e-31
1.96258e-31
2.28869e-31
2.66496e-31
3.09465e-31
3.58011e-31
4.1223e-31
4.72038e-31
5.37117e-31
6.0686e-31
6.80327e-31
7.56195e-31
8.32727e-31
9.07758e-31
9.78701e-31
1.04258e-30
1.09608e-30
1.13562e-30
1.15742e-30
7.68621e-32
8.14243e-32
8.84655e-32
9.81474e-32
1.10717e-31
1.26491e-31
1.45846e-31
1.69209e-31
1.97046e-31
2.29842e-31
2.6808e-31
3.12212e-31
3.62627e-31
4.19604e-31
4.83264e-31
5.53515e-31
6.2999e-31
7.11984e-31
7.98398e-31
8.87682e-31
9.77798e-31
1.0662e-30
1.14984e-30
1.2252e-30
1.28837e-30
1.3351e-30
1.3609e-30
8.99399e-32
9.52822e-32
1.03528e-31
1.14867e-31
1.2959e-31
1.48068e-31
1.70746e-31
1.98126e-31
2.30757e-31
2.69209e-31
3.14055e-31
3.65831e-31
4.24998e-31
4.91892e-31
5.66662e-31
6.49209e-31
7.39112e-31
8.35552e-31