/*--------------------------------*- C++ -*----------------------------------*\
| =========                 |                                                 |
| \\      /  F ield         | OpenFOAM: The Open Source CFD Toolbox           |
|  \\    /   O peration     | Version:  2212                                  |
|   \\  /    A nd           | Website:  www.openfoam.com                      |
|    \\/     M anipulation  |                                                 |
\*---------------------------------------------------------------------------*/
FoamFile
{
    version     2.0;
    format      ascii;
    arch        "LSB;label=32;scalar=64";
    class       volScalarField;
    location    "9.0545968";
    object      C4H4_0;
}
// * * * * * * * * * * * * * * * * * * * * * * * * * * * * * * * * * * * * * //

dimensions      [0 0 0 0 0 0 0];

internalField   nonuniform List<scalar> 
33600
(
1.40898e-23
1.42833e-23
1.45757e-23
1.49664e-23
1.54566e-23
1.60483e-23
1.67442e-23
1.75479e-23
1.84632e-23
1.94944e-23
2.06459e-23
2.19221e-23
2.33269e-23
2.48641e-23
2.65366e-23
2.83464e-23
3.0294e-23
3.23782e-23
3.45959e-23
3.6941e-23
3.94044e-23
4.19726e-23
4.46248e-23
4.73247e-23
4.99915e-23
5.24302e-23
5.41388e-23
4.21255e-23
4.27519e-23
4.36986e-23
4.49636e-23
4.65507e-23
4.84663e-23
5.07198e-23
5.33225e-23
5.62872e-23
5.96278e-23
6.33585e-23
6.74938e-23
7.2047e-23
7.70303e-23
8.24534e-23
8.83229e-23
9.46409e-23
1.01404e-22
1.08602e-22
1.16214e-22
1.24213e-22
1.32555e-22
1.41185e-22
1.50026e-22
1.58932e-22
1.67607e-22
1.7467e-22
7.31774e-23
7.43366e-23
7.60885e-23
7.84297e-23
8.1367e-23
8.49129e-23
8.90849e-23
9.39042e-23
9.93953e-23
1.05584e-22
1.12498e-22
1.20164e-22
1.28609e-22
1.37856e-22
1.47925e-22
1.58831e-22
1.70581e-22
1.83175e-22
1.96603e-22
2.10845e-22
2.25871e-22
2.4164e-22
2.58093e-22
2.75136e-22
2.92456e-22
3.09211e-22
3.22119e-22
1.07625e-22
1.09434e-22
1.12169e-22
1.15824e-22
1.2041e-22
1.25947e-22
1.32463e-22
1.39994e-22
1.48577e-22
1.58255e-22
1.69073e-22
1.81076e-22
1.94307e-22
2.08809e-22
2.24617e-22
2.41763e-22
2.6027e-22
2.80155e-22
3.01426e-22
3.24082e-22
3.48116e-22
3.73506e-22
4.00173e-22
4.27885e-22
4.55885e-22
4.82186e-22
5.01172e-22
1.45896e-22
1.48494e-22
1.5242e-22
1.57667e-22
1.64252e-22
1.72206e-22
1.8157e-22
1.92397e-22
2.04744e-22
2.18676e-22
2.34261e-22
2.5157e-22
2.70672e-22
2.91637e-22
3.14532e-22
3.39417e-22
3.6635e-22
3.95383e-22
4.26565e-22
4.59936e-22
4.95514e-22
5.33264e-22
5.72981e-22
6.14073e-22
6.54928e-22
6.91903e-22
7.17102e-22
1.88479e-22
1.92027e-22
1.97388e-22
2.04555e-22
2.13552e-22
2.24424e-22
2.37231e-22
2.52046e-22
2.68956e-22
2.88055e-22
3.09444e-22
3.33229e-22
3.59521e-22
3.88432e-22
4.20073e-22
4.54559e-22
4.92003e-22
5.32514e-22
5.76198e-22
6.23137e-22
6.73346e-22
7.26692e-22
7.82672e-22
8.40029e-22
8.95908e-22
9.44745e-22
9.76527e-22
2.35932e-22
2.40619e-22
2.47702e-22
2.57173e-22
2.69068e-22
2.83448e-22
3.004e-22
3.20027e-22
3.42452e-22
3.6781e-22
3.9625e-22
4.27929e-22
4.63015e-22
5.01683e-22
5.44117e-22
5.90504e-22
6.41037e-22
6.95902e-22
7.55267e-22
8.1923e-22
8.87742e-22
9.60428e-22
1.03626e-21
1.11298e-21
1.1862e-21
1.24831e-21
1.28731e-21
2.88898e-22
2.94945e-22
3.04085e-22
3.16311e-22
3.31674e-22
3.50261e-22
3.7219e-22
3.97606e-22
4.26682e-22
4.59609e-22
4.966e-22
5.37886e-22
5.83715e-22
6.34353e-22
6.90079e-22
7.51183e-22
8.17957e-22
8.90675e-22
9.69549e-22
1.05465e-21
1.14575e-21
1.24206e-21
1.34175e-21
1.4413e-21
1.53452e-21
1.61165e-21
1.65877e-21
3.48118e-22
3.55785e-22
3.67375e-22
3.82886e-22
4.0239e-22
4.26005e-22
4.53896e-22
4.86264e-22
5.23346e-22
5.6541e-22
6.12758e-22
6.65719e-22
7.24653e-22
7.89944e-22
8.61999e-22
9.41237e-22
1.02807e-21
1.12284e-21
1.22579e-21
1.33688e-21
1.45555e-21
1.58039e-21
1.70851e-21
1.83482e-21
1.95114e-21
2.04546e-21
2.10188e-21
4.14451e-22
4.24041e-22
4.38543e-22
4.57962e-22
4.82398e-22
5.12015e-22
5.47035e-22
5.87735e-22
6.34439e-22
6.87518e-22
7.47391e-22
8.14518e-22
8.89404e-22
9.72589e-22
1.06464e-21
1.16612e-21
1.27758e-21
1.39942e-21
1.53184e-21
1.67459e-21
1.82661e-21
1.98563e-21
2.14742e-21
2.30508e-21
2.44818e-21
2.56234e-21
2.6295e-21
4.88895e-22
5.00763e-22
5.18718e-22
5.42777e-22
5.73078e-22
6.09845e-22
6.53379e-22
7.04051e-22
7.62303e-22
8.28641e-22
9.03635e-22
9.87918e-22
1.08218e-21
1.18715e-21
1.30359e-21
1.43224e-21
1.57376e-21
1.72862e-21
1.89687e-21
2.0779e-21
2.26999e-21
2.46973e-21
2.6713e-21
2.86565e-21
3.0399e-21
3.17707e-21
3.25672e-21
5.72608e-22
5.87172e-22
6.09215e-22
6.38775e-22
6.7604e-22
7.21314e-22
7.74999e-22
8.37593e-22
9.09686e-22
9.91959e-22
1.08518e-21
1.19019e-21
1.30791e-21
1.43932e-21
1.5854e-21
1.74708e-21
1.92513e-21
2.12e-21
2.33154e-21
2.55862e-21
2.79861e-21
3.04669e-21
3.29513e-21
3.53247e-21
3.74305e-21
3.90701e-21
4.00123e-21
6.66941e-22
6.84689e-22
7.11565e-22
7.47638e-22
7.93164e-22
8.48547e-22
9.14322e-22
9.91148e-22
1.07981e-21
1.1812e-21
1.29634e-21
1.42634e-21
1.57241e-21
1.7358e-21
1.91776e-21
2.11941e-21
2.34163e-21
2.58478e-21
2.84837e-21
3.13056e-21
3.42757e-21
3.73289e-21
4.03652e-21
4.32424e-21
4.57727e-21
4.77252e-21
4.88376e-21
7.73464e-22
7.94969e-22
8.27555e-22
8.71332e-22
9.26645e-22
9.94028e-22
1.07419e-21
1.16798e-21
1.27644e-21
1.40074e-21
1.54219e-21
1.70226e-21
1.88247e-21
2.08443e-21
2.30965e-21
2.5595e-21
2.8349e-21
3.13603e-21
3.46194e-21
3.80986e-21
4.17458e-21
4.54755e-21
4.91613e-21
5.26293e-21
5.56562e-21
5.79745e-21
5.9286e-21
8.94009e-22
9.19943e-22
9.59268e-22
1.01215e-21
1.07905e-21
1.16066e-21
1.25791e-21
1.37191e-21
1.504e-21
1.65569e-21
1.82868e-21
2.02482e-21
2.24606e-21
2.49437e-21
2.77163e-21
3.07937e-21
3.41854e-21
3.78908e-21
4.18935e-21
4.61544e-21
5.06037e-21
5.51318e-21
5.95815e-21
6.37425e-21
6.73511e-21
7.00974e-21
7.1642e-21
1.03071e-21
1.06186e-21
1.10913e-21
1.17277e-21
1.25337e-21
1.35184e-21
1.46938e-21
1.60742e-21
1.76767e-21
1.95206e-21
2.16276e-21
2.40209e-21
2.6725e-21
2.97639e-21
3.31599e-21
3.69306e-21
4.1085e-21
4.56185e-21
5.05061e-21
5.56944e-21
6.10924e-21
6.65618e-21
7.19098e-21
7.6884e-21
8.11741e-21
8.44216e-21
8.62391e-21
1.18606e-21
1.22335e-21
1.27999e-21
1.35631e-21
1.4531e-21
1.57154e-21
1.71314e-21
1.87974e-21
2.0735e-21
2.29688e-21
2.55258e-21
2.84353e-21
3.17271e-21
3.54306e-21
3.95719e-21
4.41705e-21
4.92342e-21
5.47532e-21
6.06915e-21
6.69781e-21
7.34965e-21
8.00749e-21
8.64787e-21
9.24071e-21
9.74959e-21
1.0133e-20
1.03468e-20
1.36296e-21
1.40748e-21
1.47515e-21
1.56642e-21
1.68234e-21
1.82439e-21
1.99449e-21
2.19499e-21
2.42858e-21
2.69836e-21
3.00769e-21
3.36018e-21
3.75948e-21
4.20911e-21
4.71211e-21
5.27059e-21
5.88515e-21
6.55407e-21
7.27241e-21
8.03093e-21
8.81495e-21
9.60334e-21
1.03678e-20
1.10726e-20
1.16751e-20
1.21274e-20
1.23785e-20
1.56479e-21
1.61781e-21
1.69847e-21
1.80738e-21
1.94586e-21
2.11582e-21
2.31967e-21
2.56033e-21
2.84121e-21
3.16612e-21
3.53925e-21
3.96499e-21
4.44779e-21
4.9918e-21
5.60053e-21
6.27625e-21
7.01923e-21
7.82687e-21
8.69253e-21
9.6044e-21
1.05442e-20
1.14862e-20
1.23964e-20
1.32326e-20
1.39449e-20
1.44777e-20
1.47727e-20
1.79551e-21
1.85853e-21
1.95447e-21
2.08415e-21
2.24925e-21
2.45217e-21
2.69592e-21
2.98415e-21
3.32108e-21
3.71144e-21
4.16033e-21
4.67312e-21
5.25514e-21
5.9113e-21
6.6456e-21
7.46043e-21
8.35562e-21
9.32741e-21
1.03671e-20
1.14599e-20
1.25832e-20
1.37058e-20
1.47872e-20
1.57775e-20
1.66185e-20
1.72457e-20
1.7592e-20
2.05973e-21
2.1345e-21
2.24841e-21
2.40255e-21
2.59903e-21
2.84084e-21
3.13174e-21
3.47625e-21
3.87956e-21
4.34748e-21
4.88624e-21
5.50231e-21
6.20205e-21
6.99125e-21
7.87443e-21
8.85405e-21
9.92936e-21
1.10952e-20
1.23403e-20
1.36463e-20
1.49855e-20
1.63205e-20
1.76029e-20
1.87739e-20
1.97657e-20
2.05035e-20
2.091e-20
2.36282e-21
2.4514e-21
2.58645e-21
2.76937e-21
3.00282e-21
3.2905e-21
3.63707e-21
4.04809e-21
4.52994e-21
5.08967e-21
5.73487e-21
6.4733e-21
7.31254e-21
8.25931e-21
9.31875e-21
1.04933e-20
1.17815e-20
1.31763e-20
1.46637e-20
1.62207e-20
1.78139e-20
1.93983e-20
2.09166e-20
2.22997e-20
2.34683e-20
2.43357e-20
2.48125e-20
2.71108e-21
2.81587e-21
2.97576e-21
3.19254e-21
3.46952e-21
3.81127e-21
4.22352e-21
4.71309e-21
5.28774e-21
5.95606e-21
6.72717e-21
7.6104e-21
8.61469e-21
9.74788e-21
1.10157e-20
1.24206e-20
1.39601e-20
1.5625e-20
1.73977e-20
1.92502e-20
2.1142e-20
2.30193e-20
2.48145e-20
2.64462e-20
2.78219e-20
2.8841e-20
2.94003e-20
3.11182e-21
3.23566e-21
3.42474e-21
3.68134e-21
4.00955e-21
4.41499e-21
4.90468e-21
5.48692e-21
6.17115e-21
6.96774e-21
7.88767e-21
8.94204e-21
1.01414e-20
1.14948e-20
1.30088e-20
1.46855e-20
1.65213e-20
1.85045e-20
2.06131e-20
2.2813e-20
2.50557e-20
2.7277e-20
2.93969e-20
3.13201e-20
3.29385e-20
3.41354e-20
3.47913e-20
3.57362e-21
3.71981e-21
3.94318e-21
4.24659e-21
4.63506e-21
5.11549e-21
5.69641e-21
6.38792e-21
7.20143e-21
8.14943e-21
9.24505e-21
1.05015e-20
1.19312e-20
1.35446e-20
1.53489e-20
1.73462e-20
1.95311e-20
2.1889e-20
2.43928e-20
2.70011e-20
2.96558e-20
3.22808e-20
3.47816e-20
3.70464e-20
3.89493e-20
4.03544e-20
4.11233e-20
4.10646e-21
4.27888e-21
4.54253e-21
4.90093e-21
5.36027e-21
5.92894e-21
6.6173e-21
7.43755e-21
8.40346e-21
9.53001e-21
1.08329e-20
1.23277e-20
1.4029e-20
1.5949e-20
1.80956e-20
2.04705e-20
2.30666e-20
2.58653e-20
2.88338e-20
3.19219e-20
3.50604e-20
3.8159e-20
4.11064e-20
4.37717e-20
4.60077e-20
4.76566e-20
4.85578e-20
4.72201e-21
4.92522e-21
5.23615e-21
5.65916e-21
6.2018e-21
6.87424e-21
7.68903e-21
8.66088e-21
9.80632e-21
1.11433e-20
1.26904e-20
1.44662e-20
1.64877e-20
1.8769e-20
2.13187e-20
2.41381e-20
2.7218e-20
3.05351e-20
3.40495e-20
3.77012e-20
4.14074e-20
4.50615e-20
4.85325e-20
5.16671e-20
5.42934e-20
5.62277e-20
5.72838e-20
5.4339e-21
5.67324e-21
6.03966e-21
6.53854e-21
7.17905e-21
7.97349e-21
8.93701e-21
1.00873e-20
1.14441e-20
1.30288e-20
1.48636e-20
1.69704e-20
1.9369e-20
2.20755e-20
2.50997e-20
2.84422e-20
3.20908e-20
3.60172e-20
4.01729e-20
4.44861e-20
4.88585e-20
5.31641e-20
5.72489e-20
6.09332e-20
6.40165e-20
6.62852e-20
6.75226e-20
6.25805e-21
6.53977e-21
6.9713e-21
7.55925e-21
8.31471e-21
9.25253e-21
1.03909e-20
1.1751e-20
1.33565e-20
1.52328e-20
1.74063e-20
1.99025e-20
2.27449e-20
2.59518e-20
2.95342e-20
3.34917e-20
3.78089e-20
4.2451e-20
4.73596e-20
5.24491e-20
5.76029e-20
6.26722e-20
6.74763e-20
7.18046e-20
7.54232e-20
7.80832e-20
7.95328e-20
7.21305e-21
7.54446e-21
8.05239e-21
8.74487e-21
9.63531e-21
1.07415e-20
1.20854e-20
1.36922e-20
1.55901e-20
1.78094e-20
2.03812e-20
2.33357e-20
2.67e-20
3.04954e-20
3.4734e-20
3.94142e-20
4.45167e-20
4.99992e-20
5.57916e-20
6.17918e-20
6.78619e-20
7.38265e-20
7.94733e-20
8.4556e-20
8.88014e-20
9.19194e-20
9.36174e-20
8.32062e-21
8.7103e-21
9.30783e-21
1.0123e-20
1.11718e-20
1.24758e-20
1.40611e-20
1.59577e-20
1.81994e-20
2.08219e-20
2.3862e-20
2.73552e-20
3.13331e-20
3.58203e-20
4.08298e-20
4.6359e-20
5.23837e-20
5.88526e-20
6.5682e-20
7.27503e-20
7.98946e-20
8.69084e-20
9.35425e-20
9.95087e-20
1.04488e-19
1.08142e-19
1.10131e-19
9.60613e-21
1.00641e-20
1.07667e-20
1.17258e-20
1.29605e-20
1.44967e-20
1.63654e-20
1.86025e-20
2.1248e-20
2.43444e-20
2.79348e-20
3.2061e-20
3.67599e-20
4.20596e-20
4.79748e-20
5.45009e-20
6.1608e-20
6.92344e-20
7.728e-20
8.56008e-20
9.40042e-20
1.02247e-19
1.10038e-19
1.17039e-19
1.22877e-19
1.27159e-19
1.29488e-19
1.10992e-20
1.16373e-20
1.24631e-20
1.35909e-20
1.50438e-20
1.68524e-20
1.90538e-20
2.16907e-20
2.48105e-20
2.84633e-20
3.27002e-20
3.757e-20
4.31156e-20
4.93696e-20
5.6348e-20
6.40441e-20
7.24214e-20
8.14056e-20
9.08775e-20
1.00666e-19
1.10545e-19
1.20229e-19
1.29374e-19
1.37586e-19
1.4443e-19
1.49447e-19
1.52173e-19
1.28345e-20
1.34664e-20
1.44367e-20
1.57623e-20
1.7471e-20
1.95992e-20
2.21911e-20
2.52973e-20
2.89739e-20
3.32801e-20
3.8276e-20
4.40188e-20
5.05586e-20
5.79327e-20
6.61589e-20
7.52279e-20
8.50952e-20
9.56716e-20
1.06816e-19
1.18325e-19
1.29933e-19
1.41304e-19
1.52035e-19
1.61666e-19
1.69687e-19
1.75563e-19
1.78755e-19
1.48525e-20
1.55944e-20
1.67339e-20
1.82914e-20
2.03001e-20
2.28032e-20
2.58532e-20
2.95101e-20
3.38401e-20
3.89132e-20
4.47999e-20
5.15674e-20
5.9274e-20
6.79625e-20
7.76527e-20
8.83322e-20
9.99468e-20
1.1239e-19
1.25494e-19
1.3902e-19
1.52653e-19
1.66e-19
1.78588e-19
1.89879e-19
1.99278e-19
2.0616e-19
2.09898e-19
1.72005e-20
1.80712e-20
1.9409e-20
2.12384e-20
2.35988e-20
2.65415e-20
3.01287e-20
3.44316e-20
3.95282e-20
4.55011e-20
5.24331e-20
6.04029e-20
6.94784e-20
7.97088e-20
9.11162e-20
1.03684e-19
1.17348e-19
1.31979e-19
1.4738e-19
1.63268e-19
1.79274e-19
1.94934e-19
2.09698e-19
2.22932e-19
2.33944e-19
2.42003e-19
2.46378e-19
1.99336e-20
2.09553e-20
2.25255e-20
2.46735e-20
2.7446e-20
3.09042e-20
3.51214e-20
4.01817e-20
4.61776e-20
5.32059e-20
6.13641e-20
7.07442e-20
8.14252e-20
9.3464e-20
1.06885e-19
1.21667e-19
1.37732e-19
1.54928e-19
1.7302e-19
1.91676e-19
2.1046e-19
2.2883e-19
2.46139e-19
2.61648e-19
2.74547e-19
2.83984e-19
2.89105e-19
2.31166e-20
2.4315e-20
2.61574e-20
2.86787e-20
3.19343e-20
3.59966e-20
4.09523e-20
4.69009e-20
5.39511e-20
6.22171e-20
7.18132e-20
8.28472e-20
9.54108e-20
1.0957e-19
1.25352e-19
1.42729e-19
1.61608e-19
1.81809e-19
2.03053e-19
2.24951e-19
2.46989e-19
2.68531e-19
2.8882e-19
3.06992e-19
3.22099e-19
3.33147e-19
3.39141e-19
2.68248e-20
2.82302e-20
3.03915e-20
3.33501e-20
3.71718e-20
4.19419e-20
4.77633e-20
5.4753e-20
6.30393e-20
7.27564e-20
8.40384e-20
9.70112e-20
1.11782e-19
1.28427e-19
1.46975e-19
1.67394e-19
1.89571e-19
2.13292e-19
2.38229e-19
2.63922e-19
2.8977e-19
3.15026e-19
3.38803e-19
3.60091e-19
3.77782e-19
3.90716e-19
3.97731e-19
3.11464e-20
3.27943e-20
3.53291e-20
3.87999e-20
4.32846e-20
4.88842e-20
5.572e-20
6.393e-20
7.36651e-20
8.5083e-20
9.83411e-20
1.13587e-19
1.30944e-19
1.50502e-19
1.72293e-19
1.96276e-19
2.22315e-19
2.5016e-19
2.79422e-19
3.0956e-19
3.39868e-19
3.69471e-19
3.97331e-19
4.22265e-19
4.42981e-19
4.58121e-19
4.66329e-19
3.61845e-20
3.81163e-20
4.10884e-20
4.51592e-20
5.04206e-20
5.6992e-20
6.50162e-20
7.46561e-20
8.60889e-20
9.95001e-20
1.15074e-19
1.32983e-19
1.53372e-19
1.76343e-19
2.01933e-19
2.30091e-19
2.60656e-19
2.9333e-19
3.27656e-19
3.62998e-19
3.98528e-19
4.33219e-19
4.65857e-19
4.95059e-19
5.19312e-19
5.37033e-19
5.46638e-19
4.20596e-20
4.43238e-20
4.7808e-20
5.25813e-20
5.87524e-20
6.6462e-20
7.58786e-20
8.71936e-20
1.00616e-19
1.16362e-19
1.3465e-19
1.5568e-19
1.79621e-19
2.0659e-19
2.3663e-19
2.69678e-19
3.05543e-19
3.43873e-19
3.84129e-19
4.25564e-19
4.67206e-19
5.07853e-19
5.46082e-19
5.80276e-19
6.08669e-19
6.29409e-19
6.40649e-19
4.89124e-20
5.15658e-20
5.56495e-20
6.12455e-20
6.84819e-20
7.75246e-20
8.85719e-20
1.01849e-19
1.17602e-19
1.36084e-19
1.57551e-19
1.82236e-19
2.10338e-19
2.41993e-19
2.77245e-19
3.1602e-19
3.58091e-19
4.03043e-19
4.50241e-19
4.98809e-19
5.47605e-19
5.95221e-19
6.39994e-19
6.8003e-19
7.13265e-19
7.37537e-19
7.50689e-19
5.69076e-20
6.00164e-20
6.48021e-20
7.13612e-20
7.9845e-20
9.04487e-20
1.03406e-19
1.18982e-19
1.37463e-19
1.59151e-19
1.84341e-19
2.13309e-19
2.46285e-19
2.83425e-19
3.24782e-19
3.70264e-19
4.19603e-19
4.72307e-19
5.27633e-19
5.84548e-19
6.41717e-19
6.9749e-19
7.49919e-19
7.9679e-19
8.35691e-19
8.64094e-19
8.79482e-19
6.62374e-20
6.98795e-20
7.54867e-20
8.31734e-20
9.31176e-20
1.05549e-19
1.20743e-19
1.3901e-19
1.60689e-19
1.8613e-19
2.15681e-19
2.49664e-19
2.88347e-19
3.31912e-19
3.80417e-19
4.33753e-19
4.916e-19
5.5338e-19
6.18219e-19
6.84906e-19
7.51874e-19
8.17191e-19
8.78577e-19
9.33445e-19
9.78974e-19
1.01221e-18
1.03021e-18
7.71268e-20
8.13929e-20
8.79619e-20
9.69685e-20
1.08622e-19
1.23194e-19
1.41006e-19
1.62425e-19
1.87847e-19
2.17683e-19
2.52342e-19
2.92198e-19
3.37565e-19
3.88653e-19
4.45527e-19
5.08057e-19
5.75864e-19
6.48269e-19
7.24242e-19
8.02365e-19
8.808e-19
9.57285e-19
1.02915e-18
1.09338e-18
1.14666e-18
1.18555e-18
1.20661e-18
8.98387e-20
9.48351e-20
1.0253e-19
1.13081e-19
1.26736e-19
1.43813e-19
1.64692e-19
1.898e-19
2.19605e-19
2.54588e-19
2.95226e-19
3.41959e-19
3.95151e-19
4.55047e-19
5.2172e-19
5.95014e-19
6.7448e-19
7.5932e-19
8.48325e-19
9.3983e-19
1.03168e-18
1.12124e-18
1.20536e-18
1.28053e-18
1.34288e-18
1.38838e-18
1.41302e-18
1.0468e-19
1.10531e-19
1.19543e-19
1.31903e-19
1.47901e-19
1.6791e-19
1.92377e-19
2.21806e-19
2.56741e-19
2.9775e-19
3.45389e-19
4.00173e-19
4.62526e-19
5.32734e-19
6.10878e-19
6.9677e-19
7.89884e-19
8.89277e-19
9.93533e-19
1.1007e-18
1.20825e-18
1.31309e-18
1.41157e-18
1.49954e-18
1.5725e-18
1.62573e-18
1.65456e-18
1.2201e-19
1.28862e-19
1.39415e-19
1.53891e-19
1.7263e-19
1.96073e-19
2.24741e-19
2.59226e-19
3.00168e-19
3.4823e-19
4.04065e-19
4.68274e-19
5.41352e-19
6.2363e-19
7.15201e-19
8.1584e-19
9.24925e-19
1.04135e-18
1.16345e-18
1.28894e-18
1.41487e-18
1.53759e-18
1.65285e-18
1.7558e-18
1.84117e-18
1.90345e-18
1.93717e-18
1.4225e-19
1.50271e-19
1.62629e-19
1.79581e-19
2.01529e-19
2.28988e-19
2.62573e-19
3.02977e-19
3.5095e-19
4.07269e-19
4.72698e-19
5.47939e-19
6.33571e-19
7.29977e-19
8.37263e-19
9.55161e-19
1.08294e-18
1.2193e-18
1.36228e-18
1.50921e-18
1.65663e-18
1.80028e-18
1.93517e-18
2.05564e-18
2.15552e-18
2.22838e-18
2.26782e-18
1.65888e-19
1.75279e-19
1.89747e-19
2.09597e-19
2.353e-19
2.67461e-19
3.06801e-19
3.54132e-19
4.10335e-19
4.76318e-19
5.52976e-19
6.4113e-19
7.41455e-19
8.54397e-19
9.80074e-19
1.11817e-18
1.26782e-18
1.4275e-18
1.59492e-18
1.76694e-18
1.9395e-18
2.10763e-18
2.26549e-18
2.40644e-18
2.5233e-18
2.60854e-18
2.65467e-18
1.935e-19
2.04493e-19
2.21431e-19
2.44672e-19
2.74769e-19
3.12432e-19
3.58506e-19
4.13945e-19
4.79778e-19
5.57072e-19
6.46873e-19
7.50139e-19
8.6766e-19
9.99954e-19
1.14715e-18
1.30889e-18
1.48414e-18
1.67111e-18
1.86712e-18
2.06848e-18
2.27046e-18
2.46723e-18
2.65194e-18
2.81687e-18
2.95358e-18
3.05329e-18
3.10726e-18
2.25757e-19
2.38624e-19
2.58452e-19
2.8566e-19
3.20898e-19
3.64999e-19
4.18954e-19
4.8388e-19
5.60985e-19
6.51516e-19
7.56697e-19
8.7765e-19
1.01529e-18
1.17023e-18
1.34262e-18
1.53201e-18
1.73721e-18
1.95611e-18
2.18557e-18
2.42127e-18
2.65766e-18
2.88793e-18
3.10407e-18
3.29702e-18
3.45696e-18
3.5736e-18
3.63672e-18
2.63442e-19
2.78502e-19
3.01711e-19
3.33561e-19
3.74814e-19
4.26448e-19
4.89624e-19
5.65653e-19
6.55947e-19
7.61968e-19
8.85147e-19
1.0268e-18
1.18799e-18
1.36943e-18
1.57129e-18
1.79304e-18
2.03328e-18
2.28954e-18
2.55814e-18
2.834e-18
3.11064e-18
3.38009e-18
3.63299e-18
3.85874e-18
4.04583e-18
4.18226e-18
4.25609e-18
3.07473e-19
3.25099e-19
3.52262e-19
3.89543e-19
4.37834e-19
4.98282e-19
5.72248e-19
6.61267e-19
7.66995e-19
8.91141e-19
1.03538e-18
1.20125e-18
1.39e-18
1.60245e-18
1.83879e-18
2.09841e-18
2.37965e-18
2.67961e-18
2.99398e-18
3.31684e-18
3.64057e-18
3.95585e-18
4.25173e-18
4.51583e-18
4.73469e-18
4.89427e-18
4.98062e-18
3.58922e-19
3.79548e-19
4.11338e-19
4.54973e-19
5.11498e-19
5.82258e-19
6.68849e-19
7.73067e-19
8.96853e-19
1.04221e-18
1.21109e-18
1.4053e-18
1.62629e-18
1.87502e-18
2.15171e-18
2.45562e-18
2.78483e-18
3.13593e-18
3.50385e-18
3.88167e-18
4.26048e-18
4.62937e-18
4.97553e-18
5.28448e-18
5.54049e-18
5.72715e-18
5.82814e-18
4.19041e-19
4.43178e-19
4.80381e-19
5.31448e-19
5.97606e-19
6.80431e-19
7.81791e-19
9.03794e-19
1.04871e-18
1.21888e-18
1.41659e-18
1.64395e-18
1.90267e-18
2.19384e-18
2.51774e-18
2.87348e-18
3.2588e-18
3.66971e-18
4.10028e-18
4.5424e-18
4.98563e-18
5.41723e-18
5.82219e-18
6.1836e-18
6.48305e-18
6.70137e-18
6.81949e-18
4.89297e-19
5.17541e-19
5.61075e-19
6.20836e-19
6.98264e-19
7.95203e-19
9.13843e-19
1.05665e-18
1.22628e-18
1.42549e-18
1.65694e-18
1.92309e-18
2.22594e-18
2.56677e-18
2.94589e-18
3.36227e-18
3.81323e-18
4.29411e-18
4.79796e-18
5.31528e-18
5.83387e-18
6.33881e-18
6.81255e-18
7.2353e-18
7.58556e-18
7.84091e-18
7.97904e-18
5.71402e-19
6.04449e-19
6.5539e-19
7.25323e-19
8.15933e-19
9.29383e-19
1.06824e-18
1.23539e-18
1.43394e-18
1.66711e-18
1.93802e-18
2.24956e-18
2.60404e-18
3.00297e-18
3.44669e-18
3.934e-18
4.46175e-18
5.02448e-18
5.61405e-18
6.21933e-18
6.82606e-18
7.41677e-18
7.97094e-18
8.46544e-18
8.87512e-18
9.17377e-18
9.33532e-18
6.6736e-19
7.06026e-19
7.6563e-19
8.4746e-19
9.5349e-19
1.08626e-18
1.24876e-18
1.44438e-18
1.67677e-18
1.94967e-18
2.26676e-18
2.63138e-18
3.04627e-18
3.51316e-18
4.03246e-18
4.60274e-18
5.22031e-18
5.87878e-18
6.56861e-18
7.27678e-18
7.98659e-18
8.67761e-18
9.32586e-18
9.90426e-18
1.03834e-17
1.07327e-17
1.09216e-17
7.79512e-19
8.2475e-19
8.94488e-19
9.90234e-19
1.1143e-18
1.26966e-18
1.45983e-18
1.68876e-18
1.96072e-18
2.28011e-18
2.65121e-18
3.07794e-18
3.56349e-18
4.10989e-18
4.71759e-18
5.38493e-18
6.10757e-18
6.87802e-18
7.68512e-18
8.51362e-18
9.344e-18
1.01523e-17
1.09106e-17
1.15871e-17
1.21475e-17
1.2556e-17
1.2777e-17
9.10597e-19
9.63522e-19
1.04511e-18
1.15714e-18
1.3023e-18
1.48409e-18
1.70662e-18
1.97452e-18
2.29278e-18
2.66654e-18
3.10083e-18
3.60021e-18
4.16841e-18
4.80781e-18
5.51893e-18
6.29979e-18
7.14533e-18
8.04676e-18
8.99101e-18
9.96026e-18
1.09316e-17
1.18772e-17
1.27641e-17
1.35554e-17
1.42108e-17
1.46885e-17
1.49469e-17
1.06382e-18
1.12573e-18
1.22118e-18
1.35225e-18
1.5221e-18
1.7348e-18
1.99518e-18
2.30865e-18
2.68107e-18
3.11844e-18
3.62663e-18
4.211e-18
4.87589e-18
5.62408e-18
6.45615e-18
7.3698e-18
8.35909e-18
9.41372e-18
1.05184e-17
1.16522e-17
1.27885e-17
1.38945e-17
1.49319e-17
1.58574e-17
1.66239e-17
1.71826e-17
1.74848e-17
1.24291e-18
1.31534e-18
1.42701e-18
1.58034e-18
1.77906e-18
2.02792e-18
2.33257e-18
2.69936e-18
3.13513e-18
3.6469e-18
4.24155e-18
4.92532e-18
5.70331e-18
6.57874e-18
7.5523e-18
8.62127e-18
9.77868e-18
1.10125e-17
1.23048e-17
1.36311e-17
1.49603e-17
1.62539e-17
1.74672e-17
1.85496e-17
1.94461e-17
2.00994e-17
2.04528e-17
1.45226e-18
1.53699e-18
1.66762e-18
1.847e-18
2.07948e-18
2.37063e-18
2.72707e-18
3.15622e-18
3.66608e-18
4.26488e-18
4.96065e-18
5.76071e-18
6.67097e-18
7.69524e-18
8.83428e-18
1.00849e-17
1.1439e-17
1.28823e-17
1.4394e-17
1.59455e-17
1.75002e-17
1.90133e-17
2.04323e-17
2.16982e-17
2.27466e-17
2.35107e-17
2.39239e-17
1.69698e-18
1.79609e-18
1.9489e-18
2.15874e-18
2.43071e-18
2.77133e-18
3.18834e-18
3.69043e-18
4.28696e-18
4.98755e-18
5.8016e-18
6.73766e-18
7.80265e-18
9.001e-18
1.03336e-17
1.17967e-17
1.33807e-17
1.50692e-17
1.68375e-17
1.86522e-17
2.04707e-17
2.22404e-17
2.39e-17
2.53804e-17
2.66065e-17
2.75e-17
2.79832e-17
1.98305e-18
2.09898e-18
2.27774e-18
2.52321e-18
2.84136e-18
3.23984e-18
3.72769e-18
4.31509e-18
5.01299e-18
5.83264e-18
6.78503e-18
7.88016e-18
9.12612e-18
1.05281e-17
1.2087e-17
1.37986e-17
1.56516e-17
1.76267e-17
1.96951e-17
2.18178e-17
2.39446e-17
2.60144e-17
2.79554e-17
2.96867e-17
3.11205e-17
3.21653e-17
3.27304e-17
2.31747e-18
2.45308e-18
2.66217e-18
2.94931e-18
3.32148e-18
3.78762e-18
4.35833e-18
5.04551e-18
5.86197e-18
6.82087e-18
7.93507e-18
9.21625e-18
1.06739e-17
1.23139e-17
1.41377e-17
1.61399e-17
1.83074e-17
2.06177e-17
2.3037e-17
2.55198e-17
2.80073e-17
3.0428e-17
3.2698e-17
3.47226e-17
3.63993e-17
3.76211e-17
3.82818e-17
2.70841e-18
2.86703e-18
3.1116e-18
3.44747e-18
3.88282e-18
4.4281e-18
5.09572e-18
5.8996e-18
6.85472e-18
7.97649e-18
9.27993e-18
1.07787e-17
1.24839e-17
1.44024e-17
1.65358e-17
1.88779e-17
2.14133e-17
2.41155e-17
2.69453e-17
2.98491e-17
3.27584e-17
3.55894e-17
3.82441e-17
4.06117e-17
4.25724e-17
4.40011e-17
4.47737e-17
3.16545e-18
3.35097e-18
3.63704e-18
4.0299e-18
4.53913e-18
5.17697e-18
5.95793e-18
6.89829e-18
8.01559e-18
9.32783e-18
1.08526e-17
1.26059e-17
1.46005e-17
1.68448e-17
1.93403e-17
2.20798e-17
2.50455e-17
2.82061e-17
3.15159e-17
3.4912e-17
3.83145e-17
4.16253e-17
4.47297e-17
4.74985e-17
4.97912e-17
5.14619e-17
5.23653e-17
3.69975e-18
3.91674e-18
4.25134e-18
4.71085e-18
5.30649e-18
6.05258e-18
6.96608e-18
8.06607e-18
9.37303e-18
1.09081e-17
1.26917e-17
1.47426e-17
1.70758e-17
1.9701e-17
2.262e-17
2.58243e-17
2.92931e-17
3.29898e-17
3.68608e-17
4.08327e-17
4.48118e-17
4.86836e-17
5.2314e-17
5.55517e-17
5.82328e-17
6.01863e-17
6.12426e-17
4.3244e-18
4.57819e-18
4.96953e-18
5.507e-18
6.20369e-18
7.07637e-18
8.14489e-18
9.43155e-18
1.09603e-17
1.27559e-17
1.48422e-17
1.72412e-17
1.99704e-17
2.30411e-17
2.64553e-17
3.02032e-17
3.42603e-17
3.85839e-17
4.31111e-17
4.77563e-17
5.24097e-17
5.69375e-17
6.11829e-17
6.49689e-17
6.81039e-17
7.03881e-17
7.16232e-17
5.05467e-18
5.35149e-18
5.80921e-18
6.43783e-18
7.25269e-18
8.27342e-18
9.52323e-18
1.10282e-17
1.28164e-17
1.49167e-17
1.7357e-17
2.01631e-17
2.33553e-17
2.69469e-17
3.09403e-17
3.53239e-17
4.00689e-17
4.51256e-17
5.04202e-17
5.58526e-17
6.12945e-17
6.65893e-17
7.15537e-17
7.59808e-17
7.96465e-17
8.23174e-17
8.37615e-17
5.90843e-18
6.25559e-18
6.79091e-18
7.52614e-18
8.47921e-18
9.67307e-18
1.11349e-17
1.28952e-17
1.49868e-17
1.74433e-17
2.02977e-17
2.35798e-17
2.73136e-17
3.15144e-17
3.6185e-17
4.1312e-17
4.68615e-17
5.27753e-17
5.89672e-17
6.53201e-17
7.16839e-17
7.78756e-17
8.36806e-17
8.88573e-17
9.31435e-17
9.62664e-17
9.79549e-17
6.90659e-18
7.3126e-18
7.93869e-18
8.79858e-18
9.91326e-18
1.13096e-17
1.30194e-17
1.50782e-17
1.75246e-17
2.03978e-17
2.37364e-17
2.75752e-17
3.19423e-17
3.68555e-17
4.23181e-17
4.83143e-17
5.48045e-17
6.17206e-17
6.89618e-17
7.63909e-17
8.38326e-17
9.10728e-17
9.78608e-17
1.03914e-16
1.08926e-16
1.12577e-16
1.14551e-16
8.07357e-18
8.5484e-18
9.28063e-18
1.02863e-17
1.159e-17
1.32231e-17
1.52228e-17
1.76308e-17
2.04921e-17
2.38526e-17
2.77574e-17
3.22472e-17
3.73548e-17
4.31011e-17
4.94898e-17
5.65024e-17
6.40926e-17
7.21807e-17
8.06487e-17
8.93363e-17
9.80383e-17
1.06504e-16
1.14442e-16
1.21519e-16
1.27379e-16
1.31648e-16
1.33956e-16
9.43793e-18
9.99325e-18
1.08496e-17
1.20257e-17
1.35505e-17
1.54604e-17
1.77992e-17
2.06156e-17
2.3962e-17
2.78924e-17
3.24593e-17
3.77103e-17
4.36839e-17
5.04044e-17
5.7876e-17
6.60771e-17
7.49535e-17
8.4412e-17
9.43144e-17
1.04473e-16
1.14649e-16
1.24548e-16
1.33829e-16
1.42104e-16
1.48956e-16
1.53947e-16
1.56646e-16
1.10331e-17
1.16825e-17
1.2684e-17
1.40595e-17
1.58427e-17
1.80765e-17
2.08117e-17
2.41056e-17
2.80194e-17
3.26161e-17
3.79573e-17
4.40985e-17
5.10848e-17
5.89443e-17
6.76822e-17
7.72731e-17
8.76534e-17
9.87141e-17
1.10294e-16
1.22173e-16
1.34071e-16
1.45647e-16
1.56498e-16
1.66174e-16
1.74184e-16
1.8002e-16
1.83175e-16
1.28981e-17
1.36575e-17
1.48287e-17
1.64374e-17
1.85228e-17
2.11352e-17
2.43341e-17
2.81863e-17
3.27636e-17
3.81396e-17
4.43862e-17
5.15684e-17
5.97387e-17
6.89302e-17
7.91487e-17
9.03646e-17
1.02503e-16
1.15437e-16
1.28978e-16
1.42869e-16
1.56781e-16
1.70316e-16
1.83003e-16
1.94316e-16
2.03682e-16
2.10505e-16
2.14193e-16
1.50785e-17
1.59667e-17
1.73363e-17
1.92176e-17
2.16564e-17
2.47116e-17
2.84527e-17
3.29578e-17
3.83109e-17
4.45981e-17
5.19034e-17
6.03028e-17
6.98577e-17
8.06067e-17
9.25565e-17
1.05672e-16
1.19867e-16
1.34992e-16
1.50825e-16
1.67067e-16
1.83335e-16
1.99159e-16
2.13994e-16
2.2722e-16
2.3817e-16
2.46147e-16
2.50459e-16
1.76278e-17
1.86665e-17
2.02682e-17
2.24682e-17
2.53203e-17
2.88933e-17
3.32684e-17
3.8537e-17
4.47973e-17
5.215e-17
6.06933e-17
7.0516e-17
8.16898e-17
9.42599e-17
1.08234e-16
1.23571e-16
1.4017e-16
1.57856e-16
1.76369e-16
1.95361e-16
2.14381e-16
2.32883e-16
2.50227e-16
2.65691e-16
2.78493e-16
2.87818e-16
2.9286e-16
2.06084e-17
2.1823e-17
2.36961e-17
2.62689e-17
2.96042e-17
3.37826e-17
3.88991e-17
4.50605e-17
5.23816e-17
6.09802e-17
7.0971e-17
8.2458e-17
9.55248e-17
1.10224e-16
1.26565e-16
1.445e-16
1.63909e-16
1.84589e-16
2.06236e-16
2.28442e-16
2.50681e-16
2.72313e-16
2.92591e-16
3.1067e-16
3.25636e-16
3.36538e-16
3.42432e-16
2.40931e-17
2.55135e-17
2.7704e-17
3.07126e-17
3.46131e-17
3.94993e-17
4.54827e-17
5.26881e-17
6.12496e-17
7.1305e-17
8.29885e-17
9.64214e-17
1.11702e-16
1.28891e-16
1.47999e-16
1.68971e-16
1.91666e-16
2.15846e-16
2.41157e-16
2.6712e-16
2.93121e-16
3.18413e-16
3.4212e-16
3.63256e-16
3.80752e-16
3.93497e-16
4.00387e-16
2.81674e-17
2.98284e-17
3.23899e-17
3.59083e-17
4.04694e-17
4.61835e-17
5.31805e-17
6.16066e-17
7.16185e-17
8.33774e-17
9.70399e-17
1.12748e-16
1.30616e-16
1.50716e-16
1.7306e-16
1.97582e-16
2.24119e-16
2.52392e-16
2.81986e-16
3.12341e-16
3.42741e-16
3.7231e-16
4.00025e-16
4.24735e-16
4.45189e-16
4.60088e-16
4.68142e-16
3.2931e-17
3.48733e-17
3.78687e-17
4.1983e-17
4.73168e-17
5.39987e-17
6.2181e-17
7.20344e-17
8.37422e-17
9.74928e-17
1.13469e-16
1.31838e-16
1.52732e-16
1.76235e-16
2.02362e-16
2.31035e-16
2.62064e-16
2.9512e-16
3.29722e-16
3.65212e-16
4.00753e-16
4.35322e-16
4.67723e-16
4.96609e-16
5.2052e-16
5.37937e-16
5.47352e-16
3.85004e-17
4.07716e-17
4.42743e-17
4.90854e-17
5.53227e-17
6.31364e-17
7.27046e-17
8.42268e-17
9.79176e-17
1.13997e-16
1.32679e-16
1.54158e-16
1.7859e-16
2.06073e-16
2.36622e-16
2.70148e-16
3.06427e-16
3.45077e-16
3.85531e-16
4.27024e-16
4.68575e-16
5.08989e-16
5.46867e-16
5.80635e-16
6.08586e-16
6.28945e-16
6.39951e-16
4.50119e-17
4.76678e-17
5.17637e-17
5.73896e-17
6.46831e-17
7.38202e-17
8.50088e-17
9.84824e-17
1.14492e-16
1.33294e-16
1.5514e-16
1.80256e-16
2.08823e-16
2.40958e-16
2.76678e-16
3.15877e-16
3.58295e-16
4.03483e-16
4.5078e-16
4.99289e-16
5.47865e-16
5.9511e-16
6.3939e-16
6.78863e-16
7.11537e-16
7.35335e-16
7.482e-16
5.26249e-17
5.57306e-17
6.05201e-17
6.70987e-17
7.56273e-17
8.63117e-17
9.9395e-17
1.1515e-16
1.3387e-16
1.55856e-16
1.81401e-16
2.10768e-16
2.44172e-16
2.81745e-16
3.2351e-16
3.69342e-16
4.18935e-16
4.71766e-16
5.27061e-16
5.83772e-16
6.40559e-16
6.95789e-16
7.47551e-16
7.93694e-16
8.31886e-16
8.59704e-16
8.7474e-16
6.15257e-17
6.51573e-17
7.07577e-17
7.84502e-17
8.8423e-17
1.00917e-16
1.16215e-16
1.34638e-16
1.56528e-16
1.82236e-16
2.12104e-16
2.46443e-16
2.855e-16
3.29432e-16
3.78263e-16
4.31849e-16
4.8983e-16
5.51595e-16
6.1624e-16
6.82538e-16
7.48923e-16
8.13485e-16
8.73992e-16
9.27928e-16
9.7257e-16
1.00509e-15
1.02266e-15
7.19322e-17
7.61785e-17
8.27272e-17
9.17222e-17
1.03383e-16
1.17992e-16
1.35881e-16
1.57423e-16
1.83018e-16
2.13078e-16
2.48003e-16
2.88153e-16
3.33819e-16
3.85184e-16
4.42277e-16
5.04926e-16
5.72713e-16
6.44922e-16
7.20494e-16
7.97997e-16
8.756e-16
9.5107e-16
1.0218e-15
1.08484e-15
1.13702e-15
1.17502e-15
1.19557e-15
8.40988e-17
8.90641e-17
9.67214e-17
1.07239e-16
1.20875e-16
1.37957e-16
1.58874e-16
1.84062e-16
2.1399e-16
2.49138e-16
2.89973e-16
3.36917e-16
3.90311e-16
4.50366e-16
5.17115e-16
5.9036e-16
6.69609e-16
7.54024e-16
8.4237e-16