/*--------------------------------*- C++ -*----------------------------------*\
| =========                 |                                                 |
| \\      /  F ield         | OpenFOAM: The Open Source CFD Toolbox           |
|  \\    /   O peration     | Version:  2212                                  |
|   \\  /    A nd           | Website:  www.openfoam.com                      |
|    \\/     M anipulation  |                                                 |
\*---------------------------------------------------------------------------*/
FoamFile
{
    version     2.0;
    format      ascii;
    arch        "LSB;label=32;scalar=64";
    class       volScalarField;
    location    "9.0545968";
    object      C5H6;
}
// * * * * * * * * * * * * * * * * * * * * * * * * * * * * * * * * * * * * * //

dimensions      [0 0 0 0 0 0 0];

internalField   nonuniform List<scalar> 
33600
(
5.40446e-25
5.56157e-25
5.79886e-25
6.11577e-25
6.51299e-25
6.99197e-25
7.55475e-25
8.20385e-25
8.9421e-25
9.77252e-25
1.06982e-24
1.17221e-24
1.2847e-24
1.40751e-24
1.54079e-24
1.68462e-24
1.83892e-24
2.00347e-24
2.17788e-24
2.36146e-24
2.55328e-24
2.75198e-24
2.95559e-24
3.1609e-24
3.36137e-24
3.54233e-24
3.66749e-24
1.7441e-24
1.79497e-24
1.8718e-24
1.97442e-24
2.10305e-24
2.25816e-24
2.44044e-24
2.65069e-24
2.88985e-24
3.15891e-24
3.45889e-24
3.79077e-24
4.15545e-24
4.55368e-24
4.98599e-24
5.4526e-24
5.95335e-24
6.48755e-24
7.05387e-24
7.65022e-24
8.27352e-24
8.91961e-24
9.58283e-24
1.02559e-23
1.09258e-23
1.15686e-23
1.20831e-23
3.20897e-24
3.30314e-24
3.44536e-24
3.63531e-24
3.87342e-24
4.16061e-24
4.49813e-24
4.88754e-24
5.33061e-24
5.82922e-24
6.38529e-24
7.00073e-24
7.67727e-24
8.41642e-24
9.21931e-24
1.00865e-23
1.10181e-23
1.20132e-23
1.30701e-23
1.41861e-23
1.53573e-23
1.65789e-23
1.78441e-23
1.91431e-23
2.04498e-23
2.16994e-23
2.26514e-23
4.96815e-24
5.11517e-24
5.3372e-24
5.63376e-24
6.00558e-24
6.4541e-24
6.98138e-24
7.58993e-24
8.28259e-24
9.06243e-24
9.93262e-24
1.08963e-23
1.19565e-23
1.31158e-23
1.43765e-23
1.57402e-23
1.72078e-23
1.87792e-23
2.04538e-23
2.22296e-23
2.41041e-23
2.6073e-23
2.81274e-23
3.02469e-23
3.23719e-23
3.43522e-23
3.57716e-23
7.05818e-24
7.26924e-24
7.58798e-24
8.01376e-24
8.54768e-24
9.19196e-24
9.94965e-24
1.08245e-23
1.18209e-23
1.29435e-23
1.41971e-23
1.55868e-23
1.71174e-23
1.87935e-23
2.06194e-23
2.25987e-23
2.47347e-23
2.70297e-23
2.94856e-23
3.21032e-23
3.48816e-23
3.78152e-23
4.08853e-23
4.40443e-23
4.71679e-23
4.99803e-23
5.18885e-23
9.51986e-24
9.80803e-24
1.02432e-23
1.08247e-23
1.15541e-23
1.24345e-23
1.34706e-23
1.46676e-23
1.6032e-23
1.75706e-23
1.92908e-23
2.12002e-23
2.33067e-23
2.56179e-23
2.81415e-23
3.08849e-23
3.38553e-23
3.70593e-23
4.05029e-23
4.41901e-23
4.81194e-23
5.22778e-23
5.66241e-23
6.10598e-23
6.53654e-23
6.9116e-23
7.15501e-23
1.23992e-23
1.27797e-23
1.33545e-23
1.41227e-23
1.50866e-23
1.62509e-23
1.76218e-23
1.92072e-23
2.10161e-23
2.30584e-23
2.53452e-23
2.78879e-23
3.06986e-23
3.379e-23
3.71748e-23
4.08662e-23
4.48774e-23
4.92208e-23
5.39072e-23
5.89419e-23
6.43186e-23
7.0006e-23
7.59222e-23
8.18924e-23
8.75765e-23
9.23877e-23
9.5404e-23
1.57485e-23
1.62393e-23
1.69807e-23
1.79718e-23
1.92163e-23
2.07205e-23
2.24933e-23
2.45456e-23
2.68901e-23
2.95414e-23
3.25152e-23
3.58286e-23
3.95001e-23
4.3549e-23
4.79957e-23
5.28612e-23
5.81666e-23
6.39313e-23
7.01696e-23
7.68851e-23
8.4058e-23
9.16246e-23
9.94416e-23
1.07234e-22
1.1452e-22
1.20541e-22
1.24215e-22
1.96277e-23
2.02497e-23
2.11893e-23
2.24462e-23
2.40253e-23
2.59357e-23
2.81895e-23
3.08021e-23
3.37914e-23
3.71777e-23
4.09836e-23
4.52341e-23
4.99562e-23
5.51787e-23
6.0932e-23
6.72473e-23
7.4155e-23
8.16812e-23
8.9842e-23
9.86325e-23
1.08008e-22
1.17857e-22
1.27952e-22
1.37893e-22
1.4704e-22
1.54452e-22
1.58883e-22
2.41062e-23
2.48837e-23
2.60588e-23
2.76315e-23
2.96091e-23
3.20039e-23
3.48328e-23
3.81169e-23
4.1881e-23
4.61535e-23
5.09663e-23
5.63547e-23
6.23572e-23
6.90149e-23
7.63711e-23
8.44692e-23
9.33498e-23
1.03045e-22
1.13567e-22
1.24896e-22
1.36949e-22
1.49544e-22
1.62349e-22
1.74819e-22
1.86132e-22
1.95154e-22
2.00461e-22
2.92641e-23
3.02258e-23
3.168e-23
3.36276e-23
3.60787e-23
3.90505e-23
4.25661e-23
4.66541e-23
5.13485e-23
5.66883e-23
6.27177e-23
6.94855e-23
7.70451e-23
8.54532e-23
9.47687e-23
1.05049e-22
1.16346e-22
1.28693e-22
1.42097e-22
1.56507e-22
1.71786e-22
1.87666e-22
2.03684e-22
2.19124e-22
2.32965e-22
2.43858e-22
2.50184e-22
3.51947e-23
3.63743e-23
3.81588e-23
4.05506e-23
4.35642e-23
4.72226e-23
5.15571e-23
5.66063e-23
6.24163e-23
6.904e-23
7.65371e-23
8.4974e-23
9.44226e-23
1.04959e-22
1.1666e-22
1.296e-22
1.43839e-22
1.59411e-22
1.76305e-22
1.94431e-22
2.1358e-22
2.33371e-22
2.53186e-22
2.72114e-22
2.88908e-22
3.01984e-22
3.09499e-22
4.20067e-23
4.34435e-23
4.56186e-23
4.85366e-23
5.22173e-23
5.66918e-23
6.20021e-23
6.81997e-23
7.5346e-23
8.35117e-23
9.27766e-23
1.03229e-22
1.14963e-22
1.28078e-22
1.42674e-22
1.58839e-22
1.76643e-22
1.96115e-22
2.17217e-22
2.39802e-22
2.6357e-22
2.88001e-22
3.12296e-22
3.35321e-22
3.5557e-22
3.71198e-22
3.80102e-22
4.98268e-23
5.15673e-23
5.42039e-23
5.77444e-23
6.22157e-23
6.76597e-23
7.41315e-23
8.16995e-23
9.04444e-23
1.00459e-22
1.11849e-22
1.24729e-22
1.39221e-22
1.55451e-22
1.73544e-22
1.93606e-22
2.15711e-22
2.39878e-22
2.66027e-22
2.93942e-22
3.23203e-22
3.53129e-22
3.82706e-22
4.1054e-22
4.34837e-22
4.53449e-22
4.63979e-22
5.8803e-23
6.09016e-23
6.4083e-23
6.83595e-23
7.37674e-23
8.03618e-23
8.82151e-23
9.74165e-23
1.08071e-22
1.20301e-22
1.3424e-22
1.50036e-22
1.67847e-22
1.87829e-22
2.10133e-22
2.34884e-22
2.62158e-22
2.91952e-22
3.24136e-22
3.58398e-22
3.94179e-22
4.30599e-22
4.66396e-22
4.99877e-22
5.28918e-22
5.51024e-22
5.63458e-22
6.9108e-23
7.16288e-23
7.5453e-23
8.05993e-23
8.71156e-23
9.50741e-23
1.04569e-22
1.15715e-22
1.28649e-22
1.43525e-22
1.60517e-22
1.79811e-22
2.01604e-22
2.2609e-22
2.53449e-22
2.83823e-22
3.17287e-22
3.53806e-22
3.93181e-22
4.34985e-22
4.78485e-22
5.22571e-22
5.65687e-22
6.05799e-22
6.40402e-22
6.666e-22
6.81265e-22
8.09438e-23
8.39618e-23
8.85443e-23
9.47175e-23
1.02545e-22
1.1212e-22
1.23563e-22
1.37022e-22
1.5267e-22
1.70705e-22
1.91345e-22
2.14824e-22
2.41384e-22
2.71263e-22
3.04672e-22
3.4177e-22
3.82624e-22
4.27156e-22
4.75079e-22
5.25823e-22
5.78449e-22
6.31573e-22
6.83301e-22
7.31198e-22
7.72322e-22
8.03315e-22
8.20591e-22
9.4546e-23
9.81497e-23
1.03626e-22
1.11011e-22
1.20388e-22
1.31876e-22
1.4563e-22
1.61837e-22
1.80715e-22
2.02514e-22
2.27505e-22
2.55979e-22
2.88234e-22
3.24553e-22
3.65184e-22
4.10302e-22
4.59956e-22
5.14013e-22
5.72075e-22
6.33399e-22
6.968e-22
7.60572e-22
8.22423e-22
8.7946e-22
9.2823e-22
9.64843e-22
9.85177e-22
1.1019e-22
1.14483e-22
1.21012e-22
1.29827e-22
1.41034e-22
1.54786e-22
1.71277e-22
1.90744e-22
2.13461e-22
2.39736e-22
2.69909e-22
3.04335e-22
3.43376e-22
3.8737e-22
4.36603e-22
4.91263e-22
5.51374e-22
6.1673e-22
6.86798e-22
7.60625e-22
8.36734e-22
9.13039e-22
9.86788e-22
1.05455e-21
1.11229e-21
1.15549e-21
1.1794e-21
1.28197e-22
1.33301e-22
1.41071e-22
1.51571e-22
1.64939e-22
1.81366e-22
2.01098e-22
2.24428e-22
2.51699e-22
2.83293e-22
3.19625e-22
3.61131e-22
4.08244e-22
4.61366e-22
5.20823e-22
5.86813e-22
6.59327e-22
7.38064e-22
8.22327e-22
9.1091e-22
1.00199e-21
1.09304e-21
1.18077e-21
1.26112e-21
1.32937e-21
1.38028e-21
1.4084e-21
1.48944e-22
1.55002e-22
1.64231e-22
1.76718e-22
1.92635e-22
2.12222e-22
2.35785e-22
2.6369e-22
2.96359e-22
3.34261e-22
3.77905e-22
4.27817e-22
4.84516e-22
5.48473e-22
6.2006e-22
6.99481e-22
7.86681e-22
8.81241e-22
9.82265e-22
1.08825e-21
1.19696e-21
1.30534e-21
1.40949e-21
1.50461e-21
1.58518e-21
1.64513e-21
1.67816e-21
1.72868e-22
1.80048e-22
1.90994e-22
2.05821e-22
2.24743e-22
2.4806e-22
2.76151e-22
3.09467e-22
3.48526e-22
3.93902e-22
4.46212e-22
5.0609e-22
5.74153e-22
6.50953e-22
7.3691e-22
8.32228e-22
9.36792e-22
1.05004e-21
1.17083e-21
1.29731e-21
1.42676e-21
1.55553e-21
1.67894e-21
1.79139e-21
1.88641e-21
1.95695e-21
1.99573e-21
2.00482e-22
2.0898e-22
2.21947e-22
2.39528e-22
2.61991e-22
2.89708e-22
3.23144e-22
3.62854e-22
4.09469e-22
4.6369e-22
5.26259e-22
5.97937e-22
6.79456e-22
7.71456e-22
8.7441e-22
9.8852e-22
1.11359e-21
1.24889e-21
1.39298e-21
1.54358e-21
1.69742e-21
1.85012e-21
1.99615e-21
2.12892e-21
2.24087e-21
2.32381e-21
2.36934e-21
2.32385e-22
2.42432e-22
2.57775e-22
2.78596e-22
3.05229e-22
3.38132e-22
3.77874e-22
4.25132e-22
4.80676e-22
5.4535e-22
6.20051e-22
7.05683e-22
8.03112e-22
9.1308e-22
1.03612e-21
1.17241e-21
1.32168e-21
1.48296e-21
1.65448e-21
1.83347e-21
2.01597e-21
2.19677e-21
2.36934e-21
2.52593e-21
2.65772e-21
2.7552e-21
2.80862e-21
2.69274e-22
2.81142e-22
2.99277e-22
3.2391e-22
3.55451e-22
3.94462e-22
4.41639e-22
4.97802e-22
5.63884e-22
6.40903e-22
7.29932e-22
8.32049e-22
9.48269e-22
1.07945e-21
1.22619e-21
1.38866e-21
1.56644e-21
1.75832e-21
1.96213e-21
2.17448e-21
2.39065e-21
2.60444e-21
2.80814e-21
2.99265e-21
3.14769e-21
3.26219e-21
3.32485e-21
3.11968e-22
3.25973e-22
3.47388e-22
3.76502e-22
4.13819e-22
4.60022e-22
5.15956e-22
5.82617e-22
6.61128e-22
7.52711e-22
8.58649e-22
9.80218e-22
1.11861e-21
1.27482e-21
1.44951e-21
1.64282e-21
1.85417e-21
2.08207e-21
2.32384e-21
2.5754e-21
2.8311e-21
3.0836e-21
3.32381e-21
3.54106e-21
3.72333e-21
3.85776e-21
3.93124e-21
3.61417e-22
3.77932e-22
4.03201e-22
4.37582e-22
4.8169e-22
5.36354e-22
6.026e-22
6.81627e-22
7.74785e-22
8.83538e-22
1.00941e-21
1.15392e-21
1.31845e-21
1.50416e-21
1.71177e-21
1.94139e-21
2.19227e-21
2.46252e-21
2.7489e-21
3.04652e-21
3.34863e-21
3.64653e-21
3.92954e-21
4.18515e-21
4.39933e-21
4.5571e-21
4.64324e-21
4.18738e-22
4.38198e-22
4.67992e-22
5.0856e-22
5.6065e-22
6.25267e-22
7.03646e-22
7.97231e-22
9.07638e-22
1.03662e-21
1.18598e-21
1.35751e-21
1.55283e-21
1.77328e-21
2.01965e-21
2.292e-21
2.58936e-21
2.9094e-21
3.24819e-21
3.59987e-21
3.95643e-21
4.30759e-21
4.64077e-21
4.94133e-21
5.19288e-21
5.37797e-21
5.47894e-21
4.8523e-22
5.08146e-22
5.43252e-22
5.91086e-22
6.52555e-22
7.28872e-22
8.21521e-22
9.32233e-22
1.06294e-21
1.21573e-21
1.39274e-21
1.59608e-21
1.82766e-21
2.08899e-21
2.38097e-21
2.70357e-21
3.05555e-21
3.43409e-21
3.83442e-21
4.24956e-21
4.66999e-21
5.08359e-21
5.47558e-21
5.82878e-21
6.1241e-21
6.34119e-21
6.45951e-21
5.62412e-22
5.89384e-22
6.30723e-22
6.87088e-22
7.59574e-22
8.49637e-22
9.59061e-22
1.08991e-21
1.2445e-21
1.4253e-21
1.63485e-21
1.87562e-21
2.14984e-21
2.45925e-21
2.80485e-21
3.18652e-21
3.60268e-21
4.04991e-21
4.52248e-21
5.01207e-21
5.50741e-21
5.9942e-21
6.45509e-21
6.86998e-21
7.21654e-21
7.47109e-21
7.60971e-21
6.52061e-22
6.83789e-22
7.32442e-22
7.9882e-22
8.84239e-22
9.9045e-22
1.11958e-21
1.27411e-21
1.45677e-21
1.67051e-21
1.91831e-21
2.2031e-21
2.52746e-21
2.89339e-21
3.302e-21
3.75306e-21
4.2446e-21
4.77246e-21
5.32981e-21
5.90671e-21
6.48988e-21
7.06245e-21
7.60407e-21
8.09119e-21
8.49776e-21
8.79616e-21
8.95855e-21
7.5625e-22
7.93555e-22
8.50787e-22
9.28913e-22
1.02951e-21
1.15468e-21
1.30697e-21
1.48931e-21
1.70496e-21
1.9574e-21
2.25018e-21
2.58669e-21
2.96996e-21
3.40231e-21
3.88494e-21
4.41748e-21
4.99751e-21
5.62e-21
6.27677e-21
6.95608e-21
7.64219e-21
8.31528e-21
8.95146e-21
9.52319e-21
1e-20
1.03497e-20
1.05399e-20
8.77403e-22
9.21247e-22
9.8854e-22
1.08045e-21
1.19886e-21
1.34629e-21
1.52575e-21
1.74075e-21
1.99516e-21
2.29307e-21
2.63867e-21
3.03595e-21
3.48843e-21
3.99878e-21
4.56831e-21
5.1965e-21
5.88037e-21
6.61386e-21
7.38725e-21
8.18659e-21
8.99336e-21
9.78422e-21
1.05312e-20
1.12019e-20
1.1761e-20
1.21708e-20
1.23935e-20
1.01835e-21
1.06986e-21
1.14895e-21
1.25702e-21
1.39633e-21
1.56987e-21
1.78123e-21
2.03458e-21
2.33448e-21
2.68579e-21
3.09342e-21
3.56206e-21
4.0958e-21
4.69771e-21
5.36925e-21
6.10969e-21
6.91537e-21
7.77905e-21
8.68915e-21
9.6292e-21
1.05773e-20
1.15062e-20
1.23828e-20
1.31696e-20
1.38249e-20
1.4305e-20
1.45658e-20
1.1824e-21
1.2429e-21
1.33581e-21
1.46283e-21
1.62665e-21
1.83082e-21
2.07962e-21
2.37797e-21
2.73127e-21
3.14526e-21
3.6257e-21
4.1781e-21
4.80722e-21
5.51658e-21
6.30782e-21
7.17992e-21
8.12847e-21
9.14479e-21
1.02152e-20
1.13201e-20
1.24338e-20
1.35242e-20
1.45528e-20
1.54753e-20
1.62433e-20
1.68057e-20
1.71111e-20
1.37343e-21
1.44445e-21
1.55357e-21
1.7028e-21
1.89536e-21
2.13545e-21
2.42816e-21
2.7793e-21
3.19526e-21
3.6828e-21
4.24869e-21
4.89937e-21
5.6404e-21
6.47583e-21
7.40746e-21
8.43398e-21
9.55004e-21
1.07453e-20
1.20035e-20
1.33016e-20
1.46094e-20
1.5889e-20
1.70953e-20
1.81768e-20
1.90767e-20
1.97354e-20
2.00929e-20
1.59594e-21
1.67929e-21
1.8074e-21
1.98267e-21
2.20892e-21
2.49113e-21
2.83533e-21
3.24839e-21
3.73785e-21
4.31166e-21
4.9778e-21
5.74378e-21
6.61608e-21
7.59936e-21
8.69563e-21
9.9032e-21
1.12156e-20
1.26206e-20
1.40988e-20
1.56233e-20
1.71582e-20
1.86594e-20
2.0074e-20
2.13416e-20
2.23958e-20
2.31671e-20
2.35856e-20
1.85522e-21
1.95302e-21
2.10338e-21
2.30916e-21
2.57488e-21
2.90647e-21
3.31104e-21
3.7967e-21
4.37236e-21
5.04736e-21
5.83106e-21
6.73225e-21
7.75849e-21
8.91515e-21
1.02044e-20
1.16242e-20
1.31668e-20
1.48175e-20
1.65535e-20
1.8343e-20
2.01441e-20
2.19048e-20
2.35631e-20
2.50484e-20
2.62832e-20
2.71863e-20
2.76762e-20
2.15744e-21
2.27216e-21
2.44858e-21
2.69011e-21
3.0021e-21
3.39156e-21
3.86689e-21
4.43767e-21
5.11439e-21
5.90802e-21
6.82956e-21
7.88929e-21
9.096e-21
1.04559e-20
1.19714e-20
1.364e-20
1.54522e-20
1.73908e-20
1.94288e-20
2.15288e-20
2.36414e-20
2.57058e-20
2.76494e-20
2.93895e-20
3.08358e-20
3.18931e-20
3.24665e-20
2.50981e-21
2.64435e-21
2.8513e-21
3.1347e-21
3.5009e-21
3.95817e-21
4.51643e-21
5.18697e-21
5.98214e-21
6.91485e-21
7.99796e-21
9.24353e-21
1.06618e-20
1.22599e-20
1.40406e-20
1.60005e-20
1.81287e-20
2.04045e-20
2.27963e-20
2.52597e-20
2.77372e-20
3.01571e-20
3.24346e-20
3.44731e-20
3.61666e-20
3.74043e-20
3.80755e-20
2.92076e-21
3.07851e-21
3.32122e-21
3.65366e-21
4.08336e-21
4.62007e-21
5.27551e-21
6.06296e-21
6.99695e-21
8.09264e-21
9.36512e-21
1.08285e-20
1.24946e-20
1.43719e-20
1.64632e-20
1.87646e-20
2.12629e-20
2.39337e-20
2.67396e-20
2.96288e-20
3.25333e-20
3.53694e-20
3.80377e-20
4.04252e-20
4.24081e-20
4.38569e-20
4.46423e-20
3.40015e-21
3.58507e-21
3.86964e-21
4.25952e-21
4.7636e-21
5.39338e-21
6.16265e-21
7.08708e-21
8.18373e-21
9.4704e-21
1.09648e-20
1.26834e-20
1.464e-20
1.68442e-20
1.92996e-20
2.20009e-20
2.49326e-20
2.8066e-20
3.13569e-20
3.47444e-20
3.81489e-20
4.14721e-20
4.45978e-20
4.73936e-20
4.97151e-20
5.14109e-20
5.233e-20
3.95948e-21
4.17622e-21
4.50981e-21
4.96695e-21
5.55813e-21
6.29692e-21
7.19954e-21
8.28443e-21
9.57163e-21
1.1082e-20
1.28364e-20
1.4854e-20
1.71509e-20
1.97382e-20
2.26199e-20
2.57897e-20
2.9229e-20
3.2904e-20
3.67628e-20
4.07336e-20
4.47233e-20
4.86166e-20
5.22774e-20
5.55511e-20
5.82688e-20
6.02535e-20
6.13289e-20
4.61222e-21
4.86621e-21
5.25719e-21
5.79309e-21
6.48626e-21
7.3527e-21
8.4115e-21
9.68433e-21
1.11947e-20
1.29673e-20
1.50261e-20
1.73939e-20
2.00894e-20
2.31255e-20
2.65064e-20
3.02248e-20
3.42585e-20
3.85676e-20
4.30912e-20
4.77449e-20
5.24194e-20
5.698e-20
6.12671e-20
6.50999e-20
6.82809e-20
7.06037e-20
7.1862e-20
5.37411e-21
5.67169e-21
6.12986e-21
6.75796e-21
7.57056e-21
8.58647e-21
9.82817e-21
1.13211e-20
1.30929e-20
1.51724e-20
1.7588e-20
2.03659e-20
2.35283e-20
2.70898e-20
3.10554e-20
3.54161e-20
4.01458e-20
4.51973e-20
5.0499e-20
5.5952e-20
6.14281e-20
6.67694e-20
7.17893e-20
7.62762e-20
7.99994e-20
8.27175e-20
8.41898e-20
6.26353e-21
6.61215e-21
7.14896e-21
7.88499e-21
8.8374e-21
1.00283e-20
1.14842e-20
1.32349e-20
1.53128e-20
1.77518e-20
2.05851e-20
2.38434e-20
2.75523e-20
3.17292e-20
3.63794e-20
4.14922e-20
4.70366e-20
5.29572e-20
5.91697e-20
6.55581e-20
7.19723e-20
7.82271e-20
8.41044e-20
8.93567e-20
9.37141e-20
9.68947e-20
9.86172e-20
7.30199e-21
7.71033e-21
8.33919e-21
9.20157e-21
1.03176e-20
1.17135e-20
1.342e-20
1.54725e-20
1.79089e-20
2.07688e-20
2.40912e-20
2.7912e-20
3.2261e-20
3.71584e-20
4.26101e-20
4.86033e-20
5.51014e-20
6.20392e-20
6.93178e-20
7.6801e-20
8.43128e-20
9.16366e-20
9.8517e-20
1.04665e-19
1.09764e-19
1.13486e-19
1.15501e-19
8.51462e-21
8.99286e-21
9.72945e-21
1.07397e-20
1.20474e-20
1.3683e-20
1.56831e-20
1.80889e-20
2.0945e-20
2.42978e-20
2.81928e-20
3.26721e-20
3.77705e-20
4.35113e-20
4.99013e-20
5.69251e-20
6.45397e-20
7.2668e-20
8.11942e-20
8.99585e-20
9.87547e-20
1.07329e-19
1.15383e-19
1.22578e-19
1.28545e-19
1.329e-19
1.35257e-19
9.9308e-21
1.04908e-20
1.13535e-20
1.25368e-20
1.40687e-20
1.59851e-20
1.83288e-20
2.11482e-20
2.44956e-20
2.84253e-20
3.29907e-20
3.8241e-20
4.42167e-20
5.09449e-20
5.84332e-20
6.66634e-20
7.55845e-20
8.51062e-20
9.50924e-20
1.05356e-19
1.15655e-19
1.25693e-19
1.3512e-19
1.4354e-19
1.50522e-19
1.55617e-19
1.58375e-19
1.15849e-20
1.22406e-20
1.32508e-20
1.46367e-20
1.6431e-20
1.8676e-20
2.14219e-20
2.47254e-20
2.86479e-20
3.3253e-20
3.86032e-20
4.47559e-20
5.17585e-20
5.96425e-20
6.84163e-20
7.80584e-20
8.85087e-20
9.96611e-20
1.11356e-19
1.23373e-19
1.35431e-19
1.4718e-19
1.58214e-19
1.68067e-19
1.76237e-19
1.82197e-19
1.85423e-19
1.3517e-20
1.42848e-20
1.54676e-20
1.70905e-20
1.9192e-20
2.18215e-20
2.50381e-20
2.89083e-20
3.35039e-20
3.88995e-20
4.51683e-20
5.23773e-20
6.05819e-20
6.98186e-20
8.0097e-20
9.13915e-20
1.03631e-19
1.16692e-19
1.30386e-19
1.44455e-19
1.5857e-19
1.72323e-19
1.85235e-19
1.96765e-19
2.06324e-19
2.13296e-19
2.1707e-19
1.57742e-20
1.6673e-20
1.80578e-20
1.99581e-20
2.24189e-20
2.54985e-20
2.9266e-20
3.37993e-20
3.91828e-20
4.55037e-20
5.28475e-20
6.12929e-20
7.09042e-20
8.1724e-20
9.37634e-20
1.06992e-19
1.21326e-19
1.36619e-19
1.52651e-19
1.69122e-19
1.85644e-19
2.01739e-19
2.16849e-19
2.30341e-19
2.41524e-19
2.49681e-19
2.54095e-19
1.84112e-20
1.94633e-20
2.10845e-20
2.33093e-20
2.61907e-20
2.97969e-20
3.4209e-20
3.95185e-20
4.5824e-20
5.32277e-20
6.18298e-20
7.1722e-20
8.29797e-20
9.56523e-20
1.09752e-19
1.25243e-19
1.42028e-19
1.59933e-19
1.78703e-19
1.97983e-19
2.1732e-19
2.36156e-19
2.53837e-19
2.69622e-19
2.82706e-19
2.92247e-19
2.97411e-19
2.14923e-20
2.27238e-20
2.46215e-20
2.7226e-20
3.05995e-20
3.48219e-20
3.99884e-20
4.6206e-20
5.35906e-20
6.22615e-20
7.2336e-20
8.39215e-20
9.71057e-20
1.11946e-19
1.28458e-19
1.46596e-19
1.66248e-19
1.8721e-19
2.09181e-19
2.31748e-19
2.54378e-19
2.76421e-19
2.97109e-19
3.15577e-19
3.30883e-19
3.42045e-19
3.48084e-19
2.50925e-20
2.65338e-20
2.87551e-20
3.18038e-20
3.5753e-20
4.06965e-20
4.67457e-20
5.4026e-20
6.26732e-20
7.28269e-20
8.46245e-20
9.81913e-20
1.1363e-19
1.31008e-19
1.5034e-19
1.71577e-19
1.94583e-19
2.19121e-19
2.44838e-19
2.7125e-19
2.97733e-19
3.23526e-19
3.47732e-19
3.69338e-19
3.87243e-19
4.00299e-19
4.07363e-19
2.92994e-20
3.09863e-20
3.35861e-20
3.71545e-20
4.17773e-20
4.75644e-20
5.46464e-20
6.31702e-20
7.32947e-20
8.51836e-20
9.89974e-20
1.14883e-19
1.32959e-19
1.53305e-19
1.75939e-19
2.008e-19
2.27731e-19
2.56453e-19
2.86552e-19
3.17461e-19
3.48452e-19
3.78631e-19
4.06951e-19
4.32227e-19
4.53172e-19
4.68443e-19
4.76706e-19
3.42157e-20
3.61897e-20
3.92323e-20
4.34088e-20
4.88197e-20
5.55938e-20
6.38841e-20
7.38629e-20
8.5716e-20
9.96351e-20
1.15808e-19
1.34406e-19
1.55569e-19
1.79388e-19
2.05884e-19
2.34986e-19
2.66508e-19
3.00125e-19
3.3535e-19
3.7152e-19
4.07782e-19
4.43093e-19
4.76225e-19
5.05794e-19
5.30294e-19
5.48156e-19
5.5782e-19
3.99612e-20
4.22712e-20
4.58318e-20
5.07196e-20
5.70524e-20
6.49813e-20
7.46853e-20
8.63663e-20
1.00242e-19
1.16536e-19
1.35469e-19
1.57241e-19
1.82015e-19
2.09898e-19
2.40912e-19
2.74976e-19
3.11869e-19
3.51211e-19
3.92433e-19
4.34757e-19
4.77186e-19
5.18498e-19
5.57258e-19
5.91847e-19
6.20505e-19
6.41397e-19
6.527e-19
4.66762e-20
4.93792e-20
5.35457e-20
5.92656e-20
6.66769e-20
7.59566e-20
8.73146e-20
1.00987e-19
1.17229e-19
1.36302e-19
1.58464e-19
1.8395e-19
2.12949e-19
2.45585e-19
2.81886e-19
3.21753e-19
3.6493e-19
4.1097e-19
4.59206e-19
5.08728e-19
5.5837e-19
6.06701e-19
6.52043e-19
6.92504e-19
7.26024e-19
7.5046e-19
7.63679e-19
5.45245e-20
5.76871e-20
6.25624e-20
6.92557e-20
7.79287e-20
8.87887e-20
1.02082e-19
1.18084e-19
1.37094e-19
1.59418e-19
1.85359e-19
2.15188e-19
2.49129e-19
2.87327e-19
3.29812e-19
3.76469e-19
4.26997e-19
4.80871e-19
5.37312e-19
5.95254e-19
6.53331e-19
7.09872e-19
7.62913e-19
8.1024e-19
8.49447e-19
8.78026e-19
8.93486e-19
6.36977e-20
6.7398e-20
7.31024e-20
8.09343e-20
9.10832e-20
1.03792e-19
1.19348e-19
1.38076e-19
1.60324e-19
1.86452e-19
2.16812e-19
2.51724e-19
2.91447e-19
3.36151e-19
3.8587e-19
4.4047e-19
4.99595e-19
5.62634e-19
6.28671e-19
6.96461e-19
7.64405e-19
8.30547e-19
8.92592e-19
9.47949e-19
9.93806e-19
1.02723e-18
1.04531e-18
7.44199e-20
7.87492e-20
8.54234e-20
9.45871e-20
1.06462e-19
1.21334e-19
1.39538e-19
1.61454e-19
1.8749e-19
2.18068e-19
2.53598e-19
2.94454e-19
3.40942e-19
3.93256e-19
4.51438e-19
5.15328e-19
5.84511e-19
6.58269e-19
7.35531e-19
8.14839e-19
8.94323e-19
9.71694e-19
1.04427e-18
1.10902e-18
1.16265e-18
1.20174e-18
1.22289e-18
8.69532e-20
9.2018e-20
9.98265e-20
1.10548e-19
1.24443e-19
1.41843e-19
1.63145e-19
1.8879e-19
2.19259e-19
2.55041e-19
2.96619e-19
3.4443e-19
3.9883e-19
4.60047e-19
5.28128e-19
6.02885e-19
6.83832e-19
7.70127e-19
8.60518e-19
9.53297e-19
1.04628e-18
1.13678e-18
1.22167e-18
1.2974e-18
1.36013e-18
1.40585e-18
1.43057e-18
1.01604e-19
1.07529e-19
1.16664e-19
1.29208e-19
1.45465e-19
1.65824e-19
1.90748e-19
2.20757e-19
2.56409e-19
2.9828e-19
3.46932e-19
4.02879e-19
4.66534e-19
5.38164e-19
6.17824e-19
7.05292e-19
7.99998e-19
9.00957e-19
1.0067e-18
1.11524e-18
1.224e-18
1.32986e-18
1.42915e-18
1.51773e-18
1.59109e-18
1.64456e-18
1.67347e-18
1.1873e-19
1.25661e-19
1.36348e-19
1.51023e-19
1.70043e-19
1.93863e-19
2.23025e-19
2.58136e-19
2.99852e-19
3.48845e-19
4.05773e-19
4.71235e-19
5.45716e-19
6.29526e-19
7.2273e-19
8.25065e-19
9.35865e-19
1.05398e-18
1.17768e-18
1.30464e-18
1.43186e-18
1.55569e-18
1.67182e-18
1.77541e-18
1.86121e-18
1.92373e-18
1.95755e-18
1.3875e-19
1.46858e-19
1.59361e-19
1.76528e-19
1.98779e-19
2.26648e-19
2.60766e-19
3.01846e-19
3.50654e-19
4.07978e-19
4.74586e-19
5.51178e-19
6.38322e-19
7.36379e-19
8.45423e-19
9.65148e-19
1.09477e-18
1.23294e-18
1.37765e-18
1.52616e-18
1.67497e-18
1.8198e-18
1.95562e-18
2.07677e-18
2.17711e-18
2.25023e-18
2.28978e-18
1.62154e-19
1.71639e-19
1.86264e-19
2.06347e-19
2.32378e-19
2.64981e-19
3.04897e-19
3.52958e-19
4.10062e-19
4.77129e-19
5.55059e-19
6.4467e-19
7.46625e-19
8.61346e-19
9.88918e-19
1.12898e-18
1.28062e-18
1.44225e-18
1.61152e-18
1.78523e-18
1.95929e-18
2.12868e-18
2.28753e-18
2.42922e-18
2.54656e-18
2.63207e-18
2.67831e-18
1.89514e-19
2.0061e-19
2.17717e-19
2.4121e-19
2.71661e-19
3.09802e-19
3.56499e-19
4.12726e-19
4.79533e-19
5.57996e-19
6.49169e-19
7.54007e-19
8.73285e-19
1.0075e-18
1.15674e-18
1.32059e-18
1.49797e-18
1.68704e-18
1.88503e-18
2.08822e-18
2.2918e-18
2.48991e-18
2.67569e-18
2.84139e-18
2.97862e-18
3.07862e-18
3.13269e-18
2.21501e-19
2.34479e-19
2.5449e-19
2.81971e-19
3.17592e-19
3.62209e-19
4.16837e-19
4.82616e-19
5.60771e-19
6.52564e-19
7.59225e-19
8.81873e-19
1.02141e-18
1.17842e-18
1.353e-18
1.54467e-18
1.75217e-18
1.97332e-18
2.20491e-18
2.44256e-18
2.68066e-18
2.91236e-18
3.12963e-18
3.32341e-18
3.48389e-18
3.60082e-18
3.66406e-18
2.58895e-19
2.74075e-19
2.97482e-19
3.29628e-19
3.71296e-19
4.23488e-19
4.87391e-19
5.6434e-19
6.55769e-19
7.63152e-19
8.87929e-19
1.03141e-18
1.19464e-18
1.37831e-18
1.58253e-18
1.80673e-18
2.04944e-18
2.30812e-18
2.579e-18
2.85695e-18
3.13543e-18
3.4064e-18
3.66049e-18
3.88711e-18
4.07477e-18
4.21151e-18
4.28545e-18
3.02614e-19
3.20369e-19
3.47747e-19
3.85348e-19
4.34088e-19
4.95139e-19
5.69891e-19
6.59904e-19
7.66856e-19
8.92473e-19
1.03844e-18
1.20627e-18
1.39722e-18
1.61207e-18
1.85096e-18
2.11321e-18
2.3971e-18
2.69966e-18
3.01648e-18
3.34156e-18
3.66725e-18
3.98415e-18
4.28129e-18
4.5463e-18
4.76574e-18
4.92564e-18
5.0121e-18
3.53725e-19
3.74493e-19
4.06516e-19
4.50496e-19
5.07506e-19
5.78919e-19
6.66358e-19
7.71651e-19
8.96759e-19
1.0437e-18
1.21444e-18
1.41077e-18
1.63413e-18
1.88544e-18
2.16487e-18
2.47162e-18
2.80367e-18
3.15754e-18
3.52809e-18
3.90829e-18
4.28917e-18
4.65977e-18
5.00726e-18
5.31716e-18
5.57377e-18
5.76074e-18
5.86183e-18
4.13482e-19
4.37772e-19
4.75227e-19
5.26668e-19
5.9335e-19
6.7688e-19
7.79158e-19
9.0232e-19
1.04866e-18
1.22054e-18
1.42026e-18
1.64991e-18
1.91118e-18
2.20513e-18
2.53197e-18
2.89075e-18
3.27912e-18
3.69301e-18
4.12637e-18
4.57102e-18
5.01645e-18
5.44985e-18
5.8562e-18
6.21858e-18
6.51864e-18
6.73727e-18
6.85548e-18
4.83347e-19
5.11755e-19
5.55563e-19
6.15729e-19
6.93723e-19
7.91424e-19
9.11056e-19
1.05512e-18
1.22629e-18
1.42734e-18
1.66095e-18
1.92957e-18
2.23516e-18
2.57898e-18
2.96126e-18
3.3809e-18
3.83513e-18
4.31918e-18
4.82601e-18
5.34602e-18
5.86692e-18
6.37374e-18
6.84892e-18
7.27267e-18
7.62353e-18
7.87916e-18
8.01738e-18
5.65029e-19
5.98255e-19
6.49491e-19
7.19861e-19
8.11085e-19
9.25359e-19
1.06528e-18
1.23378e-18
1.434e-18
1.66916e-18
1.9424e-18
2.25659e-18
2.61403e-18
3.01617e-18
3.46328e-18
3.95408e-18
4.48532e-18
5.05143e-18
5.64416e-18
6.25228e-18
6.86144e-18
7.4541e-18
8.00975e-18
8.50525e-18
8.91551e-18
9.21441e-18
9.37602e-18
6.6053e-19
6.99389e-19
7.59313e-19
8.41616e-19
9.4831e-19
1.08196e-18
1.24562e-18
1.44271e-18
1.67688e-18
1.95193e-18
2.27153e-18
2.63901e-18
3.05707e-18
3.52741e-18
4.05034e-18
4.62435e-18
5.24565e-18
5.90771e-18
6.60087e-18
7.31203e-18
8.02437e-18
8.71741e-18
9.36715e-18
9.94653e-18
1.04262e-17
1.07757e-17
1.09647e-17
7.72187e-19
8.17634e-19
8.87717e-19
9.83975e-19
1.10876e-18
1.26508e-18
1.4565e-18
1.687e-18
1.9609e-18
2.2826e-18
2.6564e-18
3.0862e-18
3.57515e-18
4.12524e-18
4.73683e-18
5.40815e-18
6.13475e-18
6.909e-18
7.71961e-18
8.55123e-18
9.38422e-18
1.01946e-17
1.09544e-17
1.16318e-17
1.21927e-17
1.26013e-17
1.28223e-17
9.02734e-19
9.55885e-19
1.03785e-18
1.15043e-18
1.29637e-18
1.47919e-18
1.70307e-18
1.97266e-18
2.293e-18
2.66926e-18
3.10644e-18
3.60912e-18
4.18098e-18
4.82433e-18
5.53959e-18
6.32468e-18
7.17442e-18
8.07985e-18
9.02779e-18
1.00003e-17
1.09743e-17
1.19219e-17
1.28103e-17
1.36024e-17
1.42582e-17
1.4736e-17
1.49943e-17
1.05537e-18
1.11753e-18
1.21339e-18
1.34505e-18
1.51573e-18
1.72955e-18
1.99138e-18
2.30669e-18
2.68134e-18
3.12139e-18
3.6327e-18
4.2206e-18
4.8894e-18
5.6418e-18
6.47829e-18
7.39643e-18
8.39014e-18
9.44896e-18
1.05575e-17
1.16946e-17
1.28336e-17
1.39416e-17
1.49803e-17
1.59065e-17
1.66733e-17
1.72318e-17
1.75338e-17
1.23383e-18
1.30652e-18
1.41863e-18
1.57261e-18
1.77222e-18
2.02229e-18
2.32851e-18
2.69726e-18
3.13544e-18
3.65008e-18
4.24807e-18
4.93563e-18
5.71779e-18
6.5977e-18
7.57594e-18
8.64965e-18
9.8117e-18
1.10499e-17
1.23461e-17
1.36758e-17
1.50076e-17
1.63032e-17
1.75177e-17
1.86005e-17
1.9497e-17
2.01501e-17
2.05032e-17
1.44248e-18
1.5275e-18
1.6586e-18
1.83868e-18
2.07212e-18
2.36458e-18
2.7227e-18
3.15396e-18
3.66641e-18
4.26829e-18
4.96763e-18
5.77173e-18
6.68644e-18
7.71546e-18
8.85945e-18
1.01151e-17
1.14739e-17
1.29218e-17
1.44375e-17
1.59923e-17
1.75496e-17
1.90644e-17
2.04844e-17
2.17504e-17
2.27986e-17
2.35621e-17
2.39749e-17
1.68644e-18
1.78586e-18
1.93918e-18
2.14977e-18
2.42279e-18
2.76481e-18
3.18362e-18
3.68798e-18
4.28728e-18
4.99116e-18
5.80903e-18
6.74939e-18
7.81909e-18
9.02246e-18
1.03603e-17
1.18285e-17
1.34176e-17
1.51106e-17
1.68829e-17
1.87009e-17
2.05217e-17
2.22928e-17
2.39531e-17
2.54333e-17
2.66587e-17
2.75513e-17
2.80339e-17
1.97168e-18
2.08795e-18
2.26725e-18
2.51352e-18
2.8328e-18
3.23278e-18
3.72257e-18
4.3124e-18
5.01326e-18
5.83642e-18
6.79287e-18
7.89256e-18
9.1435e-18
1.05507e-17
1.21151e-17
1.38321e-17
1.56902e-17
1.76698e-17
1.97422e-17
2.18679e-17
2.39967e-17
2.60675e-17
2.80086e-17
2.97392e-17
3.11718e-17
3.22153e-17
3.27795e-17
2.30519e-18
2.44115e-18
2.65083e-18
2.93883e-18
3.3122e-18
3.77995e-18
4.35274e-18
5.04251e-18
5.86213e-18
6.82477e-18
7.94327e-18
9.22926e-18
1.06921e-17
1.23377e-17
1.4167e-17
1.61747e-17
1.83474e-17
2.06622e-17
2.30853e-17
2.55707e-17
2.80597e-17
3.04808e-17
3.27502e-17
3.47734e-17
3.64482e-17
3.76681e-17
3.83276e-17
2.69512e-18
2.85411e-18
3.09931e-18
3.43611e-18
3.87274e-18
4.41974e-18
5.08957e-18
5.89622e-18
6.85469e-18
7.98042e-18
9.2884e-18
1.07922e-17
1.25029e-17
1.44271e-17
1.65662e-17
1.89138e-17
2.14543e-17
2.41609e-17
2.6994e-17
2.98999e-17
3.281e-17
3.56406e-17
3.82937e-17
4.0659e-17
4.26169e-17
4.4043e-17
4.4814e-17
3.15103e-18
3.33696e-18
3.62369e-18
4.01754e-18
4.52814e-18
5.16781e-18
5.95112e-18
6.89441e-18
8.01526e-18
9.33167e-18
1.08612e-17
1.26197e-17
1.46201e-17
1.68702e-17
1.93715e-17
2.21165e-17
2.5087e-17
2.82516e-17
3.1564e-17
3.49615e-17
3.83638e-17
4.16731e-17
4.47747e-17
4.75398e-17
4.98286e-17
5.14957e-17
5.23969e-17
3.68407e-18
3.9015e-18
4.2368e-18
4.69737e-18
5.29446e-18
6.04249e-18
6.95848e-18
8.06156e-18
9.37225e-18
1.09116e-17
1.27002e-17
1.47566e-17
1.70956e-17
1.97267e-17
2.26514e-17
2.5861e-17
2.93342e-17
3.30343e-17
3.69071e-17
4.08792e-17
4.48569e-17
4.87256e-17
5.23515e-17
5.55839e-17
5.82595e-17
6.02083e-17
6.12618e-17
4.30731e-18
4.56156e-18
4.95366e-18
5.49223e-18
6.19046e-18
7.06518e-18
8.13632e-18
9.42622e-18
1.09589e-17
1.2759e-17
1.48505e-17
1.7255e-17
1.999e-17
2.30665e-17
2.64862e-17
3.02391e-17
3.42999e-17
3.86259e-17
4.31538e-17
4.77977e-17
5.24479e-17
5.69705e-17
6.12093e-17
6.49879e-17
6.81155e-17
7.03935e-17
7.16249e-17
5.03599e-18
5.3333e-18
5.79181e-18
6.42159e-18
7.23807e-18
8.26094e-18
9.51348e-18
1.10218e-17
1.28141e-17
1.4919e-17
1.73645e-17
2.01762e-17
2.33742e-17
2.69714e-17
3.09699e-17
3.53577e-17
4.01056e-17
4.51633e-17
5.04569e-17
5.5886e-17
6.13222e-17
6.66093e-17
7.15643e-17
7.59812e-17
7.96371e-17
8.22999e-17
8.37392e-17
5.88796e-18
6.23562e-18
6.77177e-18
7.5082e-18
8.46295e-18
9.65903e-18
1.11237e-17
1.28874e-17
1.49831e-17
1.74444e-17
2.0304e-17
2.35916e-17
2.73309e-17
3.15369e-17
3.6212e-17
4.13421e-17
4.68931e-17
5.28062e-17
5.89948e-17
6.53417e-17
7.16967e-17
7.78772e-17
8.36692e-17
8.88323e-17
9.31056e-17
9.62179e-17
9.79002e-17
6.88406e-18
7.29059e-18
7.91752e-18
8.77866e-18
9.89507e-18
1.12937e-17
1.30063e-17
1.50687e-17
1.75192e-17
2.03972e-17
2.37409e-17
2.75849e-17
3.1957e-17
3.68747e-17
4.23407e-17
4.83386e-17
5.48284e-17
6.17413e-17
6.89762e-17