/*--------------------------------*- C++ -*----------------------------------*\
| =========                 |                                                 |
| \\      /  F ield         | OpenFOAM: The Open Source CFD Toolbox           |
|  \\    /   O peration     | Version:  2212                                  |
|   \\  /    A nd           | Website:  www.openfoam.com                      |
|    \\/     M anipulation  |                                                 |
\*---------------------------------------------------------------------------*/
FoamFile
{
    version     2.0;
    format      ascii;
    arch        "LSB;label=32;scalar=64";
    class       volScalarField;
    location    "9.0545968";
    object      I-C4H3;
}
// * * * * * * * * * * * * * * * * * * * * * * * * * * * * * * * * * * * * * //

dimensions      [0 0 0 0 0 0 0];

internalField   nonuniform List<scalar> 
33600
(
1.02569e-27
1.05551e-27
1.10054e-27
1.16069e-27
1.23607e-27
1.32698e-27
1.43379e-27
1.55698e-27
1.69709e-27
1.85469e-27
2.03037e-27
2.2247e-27
2.43819e-27
2.67126e-27
2.92422e-27
3.19718e-27
3.49002e-27
3.80233e-27
4.13332e-27
4.48175e-27
4.8458e-27
5.22291e-27
5.60933e-27
5.99897e-27
6.37944e-27
6.72288e-27
6.96043e-27
3.31005e-27
3.40659e-27
3.55241e-27
3.74717e-27
3.99129e-27
4.28568e-27
4.63161e-27
5.03064e-27
5.48453e-27
5.99518e-27
6.56451e-27
7.19437e-27
7.88649e-27
8.64228e-27
9.46274e-27
1.03483e-26
1.12987e-26
1.23125e-26
1.33873e-26
1.45191e-26
1.57021e-26
1.69283e-26
1.8187e-26
1.94644e-26
2.07358e-26
2.19557e-26
2.29321e-26
6.09017e-27
6.26888e-27
6.5388e-27
6.89929e-27
7.35121e-27
7.89625e-27
8.53682e-27
9.27588e-27
1.01168e-26
1.10631e-26
1.21184e-26
1.32864e-26
1.45704e-26
1.59732e-26
1.7497e-26
1.91429e-26
2.09109e-26
2.27995e-26
2.48054e-26
2.69233e-26
2.91461e-26
3.14646e-26
3.38658e-26
3.63312e-26
3.88112e-26
4.11827e-26
4.29893e-26
9.42884e-27
9.70785e-27
1.01292e-26
1.06921e-26
1.13977e-26
1.2249e-26
1.32497e-26
1.44046e-26
1.57192e-26
1.71992e-26
1.88508e-26
2.06797e-26
2.26918e-26
2.48921e-26
2.72847e-26
2.98728e-26
3.26581e-26
3.56405e-26
3.88185e-26
4.21889e-26
4.57464e-26
4.94832e-26
5.33822e-26
5.74048e-26
6.14377e-26
6.51959e-26
6.78899e-26
1.33954e-26
1.3796e-26
1.44009e-26
1.5209e-26
1.62223e-26
1.7445e-26
1.88831e-26
2.05435e-26
2.24345e-26
2.4565e-26
2.69442e-26
2.95816e-26
3.24865e-26
3.56675e-26
3.91328e-26
4.28894e-26
4.69431e-26
5.12988e-26
5.59598e-26
6.09278e-26
6.62008e-26
7.17683e-26
7.7595e-26
8.35904e-26
8.95187e-26
9.48561e-26
9.84776e-26
1.80673e-26
1.86143e-26
1.94402e-26
2.05438e-26
2.1928e-26
2.3599e-26
2.55653e-26
2.78372e-26
3.04266e-26
3.33466e-26
3.66114e-26
4.02352e-26
4.4233e-26
4.86194e-26
5.34089e-26
5.86155e-26
6.42529e-26
7.03337e-26
7.68693e-26
8.38671e-26
9.13244e-26
9.92165e-26
1.07465e-25
1.15884e-25
1.24055e-25
1.31173e-25
1.35793e-25
2.35319e-26
2.42541e-26
2.5345e-26
2.68028e-26
2.86323e-26
3.08419e-26
3.34438e-26
3.64527e-26
3.98856e-26
4.37618e-26
4.81017e-26
5.29275e-26
5.8262e-26
6.4129e-26
7.05529e-26
7.75588e-26
8.51714e-26
9.34147e-26
1.02309e-25
1.11864e-25
1.22068e-25
1.32862e-25
1.44091e-25
1.55421e-25
1.66209e-25
1.7534e-25
1.81065e-25
2.98884e-26
3.08198e-26
3.22269e-26
3.4108e-26
3.64699e-26
3.93247e-26
4.26892e-26
4.65841e-26
5.10338e-26
5.60656e-26
6.17094e-26
6.79979e-26
7.49659e-26
8.26502e-26
9.10895e-26
1.00324e-25
1.10393e-25
1.21333e-25
1.33173e-25
1.45918e-25
1.59531e-25
1.73892e-25
1.88728e-25
2.03516e-25
2.17344e-25
2.28771e-25
2.35745e-25
3.72507e-26
3.8431e-26
4.02144e-26
4.25998e-26
4.55968e-26
4.92224e-26
5.34999e-26
5.84583e-26
6.41315e-26
7.05582e-26
7.77814e-26
8.58484e-26
9.48104e-26
1.04722e-25
1.15641e-25
1.27627e-25
1.40737e-25
1.55021e-25
1.70509e-25
1.87192e-25
2.04986e-25
2.23678e-25
2.42836e-25
2.61704e-25
2.79064e-25
2.93131e-25
3.0154e-25
4.57502e-26
4.72258e-26
4.9456e-26
5.24408e-26
5.61939e-26
6.07389e-26
6.6108e-26
7.23408e-26
7.94846e-26
8.75932e-26
9.67274e-26
1.06954e-25
1.18346e-25
1.30981e-25
1.44942e-25
1.60312e-25
1.77166e-25
1.95566e-25
2.15537e-25
2.37037e-25
2.59911e-25
2.83815e-25
3.08118e-25
3.31785e-25
3.53256e-25
3.70379e-25
3.8045e-25
5.55392e-26
5.73644e-26
6.01243e-26
6.38205e-26
6.84725e-26
7.41126e-26
8.07848e-26
8.85432e-26
9.74526e-26
1.07587e-25
1.1903e-25
1.31875e-25
1.46222e-25
1.62179e-25
1.79859e-25
1.9937e-25
2.20809e-25
2.44244e-25
2.69682e-25
2.9703e-25
3.26029e-25
3.56167e-25
3.86567e-25
4.15871e-25
4.42138e-25
4.62813e-25
4.74818e-25
6.67947e-26
6.90333e-26
7.24201e-26
7.69595e-26
8.26789e-26
8.96221e-26
9.78484e-26
1.07431e-25
1.18458e-25
1.31029e-25
1.45257e-25
1.6127e-25
1.79202e-25
1.99199e-25
2.21406e-25
2.45964e-25
2.72988e-25
3.02543e-25
3.34606e-25
3.69007e-25
4.05349e-25
4.42909e-25
4.80515e-25
5.16439e-25
5.48312e-25
5.7313e-25
5.87391e-25
7.97229e-26
8.24498e-26
8.65779e-26
9.21159e-26
9.91013e-26
1.07594e-25
1.17672e-25
1.29434e-25
1.42997e-25
1.58494e-25
1.76078e-25
1.95915e-25
2.18185e-25
2.43076e-25
2.70776e-25
3.01456e-25
3.35247e-25
3.72203e-25
4.12251e-25
4.55115e-25
5.00223e-25
5.4659e-25
5.92701e-25
6.36398e-25
6.7483e-25
7.04489e-25
7.21388e-25
9.45644e-26
9.78677e-26
1.02872e-25
1.09591e-25
1.18077e-25
1.28409e-25
1.40692e-25
1.55055e-25
1.71652e-25
1.90659e-25
2.12275e-25
2.36719e-25
2.64223e-25
2.95027e-25
3.29365e-25
3.6744e-25
4.09394e-25
4.55259e-25
5.04887e-25
5.57866e-25
6.13401e-25
6.70197e-25
7.26331e-25
7.79155e-25
8.25269e-25
8.60592e-25
8.80578e-25
1.116e-25
1.15583e-25
1.21621e-25
1.29737e-25
1.40001e-25
1.52516e-25
1.67421e-25
1.84884e-25
2.05106e-25
2.28315e-25
2.5477e-25
2.8475e-25
3.18552e-25
3.56476e-25
3.98806e-25
4.4578e-25
4.97544e-25
5.5409e-25
6.15171e-25
6.80197e-25
7.48105e-25
8.17227e-25
8.85164e-25
9.48707e-25
1.00382e-24
1.04578e-24
1.06938e-24
1.31158e-25
1.35942e-25
1.432e-25
1.52967e-25
1.65334e-25
1.80438e-25
1.98458e-25
2.19612e-25
2.44159e-25
2.72392e-25
3.0464e-25
3.41259e-25
3.82619e-25
4.29091e-25
4.81015e-25
5.38662e-25
6.02172e-25
6.71481e-25
7.46211e-25
8.25549e-25
9.08108e-25
9.91778e-25
1.07361e-24
1.14974e-24
1.21541e-24
1.26513e-24
1.29296e-24
1.53621e-25
1.59348e-25
1.68045e-25
1.79761e-25
1.94617e-25
2.12788e-25
2.34506e-25
2.6005e-25
2.89749e-25
3.23977e-25
3.63149e-25
4.07709e-25
4.58117e-25
5.14824e-25
5.7823e-25
6.48639e-25
7.26175e-25
8.10691e-25
9.01644e-25
9.9795e-25
1.09783e-24
1.19865e-24
1.29683e-24
1.38773e-24
1.46578e-24
1.5246e-24
1.55739e-24
1.79436e-25
1.86275e-25
1.96668e-25
2.10685e-25
2.28481e-25
2.50284e-25
2.76387e-25
3.07146e-25
3.42975e-25
3.84346e-25
4.31776e-25
4.85817e-25
5.47032e-25
6.15962e-25
6.93076e-25
7.78704e-25
8.72943e-25
9.75536e-25
1.08573e-24
1.20212e-24
1.32245e-24
1.44348e-24
1.56087e-24
1.66912e-24
1.76168e-24
1.83116e-24
1.86976e-24
2.09126e-25
2.17274e-25
2.29665e-25
2.46395e-25
2.67665e-25
2.93764e-25
3.25063e-25
3.62008e-25
4.05122e-25
4.5499e-25
5.12254e-25
5.77592e-25
6.51686e-25
7.35182e-25
8.28622e-25
9.32359e-25
1.04644e-24
1.17048e-24
1.30346e-24
1.44358e-24
1.58803e-24
1.73284e-24
1.87281e-24
2.00142e-24
2.111e-24
2.19298e-24
2.23838e-24
2.43302e-25
2.52989e-25
2.67734e-25
2.87663e-25
3.13034e-25
3.44211e-25
3.81659e-25
4.25937e-25
4.77694e-25
5.37656e-25
6.0661e-25
6.85384e-25
7.74799e-25
8.75618e-25
9.88462e-25
1.1137e-24
1.25133e-24
1.40076e-24
1.56068e-24
1.7288e-24
1.90167e-24
2.07447e-24
2.24097e-24
2.39347e-24
2.523e-24
2.61962e-24
2.67298e-24
2.82676e-25
2.94174e-25
3.11689e-25
3.35388e-25
3.65596e-25
4.02771e-25
4.47492e-25
5.00452e-25
5.62453e-25
6.34388e-25
7.17219e-25
8.11947e-25
9.19554e-25
1.04094e-24
1.1768e-24
1.32754e-24
1.49303e-24
1.6725e-24
1.86423e-24
2.06537e-24
2.27169e-24
2.4774e-24
2.67505e-24
2.85559e-24
3.0085e-24
3.12228e-24
3.18497e-24
3.28081e-25
3.41708e-25
3.62483e-25
3.90622e-25
4.26534e-25
4.70788e-25
5.24101e-25
5.87331e-25
6.6146e-25
7.47579e-25
8.46858e-25
9.60501e-25
1.08968e-24
1.23543e-24
1.39857e-24
1.57948e-24
1.77793e-24
1.99286e-24
2.22212e-24
2.46216e-24
2.70784e-24
2.95222e-24
3.18645e-24
3.39986e-24
3.5802e-24
3.71408e-24
3.78769e-24
3.8049e-25
3.96619e-25
4.21228e-25
4.54594e-25
4.97227e-25
5.4983e-25
6.13289e-25
6.88653e-25
7.77124e-25
8.80029e-25
9.98779e-25
1.13482e-24
1.28953e-24
1.46414e-24
1.65953e-24
1.8761e-24
2.11347e-24
2.37025e-24
2.64372e-24
2.92956e-24
3.22153e-24
3.51133e-24
3.78849e-24
4.04046e-24
4.25293e-24
4.41035e-24
4.49675e-24
4.41037e-25
4.60106e-25
4.89224e-25
5.28741e-25
5.79288e-25
6.41733e-25
7.1716e-25
8.06851e-25
9.12267e-25
1.03501e-24
1.17679e-24
1.33931e-24
1.52422e-24
1.73292e-24
1.96644e-24
2.22511e-24
2.5084e-24
2.81449e-24
3.14003e-24
3.47973e-24
3.8261e-24
4.16924e-24
4.49677e-24
4.79395e-24
5.04408e-24
5.22908e-24
5.33046e-24
5.11049e-25
5.33573e-25
5.67991e-25
6.14741e-25
6.74604e-25
7.48643e-25
8.38179e-25
9.44771e-25
1.07019e-24
1.21636e-24
1.38533e-24
1.57914e-24
1.79971e-24
2.04868e-24
2.32718e-24
2.63553e-24
2.97293e-24
3.3371e-24
3.72391e-24
4.12693e-24
4.5372e-24
4.94295e-24
5.32956e-24
5.67975e-24
5.974e-24
6.1913e-24
6.31022e-24
5.92076e-25
6.18657e-25
6.59301e-25
7.14556e-25
7.85379e-25
8.73067e-25
9.79224e-25
1.10574e-24
1.25474e-24
1.42856e-24
1.62962e-24
1.86035e-24
2.123e-24
2.41948e-24
2.75102e-24
3.11789e-24
3.51902e-24
3.95155e-24
4.4104e-24
4.88784e-24
5.37314e-24
5.85235e-24
6.30825e-24
6.72056e-24
7.06651e-24
7.32164e-24
7.46109e-24
6.85927e-25
7.1727e-25
7.65228e-25
8.30479e-25
9.14191e-25
1.01794e-24
1.14367e-24
1.29365e-24
1.47045e-24
1.67686e-24
1.91575e-24
2.19001e-24
2.50228e-24
2.85474e-24
3.24876e-24
3.68456e-24
4.16069e-24
4.67361e-24
5.21713e-24
5.78197e-24
6.35535e-24
6.92074e-24
7.45787e-24
7.94299e-24
8.34948e-24
8.64891e-24
8.8124e-24
7.94715e-25
8.31648e-25
8.88194e-25
9.65188e-25
1.06405e-24
1.18669e-24
1.33544e-24
1.51305e-24
1.7226e-24
1.96738e-24
2.25086e-24
2.5764e-24
2.94711e-24
3.3655e-24
3.83309e-24
4.34999e-24
4.91433e-24
5.52174e-24
6.16473e-24
6.83219e-24
7.50891e-24
8.17537e-24
8.80773e-24
9.37815e-24
9.85557e-24
1.02069e-23
1.03985e-23
9.20909e-25
9.64402e-25
1.03103e-24
1.12181e-24
1.23848e-24
1.38332e-24
1.55915e-24
1.76928e-24
2.01735e-24
2.30732e-24
2.64328e-24
3.0292e-24
3.46871e-24
3.96468e-24
4.51883e-24
5.1311e-24
5.79913e-24
6.51755e-24
7.27735e-24
8.06524e-24
8.86318e-24
9.64815e-24
1.03921e-23
1.10625e-23
1.16229e-23
1.2035e-23
1.22595e-23
1.06739e-24
1.11858e-24
1.19704e-24
1.30402e-24
1.44159e-24
1.61252e-24
1.82019e-24
2.06854e-24
2.36193e-24
2.70507e-24
3.10277e-24
3.55973e-24
4.08017e-24
4.66741e-24
5.32332e-24
6.04769e-24
6.83753e-24
7.68633e-24
8.58323e-24
9.51242e-24
1.04525e-23
1.13764e-23
1.22511e-23
1.30386e-23
1.36963e-23
1.41794e-23
1.44425e-23
1.23754e-24
1.29775e-24
1.39009e-24
1.51607e-24
1.67819e-24
1.87977e-24
2.12485e-24
2.41812e-24
2.7648e-24
3.17045e-24
3.64076e-24
4.18126e-24
4.79685e-24
5.49137e-24
6.26686e-24
7.12293e-24
8.05584e-24
9.05767e-24
1.01155e-23
1.12104e-23
1.23172e-23
1.34039e-23
1.44318e-23
1.53563e-23
1.61279e-23
1.66943e-23
1.70025e-23
1.43528e-24
1.50608e-24
1.6147e-24
1.76297e-24
1.95391e-24
2.19147e-24
2.48049e-24
2.82655e-24
3.23584e-24
3.71495e-24
4.2706e-24
4.90927e-24
5.63669e-24
6.45725e-24
7.37323e-24
8.38394e-24
9.48479e-24
1.06662e-23
1.19127e-23
1.3202e-23
1.45042e-23
1.57816e-23
1.6989e-23
1.80741e-23
1.89791e-23
1.96428e-23
2.00038e-23
1.66521e-24
1.74843e-24
1.87614e-24
2.05057e-24
2.27531e-24
2.55511e-24
2.89572e-24
3.30377e-24
3.7866e-24
4.35202e-24
5.00793e-24
5.76193e-24
6.6207e-24
7.58928e-24
8.67021e-24
9.86246e-24
1.11604e-23
1.25525e-23
1.40203e-23
1.55374e-23
1.70686e-23
1.85695e-23
1.99872e-23
2.12602e-23
2.23213e-23
2.3099e-23
2.35218e-23
1.93272e-24
2.03048e-24
2.18058e-24
2.38568e-24
2.65009e-24
2.97944e-24
3.3806e-24
3.86142e-24
4.43061e-24
5.09736e-24
5.87101e-24
6.76044e-24
7.77343e-24
8.9158e-24
1.01903e-23
1.15956e-23
1.31247e-23
1.47639e-23
1.64912e-23
1.82753e-23
2.00748e-23
2.18376e-23
2.35014e-23
2.49946e-23
2.62384e-23
2.71495e-23
2.76446e-23
2.24408e-24
2.35888e-24
2.53523e-24
2.7763e-24
3.08722e-24
3.47471e-24
3.94691e-24
4.51314e-24
5.18368e-24
5.96939e-24
6.88123e-24
7.92963e-24
9.12364e-24
1.04699e-23
1.19716e-23
1.36268e-23
1.54271e-23
1.7356e-23
1.93874e-23
2.14845e-23
2.35983e-23
2.56678e-23
2.76198e-23
2.93707e-23
3.08284e-23
3.18957e-23
3.24753e-23
2.60662e-24
2.7414e-24
2.94851e-24
3.23174e-24
3.59719e-24
4.05287e-24
4.6084e-24
5.27483e-24
6.06429e-24
6.98959e-24
8.0636e-24
9.29854e-24
1.07049e-23
1.22905e-23
1.40587e-23
1.60069e-23
1.81251e-23
2.03936e-23
2.27815e-23
2.52452e-23
2.77272e-23
3.01558e-23
3.24454e-23
3.4498e-23
3.62059e-23
3.74559e-23
3.81345e-23
3.02892e-24
3.18712e-24
3.43026e-24
3.7629e-24
4.1923e-24
4.72791e-24
5.38117e-24
6.16511e-24
7.09407e-24
8.18312e-24
9.44738e-24
1.09011e-23
1.25567e-23
1.44229e-23
1.65035e-23
1.87954e-23
2.12862e-23
2.39527e-23
2.67583e-23
2.96515e-23
3.25648e-23
3.5414e-23
3.80987e-23
4.05044e-23
4.25053e-23
4.39691e-23
4.47635e-23
3.52101e-24
3.70663e-24
3.992e-24
4.38254e-24
4.88687e-24
5.5162e-24
6.28403e-24
7.20578e-24
8.29832e-24
9.57941e-24
1.10668e-23
1.27772e-23
1.47249e-23
1.69201e-23
1.93671e-23
2.20617e-23
2.49894e-23
2.81223e-23
3.14171e-23
3.48135e-23
3.82318e-23
4.15733e-23
4.47206e-23
4.75396e-23
4.98833e-23
5.15973e-23
5.25271e-23
4.0946e-24
4.31233e-24
4.64717e-24
5.10555e-24
5.69769e-24
6.43685e-24
7.33898e-24
8.42227e-24
9.70662e-24
1.12129e-23
1.29619e-23
1.49731e-23
1.72634e-23
1.98443e-23
2.27207e-23
2.58874e-23
2.93269e-23
3.30061e-23
3.68742e-23
4.08597e-23
4.48694e-23
4.87874e-23
5.24762e-23
5.57788e-23
5.85236e-23
6.05303e-23
6.16187e-23
4.76337e-24
5.01871e-24
5.41149e-24
5.94935e-24
6.64436e-24
7.51222e-24
8.57175e-24
9.84438e-24
1.13535e-23
1.31237e-23
1.51794e-23
1.75434e-23
2.02351e-23
2.32682e-23
2.66478e-23
3.03676e-23
3.44067e-23
3.8726e-23
4.32653e-23
4.79408e-23
5.26429e-23
5.72357e-23
6.15582e-23
6.54269e-23
6.86411e-23
7.09903e-23
7.2264e-23
5.54331e-24
5.84271e-24
6.30334e-24
6.93429e-24
7.74982e-24
8.76846e-24
1.00124e-23
1.15069e-23
1.32796e-23
1.53591e-23
1.77741e-23
2.05515e-23
2.37137e-23
2.72765e-23
3.12458e-23
3.56136e-23
4.03551e-23
4.54241e-23
5.07495e-23
5.62329e-23
6.17455e-23
6.71282e-23
7.21924e-23
7.67236e-23
8.0487e-23
8.32368e-23
8.47274e-23
6.45314e-24
6.80412e-24
7.34421e-24
8.08417e-24
9.04085e-24
1.02361e-23
1.16961e-23
1.34506e-23
1.5532e-23
1.7974e-23
2.08102e-23
2.40719e-23
2.77854e-23
3.19689e-23
3.66289e-23
4.17558e-23
4.732e-23
5.32668e-23
5.95128e-23
6.59419e-23
7.24034e-23
7.87106e-23
8.46428e-23
8.99491e-23
9.43551e-23
9.75737e-23
9.93179e-23
7.51471e-24
7.92606e-24
8.55919e-24
9.42681e-24
1.05488e-23
1.1951e-23
1.36641e-23
1.57231e-23
1.81661e-23
2.10327e-23
2.43624e-23
2.81915e-23
3.25508e-23
3.74615e-23
4.29305e-23
4.89466e-23
5.54742e-23
6.24489e-23
6.97726e-23
7.7309e-23
8.4881e-23
9.22703e-23
9.92183e-23
1.05431e-22
1.10589e-22
1.14356e-22
1.16397e-22
8.75356e-24
9.2356e-24
9.97765e-24
1.09947e-23
1.23103e-23
1.39547e-23
1.59643e-23
1.838e-23
2.12466e-23
2.46107e-23
2.85183e-23
3.30121e-23
3.8128e-23
4.38902e-23
5.03069e-23
5.73641e-23
6.50198e-23
7.31981e-23
8.17835e-23
9.06158e-23
9.94878e-23
1.08143e-22
1.1628e-22
1.23554e-22
1.29592e-22
1.34e-22
1.36388e-22
1.01996e-23
1.07643e-23
1.16339e-23
1.2826e-23
1.43682e-23
1.62963e-23
1.8653e-23
2.14865e-23
2.48492e-23
2.87959e-23
3.33805e-23
3.86528e-23
4.46546e-23
5.14142e-23
5.89406e-23
6.72168e-23
7.61934e-23
8.57807e-23
9.5843e-23
1.06192e-22
1.16586e-22
1.26723e-22
1.3625e-22
1.44766e-22
1.51832e-22
1.56991e-22
1.59785e-22
1.18876e-23
1.25492e-23
1.35681e-23
1.4965e-23
1.67726e-23
1.90329e-23
2.17959e-23
2.51186e-23
2.90624e-23
3.36914e-23
3.90687e-23
4.52527e-23
5.2292e-23
6.02195e-23
6.90451e-23
7.87487e-23
8.92716e-23
1.00508e-22
1.12299e-22
1.24424e-22
1.36598e-22
1.48469e-22
1.59623e-22
1.69592e-22
1.77862e-22
1.83898e-22
1.87168e-22
1.38585e-23
1.46335e-23
1.5827e-23
1.74637e-23
1.9582e-23
2.22311e-23
2.54701e-23
2.93655e-23
3.39896e-23
3.94175e-23
4.57231e-23
5.29746e-23
6.12287e-23
7.05235e-23
8.08704e-23
9.2245e-23
1.04578e-22
1.17745e-22
1.3156e-22
1.45762e-22
1.60019e-22
1.73919e-22
1.86977e-22
1.98645e-22
2.08323e-22
2.15387e-22
2.19211e-22
1.616e-23
1.70676e-23
1.84656e-23
2.0383e-23
2.28648e-23
2.59692e-23
2.97652e-23
3.43312e-23
3.97519e-23
4.61151e-23
5.35075e-23
6.20089e-23
7.16853e-23
8.25809e-23
9.47086e-23
1.08039e-22
1.22491e-22
1.37918e-22
1.541e-22
1.70734e-22
1.87429e-22
2.03702e-22
2.18988e-22
2.32644e-22
2.43969e-22
2.52233e-22
2.56708e-22
1.88478e-23
1.99107e-23
2.15479e-23
2.37938e-23
2.67012e-23
3.03384e-23
3.47866e-23
4.01375e-23
4.64906e-23
5.39489e-23
6.26137e-23
7.25782e-23
8.39196e-23
9.66893e-23
1.10901e-22
1.26522e-22
1.43453e-22
1.61525e-22
1.80478e-22
1.99957e-22
2.19504e-22
2.38555e-22
2.56447e-22
2.72428e-22
2.8568e-22
2.95349e-22
3.00583e-22
2.19871e-23
2.32316e-23
2.51489e-23
2.77792e-23
3.11847e-23
3.54455e-23
4.0657e-23
4.69268e-23
5.43714e-23
6.31115e-23
7.32657e-23
8.4943e-23
9.82335e-23
1.13197e-22
1.29849e-22
1.48149e-22
1.67983e-22
1.89149e-22
2.11344e-22
2.34153e-22
2.57037e-22
2.79337e-22
3.00277e-22
3.18978e-22
3.34484e-22
3.45796e-22
3.51919e-22
2.56541e-23
2.71112e-23
2.93562e-23
3.24363e-23
3.64247e-23
4.14154e-23
4.75202e-23
5.48655e-23
6.35877e-23
7.38282e-23
8.57257e-23
9.94079e-23
1.1498e-22
1.3251e-22
1.52018e-22
1.73454e-22
1.96684e-22
2.21472e-22
2.47462e-22
2.74165e-22
3.00953e-22
3.27055e-22
3.51561e-22
3.73444e-22
3.91586e-22
4.0482e-22
4.11982e-22
2.9938e-23
3.16438e-23
3.42722e-23
3.78787e-23
4.25492e-23
4.8394e-23
5.55444e-23
6.41483e-23
7.43658e-23
8.63623e-23
1.003e-22
1.16329e-22
1.34571e-22
1.55106e-22
1.77956e-22
2.03062e-22
2.30266e-22
2.59292e-22
2.89721e-22
3.20981e-22
3.52338e-22
3.82886e-22
4.11564e-22
4.37169e-22
4.58394e-22
4.73875e-22
4.82253e-22
3.49429e-23
3.69397e-23
4.00167e-23
4.42391e-23
4.97078e-23
5.65521e-23
6.49259e-23
7.50028e-23
8.69703e-23
1.01022e-22
1.17348e-22
1.36123e-22
1.57489e-22
1.8154e-22
2.08301e-22
2.37702e-22
2.69557e-22
3.03541e-22
3.39164e-22
3.75756e-22
4.12456e-22
4.48206e-22
4.81764e-22
5.11722e-22
5.36554e-22
5.54663e-22
5.64464e-22
4.07906e-23
4.31278e-23
4.67296e-23
5.16727e-23
5.80753e-23
6.60892e-23
7.58947e-23
8.76953e-23
1.01711e-22
1.18167e-22
1.37288e-22
1.59276e-22
1.84299e-22
2.12465e-22
2.43802e-22
2.78229e-22
3.15525e-22
3.5531e-22
3.9701e-22
4.3984e-22
4.82791e-22
5.24626e-22
5.63891e-22
5.98942e-22
6.27991e-22
6.49175e-22
6.60638e-22
4.76234e-23
5.03589e-23
5.45748e-23
6.0361e-23
6.78563e-23
7.72387e-23
8.87195e-23
1.02537e-22
1.18949e-22
1.3822e-22
1.60611e-22
1.86359e-22
2.15661e-22
2.48642e-22
2.85334e-22
3.2564e-22
3.69303e-22
4.15875e-22
4.64684e-22
5.14811e-22
5.65075e-22
6.14028e-22
6.59969e-22
7.00975e-22
7.34958e-22
7.59737e-22
7.73145e-22
5.56079e-23
5.88094e-23
6.37436e-23
7.05163e-23
7.929e-23
9.02734e-23
1.03714e-22
1.19892e-22
1.39108e-22
1.61672e-22
1.87889e-22
2.18038e-22
2.52346e-22
2.90961e-22
3.33919e-22
3.81104e-22
4.32216e-22
4.86728e-22
5.43854e-22
6.02517e-22
6.61335e-22
7.18613e-22
7.72363e-22
8.20335e-22
8.60087e-22
8.89071e-22
9.04753e-22
6.49386e-23
6.86852e-23
7.44598e-23
8.23865e-23
9.26559e-23
1.05513e-22
1.21247e-22
1.40186e-22
1.62682e-22
1.891e-22
2.19795e-22
2.55092e-22
2.95258e-22
3.40465e-22
3.90752e-22
4.45986e-22
5.05813e-22
5.69614e-22
6.36469e-22
7.05117e-22
7.73941e-22
8.40957e-22
9.0384e-22
9.59959e-22
1.00646e-21
1.04036e-21
1.0587e-21
7.58432e-23
8.02274e-23
8.69851e-23
9.62618e-23
1.08281e-22
1.23329e-22
1.41747e-22
1.63916e-22
1.90251e-22
2.21177e-22
2.5711e-22
2.98432e-22
3.45451e-22
3.9837e-22
4.57234e-22
5.21884e-22
5.91905e-22
6.66573e-22
7.44808e-22
8.25137e-22
9.05664e-22
9.8407e-22
1.05763e-21
1.12328e-21
1.17767e-21
1.21733e-21
1.23878e-21
8.85877e-23
9.37177e-23
1.01625e-22
1.12481e-22
1.26548e-22
1.4416e-22
1.65716e-22
1.91666e-22
2.22491e-22
2.58691e-22
3.00754e-22
3.49122e-22
4.0416e-22
4.66102e-22
5.34998e-22
6.10664e-22
6.92611e-22
7.79991e-22
8.71539e-22
9.65529e-22
1.05974e-21
1.15147e-21
1.23753e-21
1.31432e-21
1.37794e-21
1.42432e-21
1.44941e-21
1.03483e-22
1.09486e-22
1.18739e-22
1.31442e-22
1.47903e-22
1.68514e-22
1.93743e-22
2.24114e-22
2.60193e-22
3.02564e-22
3.51797e-22
4.0841e-22
4.72829e-22
5.45325e-22
6.2596e-22
7.14511e-22
8.10409e-22
9.12658e-22
1.01978e-21
1.12975e-21
1.23998e-21
1.34728e-21
1.44795e-21
1.53778e-21
1.61219e-21
1.66643e-21
1.69577e-21
1.20893e-22
1.27916e-22
1.38743e-22
1.53607e-22
1.72869e-22
1.96989e-22
2.26514e-22
2.62058e-22
3.04283e-22
3.53873e-22
4.11493e-22
4.77753e-22
5.53145e-22
6.37989e-22
7.32354e-22
8.3598e-22
9.48196e-22
1.06784e-21
1.19317e-21
1.32183e-21
1.45079e-21
1.57632e-21
1.69407e-21
1.79914e-21
1.88617e-21
1.94961e-21
1.98393e-21
1.41243e-22
1.4946e-22
1.62127e-22
1.79519e-22
2.02057e-22
2.30282e-22
2.64832e-22
3.06427e-22
3.55842e-22
4.13877e-22
4.8131e-22
5.58853e-22
6.47083e-22
7.46371e-22
8.56797e-22
9.78056e-22
1.10936e-21
1.24935e-21
1.39598e-21
1.54651e-21
1.69736e-21
1.84421e-21
1.98195e-21
2.10483e-21
2.20663e-21
2.28082e-21
2.32095e-21
1.6503e-22
1.74643e-22
1.89463e-22
2.09812e-22
2.36183e-22
2.69208e-22
3.09636e-22
3.5831e-22
4.16136e-22
4.84049e-22
5.62961e-22
6.53703e-22
7.5695e-22
8.73135e-22
1.00235e-21
1.14423e-21
1.29786e-21
1.46165e-21
1.6332e-21
1.80929e-21
1.98576e-21
2.15753e-21
2.31864e-21
2.46237e-21
2.58142e-21
2.6682e-21
2.71513e-21
1.92836e-22
2.04082e-22
2.2142e-22
2.45227e-22
2.76081e-22
3.14722e-22
3.62026e-22
4.1898e-22
4.86644e-22
5.66113e-22
6.58452e-22
7.64634e-22
8.85447e-22
1.0214e-21
1.17258e-21
1.33859e-21
1.51834e-21
1.70995e-21
1.91065e-21
2.11664e-21
2.32307e-21
2.52399e-21
2.71243e-21
2.88054e-21
3.01977e-21
3.12125e-21
3.17613e-21
2.2534e-22
2.38496e-22
2.58779e-22
2.86631e-22
3.22729e-22
3.67938e-22
4.23285e-22
4.89924e-22
5.69097e-22
6.62082e-22
7.70128e-22
8.9437e-22
1.03573e-21
1.1948e-21
1.37169e-21
1.56591e-21
1.77621e-21
2.00037e-21
2.23515e-21
2.47612e-21
2.71758e-21
2.95258e-21
3.17299e-21
3.3696e-21
3.53244e-21
3.65111e-21
3.71529e-21
2.63337e-22
2.78726e-22
3.02454e-22
3.35038e-22
3.77268e-22
4.3016e-22
4.94915e-22
5.72882e-22
6.65516e-22
7.74312e-22
9.00729e-22
1.0461e-21
1.21149e-21
1.39759e-21
1.60455e-21
1.83178e-21
2.0778e-21
2.34003e-21
2.61468e-21
2.89654e-21
3.17897e-21
3.45384e-21
3.71162e-21
3.94157e-21
4.132e-21
4.27079e-21
4.34584e-21
3.07756e-22
3.25758e-22
3.53515e-22
3.91632e-22
4.41036e-22
5.02914e-22
5.78671e-22
6.69889e-22
7.78268e-22
9.05556e-22
1.05346e-21
1.22354e-21
1.41704e-21
1.63477e-21
1.8769e-21
2.14272e-21
2.43052e-21
2.73728e-21
3.05855e-21
3.38824e-21
3.71859e-21
4.04008e-21
4.34156e-21
4.61048e-21
4.83319e-21
4.99549e-21
5.08325e-21
3.59684e-22
3.80742e-22
4.13211e-22
4.57799e-22
5.15593e-22
5.87981e-22
6.76608e-22
7.83324e-22
9.10119e-22
1.05904e-21
1.23208e-21
1.43105e-21
1.65743e-21
1.91216e-21
2.19541e-21
2.50638e-21
2.84304e-21
3.20188e-21
3.57766e-21
3.96329e-21
4.34967e-21
4.72567e-21
5.07827e-21
5.39276e-21
5.65321e-21
5.843e-21
5.94563e-21
4.20392e-22
4.45023e-22
4.83003e-22
5.3516e-22
6.02767e-22
6.87447e-22
7.91127e-22
9.15969e-22
1.0643e-21
1.23852e-21
1.44096e-21
1.67373e-21
1.93857e-21
2.23655e-21
2.5679e-21
2.93168e-21
3.32549e-21
3.74522e-21
4.18476e-21
4.63581e-21
5.08771e-21
5.52746e-21
5.93982e-21
6.30761e-21
6.61218e-21
6.83411e-21
6.95413e-21
4.91364e-22
5.20175e-22
5.646e-22
6.2561e-22
7.04692e-22
8.03749e-22
9.25034e-22
1.07108e-21
1.2446e-21
1.44841e-21
1.68523e-21
1.95753e-21
2.26734e-21
2.61593e-21
3.00353e-21
3.42905e-21
3.8897e-21
4.38065e-21
4.89476e-21
5.4223e-21
5.95082e-21
6.46511e-21
6.94736e-21
7.37746e-21
7.73362e-21
7.99315e-21
8.13348e-21
5.74338e-22
6.08037e-22
6.59999e-22
7.31363e-22
8.23867e-22
9.39738e-22
1.08161e-21
1.25245e-21
1.45544e-21
1.69385e-21
1.97088e-21
2.28942e-21
2.65183e-21
3.05959e-21
3.51299e-21
4.01072e-21
4.54953e-21
5.12376e-21
5.72507e-21
6.34206e-21
6.96018e-21
7.56164e-21
8.1256e-21
8.62857e-21
9.04505e-21
9.34853e-21
9.51262e-21
6.71345e-22
7.1076e-22
7.71538e-22
8.55009e-22
9.6321e-22
1.09875e-21
1.2647e-21
1.46454e-21
1.70198e-21
1.98087e-21
2.30493e-21
2.67755e-21
3.10147e-21
3.57843e-21
4.10877e-21
4.69096e-21
5.32117e-21
5.9928e-21
6.69606e-21
7.41766e-21
8.14055e-21
8.84393e-21
9.50344e-21
1.00916e-20
1.05786e-20
1.09335e-20
1.11254e-20
7.84759e-22
8.30859e-22
9.01946e-22
9.99578e-22
1.12614e-21
1.28467e-21
1.47879e-21
1.71254e-21
1.99029e-21
2.3165e-21
2.69556e-21
3.13142e-21
3.62729e-21
4.18519e-21
4.8055e-21
5.48645e-21
6.22355e-21
7.00907e-21
7.83157e-21
8.67548e-21
9.52088e-21
1.03434e-20
1.11147e-20
1.18024e-20
1.23719e-20
1.27869e-20
1.30112e-20
9.17357e-22
9.71274e-22
1.05442e-21
1.16861e-21
1.31664e-21
1.50207e-21
1.72912e-21
2.00254e-21
2.32741e-21
2.70899e-21
3.15237e-21
3.66218e-21
4.24218e-21
4.89473e-21
5.62027e-21
6.41672e-21
7.27881e-21
8.19751e-21
9.15944e-21
1.01464e-20
1.1135e-20
1.20969e-20
1.29988e-20
1.3803e-20
1.44689e-20
1.49541e-20
1.52164e-20
1.07238e-21
1.13544e-21
1.23269e-21
1.36625e-21
1.53938e-21
1.75627e-21
2.02183e-21
2.34164e-21
2.72163e-21
3.16795e-21
3.68655e-21
4.28286e-21
4.96124e-21
5.72448e-21
6.57307e-21
7.50457e-21
8.51283e-21
9.58727e-21
1.07122e-20
1.18664e-20
1.30225e-20
1.41474e-20
1.5202e-20
1.61424e-20
1.6921e-20
1.74883e-20
1.77951e-20
1.25364e-21
1.32739e-21
1.44112e-21
1.59733e-21
1.79982e-21
2.05349e-21
2.36411e-21
2.73816e-21
3.18261e-21
3.70463e-21
4.31121e-21
5.00866e-21
5.80211e-21
6.69478e-21
7.68727e-21
8.7767e-21
9.95588e-21
1.12124e-20
1.2528e-20
1.38777e-20
1.52297e-20
1.6545e-20
1.77782e-20
1.88778e-20
1.97883e-20
2.04516e-20
2.08102e-20
1.46556e-21
1.55181e-21
1.68482e-21
1.86752e-21
2.10435e-21
2.40104e-21
2.76433e-21
3.20181e-21
3.72165e-21
4.33221e-21
5.04166e-21
5.85739e-21
6.78539e-21
7.82943e-21
8.99018e-21
1.02643e-20
1.16433e-20
1.31128e-20
1.46513e-20
1.62297e-20
1.78106e-20
1.93487e-20
2.07906e-20
2.20764e-20
2.31409e-20
2.39165e-20
2.43358e-20
1.71333e-21
1.8142e-21
1.96976e-21
2.18343e-21
2.46042e-21
2.80741e-21
3.2323e-21
3.74398e-21
4.35196e-21
5.06606e-21
5.89581e-21
6.84987e-21
7.93521e-21
9.15624e-21
1.05138e-20
1.20038e-20
1.36166e-20
1.5335e-20
1.71341e-20
1.89798e-20
2.08285e-20
2.2627e-20
2.4313e-20
2.58164e-20
2.70611e-20
2.79679e-20
2.84581e-20
2.00302e-21
2.12099e-21
2.30292e-21
2.55281e-21
2.87675e-21
3.28257e-21
3.77951e-21
4.37793e-21
5.08901e-21
5.92418e-21
6.89461e-21
8.01041e-21
9.27975e-21
1.07078e-20
1.22954e-20
1.40379e-20
1.59239e-20
1.79335e-20
2.00373e-20
2.21956e-20
2.43573e-20
2.64602e-20
2.84316e-20
3.01894e-20
3.16447e-20
3.27049e-20
3.3278e-20
2.34172e-21
2.47969e-21
2.69246e-21
2.9847e-21
3.36355e-21
3.83817e-21
4.41934e-21
5.11922e-21
5.95084e-21
6.9276e-21
8.06254e-21
9.36749e-21
1.0852e-20
1.2522e-20
1.43786e-20
1.64164e-20
1.86219e-20
2.09719e-20
2.3432e-20
2.59557e-20
2.84834e-20
3.09423e-20
3.32473e-20
3.53025e-20
3.7004e-20
3.82435e-20
3.89136e-20
2.73774e-21
2.89909e-21
3.14791e-21
3.48968e-21
3.93275e-21
4.48781e-21
5.1675e-21
5.98601e-21
6.9586e-21
8.10092e-21
9.42823e-21
1.09543e-20
1.26904e-20
1.46434e-20
1.68146e-20
1.91977e-20
2.17768e-20
2.45247e-20
2.74014e-20
3.03524e-20
3.33079e-20
3.61829e-20
3.88779e-20
4.12809e-20
4.32701e-20
4.47193e-20
4.55027e-20
3.20075e-21
3.38945e-21
3.68044e-21
4.08012e-21
4.59828e-21
5.24741e-21
6.0423e-21
6.99954e-21
8.13696e-21
9.47289e-21
1.10251e-20
1.28099e-20
1.48401e-20
1.7124e-20
1.96631e-20
2.24498e-20
2.54656e-20
2.86789e-20
3.20426e-20
3.54931e-20
3.89488e-20
4.23103e-20
4.54613e-20
4.82707e-20
5.05964e-20
5.22905e-20
5.32064e-20
3.74212e-21
3.96278e-21
4.30308e-21
4.77049e-21
5.37646e-21
6.13559e-21
7.06518e-21
8.18464e-21
9.51482e-21
1.10771e-20
1.28924e-20
1.49795e-20
1.73537e-20
2.00246e-20
2.29937e-20
2.62523e-20
2.97789e-20
3.35362e-20
3.74693e-20
4.15038e-20
4.55442e-20
4.94744e-20
5.31584e-20
5.64429e-20
5.91619e-20
6.11425e-20
6.22132e-20
4.37508e-21
4.63313e-21
5.03108e-21
5.57769e-21
6.28633e-21
7.1741e-21
8.2612e-21
9.57035e-21
1.11259e-20
1.29529e-20
1.50758e-20
1.75165e-20
2.02929e-20
2.34161e-20
2.68881e-20
3.06985e-20
3.48221e-20
3.92155e-20
4.38143e-20
4.85314e-20
5.32555e-20
5.78506e-20
6.21576e-20
6.59975e-20
6.91762e-20
7.14916e-20
7.27433e-20
5.11515e-21
5.41691e-21
5.88228e-21
6.5215e-21
7.3502e-21
8.38837e-21
9.65966e-21
1.11906e-20
1.30097e-20
1.51463e-20
1.76288e-20
2.04829e-20
2.37296e-20
2.73817e-20
3.14416e-20
3.58972e-20
4.07189e-20
4.58558e-20
5.12328e-20
5.67481e-20
6.22713e-20
6.76435e-20
7.26789e-20
7.7168e-20
8.08839e-20
8.35907e-20
8.50539e-20
5.98043e-21
6.33331e-21
6.87752e-21
7.62502e-21
8.59411e-21
9.80816e-21
1.12948e-20
1.30851e-20
1.52124e-20
1.77109e-20
2.06138e-20
2.39514e-20
2.77479e-20
3.20185e-20
3.67657e-20
4.19756e-20
4.76134e-20
5.36196e-20
5.99064e-20
6.63547e-20
7.2812e-20
7.90927e-20
8.49794e-20
9.02273e-20
9.45713e-20
9.77355e-20
9.94459e-20
6.99212e-21
7.40477e-21
8.04116e-21
8.91528e-21
1.00485e-20
1.14682e-20
1.32067e-20
1.53003e-20
1.77879e-20
2.07095e-20
2.41042e-20
2.8007e-20
3.24463e-20
3.74399e-20
4.29908e-20
4.90825e-20
5.56743e-20
6.26968e-20
7.00472e-20
7.75861e-20
8.51354e-20
9.24779e-20
9.93597e-20
1.05495e-19
1.10573e-19
1.14271e-19
1.16271e-19
8.17498e-21
8.65753e-21
9.40171e-21
1.04239e-20
1.17491e-20
1.34092e-20
1.54422e-20
1.78903e-20
2.07993e-20
2.42157e-20
2.81852e-20
3.27488e-20
3.79397e-20
4.37787e-20
5.02691e-20
5.73917e-20
6.50989e-20
7.33094e-20
8.19031e-20
9.07168e-20
9.95425e-20
1.08126e-19
1.16171e-19
1.23343e-19
1.29279e-19
1.33602e-19
1.35939e-19
9.55797e-21
1.01222e-20
1.09925e-20
1.21877e-20
1.37374e-20
1.56787e-20
1.80559e-20
2.09187e-20
2.43202e-20
2.83152e-20
3.29567e-20
3.8293e-20
4.43627e-20
5.119e-20
5.87788e-20
6.71066e-20
7.61177e-20
8.5717e-20
9.57639e-20
1.06068e-19
1.16385e-19
1.2642e-19
1.35824e-19
1.44207e-19
1.51146e-19
1.562e-19
1.58931e-19
1.1175e-20
1.18348e-20
1.28524e-20
1.42501e-20
1.60621e-20
1.83322e-20
2.1112e-20
2.44595e-20
2.8437e-20
3.31083e-20
3.85357e-20
4.47753e-20
5.18723e-20
5.9855e-20
6.87279e-20
7.84646e-20
8.9e-20
1.00223e-19
1.11968e-19
1.24014e-19
1.36076e-19
1.47806e-19
1.58799e-19
1.68598e-19
1.76708e-19
1.82615e-19
1.85808e-19
1.30655e-20
1.3837e-20
1.50269e-20
1.66613e-20
1.87802e-20
2.14346e-20
2.46851e-20
2.85994e-20
3.32503e-20
3.87125e-20
4.50586e-20
5.23543e-20
6.06523e-20
6.99858e-20
8.03598e-20