/*--------------------------------*- C++ -*----------------------------------*\
| =========                 |                                                 |
| \\      /  F ield         | OpenFOAM: The Open Source CFD Toolbox           |
|  \\    /   O peration     | Version:  2212                                  |
|   \\  /    A nd           | Website:  www.openfoam.com                      |
|    \\/     M anipulation  |                                                 |
\*---------------------------------------------------------------------------*/
FoamFile
{
    version     2.0;
    format      ascii;
    arch        "LSB;label=32;scalar=64";
    class       volScalarField;
    location    "9.0545968";
    object      Qdot;
}
// * * * * * * * * * * * * * * * * * * * * * * * * * * * * * * * * * * * * * //

dimensions      [1 -1 -3 0 0 0 0];

internalField   nonuniform List<scalar> 
33600
(
-1.15159e-15
-1.15159e-15
-1.15159e-15
-1.15159e-15
-1.15159e-15
-1.15159e-15
-1.15159e-15
-1.1516e-15
-1.1516e-15
-1.1516e-15
-1.1516e-15
-1.1516e-15
-1.15161e-15
-1.15161e-15
-1.15161e-15
-1.15162e-15
-1.15162e-15
-1.15162e-15
-1.15163e-15
-1.15163e-15
-1.15164e-15
-1.15164e-15
-1.15165e-15
-1.15165e-15
-1.15166e-15
-1.15166e-15
-1.15167e-15
-1.15162e-15
-1.15162e-15
-1.15162e-15
-1.15162e-15
-1.15163e-15
-1.15163e-15
-1.15163e-15
-1.15164e-15
-1.15164e-15
-1.15165e-15
-1.15166e-15
-1.15166e-15
-1.15167e-15
-1.15168e-15
-1.15169e-15
-1.1517e-15
-1.15171e-15
-1.15173e-15
-1.15174e-15
-1.15175e-15
-1.15177e-15
-1.15178e-15
-1.1518e-15
-1.15181e-15
-1.15183e-15
-1.15185e-15
-1.15186e-15
-1.15165e-15
-1.15165e-15
-1.15166e-15
-1.15166e-15
-1.15167e-15
-1.15167e-15
-1.15168e-15
-1.15169e-15
-1.1517e-15
-1.15171e-15
-1.15172e-15
-1.15174e-15
-1.15175e-15
-1.15177e-15
-1.15179e-15
-1.15181e-15
-1.15183e-15
-1.15185e-15
-1.15188e-15
-1.1519e-15
-1.15193e-15
-1.15196e-15
-1.15199e-15
-1.15202e-15
-1.15205e-15
-1.15208e-15
-1.1521e-15
-1.15169e-15
-1.1517e-15
-1.1517e-15
-1.15171e-15
-1.15172e-15
-1.15173e-15
-1.15174e-15
-1.15175e-15
-1.15177e-15
-1.15179e-15
-1.15181e-15
-1.15183e-15
-1.15185e-15
-1.15188e-15
-1.15191e-15
-1.15194e-15
-1.15197e-15
-1.15201e-15
-1.15205e-15
-1.15209e-15
-1.15213e-15
-1.15218e-15
-1.15223e-15
-1.15227e-15
-1.15232e-15
-1.15237e-15
-1.1524e-15
-1.15174e-15
-1.15175e-15
-1.15175e-15
-1.15176e-15
-1.15177e-15
-1.15179e-15
-1.15181e-15
-1.15183e-15
-1.15185e-15
-1.15188e-15
-1.1519e-15
-1.15194e-15
-1.15197e-15
-1.15201e-15
-1.15205e-15
-1.1521e-15
-1.15215e-15
-1.1522e-15
-1.15226e-15
-1.15232e-15
-1.15238e-15
-1.15245e-15
-1.15252e-15
-1.15259e-15
-1.15266e-15
-1.15273e-15
-1.15277e-15
-1.1518e-15
-1.1518e-15
-1.15181e-15
-1.15183e-15
-1.15184e-15
-1.15186e-15
-1.15189e-15
-1.15192e-15
-1.15195e-15
-1.15198e-15
-1.15202e-15
-1.15207e-15
-1.15211e-15
-1.15217e-15
-1.15223e-15
-1.15229e-15
-1.15236e-15
-1.15243e-15
-1.15251e-15
-1.1526e-15
-1.15269e-15
-1.15278e-15
-1.15288e-15
-1.15298e-15
-1.15308e-15
-1.15317e-15
-1.15322e-15
-1.15186e-15
-1.15187e-15
-1.15189e-15
-1.1519e-15
-1.15193e-15
-1.15195e-15
-1.15198e-15
-1.15202e-15
-1.15206e-15
-1.15211e-15
-1.15216e-15
-1.15222e-15
-1.15228e-15
-1.15236e-15
-1.15243e-15
-1.15252e-15
-1.15261e-15
-1.15271e-15
-1.15282e-15
-1.15294e-15
-1.15306e-15
-1.15319e-15
-1.15333e-15
-1.15346e-15
-1.15359e-15
-1.1537e-15
-1.15377e-15
-1.15194e-15
-1.15195e-15
-1.15197e-15
-1.15199e-15
-1.15202e-15
-1.15206e-15
-1.1521e-15
-1.15214e-15
-1.1522e-15
-1.15226e-15
-1.15233e-15
-1.1524e-15
-1.15249e-15
-1.15258e-15
-1.15268e-15
-1.1528e-15
-1.15292e-15
-1.15305e-15
-1.15319e-15
-1.15335e-15
-1.15351e-15
-1.15369e-15
-1.15387e-15
-1.15405e-15
-1.15421e-15
-1.15435e-15
-1.15444e-15
-1.15203e-15
-1.15204e-15
-1.15207e-15
-1.1521e-15
-1.15213e-15
-1.15218e-15
-1.15223e-15
-1.15229e-15
-1.15236e-15
-1.15243e-15
-1.15252e-15
-1.15262e-15
-1.15273e-15
-1.15285e-15
-1.15298e-15
-1.15313e-15
-1.15329e-15
-1.15346e-15
-1.15365e-15
-1.15385e-15
-1.15406e-15
-1.15429e-15
-1.15452e-15
-1.15475e-15
-1.15496e-15
-1.15513e-15
-1.15523e-15
-1.15213e-15
-1.15215e-15
-1.15218e-15
-1.15221e-15
-1.15226e-15
-1.15232e-15
-1.15238e-15
-1.15246e-15
-1.15254e-15
-1.15264e-15
-1.15275e-15
-1.15288e-15
-1.15301e-15
-1.15317e-15
-1.15334e-15
-1.15352e-15
-1.15373e-15
-1.15395e-15
-1.15419e-15
-1.15445e-15
-1.15473e-15
-1.15502e-15
-1.15532e-15
-1.1556e-15
-1.15586e-15
-1.15607e-15
-1.15619e-15
-1.15225e-15
-1.15227e-15
-1.15231e-15
-1.15235e-15
-1.15241e-15
-1.15248e-15
-1.15256e-15
-1.15265e-15
-1.15276e-15
-1.15288e-15
-1.15302e-15
-1.15318e-15
-1.15335e-15
-1.15355e-15
-1.15376e-15
-1.154e-15
-1.15426e-15
-1.15454e-15
-1.15485e-15
-1.15518e-15
-1.15553e-15
-1.1559e-15
-1.15627e-15
-1.15662e-15
-1.15694e-15
-1.15719e-15
-1.15734e-15
-1.15239e-15
-1.15242e-15
-1.15246e-15
-1.15251e-15
-1.15258e-15
-1.15267e-15
-1.15277e-15
-1.15288e-15
-1.15302e-15
-1.15317e-15
-1.15334e-15
-1.15354e-15
-1.15375e-15
-1.154e-15
-1.15427e-15
-1.15456e-15
-1.15489e-15
-1.15525e-15
-1.15564e-15
-1.15606e-15
-1.1565e-15
-1.15695e-15
-1.15741e-15
-1.15784e-15
-1.15823e-15
-1.15853e-15
-1.1587e-15
-1.15255e-15
-1.15258e-15
-1.15263e-15
-1.1527e-15
-1.15278e-15
-1.15288e-15
-1.15301e-15
-1.15315e-15
-1.15331e-15
-1.1535e-15
-1.15372e-15
-1.15396e-15
-1.15423e-15
-1.15453e-15
-1.15487e-15
-1.15524e-15
-1.15565e-15
-1.1561e-15
-1.15658e-15
-1.1571e-15
-1.15765e-15
-1.15821e-15
-1.15877e-15
-1.1593e-15
-1.15976e-15
-1.16012e-15
-1.16033e-15
-1.15273e-15
-1.15277e-15
-1.15283e-15
-1.15291e-15
-1.15301e-15
-1.15314e-15
-1.15329e-15
-1.15346e-15
-1.15366e-15
-1.15389e-15
-1.15416e-15
-1.15445e-15
-1.15479e-15
-1.15516e-15
-1.15558e-15
-1.15604e-15
-1.15655e-15
-1.1571e-15
-1.15771e-15
-1.15835e-15
-1.15902e-15
-1.15971e-15
-1.16039e-15
-1.16103e-15
-1.16159e-15
-1.16202e-15
-1.16226e-15
-1.15293e-15
-1.15298e-15
-1.15306e-15
-1.15315e-15
-1.15328e-15
-1.15343e-15
-1.15361e-15
-1.15382e-15
-1.15407e-15
-1.15435e-15
-1.15467e-15
-1.15504e-15
-1.15545e-15
-1.15591e-15
-1.15642e-15
-1.15699e-15
-1.15762e-15
-1.1583e-15
-1.15904e-15
-1.15983e-15
-1.16066e-15
-1.16149e-15
-1.16232e-15
-1.16309e-15
-1.16376e-15
-1.16426e-15
-1.16455e-15
-1.15317e-15
-1.15323e-15
-1.15332e-15
-1.15344e-15
-1.15359e-15
-1.15377e-15
-1.15399e-15
-1.15425e-15
-1.15454e-15
-1.15489e-15
-1.15528e-15
-1.15572e-15
-1.15622e-15
-1.15679e-15
-1.15742e-15
-1.15812e-15
-1.15889e-15
-1.15973e-15
-1.16064e-15
-1.1616e-15
-1.1626e-15
-1.16361e-15
-1.16461e-15
-1.16553e-15
-1.16632e-15
-1.16692e-15
-1.16726e-15
-1.15344e-15
-1.15351e-15
-1.15362e-15
-1.15376e-15
-1.15394e-15
-1.15416e-15
-1.15443e-15
-1.15474e-15
-1.1551e-15
-1.15551e-15
-1.15599e-15
-1.15653e-15
-1.15714e-15
-1.15783e-15
-1.1586e-15
-1.15945e-15
-1.16039e-15
-1.16142e-15
-1.16252e-15
-1.16369e-15
-1.1649e-15
-1.16612e-15
-1.16731e-15
-1.16842e-15
-1.16936e-15
-1.17007e-15
-1.17047e-15
-1.15376e-15
-1.15384e-15
-1.15397e-15
-1.15414e-15
-1.15435e-15
-1.15462e-15
-1.15494e-15
-1.15531e-15
-1.15574e-15
-1.15625e-15
-1.15682e-15
-1.15748e-15
-1.15822e-15
-1.15906e-15
-1.15999e-15
-1.16103e-15
-1.16218e-15
-1.16342e-15
-1.16476e-15
-1.16617e-15
-1.16763e-15
-1.1691e-15
-1.17052e-15
-1.17183e-15
-1.17295e-15
-1.17379e-15
-1.17426e-15
-1.15412e-15
-1.15422e-15
-1.15437e-15
-1.15457e-15
-1.15483e-15
-1.15515e-15
-1.15553e-15
-1.15598e-15
-1.1565e-15
-1.15711e-15
-1.1578e-15
-1.15859e-15
-1.15949e-15
-1.16051e-15
-1.16164e-15
-1.1629e-15
-1.16428e-15
-1.16579e-15
-1.1674e-15
-1.1691e-15
-1.17085e-15
-1.17261e-15
-1.17431e-15
-1.17587e-15
-1.17719e-15
-1.17819e-15
-1.17873e-15
-1.15454e-15
-1.15465e-15
-1.15483e-15
-1.15507e-15
-1.15538e-15
-1.15576e-15
-1.15622e-15
-1.15675e-15
-1.15738e-15
-1.15811e-15
-1.15895e-15
-1.1599e-15
-1.16099e-15
-1.16221e-15
-1.16358e-15
-1.1651e-15
-1.16677e-15
-1.16859e-15
-1.17053e-15
-1.17257e-15
-1.17466e-15
-1.17676e-15
-1.17878e-15
-1.18063e-15
-1.1822e-15
-1.18336e-15
-1.18401e-15
-1.15501e-15
-1.15515e-15
-1.15537e-15
-1.15566e-15
-1.15602e-15
-1.15647e-15
-1.15702e-15
-1.15766e-15
-1.15841e-15
-1.15929e-15
-1.16029e-15
-1.16144e-15
-1.16275e-15
-1.16422e-15
-1.16587e-15
-1.1677e-15
-1.16971e-15
-1.17189e-15
-1.17421e-15
-1.17665e-15
-1.17916e-15
-1.18165e-15
-1.18405e-15
-1.18624e-15
-1.18809e-15
-1.18947e-15
-1.19022e-15
-1.15557e-15
-1.15573e-15
-1.15599e-15
-1.15633e-15
-1.15676e-15
-1.1573e-15
-1.15795e-15
-1.15872e-15
-1.15962e-15
-1.16066e-15
-1.16187e-15
-1.16325e-15
-1.16482e-15
-1.16659e-15
-1.16857e-15
-1.17076e-15
-1.17317e-15
-1.17578e-15
-1.17856e-15
-1.18147e-15
-1.18445e-15
-1.18742e-15
-1.19026e-15
-1.19285e-15
-1.19503e-15
-1.19665e-15
-1.19754e-15
-1.1562e-15
-1.1564e-15
-1.1567e-15
-1.15711e-15
-1.15762e-15
-1.15826e-15
-1.15903e-15
-1.15995e-15
-1.16102e-15
-1.16227e-15
-1.16371e-15
-1.16537e-15
-1.16724e-15
-1.16936e-15
-1.17174e-15
-1.17437e-15
-1.17725e-15
-1.18036e-15
-1.18368e-15
-1.18715e-15
-1.19069e-15
-1.19421e-15
-1.19757e-15
-1.20063e-15
-1.2032e-15
-1.20511e-15
-1.20615e-15
-1.15694e-15
-1.15717e-15
-1.15753e-15
-1.15801e-15
-1.15862e-15
-1.15938e-15
-1.1603e-15
-1.16139e-15
-1.16267e-15
-1.16416e-15
-1.16588e-15
-1.16785e-15
-1.1701e-15
-1.17263e-15
-1.17547e-15
-1.17861e-15
-1.18205e-15
-1.18576e-15
-1.18971e-15
-1.19383e-15
-1.19804e-15
-1.2022e-15
-1.20617e-15
-1.20978e-15
-1.21281e-15
-1.21505e-15
-1.21627e-15
-1.15779e-15
-1.15807e-15
-1.15849e-15
-1.15905e-15
-1.15978e-15
-1.16068e-15
-1.16177e-15
-1.16306e-15
-1.16459e-15
-1.16636e-15
-1.16841e-15
-1.17077e-15
-1.17345e-15
-1.17647e-15
-1.17985e-15
-1.18359e-15
-1.18769e-15
-1.19211e-15
-1.19681e-15
-1.2017e-15
-1.20668e-15
-1.2116e-15
-1.21629e-15
-1.22053e-15
-1.2241e-15
-1.22673e-15
-1.22817e-15
-1.15878e-15
-1.1591e-15
-1.1596e-15
-1.16027e-15
-1.16113e-15
-1.16219e-15
-1.16348e-15
-1.16502e-15
-1.16683e-15
-1.16894e-15
-1.17138e-15
-1.17419e-15
-1.17738e-15
-1.18098e-15
-1.185e-15
-1.18946e-15
-1.19433e-15
-1.19958e-15
-1.20515e-15
-1.21094e-15
-1.21683e-15
-1.22265e-15
-1.22818e-15
-1.23318e-15
-1.23737e-15
-1.24046e-15
-1.24215e-15
-1.15992e-15
-1.1603e-15
-1.16089e-15
-1.16168e-15
-1.1627e-15
-1.16396e-15
-1.16548e-15
-1.16731e-15
-1.16945e-15
-1.17196e-15
-1.17486e-15
-1.17819e-15
-1.18199e-15
-1.18627e-15
-1.19105e-15
-1.19634e-15
-1.20212e-15
-1.20835e-15
-1.21495e-15
-1.2218e-15
-1.22876e-15
-1.23562e-15
-1.24214e-15
-1.24803e-15
-1.25296e-15
-1.25658e-15
-1.25856e-15
-1.16125e-15
-1.16169e-15
-1.16238e-15
-1.16332e-15
-1.16452e-15
-1.16601e-15
-1.16782e-15
-1.16997e-15
-1.17252e-15
-1.17549e-15
-1.17894e-15
-1.18289e-15
-1.18739e-15
-1.19247e-15
-1.19815e-15
-1.20443e-15
-1.21128e-15
-1.21866e-15
-1.22646e-15
-1.23456e-15
-1.24278e-15
-1.25087e-15
-1.25854e-15
-1.26546e-15
-1.27125e-15
-1.27551e-15
-1.27783e-15
-1.16278e-15
-1.16331e-15
-1.16412e-15
-1.16522e-15
-1.16664e-15
-1.1684e-15
-1.17054e-15
-1.17309e-15
-1.1761e-15
-1.17963e-15
-1.18371e-15
-1.18839e-15
-1.19373e-15
-1.19976e-15
-1.20649e-15
-1.21392e-15
-1.22203e-15
-1.23076e-15
-1.23998e-15
-1.24955e-15
-1.25923e-15
-1.26876e-15
-1.27779e-15
-1.28592e-15
-1.29272e-15
-1.29771e-15
-1.30043e-15
-1.16456e-15
-1.16519e-15
-1.16614e-15
-1.16744e-15
-1.16911e-15
-1.17119e-15
-1.17371e-15
-1.17673e-15
-1.18029e-15
-1.18446e-15
-1.18929e-15
-1.19484e-15
-1.20117e-15
-1.2083e-15
-1.21626e-15
-1.22506e-15
-1.23465e-15
-1.24496e-15
-1.25585e-15
-1.26713e-15
-1.27854e-15
-1.28976e-15
-1.30037e-15
-1.30993e-15
-1.31791e-15
-1.32377e-15
-1.32695e-15
-1.16664e-15
-1.16737e-15
-1.16849e-15
-1.17002e-15
-1.17199e-15
-1.17444e-15
-1.17742e-15
-1.18098e-15
-1.18519e-15
-1.19012e-15
-1.19583e-15
-1.2024e-15
-1.20988e-15
-1.21831e-15
-1.22773e-15
-1.23813e-15
-1.24946e-15
-1.26162e-15
-1.27447e-15
-1.28776e-15
-1.3012e-15
-1.31439e-15
-1.32687e-15
-1.33809e-15
-1.34745e-15
-1.35432e-15
-1.35805e-15
-1.16904e-15
-1.1699e-15
-1.17122e-15
-1.17302e-15
-1.17534e-15
-1.17823e-15
-1.18174e-15
-1.18595e-15
-1.19092e-15
-1.19674e-15
-1.20349e-15
-1.21125e-15
-1.22009e-15
-1.23005e-15
-1.24118e-15
-1.25345e-15
-1.26682e-15
-1.28117e-15
-1.29631e-15
-1.31196e-15
-1.32777e-15
-1.34328e-15
-1.35794e-15
-1.37111e-15
-1.38209e-15
-1.39014e-15
-1.39451e-15
-1.17184e-15
-1.17285e-15
-1.1744e-15
-1.17652e-15
-1.17925e-15
-1.18265e-15
-1.18679e-15
-1.19175e-15
-1.19762e-15
-1.20449e-15
-1.21246e-15
-1.22162e-15
-1.23205e-15
-1.24381e-15
-1.25694e-15
-1.27142e-15
-1.28719e-15
-1.30409e-15
-1.32192e-15
-1.34034e-15
-1.35893e-15
-1.37716e-15
-1.39437e-15
-1.40982e-15
-1.4227e-15
-1.43213e-15
-1.43726e-15
-1.1751e-15
-1.17628e-15
-1.17811e-15
-1.1806e-15
-1.18381e-15
-1.18782e-15
-1.19269e-15
-1.19853e-15
-1.20545e-15
-1.21355e-15
-1.22295e-15
-1.23375e-15
-1.24606e-15
-1.25994e-15
-1.27542e-15
-1.29249e-15
-1.31106e-15
-1.33097e-15
-1.35194e-15
-1.37361e-15
-1.39546e-15
-1.41687e-15
-1.43707e-15
-1.4552e-15
-1.47029e-15
-1.48135e-15
-1.48735e-15
-1.17888e-15
-1.18028e-15
-1.18242e-15
-1.18535e-15
-1.18913e-15
-1.19384e-15
-1.19958e-15
-1.20646e-15
-1.21461e-15
-1.22415e-15
-1.23523e-15
-1.24797e-15
-1.26247e-15
-1.27883e-15
-1.29707e-15
-1.31717e-15
-1.33904e-15
-1.36247e-15
-1.38714e-15
-1.41261e-15
-1.43828e-15
-1.46341e-15
-1.48711e-15
-1.50837e-15
-1.52607e-15
-1.53902e-15
-1.54604e-15
-1.1833e-15
-1.18493e-15
-1.18745e-15
-1.19089e-15
-1.19533e-15
-1.20087e-15
-1.20762e-15
-1.21572e-15
-1.22531e-15
-1.23656e-15
-1.2496e-15
-1.26461e-15
-1.28169e-15
-1.30096e-15
-1.32243e-15
-1.3461e-15
-1.37183e-15
-1.39938e-15
-1.42839e-15
-1.45831e-15
-1.48845e-15
-1.51795e-15
-1.54575e-15
-1.57067e-15
-1.59141e-15
-1.60658e-15
-1.61481e-15
-1.18843e-15
-1.19036e-15
-1.19331e-15
-1.19736e-15
-1.20257e-15
-1.20908e-15
-1.21702e-15
-1.22655e-15
-1.23783e-15
-1.25107e-15
-1.26643e-15
-1.28409e-15
-1.3042e-15
-1.32687e-15
-1.35215e-15
-1.37999e-15
-1.41025e-15
-1.44263e-15
-1.47671e-15
-1.51185e-15
-1.54724e-15
-1.58184e-15
-1.61444e-15
-1.64366e-15
-1.66795e-15
-1.68572e-15
-1.69536e-15
-1.19442e-15
-1.19668e-15
-1.20015e-15
-1.20489e-15
-1.21102e-15
-1.21867e-15
-1.228e-15
-1.2392e-15
-1.25248e-15
-1.26804e-15
-1.28611e-15
-1.30689e-15
-1.33056e-15
-1.35723e-15
-1.38695e-15
-1.41969e-15
-1.45525e-15
-1.4933e-15
-1.53333e-15
-1.57458e-15
-1.6161e-15
-1.65669e-15
-1.69491e-15
-1.72915e-15
-1.75761e-15
-1.77842e-15
-1.7897e-15
-1.2014e-15
-1.20405e-15
-1.20812e-15
-1.21369e-15
-1.22088e-15
-1.22987e-15
-1.24083e-15
-1.25399e-15
-1.2696e-15
-1.2879e-15
-1.30915e-15
-1.33359e-15
-1.36141e-15
-1.39277e-15
-1.42771e-15
-1.46618e-15
-1.50796e-15
-1.55266e-15
-1.59964e-15
-1.64805e-15
-1.69676e-15
-1.74435e-15
-1.78916e-15
-1.82927e-15
-1.86261e-15
-1.88698e-15
-1.90019e-15
-1.20954e-15
-1.21264e-15
-1.21742e-15
-1.22395e-15
-1.2324e-15
-1.24294e-15
-1.25582e-15
-1.27128e-15
-1.28962e-15
-1.31113e-15
-1.33611e-15
-1.36483e-15
-1.39753e-15
-1.43438e-15
-1.47544e-15
-1.52063e-15
-1.56969e-15
-1.62217e-15
-1.67731e-15
-1.73411e-15
-1.79122e-15
-1.84702e-15
-1.89952e-15
-1.94652e-15
-1.98556e-15
-2.01409e-15
-2.02956e-15
-1.21903e-15
-1.22267e-15
-1.22826e-15
-1.23593e-15
-1.24584e-15
-1.25822e-15
-1.27334e-15
-1.2915e-15
-1.31304e-15
-1.3383e-15
-1.36765e-15
-1.40139e-15
-1.43981e-15
-1.4831e-15
-1.53132e-15
-1.58438e-15
-1.64198e-15
-1.70356e-15
-1.76826e-15
-1.83487e-15
-1.90184e-15
-1.96723e-15
-2.02875e-15
-2.0838e-15
-2.12952e-15
-2.16292e-15
-2.18103e-15
-1.23009e-15
-1.23436e-15
-1.24092e-15
-1.24992e-15
-1.26154e-15
-1.27607e-15
-1.29381e-15
-1.31513e-15
-1.34042e-15
-1.37009e-15
-1.40455e-15
-1.44418e-15
-1.4893e-15
-1.54012e-15
-1.59674e-15
-1.65903e-15
-1.72663e-15
-1.79887e-15
-1.87475e-15
-1.95286e-15
-2.03136e-15
-2.10799e-15
-2.18006e-15
-2.24453e-15
-2.29806e-15
-2.33716e-15
-2.35835e-15
-1.24301e-15
-1.24801e-15
-1.2557e-15
-1.26625e-15
-1.27988e-15
-1.29692e-15
-1.31774e-15
-1.34276e-15
-1.37244e-15
-1.40727e-15
-1.44773e-15
-1.49425e-15
-1.54722e-15
-1.60688e-15
-1.67332e-15
-1.74641e-15
-1.82572e-15
-1.91046e-15
-1.99944e-15
-2.091e-15
-2.183e-15
-2.27278e-15
-2.3572e-15
-2.43269e-15
-2.49536e-15
-2.54114e-15
-2.56594e-15
-1.25808e-15
-1.26393e-15
-1.27295e-15
-1.28531e-15
-1.3013e-15
-1.32128e-15
-1.3457e-15
-1.37506e-15
-1.40989e-15
-1.45076e-15
-1.49824e-15
-1.55284e-15
-1.615e-15
-1.68501e-15
-1.76297e-15
-1.84871e-15
-1.94172e-15
-2.04109e-15
-2.1454e-15
-2.25272e-15
-2.36051e-15
-2.46569e-15
-2.56456e-15
-2.65295e-15
-2.72632e-15
-2.7799e-15
-2.80893e-15
-1.27566e-15
-1.28253e-15
-1.2931e-15
-1.30758e-15
-1.32632e-15
-1.34975e-15
-1.37839e-15
-1.41282e-15
-1.45368e-15
-1.50163e-15
-1.55734e-15
-1.6214e-15
-1.69432e-15
-1.77645e-15
-1.86789e-15
-1.96845e-15
-2.07752e-15
-2.194e-15
-2.31627e-15
-2.44202e-15
-2.56831e-15
-2.6915e-15
-2.80728e-15
-2.91077e-15
-2.99665e-15
-3.05936e-15
-3.09334e-15
-1.29619e-15
-1.30423e-15
-1.31662e-15
-1.33359e-15
-1.35556e-15
-1.38302e-15
-1.4166e-15
-1.45697e-15
-1.50489e-15
-1.56114e-15
-1.62647e-15
-1.70161e-15
-1.78714e-15
-1.88346e-15
-1.99069e-15
-2.10859e-15
-2.23645e-15
-2.37299e-15
-2.51626e-15
-2.6636e-15
-2.81153e-15
-2.9558e-15
-3.09137e-15
-3.21253e-15
-3.31305e-15
-3.38644e-15
-3.4262e-15
-1.32016e-15
-1.32958e-15
-1.34408e-15
-1.36397e-15
-1.38971e-15
-1.4219e-15
-1.46126e-15
-1.50859e-15
-1.56478e-15
-1.63073e-15
-1.70735e-15
-1.79546e-15
-1.89575e-15
-2.00868e-15
-2.1344e-15
-2.27262e-15
-2.42248e-15
-2.58248e-15
-2.75035e-15
-2.92294e-15
-3.09621e-15
-3.26515e-15
-3.42387e-15
-3.5657e-15
-3.68336e-15
-3.76924e-15
-3.81577e-15
-1.34815e-15
-1.35918e-15
-1.37617e-15
-1.39947e-15
-1.42963e-15
-1.46735e-15
-1.51347e-15
-1.56895e-15
-1.63482e-15
-1.71214e-15
-1.80196e-15
-1.90525e-15
-2.02283e-15
-2.15522e-15
-2.30258e-15
-2.46457e-15
-2.64018e-15
-2.82765e-15
-3.02431e-15
-3.22647e-15
-3.42937e-15
-3.62718e-15
-3.813e-15
-3.97901e-15
-4.11672e-15
-4.21722e-15
-4.27167e-15
-1.38083e-15
-1.39375e-15
-1.41364e-15
-1.44093e-15
-1.47626e-15
-1.52046e-15
-1.57451e-15
-1.63953e-15
-1.71672e-15
-1.80735e-15
-1.91263e-15
-2.03371e-15
-2.17152e-15
-2.32668e-15
-2.49938e-15
-2.6892e-15
-2.89495e-15
-3.11458e-15
-3.34492e-15
-3.58168e-15
-3.81928e-15
-4.05087e-15
-4.26838e-15
-4.4627e-15
-4.62385e-15
-4.74147e-15
-4.80519e-15
-1.419e-15
-1.43413e-15
-1.45742e-15
-1.48939e-15
-1.53077e-15
-1.58254e-15
-1.64587e-15
-1.72205e-15
-1.81251e-15
-1.91871e-15
-2.04209e-15
-2.18398e-15
-2.34548e-15
-2.5273e-15
-2.72966e-15
-2.95205e-15
-3.19309e-15
-3.45034e-15
-3.72012e-15
-3.99737e-15
-4.27556e-15
-4.54668e-15
-4.80129e-15
-5.02871e-15
-5.2173e-15
-5.35493e-15
-5.42949e-15
-1.46359e-15
-1.48129e-15
-1.50857e-15
-1.546e-15
-1.59447e-15
-1.65511e-15
-1.72929e-15
-1.81854e-15
-1.92452e-15
-2.04895e-15
-2.19352e-15
-2.35978e-15
-2.549e-15
-2.76203e-15
-2.9991e-15
-3.25962e-15
-3.54196e-15
-3.84325e-15
-4.15917e-15
-4.4838e-15
-4.80949e-15
-5.12686e-15
-5.42488e-15
-5.69104e-15
-5.91174e-15
-6.07278e-15
-6.16003e-15
-1.51567e-15
-1.5364e-15
-1.56834e-15
-1.61216e-15
-1.66891e-15
-1.73993e-15
-1.82682e-15
-1.93136e-15
-2.05552e-15
-2.20129e-15
-2.37065e-15
-2.56543e-15
-2.7871e-15
-3.03666e-15
-3.31436e-15
-3.6195e-15
-3.95017e-15
-4.303e-15
-4.67292e-15
-5.053e-15
-5.43427e-15
-5.80577e-15
-6.15457e-15
-6.46605e-15
-6.72431e-15
-6.91276e-15
-7.01485e-15
-1.57652e-15
-1.60078e-15
-1.63817e-15
-1.68948e-15
-1.75593e-15
-1.83909e-15
-1.94084e-15
-2.06329e-15
-2.20871e-15
-2.37946e-15
-2.57785e-15
-2.806e-15
-3.06566e-15
-3.35797e-15
-3.68322e-15
-4.04058e-15
-4.42782e-15
-4.84096e-15
-5.27407e-15
-5.71903e-15
-6.16534e-15
-6.60017e-15
-7.00838e-15
-7.3729e-15
-7.67511e-15
-7.89561e-15
-8.01508e-15
-1.64761e-15
-1.67601e-15
-1.71977e-15
-1.77984e-15
-1.85763e-15
-1.95501e-15
-2.07416e-15
-2.21755e-15
-2.38786e-15
-2.58784e-15
-2.8202e-15
-3.08742e-15
-3.39153e-15
-3.73387e-15
-4.11477e-15
-4.53325e-15
-4.98668e-15
-5.4704e-15
-5.97746e-15
-6.49833e-15
-7.02075e-15
-7.52968e-15
-8.00742e-15
-8.43398e-15
-8.78761e-15
-9.04562e-15
-9.18542e-15
-1.73067e-15
-1.76391e-15
-1.81513e-15
-1.88544e-15
-1.97652e-15
-2.09053e-15
-2.23003e-15
-2.39794e-15
-2.59737e-15
-2.83156e-15
-3.10367e-15
-3.4166e-15
-3.77274e-15
-4.17363e-15
-4.61966e-15
-5.10966e-15
-5.64055e-15
-6.20686e-15
-6.80045e-15
-7.41016e-15
-8.02163e-15
-8.61726e-15
-9.17635e-15
-9.67551e-15
-1.00893e-14
-1.03912e-14
-1.05548e-14
-1.82773e-15
-1.86663e-15
-1.92658e-15
-2.00888e-15
-2.11549e-15
-2.24895e-15
-2.41228e-15
-2.60887e-15
-2.84238e-15
-3.1166e-15
-3.43523e-15
-3.80167e-15
-4.21869e-15
-4.68809e-15
-5.21033e-15
-5.78404e-15
-6.40556e-15
-7.06852e-15
-7.76337e-15
-8.47703e-15
-9.1927e-15
-9.88977e-15
-1.0544e-14
-1.11282e-14
-1.16124e-14
-1.19656e-14
-1.2157e-14
-1.94115e-15
-1.98667e-15
-2.05684e-15
-2.15316e-15
-2.27795e-15
-2.43418e-15
-2.62538e-15
-2.85553e-15
-3.12892e-15
-3.44998e-15
-3.82305e-15
-4.25209e-15
-4.74035e-15
-5.28994e-15
-5.90136e-15
-6.57301e-15
-7.30061e-15
-8.07666e-15
-8.88998e-15
-9.72528e-15
-1.05629e-14
-1.13786e-14
-1.21443e-14
-1.28278e-14
-1.33944e-14
-1.38077e-14
-1.40317e-14
-2.0737e-15
-2.12697e-15
-2.20909e-15
-2.32181e-15
-2.46786e-15
-2.65073e-15
-2.87454e-15
-3.14397e-15
-3.46402e-15
-3.8399e-15
-4.27666e-15
-4.77897e-15
-5.35059e-15
-5.994e-15
-6.70979e-15
-7.49605e-15
-8.34775e-15
-9.25614e-15
-1.02081e-14
-1.11857e-14
-1.2166e-14
-1.31207e-14
-1.40166e-14
-1.48164e-14
-1.54794e-14
-1.59631e-14
-1.62252e-14
-2.22861e-15
-2.29095e-15
-2.38704e-15
-2.51896e-15
-2.68989e-15
-2.90392e-15
-3.16589e-15
-3.48126e-15
-3.85592e-15
-4.29593e-15
-4.80723e-15
-5.39526e-15
-6.06443e-15
-6.81764e-15
-7.65554e-15
-8.5759e-15
-9.57284e-15
-1.06361e-14
-1.17503e-14
-1.28944e-14
-1.40416e-14
-1.51588e-14
-1.62073e-14
-1.71432e-14
-1.79189e-14
-1.84849e-14
-1.87917e-14
-2.40967e-15
-2.48261e-15
-2.59505e-15
-2.74942e-15
-2.94946e-15
-3.19995e-15
-3.50656e-15
-3.87569e-15
-4.31423e-15
-4.82929e-15
-5.42781e-15
-6.11614e-15
-6.89946e-15
-7.78113e-15
-8.76193e-15
-9.83922e-15
-1.10061e-14
-1.22505e-14
-1.35545e-14
-1.48936e-14
-1.62361e-14
-1.75435e-14
-1.87704e-14
-1.98655e-14
-2.07733e-14
-2.14356e-14
-2.17947e-14
-2.6213e-15
-2.70664e-15
-2.83821e-15
-3.01885e-15
-3.25293e-15
-3.54607e-15
-3.90492e-15
-4.33695e-15
-4.85023e-15
-5.45309e-15
-6.15366e-15
-6.95935e-15
-7.87624e-15
-8.90823e-15
-1.00562e-14
-1.13171e-14
-1.26829e-14
-1.41393e-14
-1.56654e-14
-1.72325e-14
-1.88036e-14
-2.03335e-14
-2.17692e-14
-2.30507e-14
-2.4113e-14
-2.4888e-14
-2.53083e-14
-2.86866e-15
-2.96851e-15
-3.12245e-15
-3.33382e-15
-3.60774e-15
-3.95078e-15
-4.37073e-15
-4.87635e-15
-5.47709e-15
-6.18268e-15
-7.00265e-15
-7.94567e-15
-9.01884e-15
-1.02267e-14
-1.15704e-14
-1.30461e-14
-1.46445e-14
-1.63491e-14
-1.81351e-14
-1.9969e-14
-2.18076e-14
-2.35979e-14
-2.52779e-14
-2.67776e-14
-2.80206e-14
-2.89276e-14
-2.94196e-14
-3.15782e-15
-3.27464e-15
-3.45475e-15
-3.70206e-15
-4.02258e-15
-4.424e-15
-4.91543e-15
-5.50715e-15
-6.21021e-15
-7.036e-15
-7.99566e-15
-9.09937e-15
-1.03554e-14
-1.17691e-14
-1.33417e-14
-1.50688e-14
-1.69395e-14
-1.89344e-14
-2.10245e-14
-2.31707e-14
-2.53222e-14
-2.74173e-14
-2.93833e-14
-3.11381e-14
-3.25928e-14
-3.36542e-14
-3.42302e-14
-3.49583e-15
-3.6325e-15
-3.84323e-15
-4.13259e-15
-4.50762e-15
-4.97733e-15
-5.5524e-15
-6.24484e-15
-7.06761e-15
-8.03403e-15
-9.15715e-15
-1.04489e-14
-1.19188e-14
-1.35734e-14
-1.54138e-14
-1.74351e-14
-1.96244e-14
-2.1959e-14
-2.4405e-14
-2.69165e-14
-2.94343e-14
-3.18861e-14
-3.41867e-14
-3.62403e-14
-3.79426e-14
-3.91849e-14
-3.98591e-14
-3.89097e-15
-4.05087e-15
-4.2974e-15
-4.63595e-15
-5.07475e-15
-5.62436e-15
-6.29727e-15
-7.10755e-15
-8.07037e-15
-9.20133e-15
-1.05157e-14
-1.20274e-14
-1.37477e-14
-1.5684e-14
-1.78378e-14
-2.02034e-14
-2.27655e-14
-2.54976e-14
-2.83601e-14
-3.12992e-14
-3.42456e-14
-3.71147e-14
-3.9807e-14
-4.22102e-14
-4.42024e-14
-4.56565e-14
-4.64458e-14
-4.35291e-15
-4.53998e-15
-4.8284e-15
-5.22449e-15
-5.73789e-15
-6.38096e-15
-7.16833e-15
-8.11648e-15
-9.24315e-15
-1.05666e-14
-1.21047e-14
-1.38738e-14
-1.5887e-14
-1.8153e-14
-2.06736e-14
-2.3442e-14
-2.64403e-14
-2.96375e-14
-3.29874e-14
-3.64269e-14
-3.9875e-14
-4.32325e-14
-4.63832e-14
-4.91957e-14
-5.15273e-14
-5.32292e-14
-5.41534e-14
-4.89297e-15
-5.11181e-15
-5.44924e-15
-5.91263e-15
-6.5133e-15
-7.2657e-15
-8.18698e-15
-9.29642e-15
-1.06148e-14
-1.21635e-14
-1.39634e-14
-1.60336e-14
-1.83896e-14
-2.10413e-14
-2.39911e-14
-2.72308e-14
-3.07396e-14
-3.44812e-14
-3.84014e-14
-4.24264e-14
-4.64616e-14
-5.03908e-14
-5.40781e-14
-5.73696e-14
-6.00985e-14
-6.20907e-14
-6.3173e-14
-5.52437e-15
-5.78037e-15
-6.17512e-15
-6.71726e-15
-7.42001e-15
-8.30032e-15
-9.37825e-15
-1.06764e-14
-1.2219e-14
-1.40312e-14
-1.61374e-14
-1.856e-14
-2.1317e-14
-2.44201e-14
-2.78721e-14
-3.16633e-14
-3.57695e-14
-4.01481e-14
-4.47357e-14
-4.94461e-14
-5.41684e-14
-5.87668e-14
-6.30821e-14
-6.69344e-14
-7.01285e-14
-7.24605e-14
-7.3728e-14
-6.26259e-15
-6.56207e-15
-7.02386e-15
-7.6581e-15
-8.48027e-15
-9.51021e-15
-1.07714e-14
-1.22903e-14
-1.40953e-14
-1.62158e-14
-1.86804e-14
-2.15152e-14
-2.47415e-14
-2.83728e-14
-3.24123e-14
-3.6849e-14
-4.16542e-14
-4.67783e-14
-5.21471e-14
-5.76596e-14
-6.31861e-14
-6.85677e-14
-7.36182e-14
-7.81271e-14
-8.18658e-14
-8.4596e-14
-8.60805e-14
-7.12571e-15
-7.47605e-15
-8.01628e-15
-8.75826e-15
-9.72012e-15
-1.09251e-14
-1.24007e-14
-1.41779e-14
-1.62899e-14
-1.87711e-14
-2.1655e-14
-2.49721e-14
-2.87474e-14
-3.29969e-14
-3.7724e-14
-4.29159e-14
-4.85392e-14
-5.45358e-14
-6.08188e-14
-6.72701e-14
-7.37379e-14
-8.00364e-14
-8.59476e-14
-9.12251e-14
-9.56016e-14
-9.87981e-14
-1.00537e-13
-8.13491e-15
-8.54473e-15
-9.17671e-15
-1.00447e-14
-1.117e-14
-1.25798e-14
-1.43062e-14
-1.63855e-14
-1.88567e-14
-2.17599e-14
-2.51344e-14
-2.9016e-14
-3.34337e-14
-3.84064e-14
-4.39381e-14
-5.00139e-14
-5.65947e-14
-6.36123e-14
-7.09653e-14
-7.85155e-14
-8.60852e-14
-9.3457e-14
-1.00376e-13
-1.06553e-13
-1.11677e-13
-1.15419e-13
-1.17457e-13
-9.31494e-15
-9.79435e-15
-1.05336e-14
-1.15491e-14
-1.28656e-14
-1.45149e-14
-1.65347e-14
-1.89675e-14
-2.18589e-14
-2.52559e-14
-2.92044e-14
-3.37464e-14
-3.89159e-14
-4.47349e-14
-5.12082e-14
-5.83184e-14
-6.60197e-14
-7.42323e-14
-8.28378e-14
-9.16743e-14
-1.00534e-13
-1.09162e-13
-1.17261e-13
-1.24492e-13
-1.3049e-13
-1.34873e-13
-1.3726e-13
-1.06948e-14
-1.12556e-14
-1.21204e-14
-1.33083e-14
-1.48484e-14
-1.6778e-14
-1.91411e-14
-2.19875e-14
-2.53705e-14
-2.93452e-14
-3.39654e-14
-3.92801e-14
-4.53293e-14
-5.21386e-14
-5.97139e-14
-6.80347e-14
-7.70473e-14
-8.66588e-14
-9.67303e-14
-1.07072e-13
-1.17442e-13
-1.27542e-13
-1.37022e-13
-1.45487e-13
-1.5251e-13
-1.57643e-13
-1.6044e-13
-1.23082e-14
-1.29642e-14
-1.39759e-14
-1.53656e-14
-1.71673e-14
-1.94247e-14
-2.21895e-14
-2.55197e-14
-2.94779e-14
-3.41286e-14
-3.95347e-14
-4.57536e-14
-5.28322e-14
-6.08005e-14
-6.96654e-14
-7.94029e-14
-8.99505e-14
-1.01199e-13
-1.12987e-13
-1.25092e-13
-1.37229e-13
-1.49051e-13
-1.60149e-13
-1.7006e-13
-1.78283e-13
-1.84295e-13
-1.87573e-13
-1.41949e-14
-1.49623e-14
-1.61458e-14
-1.77715e-14
-1.98793e-14
-2.25203e-14
-2.57549e-14
-2.96512e-14
-3.42824e-14
-3.9724e-14
-4.60497e-14
-5.33267e-14
-6.16099e-14
-7.09345e-14
-8.13087e-14
-9.27044e-14
-1.05049e-13
-1.18214e-13
-1.3201e-13
-1.46179e-13
-1.60386e-13
-1.74225e-13
-1.87218e-13
-1.98822e-13
-2.08451e-13
-2.15493e-13
-2.19336e-13
-1.64013e-14
-1.7299e-14
-1.86834e-14
-2.05852e-14
-2.30511e-14
-2.61407e-14
-2.99251e-14
-3.44837e-14
-3.99023e-14
-4.62693e-14
-5.36711e-14
-6.21863e-14
-7.18791e-14
-8.27911e-14
-9.49317e-14
-1.08268e-13
-1.22715e-13
-1.38124e-13
-1.54273e-13
-1.70857e-13
-1.87489e-13
-2.0369e-13
-2.18901e-13
-2.32489e-13
-2.43765e-13
-2.52014e-13
-2.5652e-13
-1.89814e-14
-2.00315e-14
-2.16511e-14
-2.38759e-14
-2.67606e-14
-3.03752e-14
-3.48027e-14
-4.01362e-14
-4.64762e-14
-5.39261e-14
-6.2587e-14
-7.25512e-14
-8.38937e-14
-9.66634e-14
-1.10871e-13
-1.2648e-13
-1.43389e-13
-1.61424e-13
-1.80326e-13
-1.9974e-13
-2.19209e-13
-2.38177e-13
-2.55987e-13
-2.71898e-13
-2.85106e-13
-2.9477e-13
-3.00054e-13
-2.19987e-14
-2.32272e-14
-2.51218e-14
-2.77244e-14
-3.10992e-14
-3.5328e-14
-4.0508e-14
-4.67482e-14
-5.41662e-14
-6.28832e-14
-7.30176e-14
-8.46774e-14
-9.79507e-14
-1.12895e-13
-1.29523e-13
-1.4779e-13
-1.67581e-13
-1.88691e-13
-2.10817e-13
-2.33544e-13
-2.56337e-13
-2.78545e-13
-2.994e-13
-3.18034e-13
-3.33504e-13
-3.44828e-13
-3.51025e-13
-2.55275e-14
-2.69645e-14
-2.91809e-14
-3.22256e-14
-3.61737e-14
-4.11211e-14
-4.71814e-14
-5.44825e-14
-6.3162e-14
-7.33617e-14
-8.52204e-14
-9.88646e-14
-1.14398e-13
-1.31886e-13
-1.51347e-13
-1.72728e-13
-1.95892e-13
-2.20603e-13
-2.46504e-13
-2.7311e-13
-2.99797e-13
-3.258e-13
-3.50221e-13
-3.72046e-13
-3.90169e-13
-4.0344e-13
-4.10709e-13
-2.96544e-14
-3.13354e-14
-3.39282e-14
-3.74902e-14
-4.2109e-14
-4.78972e-14
-5.49876e-14
-6.353e-14
-7.36856e-14
-8.56204e-14
-9.9497e-14
-1.15464e-13
-1.33641e-13
-1.54109e-13
-1.76886e-13
-2.01911e-13
-2.29025e-13
-2.57951e-13
-2.88273e-13
-3.19423e-13
-3.5067e-13
-3.81119e-13
-4.0972e-13
-4.35283e-13
-4.56517e-13
-4.7207e-13
-4.806e-13
-3.4481e-14
-3.64475e-14
-3.94807e-14
-4.36477e-14
-4.90514e-14
-5.58232e-14
-6.41189e-14
-7.41138e-14
-8.59967e-14
-9.9962e-14
-1.162e-13
-1.34885e-13
-1.56158e-13
-1.80113e-13
-2.06771e-13
-2.36063e-13
-2.67803e-13
-3.01665e-13
-3.37164e-13
-3.73635e-13
-4.10224e-13
-4.45883e-13
-4.79382e-13
-5.09328e-13
-5.34207e-13
-5.5244e-13
-5.6245e-13
-4.01261e-14
-4.24266e-14
-4.5975e-14
-5.08499e-14
-5.71718e-14
-6.50946e-14
-7.48006e-14
-8.64952e-14
-1.00399e-13
-1.16741e-13
-1.35743e-13
-1.57609e-13
-1.82506e-13
-2.10543e-13
-2.41745e-13
-2.76033e-13
-3.13188e-13
-3.52831e-13
-3.94394e-13
-4.37099e-13
-4.79946e-13
-5.21709e-13
-5.60948e-13
-5.96031e-13
-6.25187e-13
-6.46563e-13
-6.58313e-13
-4.67286e-14
-4.94199e-14
-5.35711e-14
-5.92743e-14
-6.66705e-14
-7.594e-14
-8.72963e-14
-1.0098e-13
-1.17249e-13
-1.36372e-13
-1.58609e-13
-1.84199e-13
-2.13338e-13
-2.46153e-13
-2.82676e-13
-3.22813e-13
-3.6631e-13
-4.12724e-13
-4.61389e-13
-5.11397e-13
-5.61576e-13
-6.10493e-13
-6.56459e-13
-6.97566e-13
-7.31737e-13
-7.56803e-13
-7.70599e-13
-5.44512e-14
-5.75997e-14
-6.24561e-14
-6.91284e-14
-7.77817e-14
-8.8627e-14
-1.01914e-13
-1.17925e-13
-1.36963e-13
-1.59341e-13
-1.85364e-13
-2.15313e-13
-2.49417e-13
-2.87827e-13
-3.3058e-13
-3.77566e-13