/*--------------------------------*- C++ -*----------------------------------*\
| =========                 |                                                 |
| \\      /  F ield         | OpenFOAM: The Open Source CFD Toolbox           |
|  \\    /   O peration     | Version:  2212                                  |
|   \\  /    A nd           | Website:  www.openfoam.com                      |
|    \\/     M anipulation  |                                                 |
\*---------------------------------------------------------------------------*/
FoamFile
{
    version     2.0;
    format      ascii;
    arch        "LSB;label=32;scalar=64";
    class       volVectorField;
    location    "9.0545968";
    object      U;
}
// * * * * * * * * * * * * * * * * * * * * * * * * * * * * * * * * * * * * * //

dimensions      [0 1 -1 0 0 0 0];

internalField   nonuniform List<vector> 
33600
(
(0.134265 -0.000265576 3.24066e-13)
(0.134273 -0.000424316 1.34107e-12)
(0.13427 -0.000606695 2.47914e-12)
(0.134272 -0.000785163 3.13346e-12)
(0.134272 -0.000982734 3.55325e-12)
(0.134274 -0.00118904 4.02207e-12)
(0.134275 -0.00141579 4.70739e-12)
(0.134276 -0.00166216 5.81633e-12)
(0.134279 -0.00193575 8.03997e-12)
(0.134281 -0.00224073 1.38107e-11)
(0.134285 -0.00258495 3.12956e-11)
(0.134291 -0.00297688 1.16001e-11)
(0.134298 -0.00342765 4.71166e-12)
(0.134308 -0.00395263 1.54589e-12)
(0.134324 -0.0045701 -4.37401e-13)
(0.13435 -0.00531055 -2.27549e-12)
(0.13439 -0.00620662 -4.91013e-12)
(0.13446 -0.00732799 -9.3336e-12)
(0.134579 -0.00873262 -4.89662e-12)
(0.134792 -0.0106034 -2.71908e-12)
(0.135161 -0.0130076 -1.74873e-12)
(0.13581 -0.0164772 -1.28357e-12)
(0.136893 -0.0207477 -1.04858e-12)
(0.138461 -0.0274842 -8.4775e-13)
(0.139921 -0.0329552 -6.20447e-13)
(0.135692 -0.0428555 -3.85804e-13)
(0.10132 -0.022864 -1.21781e-13)
(0.134839 -0.000810225 1.70941e-13)
(0.134875 -0.00129951 4.51865e-12)
(0.134887 -0.00184561 9.27772e-12)
(0.134917 -0.00239296 1.14422e-11)
(0.134949 -0.0029858 1.26594e-11)
(0.134992 -0.00360984 1.41305e-11)
(0.135043 -0.00428814 1.6319e-11)
(0.135107 -0.0050237 1.94816e-11)
(0.135183 -0.00583355 2.46293e-11)
(0.135276 -0.0067298 3.60885e-11)
(0.135388 -0.00773099 6.26524e-11)
(0.135524 -0.00885723 2.9033e-11)
(0.135692 -0.0101333 1.31512e-11)
(0.1359 -0.0115903 4.41146e-12)
(0.136162 -0.0132634 -1.56163e-12)
(0.136497 -0.0152019 -6.93417e-12)
(0.136934 -0.0174519 -1.33426e-11)
(0.137515 -0.0200932 -2.27978e-11)
(0.138302 -0.0231602 -1.32951e-11)
(0.139373 -0.0267766 -8.27544e-12)
(0.140837 -0.0308166 -5.67243e-12)
(0.142725 -0.0354291 -4.32889e-12)
(0.14498 -0.0396111 -3.75929e-12)
(0.146379 -0.0434077 -3.13694e-12)
(0.144829 -0.0420699 -2.30523e-12)
(0.129491 -0.0364601 -1.32501e-12)
(0.0832964 -0.0118252 -4.27449e-13)
(0.136062 -0.00135798 -5.20906e-12)
(0.136128 -0.0021737 7.46298e-12)
(0.136175 -0.00307756 2.03546e-11)
(0.136258 -0.00398767 2.31833e-11)
(0.136354 -0.00496523 2.42137e-11)
(0.136478 -0.00599313 2.63632e-11)
(0.136627 -0.00710232 3.00785e-11)
(0.136808 -0.00829853 3.46852e-11)
(0.137024 -0.00960453 3.88259e-11)
(0.137283 -0.0110366 4.84753e-11)
(0.137593 -0.0126182 6.9954e-11)
(0.137963 -0.0143732 3.6438e-11)
(0.138406 -0.0163291 1.76211e-11)
(0.138942 -0.0185172 5.74648e-12)
(0.13959 -0.0209678 -3.0698e-12)
(0.140378 -0.0237172 -1.09467e-11)
(0.14134 -0.0267839 -1.91855e-11)
(0.142508 -0.0301948 -2.78689e-11)
(0.143914 -0.0338926 -1.89749e-11)
(0.145535 -0.0378415 -1.27436e-11)
(0.147284 -0.0416696 -9.31493e-12)
(0.148714 -0.0451328 -7.30612e-12)
(0.149027 -0.0468288 -7.5163e-12)
(0.145821 -0.0462327 -6.58652e-12)
(0.135715 -0.0396694 -4.5885e-12)
(0.107817 -0.0277652 -2.64364e-12)
(0.0531743 -0.00646606 -8.30511e-13)
(0.137881 -0.0018875 -3.20048e-11)
(0.137984 -0.0030209 8.4831e-12)
(0.138082 -0.00427059 4.39587e-11)
(0.138235 -0.00552717 4.06531e-11)
(0.138419 -0.00686836 3.83447e-11)
(0.138653 -0.00827248 4.05338e-11)
(0.138933 -0.00977638 4.67234e-11)
(0.139269 -0.0113857 5.47212e-11)
(0.139668 -0.0131253 5.08859e-11)
(0.140138 -0.0150107 5.00043e-11)
(0.140691 -0.0170637 4.97264e-11)
(0.141339 -0.019303 3.29445e-11)
(0.142098 -0.0217472 1.75516e-11)
(0.142986 -0.0244114 5.24774e-12)
(0.14402 -0.0273007 -4.98985e-12)
(0.145216 -0.0304105 -1.43604e-11)
(0.146583 -0.0336996 -2.38759e-11)
(0.148102 -0.0371018 -3.50934e-11)
(0.149718 -0.0404416 -2.29434e-11)
(0.151243 -0.0434936 -1.52798e-11)
(0.152318 -0.045738 -1.22533e-11)
(0.152168 -0.0466656 -7.37128e-12)
(0.149555 -0.0451008 -1.29968e-11)
(0.141865 -0.0405205 -1.19782e-11)
(0.125354 -0.0307237 -8.17726e-12)
(0.092947 -0.0174986 -4.4316e-12)
(0.0410035 -0.00303453 -1.27057e-12)
(0.140289 -0.00238944 -1.453e-10)
(0.140434 -0.00382121 5.02417e-12)
(0.140593 -0.00539451 1.08616e-10)
(0.14083 -0.00697093 6.45055e-11)
(0.141121 -0.00864356 5.31953e-11)
(0.141483 -0.010384 5.49163e-11)
(0.141915 -0.0122327 6.63548e-11)
(0.142429 -0.0141925 9.33126e-11)
(0.14303 -0.0162864 6.45274e-11)
(0.143729 -0.0185249 5.1991e-11)
(0.144536 -0.0209225 4.27197e-11)
(0.145461 -0.0234862 2.93444e-11)
(0.146514 -0.0262174 1.58694e-11)
(0.147701 -0.0291067 3.77924e-12)
(0.149021 -0.0321254 -7.03058e-12)
(0.150457 -0.0352212 -1.71543e-11)
(0.151962 -0.0382942 -2.73205e-11)
(0.153435 -0.0411986 -3.82273e-11)
(0.154687 -0.0436795 -2.47135e-11)
(0.155346 -0.045408 -1.3437e-11)
(0.154882 -0.0458539 -1.79977e-11)
(0.152241 -0.0445679 -2.39335e-11)
(0.146035 -0.0406493 -2.74052e-11)
(0.133561 -0.0337222 -2.3434e-11)
(0.112414 -0.0233963 -1.29877e-11)
(0.0784766 -0.0115806 -6.17724e-12)
(0.0310171 -0.00148263 -1.20742e-12)
(0.143235 -0.00285162 -8.12175e-11)
(0.143424 -0.00455638 5.74783e-12)
(0.143652 -0.00642356 7.94473e-11)
(0.14398 -0.00828581 6.91061e-11)
(0.144384 -0.0102495 6.18447e-11)
(0.144882 -0.0122777 6.3872e-11)
(0.145472 -0.0144125 7.3593e-11)
(0.146165 -0.0166507 8.56419e-11)
(0.146965 -0.0190109 6.84535e-11)
(0.147879 -0.0214947 5.31194e-11)
(0.148913 -0.024105 4.00395e-11)
(0.150067 -0.0268328 2.67827e-11)
(0.151338 -0.0296581 1.39542e-11)
(0.152711 -0.0325436 2.08111e-12)
(0.154154 -0.0354252 -8.85988e-12)
(0.155602 -0.0382088 -1.9191e-11)
(0.156948 -0.0407453 -2.94181e-11)
(0.157996 -0.0428445 -4.04169e-11)
(0.158438 -0.044198 -2.74453e-11)
(0.15781 -0.0445076 -1.93825e-11)
(0.155427 -0.0433165 -2.12971e-11)
(0.150209 -0.040204 -2.57155e-11)
(0.140742 -0.0347259 -2.67303e-11)
(0.125152 -0.0269862 -2.26303e-11)
(0.101748 -0.0173994 -1.41685e-11)
(0.068489 -0.00768261 -6.175e-12)
(0.0257578 -0.000745418 2.12547e-12)
(0.146675 -0.00326521 -1.89395e-10)
(0.146907 -0.00521196 -6.52335e-12)
(0.147204 -0.00733708 1.18407e-10)
(0.147623 -0.0094453 7.61636e-11)
(0.148139 -0.0116539 6.5962e-11)
(0.148769 -0.0139158 6.79063e-11)
(0.149509 -0.0162729 7.99155e-11)
(0.150366 -0.0187142 1.06775e-10)
(0.151339 -0.0212515 7.47802e-11)
(0.152431 -0.0238752 5.46094e-11)
(0.153634 -0.0265751 3.88448e-11)
(0.154937 -0.0293248 2.49371e-11)
(0.156315 -0.0320835 1.22187e-11)
(0.157725 -0.0347881 5.3906e-13)
(0.159095 -0.0373478 -1.02514e-11)
(0.160312 -0.0396359 -2.03559e-11)
(0.161199 -0.0414868 -2.99534e-11)
(0.161481 -0.042668 -3.90104e-11)
(0.160794 -0.0429399 -2.62396e-11)
(0.158585 -0.0419995 -1.49888e-11)
(0.154116 -0.0395282 -2.19095e-11)
(0.146394 -0.0353005 -3.15731e-11)
(0.134329 -0.029211 -3.19882e-11)
(0.116551 -0.0215977 -2.78565e-11)
(0.0921247 -0.0131731 -1.57099e-11)
(0.0602568 -0.00537219 -7.19837e-12)
(0.0217723 -0.000386831 -8.96958e-13)
(0.150543 -0.0036232 -6.99558e-11)
(0.150815 -0.00577728 -2.10228e-11)
(0.151179 -0.00812038 5.67861e-11)
(0.151682 -0.0104313 6.34775e-11)
(0.152301 -0.0128354 6.1464e-11)
(0.153047 -0.0152752 6.25909e-11)
(0.153915 -0.0177902 6.95625e-11)
(0.154905 -0.0203607 8.1524e-11)
(0.156009 -0.0229903 7.42786e-11)
(0.157219 -0.0256578 5.47139e-11)
(0.158515 -0.0283398 3.76457e-11)
(0.159866 -0.0309937 2.32615e-11)
(0.161224 -0.0335607 1.06364e-11)
(0.162513 -0.0359594 -7.36465e-13)
(0.163624 -0.0380789 -1.11125e-11)
(0.164394 -0.0397849 -2.06287e-11)
(0.164589 -0.0408888 -2.92771e-11)
(0.163905 -0.0412126 -3.82063e-11)
(0.161919 -0.0405201 -2.44894e-11)
(0.15807 -0.0386003 -1.76012e-11)
(0.151679 -0.035267 -1.83367e-11)
(0.14192 -0.030474 -1.68957e-11)
(0.127957 -0.0243278 -2.26183e-11)
(0.108936 -0.0172729 -2.10192e-11)
(0.0843992 -0.0100913 -1.36752e-11)
(0.0542064 -0.00388726 -6.0944e-12)
(0.019213 -0.00022424 1.50464e-12)
(0.154776 -0.00392134 -5.14169e-11)
(0.155084 -0.00624576 -1.00385e-10)
(0.155505 -0.0087647 3.80817e-11)
(0.15608 -0.0112336 5.6084e-11)
(0.156784 -0.0137834 5.37472e-11)
(0.157623 -0.0163459 4.96496e-11)
(0.158586 -0.0189573 4.8959e-11)
(0.159666 -0.0215887 6.71588e-11)
(0.160847 -0.0242354 8.78035e-11)
(0.162105 -0.0268654 5.51273e-11)
(0.163406 -0.0294435 3.57522e-11)
(0.164697 -0.031914 2.12387e-11)
(0.165904 -0.0342061 8.99916e-12)
(0.166923 -0.0362257 -1.82736e-12)
(0.167608 -0.0378598 -1.15269e-11)
(0.167755 -0.0389617 -2.00473e-11)
(0.167111 -0.0393848 -2.73989e-11)
(0.165332 -0.038956 -3.38895e-11)
(0.161993 -0.0375087 -1.60831e-11)
(0.156573 -0.0349135 -1.11361e-11)
(0.148483 -0.0311032 -1.6785e-11)
(0.13708 -0.0261463 -1.7313e-11)
(0.121783 -0.0202738 -1.89547e-11)
(0.1021 -0.0139518 -2.11e-11)
(0.0778895 -0.0078931 -1.21035e-11)
(0.0493363 -0.00292338 -5.91411e-12)
(0.0172309 -0.000135666 -1.15237e-12)
(0.159304 -0.0041577 -1.06073e-11)
(0.159638 -0.00661473 6.35946e-12)
(0.160106 -0.00926703 1.11114e-10)
(0.160735 -0.0118498 6.60469e-11)
(0.1615 -0.0144971 4.68529e-11)
(0.162401 -0.0171305 2.95629e-11)
(0.16342 -0.0197821 -3.36228e-13)
(0.164541 -0.0224143 4.00158e-11)
(0.165735 -0.025015 5.51499e-11)
(0.166966 -0.0275424 4.40531e-11)
(0.168181 -0.0299524 3.05483e-11)
(0.169307 -0.0321808 1.81397e-11)
(0.170247 -0.0341491 7.02057e-12)
(0.170868 -0.0357621 -2.94406e-12)
(0.170997 -0.0369034 -1.17532e-11)
(0.170414 -0.037452 -1.93233e-11)
(0.168841 -0.0372731 -2.51414e-11)
(0.165935 -0.0362389 -2.75775e-11)
(0.161295 -0.0342426 -2.05426e-11)
(0.154464 -0.0312296 -1.74907e-11)
(0.144963 -0.027221 -2.09986e-11)
(0.132319 -0.0223594 -1.59134e-11)
(0.116155 -0.0169284 -1.32575e-11)
(0.0962322 -0.0113656 -1.18641e-11)
(0.072591 -0.00627534 -7.05539e-12)
(0.0455486 -0.00226278 -3.96845e-12)
(0.0157804 -9.22574e-05 -1.15209e-12)
(0.164057 -0.00433264 9.24053e-12)
(0.164408 -0.0068851 3.41388e-11)
(0.164907 -0.00962946 8.47156e-11)
(0.165569 -0.0122841 6.25482e-11)
(0.166368 -0.0149839 3.99761e-11)
(0.167296 -0.0176414 1.98773e-11)
(0.168327 -0.0202844 4.28577e-12)
(0.169434 -0.0228673 2.49284e-11)
(0.170577 -0.0253718 3.72738e-11)
(0.171706 -0.0277489 3.36447e-11)
(0.172749 -0.0299486 2.45346e-11)
(0.173616 -0.031902 1.44214e-11)
(0.174187 -0.0335297 4.69122e-12)
(0.174311 -0.0347386 -4.25083e-12)
(0.173798 -0.0354262 -1.22539e-11)
(0.172414 -0.0354868 -1.92689e-11)
(0.169881 -0.0348163 -2.54069e-11)
(0.165874 -0.0333294 -3.2039e-11)
(0.160032 -0.0309731 -2.25144e-11)
(0.151973 -0.0277513 -1.67915e-11)
(0.141326 -0.0237444 -1.0502e-11)
(0.127761 -0.0191326 -1.05444e-11)
(0.11106 -0.0142081 -3.31439e-12)
(0.0911466 -0.0093575 -5.12735e-12)
(0.0681617 -0.00507232 2.01101e-12)
(0.042463 -0.0017944 -1.15966e-12)
(0.0146197 -6.4956e-05 -5.86819e-13)
(0.168966 -0.00444837 8.80322e-12)
(0.169323 -0.00706082 3.33009e-11)
(0.169837 -0.00985836 1.2537e-10)
(0.170509 -0.0125462 6.48296e-11)
(0.171312 -0.0152582 3.28781e-11)
(0.172229 -0.017899 5.39154e-12)
(0.173226 -0.0204924 -2.74587e-11)
(0.174265 -0.0229863 1.03608e-11)
(0.175296 -0.0253575 2.94756e-11)
(0.176251 -0.0275524 2.66955e-11)
(0.177046 -0.0295181 1.91055e-11)
(0.177574 -0.031185 1.05199e-11)
(0.177699 -0.0324772 2.06964e-12)
(0.177256 -0.0333096 -5.82341e-12)
(0.176047 -0.033595 -1.29506e-11)
(0.173838 -0.0332489 -1.91555e-11)
(0.170361 -0.0321986 -2.41119e-11)
(0.165321 -0.0303967 -2.65666e-11)
(0.158408 -0.027834 -2.0835e-11)
(0.149313 -0.0245567 -1.7524e-11)
(0.137762 -0.0206804 -1.87299e-11)
(0.123541 -0.0163981 -1.30119e-11)
(0.106544 -0.0119866 -8.78294e-12)
(0.0867954 -0.00777501 -7.19553e-12)
(0.0644855 -0.00415546 -3.37552e-12)
(0.0399643 -0.00145046 -1.97581e-12)
(0.013705 -4.92651e-05 -6.51151e-13)
(0.173967 -0.00450866 -2.00662e-11)
(0.174319 -0.00714825 -6.59962e-11)
(0.17483 -0.00996341 6.89797e-11)
(0.175488 -0.0126498 5.40049e-11)
(0.176264 -0.0153389 2.51713e-11)
(0.177132 -0.0179291 -1.58212e-12)
(0.17805 -0.0204401 -1.92098e-11)
(0.178971 -0.0228153 6.68212e-12)
(0.179831 -0.0250281 4.22634e-11)
(0.180551 -0.0270228 2.32658e-11)
(0.181034 -0.0287462 1.3993e-11)
(0.181159 -0.0301315 6.31602e-12)
(0.180782 -0.0311093 -9.26768e-13)
(0.179729 -0.0316059 -7.76289e-12)
(0.177801 -0.0315509 -1.40691e-11)
(0.174773 -0.0308823 -1.97634e-11)
(0.170398 -0.0295562 -2.48767e-11)
(0.164414 -0.0275568 -2.9912e-11)
(0.156564 -0.0249079 -1.55615e-11)
(0.146609 -0.0216834 -1.27584e-11)
(0.134355 -0.0180157 -1.603e-11)
(0.119677 -0.0140951 -1.33984e-11)
(0.102546 -0.010171 -1.09542e-11)
(0.0830467 -0.00651783 -1.18564e-11)
(0.0613872 -0.00344539 -5.34396e-12)
(0.037891 -0.00119038 -2.41377e-12)
(0.0129535 -3.80961e-05 -6.96577e-13)
(0.179 -0.00451839 -3.19421e-11)
(0.179336 -0.00715548 1.38382e-11)
(0.179825 -0.00995669 1.21454e-10)
(0.180445 -0.0126116 5.85814e-11)
(0.181165 -0.0152484 1.84891e-11)
(0.181948 -0.0177605 -1.59394e-11)
(0.182746 -0.0201644 -5.23774e-11)
(0.183501 -0.0224003 -1.35048e-11)
(0.184141 -0.02444 1.00235e-11)
(0.184574 -0.0262276 1.01588e-11)
(0.184694 -0.0277121 6.19552e-12)
(0.184371 -0.0288318 1.06169e-12)
(0.183455 -0.029526 -4.50168e-12)
(0.181771 -0.0297338 -1.01163e-11)
(0.179127 -0.0294019 -1.5547e-11)
(0.175311 -0.0284896 -2.06675e-11)
(0.1701 -0.0269773 -2.52996e-11)
(0.163272 -0.0248745 -2.84002e-11)
(0.154618 -0.0222279 -2.36606e-11)
(0.14396 -0.0191272 -1.96293e-11)
(0.131169 -0.0157096 -2.07609e-11)
(0.116184 -0.0121534 -1.37443e-11)
(0.0990301 -0.0086769 -8.78953e-12)
(0.0798235 -0.00550621 -6.44431e-12)
(0.0587717 -0.00288542 -2.72592e-12)
(0.0361659 -0.000989274 -1.37607e-12)
(0.0123365 -3.05994e-05 -4.36123e-13)
(0.184013 -0.0044832 -1.45397e-10)
(0.184322 -0.00709179 1.455e-11)
(0.184772 -0.00985175 9.09632e-11)
(0.185331 -0.0124501 5.40883e-11)
(0.185965 -0.0150105 1.14352e-11)
(0.18663 -0.0174234 -2.57395e-11)
(0.187271 -0.0197026 -5.12828e-11)
(0.18782 -0.0217866 -2.99635e-11)
(0.188197 -0.0236471 -1.09194e-11)
(0.188302 -0.0252295 -3.8088e-12)
(0.188021 -0.026487 -2.93834e-12)
(0.18722 -0.0273644 -5.0538e-12)
(0.185747 -0.0278107 -8.60862e-12)
(0.183432 -0.0277782 -1.28181e-11)
(0.180091 -0.0272299 -1.73e-11)
(0.175531 -0.0261437 -2.20384e-11)
(0.169557 -0.0245198 -2.77176e-11)
(0.161984 -0.0223862 -3.74593e-11)
(0.152648 -0.0198044 -3.51428e-11)
(0.14142 -0.0168714 -2.3298e-11)
(0.128223 -0.0137208 -1.43773e-11)
(0.113043 -0.0105148 -1.17803e-11)
(0.0959371 -0.00744093 -4.40025e-12)
(0.0770376 -0.0046843 -2.56895e-12)
(0.0565428 -0.00243751 3.05208e-12)
(0.0347106 -0.000830526 -6.85381e-15)
(0.0118193 -2.4858e-05 -2.22042e-13)
(0.188959 -0.00440913 -1.73795e-11)
(0.18923 -0.00696699 6.40415e-11)
(0.189625 -0.00966277 1.6477e-10)
(0.190102 -0.012184 6.60909e-11)
(0.190625 -0.0146495 4.75548e-12)
(0.191143 -0.0169478 -4.6199e-11)
(0.191594 -0.0190909 -1.01262e-10)
(0.191904 -0.021017 -5.50135e-11)
(0.191984 -0.0226988 -3.00514e-11)
(0.19173 -0.0240845 -1.7575e-11)
(0.191024 -0.0251322 -1.25126e-11)
(0.189729 -0.0257943 -1.16295e-11)
(0.187696 -0.0260299 -1.30363e-11)
(0.184762 -0.0258038 -1.56445e-11)
(0.180756 -0.0250934 -1.88361e-11)
(0.175507 -0.0238924 -2.23003e-11)
(0.168846 -0.0222162 -2.58989e-11)
(0.160622 -0.0201057 -2.91961e-11)
(0.150711 -0.0176304 -2.84403e-11)
(0.139025 -0.0148887 -2.61926e-11)
(0.125526 -0.0120063 -2.86621e-11)
(0.110232 -0.00912727 -1.75159e-11)
(0.0932193 -0.00641139 -9.60917e-12)
(0.0746258 -0.0040096 -5.41301e-12)
(0.054636 -0.00207448 -2.95263e-12)
(0.0334768 -0.000703321 -2.41278e-12)
(0.0113842 -2.05916e-05 -1.00283e-12)
(0.193798 -0.00430232 3.3435e-11)
(0.194022 -0.006791 9.35278e-11)
(0.194347 -0.00940398 1.80362e-10)
(0.194723 -0.0118321 6.869e-11)
(0.195114 -0.0141887 -3.01456e-12)
(0.195459 -0.0163623 -6.37971e-11)
(0.195694 -0.0183633 -1.23966e-10)
(0.195737 -0.0201309 -7.64786e-11)
(0.195496 -0.0216393 -4.71155e-11)
(0.194863 -0.0228408 -3.04811e-11)
(0.193717 -0.0236992 -2.1919e-11)
(0.191924 -0.0241744 -1.82912e-11)
(0.189339 -0.0242354 -1.75773e-11)
(0.185809 -0.0238584 -1.84927e-11)
(0.18118 -0.0230332 -2.02085e-11)
(0.175298 -0.0217658 -2.21475e-11)
(0.168024 -0.020083 -2.37809e-11)
(0.159237 -0.0180337 -2.43896e-11)
(0.148845 -0.0156912 -2.32928e-11)
(0.136793 -0.0131506 -2.48521e-11)
(0.123071 -0.0105276 -3.17052e-11)
(0.10772 -0.0079486 -2.20535e-11)
(0.090828 -0.00554868 -1.32697e-11)
(0.0725293 -0.00345097 -7.23406e-12)
(0.0529942 -0.00177695 -7.3234e-12)
(0.032422 -0.00059993 -6.43898e-12)
(0.0110139 -1.71961e-05 -2.81067e-12)
(0.198498 -0.00416879 5.45079e-11)
(0.198666 -0.00657349 1.00162e-10)
(0.198909 -0.00908907 1.32624e-10)
(0.199169 -0.0114121 6.10807e-11)
(0.199407 -0.0136503 -1.08922e-11)
(0.19956 -0.0156932 -7.74831e-11)
(0.199558 -0.0175504 -1.44268e-10)
(0.199315 -0.0191627 -9.35476e-11)
(0.198736 -0.0205068 -6.16068e-11)
(0.197712 -0.0215394 -4.20541e-11)
(0.196122 -0.02223 -3.0741e-11)
(0.193835 -0.0225464 -2.47551e-11)
(0.190715 -0.0224664 -2.20831e-11)
(0.18662 -0.021976 -2.13529e-11)
(0.181411 -0.0210754 -2.161e-11)
(0.174956 -0.0197803 -2.21176e-11)
(0.16714 -0.0181249 -2.21002e-11)
(0.157867 -0.0161628 -2.0217e-11)
(0.147073 -0.0139673 -1.34099e-11)
(0.134729 -0.0116284 -1.76796e-11)
(0.120847 -0.00925039 -2.72652e-11)
(0.10548 -0.00694345 -2.82949e-11)
(0.0887223 -0.00482134 -1.48589e-11)
(0.0707022 -0.00298467 -1.0731e-12)
(0.0515749 -0.0015307 -1.34086e-11)
(0.0315156 -0.000514988 -1.47063e-11)
(0.0106973 -1.45233e-05 -7.63091e-12)
(0.203033 -0.00401422 7.07054e-11)
(0.203139 -0.00632353 1.25563e-10)
(0.203288 -0.00873081 1.94691e-10)
(0.203419 -0.0109404 7.26806e-11)
(0.20349 -0.0130543 -1.3195e-11)
(0.203434 -0.0149644 -8.61186e-11)
(0.203179 -0.0166792 -1.55224e-10)
(0.202637 -0.0181424 -1.0612e-10)
(0.201711 -0.0193335 -7.3278e-11)
(0.200291 -0.0202136 -5.19929e-11)
(0.19826 -0.0207583 -3.87111e-11)
(0.195493 -0.0209421 -3.08303e-11)
(0.191861 -0.0207511 -2.64576e-11)
(0.187235 -0.0201796 -2.42402e-11)
(0.181493 -0.019236 -2.32134e-11)
(0.174521 -0.0179428 -2.26795e-11)
(0.166226 -0.0163393 -2.21301e-11)
(0.156536 -0.0144808 -2.12817e-11)
(0.145408 -0.0124383 -2.06583e-11)
(0.132833 -0.0102954 -2.49881e-11)
(0.118837 -0.00814524 -3.43031e-11)
(0.103483 -0.00608309 -2.65645e-11)
(0.0868651 -0.00420478 -1.76167e-11)
(0.0691046 -0.00259268 -1.07577e-11)
(0.0503422 -0.00132514 -1.04887e-11)
(0.0307324 -0.000444494 -8.48562e-12)
(0.0104247 -1.23456e-05 -3.47155e-12)
(0.207383 -0.00384386 8.10503e-11)
(0.207421 -0.00604946 1.41019e-10)
(0.207468 -0.00834085 2.1338e-10)
(0.207459 -0.0104319 8.02734e-11)
(0.207352 -0.0124188 -1.33069e-11)
(0.207076 -0.0141964 -9.00525e-11)
(0.206559 -0.0157731 -1.61267e-10)
(0.20571 -0.0170954 -1.14052e-10)
(0.204432 -0.0181459 -8.19887e-11)
(0.202619 -0.0188903 -6.01749e-11)
(0.200156 -0.0193097 -4.57067e-11)
(0.196926 -0.0193851 -3.64154e-11)
(0.192809 -0.0191093 -3.06376e-11)
(0.18769 -0.0184837 -2.71237e-11)
(0.18146 -0.0175227 -2.49595e-11)
(0.174025 -0.0162539 -2.35204e-11)
(0.16531 -0.0147189 -2.25124e-11)
(0.155262 -0.0129731 -2.21801e-11)
(0.143856 -0.0110839 -2.36336e-11)
(0.131098 -0.00912764 -2.81101e-11)
(0.117025 -0.0071869 -3.56816e-11)
(0.101703 -0.00534393 -2.68104e-11)
(0.0852246 -0.00367941 -1.88804e-11)
(0.0677038 -0.00226103 -1.28231e-11)
(0.0492677 -0.00115227 -9.48454e-12)
(0.0300526 -0.000385516 -6.25969e-12)
(0.0101889 -1.05731e-05 -2.21126e-12)
(0.211534 -0.00366241 8.46255e-11)
(0.2115 -0.00575872 1.4413e-10)
(0.211439 -0.00792953 2.16779e-10)
(0.211282 -0.00989951 8.06227e-11)
(0.210989 -0.0117591 -1.35397e-11)
(0.210486 -0.0134071 -8.98483e-11)
(0.209699 -0.0148516 -1.58198e-10)
(0.20854 -0.0160425 -1.17349e-10)
(0.206913 -0.0169652 -8.80147e-11)
(0.204714 -0.0175903 -6.67716e-11)
(0.201834 -0.0179036 -5.17873e-11)
(0.198162 -0.017892 -4.15132e-11)
(0.19359 -0.0175539 -3.46086e-11)
(0.188014 -0.0168961 -2.99748e-11)
(0.181342 -0.0159378 -2.67471e-11)
(0.173493 -0.0147095 -2.42825e-11)
(0.16441 -0.0132538 -2.22443e-11)
(0.154055 -0.0116246 -2.09686e-11)
(0.142419 -0.00988481 -2.32146e-11)
(0.129517 -0.00810368 -2.7035e-11)
(0.115393 -0.00635402 -3.40767e-11)
(0.100115 -0.00470666 -2.6036e-11)
(0.0837731 -0.00322966 -1.84342e-11)
(0.0664723 -0.00197884 -1.1853e-11)
(0.0483276 -0.00100593 -8.43021e-12)
(0.0294601 -0.000335804 -5.26391e-12)
(0.00998389 -9.10404e-06 -1.76974e-12)
(0.215477 -0.00347401 8.29979e-11)
(0.215367 -0.00545783 1.31867e-10)
(0.215193 -0.00750582 1.57139e-10)
(0.214884 -0.00935446 7.03584e-11)
(0.214399 -0.0110886 -1.46726e-11)
(0.213665 -0.0126113 -8.49541e-11)
(0.212608 -0.0139307 -1.32183e-10)
(0.211141 -0.0150003 -1.15698e-10)
(0.20917 -0.0158082 -9.22942e-11)
(0.206596 -0.0163294 -7.23713e-11)
(0.203315 -0.016554 -5.72278e-11)
(0.199227 -0.016474 -4.62403e-11)
(0.19423 -0.0160923 -3.84291e-11)
(0.188235 -0.0154201 -3.28514e-11)
(0.181161 -0.0144796 -2.86765e-11)
(0.172944 -0.0133029 -2.51377e-11)
(0.163539 -0.0119327 -2.13032e-11)
(0.152922 -0.01042 -1.41364e-11)
(0.141094 -0.00882335 -2.04666e-11)
(0.128079 -0.00720483 -2.04227e-11)
(0.113924 -0.00562852 -2.83375e-11)
(0.0986985 -0.00415539 -2.43853e-11)
(0.0824867 -0.00284298 -1.70448e-11)
(0.0653868 -0.00173748 -6.72349e-12)
(0.0475026 -0.000881315 -7.15721e-12)
(0.0289417 -0.000293638 -4.85386e-12)
(0.00980501 -7.88271e-06 -1.65675e-12)
(0.219206 -0.00328224 8.72644e-11)
(0.219019 -0.00515238 1.45661e-10)
(0.218729 -0.00707735 2.17346e-10)
(0.218264 -0.00880615 7.91236e-11)
(0.217586 -0.0104182 -1.59619e-11)
(0.21662 -0.0118212 -9.33269e-11)
(0.215295 -0.0130234 -1.62353e-10)
(0.213525 -0.0139818 -1.25811e-10)
(0.21122 -0.0146874 -9.89161e-11)
(0.208284 -0.0151188 -7.81982e-11)
(0.204623 -0.0152703 -6.24679e-11)
(0.200142 -0.0151378 -5.07804e-11)
(0.194752 -0.014728 -4.22043e-11)
(0.188373 -0.0140552 -3.58898e-11)
(0.180937 -0.0131435 -3.11103e-11)
(0.172393 -0.0120259 -2.72841e-11)
(0.162706 -0.0107436 -2.40998e-11)
(0.151865 -0.00934502 -2.19726e-11)
(0.139877 -0.0078835 -2.42659e-11)
(0.126773 -0.00641482 -2.80039e-11)
(0.112603 -0.00499515 -3.66621e-11)
(0.0974333 -0.00367704 -2.74052e-11)
(0.0813448 -0.00250922 -1.97302e-11)
(0.0644277 -0.00153011 -1.28994e-11)
(0.0467763 -0.000774659 -9.25805e-12)
(0.0284867 -0.000257669 -5.78704e-12)
(0.00964831 -6.85645e-06 -1.94715e-12)
(0.22272 -0.00309008 9.12004e-11)
(0.222455 -0.00484703 1.5483e-10)
(0.222047 -0.00665047 2.3545e-10)
(0.221427 -0.00826234 8.38232e-11)
(0.220555 -0.00975682 -1.88946e-11)
(0.21936 -0.0110465 -1.02763e-10)
(0.217771 -0.0121397 -1.80648e-10)
(0.215705 -0.0129971 -1.36675e-10)
(0.213077 -0.0136119 -1.06453e-10)
(0.209797 -0.0139666 -8.4262e-11)
(0.205777 -0.0140584 -6.76505e-11)
(0.200929 -0.0138868 -5.52319e-11)
(0.195176 -0.0134614 -4.59816e-11)
(0.188447 -0.0127985 -3.90794e-11)
(0.180685 -0.0119236 -3.38829e-11)
(0.17185 -0.0108692 -2.99504e-11)
(0.161917 -0.00967499 -2.71517e-11)
(0.150883 -0.00838602 -2.592e-11)
(0.138762 -0.00705093 -2.73959e-11)
(0.125589 -0.00571951 -3.17196e-11)
(0.111414 -0.00444101 -4.0029e-11)
(0.0963024 -0.00326074 -3.02779e-11)
(0.0803294 -0.00222011 -2.23064e-11)
(0.0635785 -0.00135118 -1.57574e-11)
(0.0461353 -0.000682949 -1.1544e-11)
(0.0280861 -0.000226833 -7.45603e-12)
(0.0095106 -5.99046e-06 -2.60419e-12)
(0.226021 -0.00290002 9.09277e-11)
(0.225678 -0.00454563 1.51399e-10)
(0.225153 -0.00623034 2.17903e-10)
(0.224378 -0.00772924 7.87211e-11)
(0.223315 -0.00911147 -2.40265e-11)
(0.221894 -0.0102946 -1.10251e-10)
(0.220048 -0.0112873 -1.87527e-10)
(0.217696 -0.0120533 -1.45168e-10)
(0.214759 -0.0125881 -1.13532e-10)
(0.211152 -0.0128774 -9.01628e-11)
(0.206794 -0.0129213 -7.26952e-11)
(0.201606 -0.0127218 -5.95887e-11)
(0.195518 -0.0122906 -4.97462e-11)
(0.18847 -0.0116457 -4.23457e-11)
(0.180416 -0.0108127 -3.67738e-11)
(0.171322 -0.00982339 -3.26039e-11)
(0.161174 -0.00871551 -2.96033e-11)
(0.149975 -0.00753063 -2.77729e-11)
(0.137743 -0.00631291 -2.75522e-11)
(0.124516 -0.00510669 -3.15528e-11)
(0.110345 -0.00395517 -4.04536e-11)
(0.0952906 -0.00289745 -3.28985e-11)
(0.0794251 -0.00196885 -2.38987e-11)
(0.062825 -0.00119623 -1.61488e-11)
(0.0455681 -0.000603761 -1.41248e-11)
(0.0277323 -0.000200278 -1.05201e-11)
(0.00938918 -5.25453e-06 -4.14668e-12)
(0.229112 -0.00271404 8.75648e-11)
(0.228692 -0.00425123 1.36847e-10)
(0.228051 -0.00582105 1.58579e-10)
(0.227123 -0.0072117 6.52215e-11)
(0.225873 -0.00848756 -3.02287e-11)
(0.224232 -0.00957127 -1.16184e-10)
(0.222138 -0.0104714 -1.93987e-10)
(0.219512 -0.0111552 -1.51767e-10)
(0.216281 -0.0116199 -1.19644e-10)
(0.212365 -0.0118541 -9.55627e-11)
(0.207691 -0.0118599 -7.74505e-11)
(0.202187 -0.0116416 -6.37865e-11)
(0.195793 -0.0112125 -5.34559e-11)
(0.188456 -0.0105912 -4.56363e-11)
(0.180138 -0.00980318 -3.97153e-11)
(0.170815 -0.00887919 -3.52167e-11)
(0.160479 -0.00785457 -3.16591e-11)
(0.149137 -0.00676761 -2.81066e-11)
(0.136813 -0.00565821 -2.17498e-11)
(0.123545 -0.00456583 -2.32788e-11)
(0.109382 -0.00352835 -3.67179e-11)
(0.0943844 -0.00257961 -3.84613e-11)
(0.0786184 -0.00174982 -2.4385e-11)
(0.0621549 -0.00106157 -9.27779e-12)
(0.0450649 -0.000535127 -1.92298e-11)
(0.0274191 -0.000177317 -1.80488e-11)
(0.00928184 -4.62644e-06 -9.33334e-12)
(0.232 -0.00253369 9.33069e-11)
(0.231503 -0.00396621 1.51313e-10)
(0.230748 -0.00542571 2.13593e-10)
(0.229672 -0.0067134 7.36791e-11)
(0.22824 -0.00788907 -3.0867e-11)
(0.226387 -0.00888038 -1.19075e-10)
(0.224054 -0.00969595 -1.98011e-10)
(0.221167 -0.010306 -1.56283e-10)
(0.217657 -0.0107095 -1.24438e-10)
(0.213452 -0.0108973 -1.00186e-10)
(0.208483 -0.0108734 -8.17611e-11)
(0.202688 -0.0106438 -6.77447e-11)
(0.196012 -0.0102226 -5.70651e-11)
(0.188413 -0.0096288 -4.89302e-11)
(0.179859 -0.00888738 -4.27575e-11)
(0.170332 -0.00802757 -3.81242e-11)
(0.159831 -0.00708236 -3.47334e-11)
(0.148367 -0.00608682 -3.24306e-11)
(0.135966 -0.00507693 -3.15814e-11)
(0.122666 -0.0040878 -3.56048e-11)
(0.108515 -0.00315266 -4.42993e-11)
(0.0935721 -0.00230088 -3.71245e-11)
(0.0778978 -0.00155835 -2.71116e-11)
(0.061558 -0.000944189 -1.84163e-11)
(0.0446177 -0.000475437 -1.59829e-11)
(0.0271411 -0.000157391 -1.17166e-11)
(0.00918669 -4.08758e-06 -4.53509e-12)
(0.23469 -0.00236014 1.06244e-10)
(0.23412 -0.00369233 1.66339e-10)
(0.233255 -0.00504664 2.31501e-10)
(0.232034 -0.00623695 8.13107e-11)
(0.230426 -0.00731876 -2.89169e-11)
(0.22837 -0.0082246 -1.19487e-10)
(0.225808 -0.00896306 -2.00371e-10)
(0.222673 -0.00950726 -1.58859e-10)
(0.218901 -0.00985742 -1.27681e-10)
(0.214424 -0.0100065 -1.03842e-10)
(0.209182 -0.00995997 -8.55148e-11)
(0.203118 -0.00972485 -7.14005e-11)
(0.196186 -0.00931597 -6.05322e-11)
(0.18835 -0.00875219 -5.21864e-11)
(0.179583 -0.00805765 -4.58269e-11)
(0.169876 -0.00726 -4.10871e-11)
(0.15923 -0.00638982 -3.78167e-11)
(0.14766 -0.00547914 -3.62639e-11)
(0.135193 -0.00456037 -3.73728e-11)
(0.121869 -0.00366471 -4.16715e-11)
(0.107735 -0.00282138 -4.96423e-11)
(0.092843 -0.00205589 -3.84337e-11)
(0.0772531 -0.00139055 -2.88317e-11)
(0.0610253 -0.000841562 -2.07478e-11)
(0.0442193 -0.000423362 -1.51477e-11)
(0.0268938 -0.000140041 -9.6218e-12)
(0.00910212 -3.62348e-06 -3.30135e-12)
(0.237193 -0.00219423 1.39065e-10)
(0.236551 -0.00343086 1.8032e-10)
(0.235579 -0.00468543 2.30725e-10)
(0.234219 -0.00578412 8.31729e-11)
(0.232443 -0.00677838 -2.62656e-11)
(0.230192 -0.00760543 -1.15437e-10)
(0.227413 -0.00827383 -1.96274e-10)
(0.224044 -0.00875929 -1.57132e-10)
(0.220025 -0.00906314 -1.28868e-10)
(0.215296 -0.00918015 -1.06452e-10)
(0.2098 -0.00911667 -8.87046e-11)
(0.20349 -0.00888072 -7.47498e-11)
(0.196323 -0.00848728 -6.3846e-11)
(0.188271 -0.0079549 -5.53795e-11)
(0.179315 -0.00730666 -4.88468e-11)
(0.169447 -0.00656851 -4.38427e-11)
(0.158673 -0.00576872 -4.01079e-11)
(0.147012 -0.00493646 -3.79647e-11)
(0.134491 -0.00410088 -4.0448e-11)
(0.121149 -0.00328973 -4.46316e-11)
(0.107031 -0.00252873 -5.04282e-11)
(0.092188 -0.00184011 -3.93261e-11)
(0.0766755 -0.00124313 -2.94514e-11)
(0.060549 -0.000751599 -2.05363e-11)
(0.0438637 -0.000377799 -1.45643e-11)
(0.0266734 -0.000124886 -8.8754e-12)
(0.00902679 -3.22211e-06 -2.93283e-12)
(0.239516 -0.00203653 2.68874e-10)
(0.238806 -0.00318262 1.94463e-10)
(0.237731 -0.00434309 1.82312e-10)
(0.236238 -0.00535595 7.5921e-11)
(0.2343 -0.00626885 -2.39937e-11)
(0.231864 -0.00702352 -1.05891e-10)
(0.228881 -0.00762838 -1.61675e-10)
(0.225292 -0.00806156 -1.5017e-10)
(0.221042 -0.00832529 -1.28665e-10)
(0.216077 -0.00841578 -1.08461e-10)
(0.210347 -0.00834014 -9.15447e-11)
(0.20381 -0.00810693 -7.7886e-11)
(0.19643 -0.00773109 -6.70516e-11)
(0.188184 -0.00723061 -5.85574e-11)
(0.179056 -0.00662742 -5.19155e-11)
(0.169045 -0.00594575 -4.6558e-11)
(0.158159 -0.00521162 -4.15349e-11)
(0.146418 -0.00445155 -3.48763e-11)
(0.133851 -0.00369176 -4.20288e-11)
(0.120496 -0.00295694 -4.64042e-11)
(0.106395 -0.00226978 -4.79898e-11)
(0.0915989 -0.00164967 -4.00811e-11)
(0.0761572 -0.00111332 -2.97151e-11)
(0.0601224 -0.000672541 -1.69841e-11)
(0.0435457 -0.000337827 -1.40283e-11)
(0.0264764 -0.000111612 -8.79779e-12)
(0.00895954 -2.87377e-06 -2.90693e-12)
(0.24167 -0.00188735 1.65785e-10)
(0.240894 -0.00294806 1.93609e-10)
(0.23972 -0.00402014 2.40223e-10)
(0.2381 -0.00495291 8.65893e-11)
(0.23601 -0.00579044 -2.16637e-11)
(0.233399 -0.00647876 -1.09289e-10)
(0.230222 -0.00702612 -1.8547e-10)
(0.226426 -0.00741285 -1.55195e-10)
(0.221961 -0.00764186 -1.31179e-10)
(0.216777 -0.00771059 -1.11057e-10)
(0.210832 -0.00762662 -9.445e-11)
(0.204087 -0.00739887 -8.09672e-11)
(0.196513 -0.00704198 -7.0218e-11)
(0.18809 -0.00657326 -6.18161e-11)
(0.178809 -0.0060134 -5.53596e-11)
(0.16867 -0.00538494 -5.04584e-11)
(0.157686 -0.00471177 -4.6813e-11)
(0.145876 -0.00401797 -4.47597e-11)
(0.13327 -0.00332712 -4.80013e-11)