/*--------------------------------*- C++ -*----------------------------------*\
| =========                 |                                                 |
| \\      /  F ield         | OpenFOAM: The Open Source CFD Toolbox           |
|  \\    /   O peration     | Version:  2212                                  |
|   \\  /    A nd           | Website:  www.openfoam.com                      |
|    \\/     M anipulation  |                                                 |
\*---------------------------------------------------------------------------*/
FoamFile
{
    version     2.0;
    format      ascii;
    arch        "LSB;label=32;scalar=64";
    class       volScalarField;
    location    "30.00000000";
    object      A1C2H3_0;
}
// * * * * * * * * * * * * * * * * * * * * * * * * * * * * * * * * * * * * * //

dimensions      [0 0 0 0 0 0 0];

internalField   nonuniform List<scalar> 
3000
(
9.45200155e-24
1.061337328e-23
1.236448624e-23
1.469542647e-23
1.758056803e-23
2.093987839e-23
2.457036334e-23
2.803134106e-23
3.047789105e-23
3.549186634e-23
4.001381099e-23
4.682886261e-23
5.592003735e-23
6.726952501e-23
8.080532471e-23
9.628707453e-23
1.129368649e-22
1.276888843e-22
7.952206431e-23
9.03608137e-23
1.068524933e-22
1.292180937e-22
1.578331933e-22
1.930763008e-22
2.347682839e-22
2.805487244e-22
3.196358747e-22
1.515331855e-22
1.740051101e-22
2.0870432e-22
2.567712486e-22
3.198480367e-22
3.994300875e-22
4.94916951e-22
5.985041214e-22
6.81854093e-22
2.692181417e-22
3.129731807e-22
3.816217684e-22
4.786164747e-22
6.084482754e-22
7.746050656e-22
9.740243297e-22
1.185061499e-21
1.346551146e-21
4.631634879e-22
5.453936688e-22
6.762998457e-22
8.642536231e-22
1.119339237e-21
1.448139304e-21
1.841224439e-21
2.249638742e-21
2.552889721e-21
7.865782581e-22
9.377314871e-22
1.181181149e-21
1.534698754e-21
2.018077806e-21
2.641133688e-21
3.378413132e-21
4.128219802e-21
4.669632251e-21
1.331499935e-21
1.605107979e-21
2.049681533e-21
2.70018231e-21
3.592956437e-21
4.740946183e-21
6.086628343e-21
7.434082461e-21
8.390065736e-21
2.257488625e-21
2.747415321e-21
3.54856868e-21
4.726636547e-21
6.346120321e-21
8.422556773e-21
1.083860085e-20
1.323230296e-20
1.491180111e-20
3.841117427e-21
4.711459219e-21
6.141108387e-21
8.249982809e-21
1.115057628e-20
1.485958435e-20
1.915113655e-20
2.337187628e-20
2.631146213e-20
6.562380159e-21
8.099582914e-21
1.063245499e-20
1.437587814e-20
1.952430758e-20
2.609236152e-20
3.366044449e-20
4.106582282e-20
4.619805384e-20
1.12551377e-20
1.395879071e-20
1.842284359e-20
2.502762483e-20
3.410764224e-20
4.566847056e-20
5.894799363e-20
7.189645818e-20
8.084230307e-20
1.936984455e-20
2.411145391e-20
3.19508128e-20
4.355535626e-20
5.949800777e-20
7.975890632e-20
1.029723971e-19
1.255535131e-19
1.411389133e-19
3.343207259e-20
4.173357265e-20
5.547029149e-20
7.580710921e-20
1.037196314e-19
1.391171476e-19
1.795552502e-19
2.188117328e-19
2.460319848e-19
5.784071881e-20
7.236396075e-20
9.641294279e-20
1.320201508e-19
1.808425181e-19
2.425866047e-19
3.127428971e-19
3.803842375e-19
4.286315413e-19
1.002486512e-19
1.256503688e-19
1.677521836e-19
2.301355464e-19
3.156867723e-19
4.236929133e-19
5.452294921e-19
6.567326591e-19
7.482018487e-19
1.73934485e-19
2.1833153e-19
2.920027132e-19
4.013539282e-19
5.518143686e-19
7.433120713e-19
9.639924105e-19
1.184419354e-18
1.32220831e-18
3.018878744e-19
3.793325062e-19
5.078963634e-19
6.987687627e-19
9.61313339e-19
1.294824859e-18
1.676294975e-18
2.046011426e-18
2.296936046e-18
5.239590121e-19
6.587966578e-19
8.826406297e-19
1.214874266e-18
1.671503042e-18
2.250689531e-18
2.911576357e-18
3.550516298e-18
3.987724629e-18
9.093000759e-19
1.143779055e-18
1.533017598e-18
2.110595487e-18
2.904069692e-18
3.909874619e-18
5.056811141e-18
6.165313269e-18
6.924383807e-18
1.577962505e-18
1.985451699e-18
2.661875059e-18
3.665472778e-18
5.043902098e-18
6.79069274e-18
8.782028589e-18
1.070624726e-17
1.202385445e-17
2.738379395e-18
3.446306467e-18
4.621444689e-18
6.364849089e-18
8.759044974e-18
1.17924362e-17
1.524970508e-17
1.85897125e-17
2.087640209e-17
4.752419036e-18
5.982082216e-18
8.023251062e-18
1.105123431e-17
1.520889926e-17
2.047543543e-17
2.647636297e-17
3.227220072e-17
3.623927496e-17
8.248251344e-18
1.038389899e-17
1.39287637e-17
1.918679198e-17
2.640509039e-17
3.55461207e-17
4.595850979e-17
5.601167342e-17
6.289065332e-17
1.431611482e-17
1.802478711e-17
2.418001973e-17
3.330832863e-17
4.583649388e-17
6.169627016e-17
7.975445847e-17
9.718210786e-17
1.091024239e-16
2.484758546e-17
3.128687751e-17
4.197233275e-17
5.781492494e-17
7.955020313e-17
1.07052793e-16
1.383507908e-16
1.685387893e-16
1.891761135e-16
4.312281517e-17
5.430063753e-17
7.284482008e-17
1.003290521e-16
1.38017503e-16
1.856768646e-16
2.398745188e-16
2.921104538e-16
3.277948334e-16
7.482553119e-17
9.422217275e-17
1.263907446e-16
1.740441998e-16
2.393472119e-16
3.218593449e-16
4.156024052e-16
5.058614742e-16
5.674617767e-16
1.297938951e-16
1.634354212e-16
2.192035054e-16
3.017627086e-16
4.148017767e-16
5.574768159e-16
7.193710082e-16
8.750422106e-16
9.811500779e-16
2.250333422e-16
2.833388191e-16
3.799357293e-16
5.228167652e-16
7.182286291e-16
9.645315035e-16
1.243566047e-15
1.511415605e-15
1.693683541e-15
3.898854608e-16
4.908349051e-16
6.579546692e-16
9.048806438e-16
1.24210712e-15
1.666409321e-15
2.14612135e-15
2.605601914e-15
2.917611235e-15
6.748642155e-16
8.494081627e-16
1.138083759e-15
1.564027302e-15
2.144691316e-15
2.873677954e-15
3.695771067e-15
4.481054316e-15
5.012892108e-15
1.166698676e-15
1.467946898e-15
1.96557646e-15
2.698576733e-15
3.695604365e-15
4.943903058e-15
6.347247287e-15
7.683301751e-15
8.58523802e-15
2.013819705e-15
2.532550834e-15
3.388164563e-15
4.645818577e-15
6.351819182e-15
8.480712098e-15
1.086503058e-14
1.312598151e-14
1.464642658e-14
3.469309875e-15
4.359956155e-15
5.826359634e-15
7.976309229e-15
1.088314075e-14
1.449623258e-14
1.852482399e-14
2.232710771e-14
2.487261407e-14
5.962850149e-15
7.486659624e-15
9.990073222e-15
1.364924118e-14
1.857738437e-14
2.467455934e-14
3.143777348e-14
3.778673948e-14
4.201547487e-14
1.02204486e-14
1.281648284e-14
1.707041152e-14
2.326595133e-14
3.157225847e-14
4.179412689e-14
5.306585265e-14
6.358312327e-14
7.05483522e-14
1.746225898e-14
2.186290713e-14
2.905217004e-14
3.947924274e-14
5.338606987e-14
7.039660726e-14
8.903083732e-14
1.063017579e-13
1.176689246e-13
2.972689038e-14
3.714355989e-14
4.921794089e-14
6.664702069e-14
8.975629963e-14
1.178330881e-13
1.483681102e-13
1.764651529e-13
1.94835844e-13
5.039866099e-14
6.281640125e-14
8.295286288e-14
1.118642024e-13
1.49948688e-13
1.958801017e-13
2.454459229e-13
2.90706515e-13
3.200958577e-13
8.50571519e-14
1.056956413e-13
1.390154907e-13
1.865730261e-13
2.487763548e-13
3.232058627e-13
4.028686889e-13
4.750368147e-13
5.215690776e-13
1.428330922e-13
1.768574685e-13
2.315227662e-13
3.090471156e-13
4.096778194e-13
5.290909414e-13
6.558204978e-13
7.697036245e-13
8.426158003e-13
2.38550659e-13
2.941512882e-13
3.830162524e-13
5.081804381e-13
6.693572245e-13
8.589815781e-13
1.058497759e-12
1.236348366e-12
1.349425868e-12
3.960767988e-13
4.86084971e-13
6.29147136e-13
8.29204428e-13
1.084707134e-12
1.3826974e-12
1.69354902e-12
1.968458991e-12
2.14207472e-12
6.535008236e-13
7.977710466e-13
1.025758819e-12
1.342226801e-12
1.74303815e-12
2.206455218e-12
2.68581483e-12
3.106518866e-12
3.370511379e-12
1.071055992e-12
1.29992982e-12
1.659485259e-12
2.154863837e-12
2.777063498e-12
3.490343554e-12
4.22218086e-12
4.859812212e-12
5.257526793e-12
1.743100968e-12
2.102378989e-12
2.663457649e-12
3.430765175e-12
4.386676121e-12
5.473538497e-12
6.580077636e-12
7.53761955e-12
8.131555861e-12
2.816046515e-12
3.374044053e-12
4.240372412e-12
5.41656259e-12
6.870372504e-12
8.510458153e-12
1.016815331e-11
1.159360107e-11
1.24732744e-11
4.51490176e-12
5.372364123e-12
6.696090049e-12
8.480788691e-12
1.067030584e-11
1.312230263e-11
1.558401248e-11
1.768862912e-11
1.898147181e-11
7.182209676e-12
8.486134282e-12
1.048820548e-11
1.316971496e-11
1.643650665e-11
2.007014347e-11
2.369578712e-11
2.677933963e-11
2.866576201e-11
1.133466244e-11
1.329744617e-11
1.629579352e-11
2.028699831e-11
2.511794652e-11
3.045807353e-11
3.575685997e-11
4.024238796e-11
4.297655915e-11
1.774480342e-11
2.067064974e-11
2.51189937e-11
3.100672854e-11
3.809106767e-11
4.587813157e-11
5.356655585e-11
6.004815495e-11
6.398662458e-11
2.755816587e-11
3.187942624e-11
3.842030759e-11
4.703260628e-11
5.733996565e-11
6.861302137e-11
7.969451919e-11
8.900302162e-11
9.464394279e-11
4.245732175e-11
4.878380215e-11
5.832155796e-11
7.082098086e-11
8.570914657e-11
1.019198647e-10
1.177937472e-10
1.310862996e-10
1.391229306e-10
6.489626697e-11
7.40831666e-11
8.788364717e-11
1.058939103e-10
1.272552444e-10
1.504230961e-10
1.730332157e-10
1.919157088e-10
2.033097172e-10
9.84293103e-11
1.116697098e-10
1.314961058e-10
1.572747834e-10
1.877358004e-10
2.206595581e-10
2.526968821e-10
2.793908528e-10
2.954722427e-10
1.481711699e-10
1.671219474e-10
1.954196874e-10
2.320932463e-10
2.75286185e-10
3.218316929e-10
3.670099457e-10
4.045797619e-10
4.271829496e-10
2.214382883e-10
2.483913121e-10
2.885394027e-10
3.40422625e-10
4.013544714e-10
4.668456656e-10
5.302759194e-10
5.829375991e-10
6.14586483e-10
3.286394809e-10
3.667540705e-10
4.234063254e-10
4.964358878e-10
5.819892235e-10
6.737388383e-10
7.624380101e-10
8.359785949e-10
8.801379683e-10
4.845086654e-10
5.381268833e-10
6.17674667e-10
7.199970366e-10
8.396090997e-10
9.676382634e-10
1.091218771e-09
1.193565344e-09
1.254982299e-09
7.098055593e-10
7.848793909e-10
8.96078509e-10
1.03884632e-09
1.205428905e-09
1.383442131e-09
1.555046654e-09
1.697037993e-09
1.782205205e-09
1.033654589e-09
1.138324134e-09
1.293143306e-09
1.491593262e-09
1.722778009e-09
1.969483497e-09
2.207051423e-09
2.403484117e-09
2.521268342e-09
1.49675127e-09
1.642126573e-09
1.856894805e-09
2.131805548e-09
2.451628738e-09
2.792525501e-09
3.120508253e-09
3.391554746e-09
3.554049521e-09
2.155743295e-09
2.356960475e-09
2.653917254e-09
3.033579639e-09
3.474760191e-09
3.944556005e-09
4.396239844e-09
4.769370605e-09
4.993053329e-09
3.089195639e-09
3.366841866e-09
3.776229267e-09
4.299106523e-09
4.906123562e-09
5.552004411e-09
6.172654587e-09
6.685243129e-09
6.992545156e-09
4.405680727e-09
4.787713743e-09
5.350595575e-09
6.068909838e-09
6.902155207e-09
7.788201199e-09
8.639313886e-09
9.342164438e-09
9.763600163e-09
6.254701948e-09
6.77902989e-09
7.551082073e-09
8.535639435e-09
9.677008885e-09
1.089014654e-08
1.205518738e-08
1.301730248e-08
1.359435072e-08
8.84136707e-09
9.559304428e-09
1.061589449e-08
1.196255468e-08
1.352295059e-08
1.518094779e-08
1.677306834e-08
1.808806737e-08
1.887705507e-08
1.244598039e-08
1.342685619e-08
1.486981789e-08
1.670812612e-08
1.883747257e-08
2.109961729e-08
2.327196903e-08
2.506667387e-08
2.614397539e-08
1.745001683e-08
1.87872797e-08
2.075388794e-08
2.325850999e-08
2.615902024e-08
2.924026732e-08
3.219966578e-08
3.464547615e-08
3.611440292e-08
2.437026717e-08
2.618950358e-08
2.886425678e-08
3.22699822e-08
3.621355328e-08
4.040305644e-08
4.442786492e-08
4.775563383e-08
4.975543856e-08
3.390327706e-08
3.637262472e-08
4.000253192e-08
4.4623714e-08
4.997442814e-08
5.565946738e-08
6.112264085e-08
6.56418053e-08
6.835924371e-08
4.698250286e-08
5.032598653e-08
5.524011312e-08
6.149546959e-08
6.873822283e-08
7.643455347e-08
8.383277228e-08
8.995546424e-08
9.363932958e-08
6.485081327e-08
6.936513624e-08
7.599915804e-08
8.444282859e-08
9.421904425e-08
1.04608593e-07
1.145982859e-07
1.22869017e-07
1.278479705e-07
8.915099784e-08
9.522626918e-08
1.041526899e-07
1.155123001e-07
1.286634814e-07
1.426400619e-07
1.560808423e-07
1.672121022e-07
1.739159597e-07
1.220367124e-07
1.301814568e-07
1.42145933e-07
1.573681214e-07
1.749876285e-07
1.937109252e-07
2.117165301e-07
2.266302667e-07
2.356146735e-07
1.663057094e-07
1.771762825e-07
1.93140159e-07
2.134435715e-07
2.369364633e-07
2.618939374e-07
2.858901784e-07
3.05764635e-07
3.177387386e-07
2.255562084e-07
2.399904227e-07
2.611791102e-07
2.881142651e-07
3.192643525e-07
3.523399877e-07
3.841285169e-07
4.104492903e-07
4.26305681e-07
3.043658394e-07
3.234202096e-07
3.513764644e-07
3.868911803e-07
4.27933644e-07
4.714816319e-07
5.133075452e-07
5.479212105e-07
5.687671806e-07
4.084907837e-07
4.334803564e-07
4.701208852e-07
5.166291943e-07
5.703262289e-07
6.272468411e-07
6.818674736e-07
7.270355512e-07
7.542238302e-07
5.450806674e-07
5.776199582e-07
6.252931326e-07
6.857447681e-07
7.554609711e-07
8.29275325e-07
9.000271165e-07
9.584776469e-07
9.936370413e-07
7.229025697e-07
7.649456614e-07
8.264875846e-07
9.044347752e-07
9.942087883e-07
1.089128206e-06
1.179987836e-06
1.254963638e-06
1.300025143e-06
9.525653182e-07
1.006442863e-06
1.085228857e-06
1.184886773e-06
1.299494139e-06
1.420480988e-06
1.536119378e-06
1.631416694e-06
1.688635257e-06
1.246733828e-06
1.315185252e-06
1.415173091e-06
1.541469258e-06
1.686474916e-06
1.839292023e-06
1.985113531e-06
2.105110983e-06
2.177081115e-06
1.620322111e-06
1.706519515e-06
1.832282438e-06
1.990895653e-06
2.17269076e-06
2.363932027e-06
2.546099075e-06
2.695774238e-06
2.78543833e-06
2.090655143e-06
2.198220591e-06
2.354968578e-06
2.552348049e-06
2.778166491e-06
3.015269458e-06
3.240709701e-06
3.425641803e-06
3.536290385e-06
2.677592657e-06
2.810601848e-06
3.004184594e-06
3.247551214e-06
3.525466512e-06
3.816704348e-06
4.093099164e-06
4.319457137e-06
4.454720696e-06
3.403594939e-06
3.566570307e-06
3.80346519e-06
4.10079323e-06
4.439694017e-06
4.794146305e-06
5.129900292e-06
5.404416102e-06
5.568248514e-06
4.293733317e-06
4.491625284e-06
4.778908706e-06
5.138887731e-06
5.548432006e-06
5.97593478e-06
6.380126903e-06
6.710054803e-06
6.906708779e-06
5.375638962e-06
5.613795689e-06
5.959098416e-06
6.391076344e-06
6.881625727e-06
7.392702187e-06
7.875020033e-06
8.268082988e-06
8.502078314e-06
6.679388984e-06
6.963515513e-06
7.374963418e-06
7.8888725e-06
8.47140861e-06
9.077182774e-06
9.647842055e-06
1.011216706e-05
1.038825264e-05
8.237331594e-06
8.573439772e-06
9.059581961e-06
9.665850194e-06
1.035187595e-05
1.10639721e-05
1.173362402e-05
1.227766841e-05
1.260077929e-05
1.008385463e-05
1.047820553e-05
1.104793231e-05
1.175738325e-05
1.255881234e-05
1.33892435e-05
1.416887295e-05
1.480134391e-05
1.51765546e-05
1.225510388e-05
1.271414463e-05
1.337659805e-05
1.420034227e-05
1.512938027e-05
1.609042917e-05
1.699124665e-05
1.772101633e-05
1.815349174e-05
1.478865916e-05
1.531895623e-05
1.608343591e-05
1.703275738e-05
1.810177811e-05
1.920587395e-05
2.02392044e-05
2.10752228e-05
2.157016799e-05
1.772317727e-05
1.833134813e-05
1.920721518e-05
2.02934558e-05
2.15148761e-05
2.277447046e-05
2.395164159e-05
2.490284946e-05
2.546545953e-05
2.10980113e-05
2.179065632e-05
2.278723782e-05
2.402168304e-05
2.540783926e-05
2.683528401e-05
2.816751691e-05
2.924276044e-05
2.987817149e-05
2.495281608e-05
2.573645229e-05
2.686294867e-05
2.825671681e-05
2.981974568e-05
3.142717553e-05
3.292547955e-05
3.413342874e-05
3.484667093e-05
2.932714912e-05
3.020814737e-05
3.147354454e-05
3.303748213e-05
3.478920824e-05
3.658843019e-05
3.826350425e-05
3.961257618e-05
4.040852973e-05
3.426007601e-05
3.524460258e-05
3.665759054e-05
3.840217547e-05
4.035400749e-05
4.235639891e-05
4.421854062e-05
4.571682892e-05
4.660018359e-05
3.978978847e-05
4.088375211e-05
4.245265123e-05
4.438790521e-05
4.655074217e-05
4.876715898e-05
5.082618285e-05
5.248139428e-05
5.345661294e-05
4.595324226e-05
4.716224742e-05
4.889494332e-05
5.103035467e-05
5.341450347e-05
5.585519943e-05
5.812036506e-05
5.993976379e-05
6.101105036e-05
5.27858214e-05
5.411512799e-05
5.601901565e-05
5.836347316e-05
6.0978578e-05
6.36531357e-05
6.613308644e-05
6.812344647e-05
6.929471863e-05
6.032103383e-05
6.17755238e-05
6.385746123e-05
6.641919937e-05
6.92741834e-05
7.219145733e-05
7.489416969e-05
7.706173566e-05
7.833660225e-05
6.859024282e-05
7.017439359e-05
7.244066501e-05
7.522722053e-05
7.83302397e-05
8.149831134e-05
8.443105517e-05
8.67815115e-05
8.816325469e-05
7.762243689e-05
7.934030149e-05
8.17965899e-05
8.481476955e-05
8.817317849e-05
9.159932314e-05
9.476863225e-05
9.730708033e-05
9.879864254e-05
8.74440404e-05
8.9299234e-05
9.195060264e-05
9.520646156e-05
9.882679077e-05
0.0001025174555
0.0001059291084
0.0001086600517
0.0001102640269
9.807876536e-05
0.0001000744578
0.00010292534
0.0001064241699
0.0001103121137
0.0001142729061
0.0001179319156
0.000120859252
0.0001225778813
0.0001095475042
0.0001116864179
0.0001147406145
0.0001184869414
0.0001226473553
0.0001268830412
0.0001307936538
0.0001339206744
0.0001357558455
0.0001218682626
0.0001241526755
0.0001274133593
0.0001314109484
0.000135847856
0.0001403623664
0.0001445280678
0.0001478574625
0.0001498107126
0.0001350561296
0.0001374878825
0.0001409576081
0.000145209477
0.0001499260834
0.000154722529
0.0001591460578
0.0001626799253
0.000164752447
0.0001491232833
0.0001517037904
0.0001553845101
0.0001598929471
0.0001648916601
0.0001699723514
0.0001746557179
0.0001783955809
0.0001805882312
0.0001640790281
0.0001668092909
0.0001707023739
0.0001754689618
0.0001807514176
0.000186117892
0.0001910624022
0.0001950092265
0.0001973225376
0.0001799298599
0.0001828104835
0.0001869167389
0.0001919423833
0.000197509477
0.000203162529
0.0002083688126
0.000212523029
0.0002149572215
0.0001966795558
0.0001997107671
0.0002040304698
0.0002093154296
0.0002151673495
0.0002211070649
0.0002265751067
0.0002309366361
0.000233491633
0.0002143292847
0.0002175109517
0.0002220438698
0.0002275877909
0.0002337240549
0.0002399498478
0.000245679021
0.0002502473009
0.0002529227437
0.0002328777334
0.0002362093859
0.0002409548096
0.0002467567599
0.0002531762543
0.0002596869057
0.0002656760076
0.0002704500202
0.000273245285
0.0002523212467
0.0002558020972
0.0002607588686
0.0002668173743
0.000273518393
0.0002803120906
0.0002865593789
0.0002915376801
0.0002944518947
0.0002726539756
0.0002762829408
0.0002814494843
0.0002877625661
0.000294742851
0.0003018172299
0.0003083204598
0.0003135012088
0.0003165332701
0.000293868033
0.000297643755
0.0003030181073
0.0003095833176
0.0003168400988
0.0003241922818
0.0003309487433
0.0003363297319
0.000339478323
0.0003159536513
0.0003198745188
0.0003254543591
0.0003322688181
0.0003397988541
0.0003474254923
0.0003544320468
0.0003600107292
0.0003632743367
0.0003388993408
0.00034296351
0.0003487461892
0.000355806621
0.0003636062382
0.000371503551
0.0003787566683
0.0003845301896
0.0003879071205
0.0003626920525
0.0003668974652
0.0003728800326
0.0003801827978
0.0003882479276
0.0003964117409
0.0004039075354
0.0004098727619
0.0004133611613
0.0003873173428
0.0003916617453
0.000397840975
0.0004053821034
0.000413708317
0.0004221340984
0.0004298683602
0.0004360219039
0.0004396197701
0.0004127595191
0.0004172404782
0.0004236128937
0.0004313881153
0.0004399706602
0.0004486535552
0.0004566217841
0.0004629600288
0.0004666652281
0.0004390017755
0.0004436167031
0.0004501786048
0.0004581833795
0.0004670172114
0.0004759520773
0.000484149514
0.0004906686418
0.0004944789245
0.0004660263145
0.0004707724872
0.0004775199848
0.0004857495378
0.000494829356
0.0005040107961
0.000512432454
0.0005191284696
0.0005230414838
0.0004938144987
0.0004986890709
0.0005056181051
0.0005140674602
0.0005233877391
0.0005328101348
0.0005414508283
0.000548319582
0.0005523328872
0.0005223469765
0.0005273469951
0.000534453356
0.0005431173593
0.0005526723829
0.0005623299248
0.0005711842974
0.0005782215071
0.0005823325869
0.0005516038008
0.0005567262195
0.0005640055674
0.0005728789106
0.0005826628003
0.0005925495161
0.0006016120664
0.0006088133379
0.0006130196121
0.0005815645379
0.0005868062312
0.0005942541156
0.0006033313593
0.0006133380981
0.0006234478791
0.0006327129851
0.0006400738319
0.0006443726679
0.0006122083692
0.0006175661448
0.0006251780226
0.0006344536178
0.0006446770715
0.0006550036994
0.0006644656417
0.0006719815023
0.0006763702257
0.0006435141836
0.0006489847948
0.0006567560478
0.0006662243569
0.0006766582985
0.0006871954667
0.0006968484478
0.0007045147021
0.0007089906059
0.0006754606633
0.0006810408205
0.0006889667712
0.0006986220882
0.0007092602179
0.0007200015505
0.0007298397125
0.0007376516984
0.0007422120536
0.0007080263623
0.0007137127434
0.0007217886676
0.0007316252304
0.0007424611939
0.0007534002685
0.0007634177175
0.0007713707457
0.0007760128082
0.0007411897663
0.0007469790248
0.0007552001677
0.0007652121827
0.0007762395941
0.0007873699586
0.0007975607791
0.0008056501457
0.0008103711642
0.0007749293637
0.0007808181398
0.0007891797303
0.0007993613864
0.0008105738441
0.0008218890348
0.0008322473045
0.000840468303
0.0008452655262
0.0008092237054
0.0008152086345
0.0008237058962
0.0008340513793
0.0008454424818
0.0008569360386
0.0008674558422
0.0008758037745
0.0008806744574
0.0008440514556
0.0008501291761
0.0008587573387
0.0008692608442
0.0008808242041
0.0008924896853
0.0009031651278
0.0009116353141
0.0009165767239
0.0008793914377
0.0008855585983
0.0008943129073
0.0009049686525
0.0009166979095
0.0009285289043
0.0009393541222
0.0009479419102
0.0009529513314
0.0009152226756
0.0009214759412
0.0009303516671
0.0009411539018
0.0009530427346
0.0009650328746
0.0009760020472
0.0009847028201
0.0009897775594
0.0009515244291
0.0009578604872
0.0009668529334
0.00097779595
0.0009898380867
0.001001981057
0.001013088415
0.001021897599
0.00102703499
0.0009882762259
0.0009946917916
0.001003796302
0.001014874444
0.001027063672
0.00103935322
0.001050593053
0.001059506127
0.001064703533
0.001025457889
0.00103194971
0.001041161677
0.001052369348
0.001064699523
0.001077129467
0.001088496134
0.00109750863
0.001102763449
0.001063049562
0.001069614423
0.001078929291
0.00109026096
0.001102726013
0.001115290251
0.001126778186
0.001135885698
0.001141195365
0.001101031727
0.001107666454
0.001117079726
0.001128529938
0.001141123883
0.001153816399
0.001165420115
0.001174618305
0.001179980293
0.001139385225
0.001146086687
0.001155593933
0.00116715731
0.00117987425
0.001192689119
0.001204403217
0.001213687816
0.001219099641
0.001178091268
0.001184856384
0.001194453238
0.001206124488
0.001218958621
0.001231890016
0.001243709188
0.001253075999
0.001258535221
0.001217131454
0.001223957191
0.001233639363
0.00124541328
0.001258358903
0.0012714011
0.001283320131
0.001292765036
0.00129826926
0.001256487774
0.001263371152
0.001273134424
0.001285005897
0.001298057411
0.001311204791
0.001323218566
0.001332737525
0.001338284402
0.00129614262
0.001303080714
0.001312920947
0.001324884962
0.001338036873
0.001351283925
0.001363387429
0.001372976484
0.001378563714
0.001336078792
0.001343068733
0.00135298187
0.001365033508
0.001378280433
0.001391621758
0.001403810081
0.001413465356
0.001419090688
0.001376279502
0.001383318478
0.001393300542
0.001405434987
0.001418771655
0.001432201969
0.001444470304
0.001454188008
0.00145984924
0.001416728373
0.001423813632
0.00143386073
0.001446073269
0.001459494522
0.001473008656
0.001485352304
0.001495128731
0.001500823711
0.001457409446
0.001464538294
0.001474646619
0.001486932642
0.001500433437
0.001514026339
0.001526440709
0.001536272237
0.001541998865
0.001498307173
0.001505476977
0.001515642808
0.001527997809
0.001541573221
0.001555239956
0.001567720564
0.001577603661
0.001583359886
0.00153940642
0.00154661461
0.001556834311
0.001569253892
0.00158289911
0.001596634862
0.001609177333
0.001619108552
0.001624892374
0.001580692465
0.001587936529
0.001598206553
0.00161068642
0.001624396751
0.001638196822
0.001650796891
0.001660772871
0.001666582341
0.001622150993
0.001629428481
0.001639745366
0.001652281333
0.001666052201
0.001679912011
0.001692565519
0.001702582986
0.001708416205
0.00166376809
0.001671076615
0.001681436987
0.001694024971
0.001707851918
0.001721767004
0.001734469903
0.001744525668
0.001750380788
0.001705530245
0.001712867478
0.00172326805
0.001735904076
0.001749782757
0.001763748775
0.001776497121
0.001786588081
0.001792463303
0.001747424336
0.001754788011
0.001765225581
0.001777905778
0.001791831965
0.001805844687
0.001818634644
0.001828757779
0.001834651354
0.001789437633
0.001796825543
0.001807296994
0.001820017594
0.001833987174
0.001848042486
0.001860870323
0.001871022698
0.001876932924
0.001831557785
0.001838967783
0.001849470084
0.001862227422
0.001876236393
0.001890330295
0.001903192385
0.001913371146
0.001919296371
0.001873772815
0.001881202814
0.001891733016
0.001904523529
0.001918568003
0.001932696606
0.001945589424
0.0019557918
0.001961730418
0.001916071116
0.001923519085
0.001934074323
0.001946894548
0.001960970744
0.001975130273
0.001988050396
0.001998273693
0.002004224146
0.00195844144
0.001965905407
0.001976482896
0.001989329469
0.002003433716
0.002017620501
0.002030564604
0.002040806208
0.002046766983
0.002000872891
0.00200835094
0.002018947975
0.002031817628
0.002045946361
0.002060156841
0.002073121696
0.002083379071
0.002089348698
0.002043354916
0.002050845186
0.002061459142
0.002074348703
0.002088498461
0.002102729178
0.002115711653
0.002125982337
0.002131959391
0.0020858773
0.002093377985
0.002104006311
0.0021169127
0.002131080123
0.002145327722
0.002158324779
0.002168606383
0.002174589482
0.002128430151
0.002135939497
0.002146579719
0.002159499947
0.002173681776
0.002187943001
0.002200951689
0.002211241896
0.0022172297
0.002171003894
0.002178520199
0.002189169915
0.002202101081
0.002216294152
0.002230565844
0.002243583302
0.002253879864
0.00225987107
0.00221358926
0.002221110871
0.002231767749
0.002244707038
0.002258908279
0.002273187373
0.002286210824
0.002296511557
0.002302504904
0.00225617727
0.002263702583
0.002274364361
0.002287309037
0.002301515468
0.002315798985
0.002328825733
0.00233912852
0.002345122782
0.002298759227
0.002306286684
0.002316951161
0.002329898571
0.002344107295
0.002358392342
0.002371419767
0.002381722548
0.002387716533
0.002341326695
0.002348854782
0.002359519821
0.002372467381
0.002386675581
0.002400959346
0.002413984898
0.002424285671
0.00243027822
0.002383871485
0.002391398727
0.002402062246
0.002415007443
0.002429212375
0.002443492117
0.002456513313
0.002466810124
0.002472800107
0.002426385627
0.002433910586
0.002444570556
0.002457510936
0.002471709924
0.002485982966
0.002498997379
0.002509288321
0.002515274632
0.002468861347
0.002476382617
0.002487037054
0.002499970216
0.002514160638
0.002528424359
0.002541429612
0.002551712812
0.002557694365
0.002511291029
0.002518807232
0.002529454186
0.002542377774
0.002556557053
0.002570808873
0.002583802622
0.002594076234
0.002600051961
0.002553667176
0.002561176951
0.002571814499
0.002584726185
0.002598891773
0.002613129139
0.002626109062
0.002636371255
0.002642340092
0.00259598235
0.002603484348
0.00261411058
0.002627008047
0.002641157407
0.00265537777
0.002668341547
0.002678590488
0.002684551368
0.002638229111
0.002645721979
0.002656334979
0.002669215902
0.002683346482
0.002697547275
0.002710492563
0.002720726395
0.002726678238
0.002680399923
0.002687882294
0.002698480122
0.00271134214
0.002725451341
0.002739629945
0.002752554345
0.002762771166
0.00276871286
0.002722487058
0.002729957527
0.002740538189
0.00275337887
0.002767464011
0.002781617712
0.002794518734
0.002804716561
0.002810646947
0.002764482455
0.00277193956
0.002782500973
0.002795317774
0.002809376039
0.00282350198
0.002836376993
0.002846553725
0.00285247157
0.002806377563
0.002813819755
0.002824359709
0.00283714992
0.002851178301
0.002865273418
0.002878119589
0.002888272957
0.002894176924
0.002848163151
0.002855588756
0.002866104859
0.002878865538
0.002892860761
0.002906921707
0.00291973593
0.002929863435
0.002935752051
0.002889829068
0.002897236247
0.002907725862
0.002920453762
0.002934412196
0.002948435247
0.002961214054
0.0029713129
0.002977184507
0.002931363976
0.002938750671
0.002949210845
0.002961902316
0.002975819868
0.002989800813
0.003002540272
0.003012607277
0.003018459989
0.002972755033
0.002980118907
0.00299054628
0.00300319716
0.003017069156
0.003031003169
0.003043698761
0.00305373026
0.003059561897
0.003013987533
0.0030213259
0.003031716604
0.003044322095
0.00305814313
0.003072024625
0.003084671106
0.003094662838
0.003100470862
0.003055044501
0.003062354246
0.003072703791
0.003085258314
0.003099022097
0.003112844558
0.003125435804
0.003135382787
0.003141164226
0.003095906254
0.003103183742
0.003113486887
0.003125983924
0.003139683099
0.003153438899
0.003165967734
0.003175864125
0.003181615489
0.003136549918
0.003143790901
0.003154041512
0.003166473436
0.003180099388
0.003193779593
0.00320623761
0.003216076549
0.003221793744
0.003176948933
0.003184148438
0.003194339343
0.003206697231
0.003220239884
0.003233834043
0.003246211407
0.003255984867
0.003261663098
0.003217072528
0.003224224755
0.003234347586
0.00324662103
0.003260068633
0.003273564562
0.003285849807
0.003295548436
0.003301182117
0.003256885217
0.003263983426
0.003274028461
0.003286205375
0.003299544292
0.003312927862
0.003325107689
0.00333472065
0.003340303313
0.003296346306
0.003303382708
0.003313338718
0.003325405156
0.003338619666
0.003351874601
0.003363933685
0.003373448506
0.003378972712
0.003335409443
0.003342375106
0.003352229219
0.003364169198
0.003377241293
0.003390348959
0.003402269789
0.00341167224
0.003417129513
0.003374022213
0.003380906973
0.003390644555
0.003402439924
0.003415349176
0.003428288403
0.003440051137
0.00344932512
0.003454705886
0.003412125878
0.003418918267
0.003428522821
0.003440153135
0.0034528765
0.003465623514
0.003477205907
0.003486333402
0.003491626956
0.003449655214
0.003456342415
0.003465795498
0.003477237875
0.003489749674
0.003502278048
0.003513655429
0.003522616485
0.003527810992
0.003486538487
0.003493106258
0.0035023874
0.003513616567
0.003525888519
0.003538169218
0.003549314536
0.003558087322
0.003563169856
0.003522697389
0.003529130124
0.003538216968
0.003549205378
0.003561206724
0.003573208236
0.0035840922
0.00359265313
0.00359760975
0.003558047554
0.003564328407
0.003573196852
0.003583914864
0.00359561258
0.003607301155
0.003617892477
0.003626216421
0.003631032306
0.003592499306
0.003598610335
0.00360723475
0.003617650908
0.003629010036
0.003640350053
0.003650615808
0.003658676398
0.00366333604
0.003625958648
0.00363188102
0.003640234554
0.003650315984
0.0036613001