/*--------------------------------*- C++ -*----------------------------------*\
| =========                 |                                                 |
| \\      /  F ield         | OpenFOAM: The Open Source CFD Toolbox           |
|  \\    /   O peration     | Version:  2212                                  |
|   \\  /    A nd           | Website:  www.openfoam.com                      |
|    \\/     M anipulation  |                                                 |
\*---------------------------------------------------------------------------*/
FoamFile
{
    version     2.0;
    format      ascii;
    arch        "LSB;label=32;scalar=64";
    class       volScalarField;
    location    "30.00000000";
    object      A1C2H3;
}
// * * * * * * * * * * * * * * * * * * * * * * * * * * * * * * * * * * * * * //

dimensions      [0 0 0 0 0 0 0];

internalField   nonuniform List<scalar> 
3000
(
9.451938323e-24
1.061328895e-23
1.236436563e-23
1.469525128e-23
1.758031933e-23
2.093954254e-23
2.456994368e-23
2.803087175e-23
3.047742767e-23
3.549163172e-23
4.001349834e-23
4.682841691e-23
5.591939351e-23
6.726861966e-23
8.080413259e-23
9.628569744e-23
1.129356484e-22
1.276882572e-22
7.952156569e-23
9.036015359e-23
1.068515595e-22
1.292167593e-22
1.578313759e-22
1.930742078e-22
2.347671309e-22
2.805518023e-22
3.196466917e-22
1.515323376e-22
1.740040082e-22
2.087027955e-22
2.567691525e-22
3.198455467e-22
3.99429081e-22
4.949253882e-22
5.985430558e-22
6.819442451e-22
2.692168853e-22
3.129716036e-22
3.816196822e-22
4.78613818e-22
6.084459578e-22
7.746088736e-22
9.740580386e-22
1.185188452e-21
1.34682938e-21
4.631617788e-22
5.453916221e-22
6.762972574e-22
8.642502104e-22
1.119334165e-21
1.448128398e-21
1.84118882e-21
2.249520921e-21
2.55262517e-21
7.86576013e-22
9.377289336e-22
1.18117814e-21
1.534695125e-21
2.018073026e-21
2.641125035e-21
3.378389839e-21
4.12815598e-21
4.66951086e-21
1.331496972e-21
1.605104731e-21
2.049677893e-21
2.700178229e-21
3.592951832e-21
4.740940426e-21
6.086618912e-21
7.434064273e-21
8.390037309e-21
2.25748466e-21
2.747411036e-21
3.548563952e-21
4.726631312e-21
6.346114548e-21
8.422550351e-21
1.083859335e-20
1.323229367e-20
1.491179016e-20
3.841112111e-21
4.711453465e-21
6.141101983e-21
8.24997556e-21
1.115056798e-20
1.485957477e-20
1.91511254e-20
2.33718634e-20
2.631144792e-20
6.562373113e-21
8.099575182e-21
1.063244615e-20
1.43758677e-20
1.952429493e-20
2.609234595e-20
3.366042537e-20
4.106579999e-20
4.619802827e-20
1.125512843e-20
1.395878023e-20
1.842283102e-20
2.502760897e-20
3.410762151e-20
4.566844318e-20
5.894795812e-20
7.189641429e-20
8.084225313e-20
1.936983223e-20
2.411143932e-20
3.195079406e-20
4.355533072e-20
5.9497972e-20
7.975885658e-20
1.029723306e-19
1.255534298e-19
1.411388184e-19
3.343205596e-20
4.173355186e-20
5.547026308e-20
7.580706829e-20
1.037195721e-19
1.391170638e-19
1.795551383e-19
2.188115942e-19
2.460318289e-19
5.784069651e-20
7.236393191e-20
9.641290214e-20
1.320200913e-19
1.808424323e-19
2.425864861e-19
3.127427434e-19
3.803840535e-19
4.286313395e-19
1.002486228e-19
1.25650332e-19
1.677521324e-19
2.301354735e-19
3.156866713e-19
4.23692781e-19
5.452293316e-19
6.567324794e-19
7.482016594e-19
1.739344513e-19
2.183314881e-19
2.920026581e-19
4.013538552e-19
5.518142757e-19
7.433119612e-19
9.63992291e-19
1.184419234e-18
1.322208196e-18
3.018878361e-19
3.79332462e-19
5.078963111e-19
6.987687018e-19
9.613132722e-19
1.294824793e-18
1.676294921e-18
2.046011388e-18
2.296936023e-18
5.239589671e-19
6.587966099e-19
8.826405794e-19
1.214874216e-18
1.671502996e-18
2.250689496e-18
2.91157634e-18
3.550516298e-18
3.987724638e-18
9.093000182e-19
1.143778996e-18
1.533017539e-18
2.11059543e-18
2.904069639e-18
3.909874575e-18
5.056811106e-18
6.165313238e-18
6.924383772e-18
1.577962427e-18
1.985451618e-18
2.661874976e-18
3.665472691e-18
5.043902009e-18
6.790692649e-18
8.782028492e-18
1.070624715e-17
1.202385433e-17
2.738379289e-18
3.446306356e-18
4.621444569e-18
6.364848957e-18
8.759044832e-18
1.179243604e-17
1.524970491e-17
1.858971231e-17
2.087640188e-17
4.752418902e-18
5.98208207e-18
8.023250899e-18
1.105123413e-17
1.520889906e-17
2.04754352e-17
2.647636274e-17
3.227220047e-17
3.623927468e-17
8.248251181e-18
1.038389881e-17
1.392876349e-17
1.918679175e-17
2.640509013e-17
3.554612041e-17
4.595850949e-17
5.601167311e-17
6.289065297e-17
1.431611462e-17
1.802478688e-17
2.418001948e-17
3.330832833e-17
4.583649355e-17
6.169626979e-17
7.975445809e-17
9.718210747e-17
1.091024234e-16
2.484758522e-17
3.128687722e-17
4.197233243e-17
5.781492455e-17
7.955020267e-17
1.070527925e-16
1.383507903e-16
1.685387888e-16
1.891761128e-16
4.312281487e-17
5.430063715e-17
7.284481963e-17
1.003290515e-16
1.380175023e-16
1.856768638e-16
2.39874518e-16
2.92110453e-16
3.277948323e-16
7.482553078e-17
9.422217221e-17
1.263907439e-16
1.74044199e-16
2.393472108e-16
3.218593436e-16
4.15602404e-16
5.058614728e-16
5.67461775e-16
1.297938945e-16
1.634354204e-16
2.192035043e-16
3.017627072e-16
4.148017749e-16
5.574768137e-16
7.19371006e-16
8.750422083e-16
9.811500749e-16
2.250333412e-16
2.833388178e-16
3.799357276e-16
5.228167629e-16
7.182286259e-16
9.645315e-16
1.243566044e-15
1.511415601e-15
1.693683536e-15
3.898854592e-16
4.908349031e-16
6.579546665e-16
9.0488064e-16
1.242107115e-15
1.666409315e-15
2.146121345e-15
2.605601908e-15
2.917611226e-15
6.74864213e-16
8.494081595e-16
1.138083754e-15
1.564027296e-15
2.144691307e-15
2.873677944e-15
3.695771057e-15
4.481054305e-15
5.012892091e-15
1.166698672e-15
1.467946893e-15
1.965576452e-15
2.698576721e-15
3.695604349e-15
4.94390304e-15
6.347247268e-15
7.68330173e-15
8.585237991e-15
2.013819697e-15
2.532550824e-15
3.388164548e-15
4.645818555e-15
6.351819153e-15
8.480712066e-15
1.086503055e-14
1.312598148e-14
1.464642653e-14
3.469309862e-15
4.359956137e-15
5.826359607e-15
7.976309189e-15
1.08831407e-14
1.449623252e-14
1.852482393e-14
2.232710765e-14
2.487261398e-14
5.962850126e-15
7.486659592e-15
9.990073172e-15
1.364924111e-14
1.857738428e-14
2.467455925e-14
3.143777338e-14
3.778673937e-14
4.201547472e-14
1.022044855e-14
1.281648278e-14
1.707041144e-14
2.326595122e-14
3.157225833e-14
4.179412674e-14
5.30658525e-14
6.358312308e-14
7.054835194e-14
1.74622589e-14
2.186290702e-14
2.90521699e-14
3.947924255e-14
5.338606964e-14
7.039660701e-14
8.903083706e-14
1.063017576e-13
1.176689241e-13
2.972689024e-14
3.71435597e-14
4.921794063e-14
6.664702037e-14
8.975629922e-14
1.178330877e-13
1.483681098e-13
1.764651524e-13
1.948358432e-13
5.039866075e-14
6.281640093e-14
8.295286245e-14
1.118642019e-13
1.499486873e-13
1.95880101e-13
2.454459222e-13
2.907065141e-13
3.200958565e-13
8.505715146e-14
1.056956407e-13
1.3901549e-13
1.865730252e-13
2.487763537e-13
3.232058615e-13
4.028686876e-13
4.750368132e-13
5.215690755e-13
1.428330915e-13
1.768574676e-13
2.31522765e-13
3.09047114e-13
4.096778175e-13
5.290909393e-13
6.558204958e-13
7.69703622e-13
8.426157969e-13
2.385506578e-13
2.941512868e-13
3.830162503e-13
5.081804352e-13
6.693572212e-13
8.589815749e-13
1.058497756e-12
1.236348362e-12
1.349425863e-12
3.960767966e-13
4.860849683e-13
6.291471324e-13
8.292044234e-13
1.084707129e-12
1.382697395e-12
1.693549015e-12
1.968458985e-12
2.142074711e-12
6.535008199e-13
7.977710418e-13
1.025758813e-12
1.342226794e-12
1.743038142e-12
2.20645521e-12
2.685814821e-12
3.106518854e-12
3.370511365e-12
1.071055985e-12
1.299929812e-12
1.65948525e-12
2.154863826e-12
2.777063485e-12
3.490343541e-12
4.222180847e-12
4.859812193e-12
5.25752677e-12
1.743100957e-12
2.102378976e-12
2.663457634e-12
3.430765156e-12
4.386676101e-12
5.473538478e-12
6.580077616e-12
7.537619522e-12
8.131555826e-12
2.816046497e-12
3.374044031e-12
4.240372387e-12
5.416562561e-12
6.870372473e-12
8.510458124e-12
1.016815328e-11
1.159360103e-11
1.247327435e-11
4.51490173e-12
5.372364088e-12
6.696090008e-12
8.480788645e-12
1.067030579e-11
1.312230258e-11
1.558401243e-11
1.768862905e-11
1.898147172e-11
7.182209625e-12
8.486134225e-12
1.048820541e-11
1.316971489e-11
1.643650657e-11
2.00701434e-11
2.369578703e-11
2.677933951e-11
2.866576186e-11
1.133466235e-11
1.329744607e-11
1.62957934e-11
2.028699818e-11
2.511794639e-11
3.04580734e-11
3.575685983e-11
4.024238776e-11
4.297655893e-11
1.774480329e-11
2.067064958e-11
2.511899352e-11
3.100672834e-11
3.809106747e-11
4.587813137e-11
5.356655563e-11
6.004815465e-11
6.398662424e-11
2.755816565e-11
3.187942598e-11
3.842030729e-11
4.703260598e-11
5.733996535e-11
6.861302108e-11
7.969451885e-11
8.900302115e-11
9.464394228e-11
4.245732138e-11
4.878380173e-11
5.832155751e-11
7.08209804e-11
8.570914612e-11
1.019198642e-10
1.177937466e-10
1.310862988e-10
1.391229298e-10
6.489626639e-11
7.408316596e-11
8.788364649e-11
1.058939096e-10
1.272552437e-10
1.504230954e-10
1.730332149e-10
1.919157078e-10
2.033097161e-10
9.84293094e-11
1.116697089e-10
1.314961047e-10
1.572747823e-10
1.877357994e-10
2.206595571e-10
2.526968809e-10
2.793908513e-10
2.954722411e-10
1.481711685e-10
1.671219459e-10
1.954196858e-10
2.320932448e-10
2.752861836e-10
3.218316914e-10
3.670099439e-10
4.045797595e-10
4.271829471e-10
2.214382863e-10
2.483913099e-10
2.885394004e-10
3.404226227e-10
4.013544692e-10
4.668456633e-10
5.302759166e-10
5.829375955e-10
6.145864792e-10
3.286394779e-10
3.667540672e-10
4.23406322e-10
4.964358845e-10
5.819892202e-10
6.737388348e-10
7.624380058e-10
8.359785895e-10
8.801379628e-10
4.845086609e-10
5.381268784e-10
6.17674662e-10
7.199970317e-10
8.396090948e-10
9.676382583e-10
1.091218765e-09
1.193565336e-09
1.254982291e-09
7.098055525e-10
7.848793836e-10
8.960785017e-10
1.038846313e-09
1.205428898e-09
1.383442123e-09
1.555046645e-09
1.697037982e-09
1.782205194e-09
1.033654579e-09
1.138324124e-09
1.293143296e-09
1.491593252e-09
1.722777999e-09
1.969483487e-09
2.20705141e-09
2.403484101e-09
2.521268327e-09
1.496751256e-09
1.642126558e-09
1.85689479e-09
2.131805534e-09
2.451628724e-09
2.792525487e-09
3.120508235e-09
3.391554724e-09
3.5540495e-09
2.155743275e-09
2.356960453e-09
2.653917233e-09
3.033579618e-09
3.474760172e-09
3.944555985e-09
4.39623982e-09
4.769370574e-09
4.993053299e-09
3.08919561e-09
3.366841835e-09
3.776229237e-09
4.299106495e-09
4.906123536e-09
5.552004383e-09
6.172654553e-09
6.685243087e-09
6.992545115e-09
4.405680686e-09
4.7877137e-09
5.350595533e-09
6.068909801e-09
6.902155172e-09
7.788201161e-09
8.639313838e-09
9.342164379e-09
9.763600105e-09
6.254701892e-09
6.779029831e-09
7.551082017e-09
8.535639385e-09
9.677008836e-09
1.089014649e-08
1.205518731e-08
1.30173024e-08
1.359435064e-08
8.841366993e-09
9.559304348e-09
1.061589441e-08
1.196255461e-08
1.352295052e-08
1.518094772e-08
1.677306825e-08
1.808806725e-08
1.887705496e-08
1.244598028e-08
1.342685608e-08
1.486981778e-08
1.670812602e-08
1.883747248e-08
2.109961719e-08
2.32719689e-08
2.506667371e-08
2.614397524e-08
1.745001668e-08
1.878727955e-08
2.075388779e-08
2.325850986e-08
2.615902011e-08
2.924026718e-08
3.21996656e-08
3.464547593e-08
3.611440271e-08
2.437026697e-08
2.618950337e-08
2.886425658e-08
3.226998202e-08
3.62135531e-08
4.040305625e-08
4.442786468e-08
4.775563354e-08
4.975543828e-08
3.390327679e-08
3.637262444e-08
4.000253165e-08
4.462371375e-08
4.997442791e-08
5.565946713e-08
6.112264053e-08
6.56418049e-08
6.835924334e-08
4.69825025e-08
5.032598614e-08
5.524011276e-08
6.149546926e-08
6.873822253e-08
7.643455314e-08
8.383277185e-08
8.995546371e-08
9.363932906e-08
6.485081277e-08
6.936513572e-08
7.599915756e-08
8.444282816e-08
9.421904385e-08
1.046085925e-07
1.145982854e-07
1.228690163e-07
1.278479699e-07
8.915099719e-08
9.522626849e-08
1.041526892e-07
1.155122995e-07
1.286634809e-07
1.426400613e-07
1.560808415e-07
1.672121012e-07
1.739159588e-07
1.220367115e-07
1.301814559e-07
1.421459322e-07
1.573681206e-07
1.749876278e-07
1.937109244e-07
2.117165291e-07
2.266302654e-07
2.356146723e-07
1.663057082e-07
1.771762813e-07
1.931401579e-07
2.134435705e-07
2.369364624e-07
2.618939364e-07
2.85890177e-07
3.057646334e-07
3.177387371e-07
2.255562069e-07
2.399904211e-07
2.611791087e-07
2.881142638e-07
3.192643513e-07
3.523399864e-07
3.841285152e-07
4.104492882e-07
4.263056789e-07
3.043658374e-07
3.234202075e-07
3.513764625e-07
3.868911787e-07
4.279336424e-07
4.714816302e-07
5.133075429e-07
5.479212077e-07
5.687671779e-07
4.08490781e-07
4.334803537e-07
4.701208828e-07
5.166291922e-07
5.703262269e-07
6.272468389e-07
6.818674707e-07
7.270355476e-07
7.542238268e-07
5.45080664e-07
5.776199547e-07
6.252931295e-07
6.857447654e-07
7.554609686e-07
8.292753221e-07
9.000271128e-07
9.584776422e-07
9.936370369e-07
7.229025654e-07
7.64945657e-07
8.264875805e-07
9.044347716e-07
9.94208785e-07
1.089128203e-06
1.179987831e-06
1.254963632e-06
1.300025137e-06
9.525653126e-07
1.006442857e-06
1.085228851e-06
1.184886768e-06
1.299494135e-06
1.420480983e-06
1.536119372e-06
1.631416686e-06
1.68863525e-06
1.24673382e-06
1.315185244e-06
1.415173085e-06
1.541469252e-06
1.686474911e-06
1.839292016e-06
1.985113522e-06
2.105110972e-06
2.177081105e-06
1.620322101e-06
1.706519505e-06
1.832282429e-06
1.990895645e-06
2.172690753e-06
2.363932019e-06
2.546099065e-06
2.695774225e-06
2.785438317e-06
2.090655132e-06
2.198220579e-06
2.354968567e-06
2.552348039e-06
2.778166482e-06
3.015269447e-06
3.240709688e-06
3.425641787e-06
3.536290369e-06
2.677592642e-06
2.810601832e-06
3.004184579e-06
3.247551202e-06
3.5254665e-06
3.816704335e-06
4.093099147e-06
4.319457116e-06
4.454720677e-06
3.403594921e-06
3.566570288e-06
3.803465172e-06
4.100793215e-06
4.439694002e-06
4.794146289e-06
5.129900272e-06
5.404416077e-06
5.568248491e-06
4.293733294e-06
4.49162526e-06
4.778908684e-06
5.138887712e-06
5.548431988e-06
5.975934761e-06
6.380126878e-06
6.710054773e-06
6.906708751e-06
5.375638933e-06
5.613795659e-06
5.959098389e-06
6.39107632e-06
6.881625704e-06
7.392702163e-06
7.875020002e-06
8.268082951e-06
8.502078279e-06
6.67938895e-06
6.963515477e-06
7.374963385e-06
7.888872471e-06
8.471408583e-06
9.077182745e-06
9.647842018e-06
1.011216702e-05
1.03882526e-05
8.237331553e-06
8.573439728e-06
9.059581921e-06
9.66585016e-06
1.035187592e-05
1.106397206e-05
1.173362398e-05
1.227766836e-05
1.260077924e-05
1.008385458e-05
1.047820547e-05
1.104793227e-05
1.175738321e-05
1.25588123e-05
1.338924346e-05
1.41688729e-05
1.480134385e-05
1.517655454e-05
1.225510382e-05
1.271414456e-05
1.3376598e-05
1.420034222e-05
1.512938023e-05
1.609042912e-05
1.699124659e-05
1.772101626e-05
1.815349167e-05
1.478865909e-05
1.531895616e-05
1.608343585e-05
1.703275733e-05
1.810177805e-05
1.920587389e-05
2.023920432e-05
2.107522271e-05
2.157016791e-05
1.772317719e-05
1.833134805e-05
1.920721511e-05
2.029345574e-05
2.151487603e-05
2.277447039e-05
2.395164151e-05
2.490284936e-05
2.546545944e-05
2.109801122e-05
2.179065622e-05
2.278723773e-05
2.402168296e-05
2.540783919e-05
2.683528393e-05
2.816751681e-05
2.924276033e-05
2.987817138e-05
2.495281598e-05
2.573645219e-05
2.686294857e-05
2.825671673e-05
2.98197456e-05
3.142717544e-05
3.292547944e-05
3.413342862e-05
3.484667082e-05
2.932714901e-05
3.020814725e-05
3.147354443e-05
3.303748204e-05
3.478920816e-05
3.65884301e-05
3.826350413e-05
3.961257605e-05
4.040852961e-05
3.426007589e-05
3.524460245e-05
3.665759042e-05
3.840217537e-05
4.03540074e-05
4.235639881e-05
4.421854049e-05
4.571682877e-05
4.660018346e-05
3.978978833e-05
4.088375197e-05
4.24526511e-05
4.43879051e-05
4.655074207e-05
4.876715887e-05
5.082618271e-05
5.248139412e-05
5.345661279e-05
4.595324211e-05
4.716224726e-05
4.889494317e-05
5.103035455e-05
5.341450336e-05
5.585519931e-05
5.812036491e-05
5.993976361e-05
6.101105019e-05
5.278582122e-05
5.411512781e-05
5.601901549e-05
5.836347302e-05
6.097857788e-05
6.365313556e-05
6.613308627e-05
6.812344626e-05
6.929471844e-05
6.032103364e-05
6.177552361e-05
6.385746105e-05
6.641919922e-05
6.927418326e-05
7.219145717e-05
7.48941695e-05
7.706173544e-05
7.833660204e-05
6.859024261e-05
7.017439337e-05
7.244066482e-05
7.522722036e-05
7.833023954e-05
8.149831117e-05
8.443105496e-05
8.678151125e-05
8.816325446e-05
7.762243666e-05
7.934030126e-05
8.179658969e-05
8.481476937e-05
8.817317832e-05
9.159932295e-05
9.476863202e-05
9.730708006e-05
9.879864229e-05
8.744404016e-05
8.929923374e-05
9.195060242e-05
9.520646136e-05
9.882679059e-05
0.0001025174553
0.0001059291081
0.0001086600514
0.0001102640266
9.80787651e-05
0.0001000744575
0.0001029253397
0.0001064241697
0.0001103121135
0.0001142729058
0.0001179319153
0.0001208592516
0.000122577881
0.0001095475039
0.0001116864176
0.0001147406143
0.0001184869412
0.0001226473551
0.000126883041
0.0001307936535
0.0001339206741
0.0001357558452
0.0001218682623
0.0001241526752
0.000127413359
0.0001314109481
0.0001358478557
0.0001403623662
0.0001445280675
0.0001478574622
0.0001498107123
0.0001350561293
0.0001374878822
0.0001409576078
0.0001452094767
0.0001499260832
0.0001547225287
0.0001591460574
0.0001626799249
0.0001647524466
0.000149123283
0.0001517037901
0.0001553845098
0.0001598929468
0.0001648916598
0.0001699723512
0.0001746557176
0.0001783955805
0.0001805882308
0.0001640790277
0.0001668092906
0.0001707023736
0.0001754689615
0.0001807514173
0.0001861178918
0.0001910624019
0.0001950092261
0.0001973225372
0.0001799298595
0.0001828104831
0.0001869167386
0.000191942383
0.0001975094767
0.0002031625287
0.0002083688122
0.0002125230286
0.000214957221
0.0001966795554
0.0001997107667
0.0002040304695
0.0002093154293
0.0002151673492
0.0002211070646
0.0002265751063
0.0002309366356
0.0002334916325
0.0002143292843
0.0002175109512
0.0002220438694
0.0002275877905
0.0002337240546
0.0002399498475
0.0002456790206
0.0002502473004
0.0002529227432
0.000232877733
0.0002362093855
0.0002409548092
0.0002467567596
0.000253176254
0.0002596869054
0.0002656760071
0.0002704500196
0.0002732452845
0.0002523212462
0.0002558020967
0.0002607588682
0.0002668173739
0.0002735183926
0.0002803120902
0.0002865593784
0.0002915376795
0.0002944518942
0.0002726539751
0.0002762829403
0.0002814494839
0.0002877625657
0.0002947428506
0.0003018172295
0.0003083204593
0.0003135012082
0.0003165332695
0.0002938680325
0.0002976437545
0.0003030181068
0.0003095833172
0.0003168400984
0.0003241922814
0.0003309487428
0.0003363297314
0.0003394783224
0.0003159536507
0.0003198745182
0.0003254543586
0.0003322688176
0.0003397988537
0.0003474254919
0.0003544320463
0.0003600107286
0.0003632743361
0.0003388993402
0.0003429635094
0.0003487461886
0.0003558066205
0.0003636062378
0.0003715035506
0.0003787566677
0.000384530189
0.0003879071199
0.0003626920519
0.0003668974646
0.000372880032
0.0003801827974
0.0003882479271
0.0003964117405
0.0004039075348
0.0004098727613
0.0004133611607
0.0003873173422
0.0003916617446
0.0003978409744
0.0004053821029
0.0004137083166
0.0004221340979
0.0004298683596
0.0004360219032
0.0004396197695
0.0004127595184
0.0004172404775
0.0004236128931
0.0004313881148
0.0004399706597
0.0004486535547
0.0004566217835
0.000462960028
0.0004666652275
0.0004390017748
0.0004436167023
0.0004501786041
0.000458183379
0.0004670172109
0.0004759520767
0.0004841495134
0.000490668641
0.0004944789239
0.0004660263137
0.0004707724865
0.0004775199842
0.0004857495373
0.0004948293555
0.0005040107956
0.0005124324533
0.0005191284688
0.0005230414831
0.000493814498
0.0004986890702
0.0005056181045
0.0005140674596
0.0005233877386
0.0005328101343
0.0005414508276
0.0005483195813
0.0005523328865
0.0005223469758
0.0005273469943
0.0005344533553
0.0005431173587
0.0005526723823
0.0005623299242
0.0005711842967
0.0005782215063
0.0005823325861
0.0005516038
0.0005567262187
0.0005640055667
0.00057287891
0.0005826627998
0.0005925495156
0.0006016120657
0.0006088133371
0.0006130196113
0.0005815645371
0.0005868062304
0.0005942541149
0.0006033313587
0.0006133380975
0.0006234478785
0.0006327129844
0.000640073831
0.0006443726671
0.0006122083684
0.0006175661439
0.0006251780219
0.0006344536171
0.0006446770709
0.0006550036987
0.0006644656409
0.0006719815015
0.0006763702249
0.0006435141827
0.0006489847939
0.000656756047
0.0006662243563
0.0006766582979
0.000687195466
0.0006968484471
0.0007045147012
0.0007089906051
0.0006754606624
0.0006810408196
0.0006889667704
0.0006986220875
0.0007092602173
0.0007200015498
0.0007298397117
0.0007376516975
0.0007422120527
0.0007080263614
0.0007137127425
0.0007217886668
0.0007316252297
0.0007424611933
0.0007534002678
0.0007634177167
0.0007713707448
0.0007760128073
0.0007411897654
0.0007469790238
0.0007552001669
0.000765212182
0.0007762395935
0.0007873699579
0.0007975607783
0.0008056501448
0.0008103711634
0.0007749293628
0.0007808181388
0.0007891797294
0.0007993613857
0.0008105738435
0.0008218890341
0.0008322473036
0.000840468302
0.0008452655253
0.0008092237045
0.0008152086335
0.0008237058954
0.0008340513786
0.0008454424811
0.0008569360379
0.0008674558413
0.0008758037735
0.0008806744565
0.0008440514546
0.0008501291751
0.0008587573379
0.0008692608435
0.0008808242034
0.0008924896846
0.0009031651269
0.0009116353131
0.0009165767229
0.0008793914367
0.0008855585972
0.0008943129064
0.0009049686518
0.0009166979088
0.0009285289035
0.0009393541213
0.0009479419092
0.0009529513304
0.0009152226746
0.0009214759401
0.0009303516662
0.000941153901
0.0009530427339
0.0009650328739
0.0009760020462
0.0009847028191
0.0009897775584
0.0009515244281
0.0009578604861
0.0009668529325
0.0009777959491
0.000989838086
0.001001981056
0.001013088414
0.001021897598
0.001027034989
0.0009882762248
0.0009946917905
0.001003796301
0.001014874443
0.001027063672
0.001039353219
0.001050593052
0.001059506126
0.001064703532
0.001025457888
0.001031949709
0.001041161676
0.001052369347
0.001064699522
0.001077129466
0.001088496133
0.001097508629
0.001102763448
0.001063049561
0.001069614422
0.00107892929
0.001090260959
0.001102726012
0.00111529025
0.001126778185
0.001135885697
0.001141195364
0.001101031726
0.001107666453
0.001117079725
0.001128529937
0.001141123882
0.001153816398
0.001165420114
0.001174618304
0.001179980292
0.001139385223
0.001146086686
0.001155593932
0.001167157309
0.001179874249
0.001192689118
0.001204403216
0.001213687815
0.00121909964
0.001178091267
0.001184856383
0.001194453237
0.001206124487
0.00121895862
0.001231890015
0.001243709187
0.001253075998
0.00125853522
0.001217131453
0.00122395719
0.001233639361
0.001245413279
0.001258358902
0.001271401099
0.00128332013
0.001292765035
0.001298269259
0.001256487772
0.001263371151
0.001273134423
0.001285005897
0.00129805741
0.00131120479
0.001323218565
0.001332737524
0.001338284401
0.001296142619
0.001303080713
0.001312920946
0.001324884961
0.001338036872
0.001351283924
0.001363387428
0.001372976483
0.001378563713
0.001336078791
0.001343068732
0.001352981869
0.001365033507
0.001378280432
0.001391621758
0.00140381008
0.001413465355
0.001419090687
0.001376279501
0.001383318477
0.001393300541
0.001405434986
0.001418771654
0.001432201968
0.001444470303
0.001454188007
0.001459849239
0.001416728372
0.001423813631
0.001433860729
0.001446073268
0.001459494521
0.001473008655
0.001485352303
0.001495128729
0.00150082371
0.001457409445
0.001464538292
0.001474646618
0.001486932641
0.001500433437
0.001514026338
0.001526440708
0.001536272236
0.001541998864
0.001498307171
0.001505476976
0.001515642807
0.001527997808
0.00154157322
0.001555239955
0.001567720563
0.00157760366
0.001583359885
0.001539406419
0.001546614608
0.00155683431
0.001569253891
0.001582899109
0.001596634861
0.001609177332
0.001619108551
0.001624892373
0.001580692464
0.001587936528
0.001598206552
0.001610686419
0.001624396751
0.001638196821
0.001650796889
0.00166077287
0.001666582339
0.001622150991
0.001629428479
0.001639745365
0.001652281332
0.0016660522
0.00167991201
0.001692565518
0.001702582985
0.001708416204
0.001663768089
0.001671076613
0.001681436986
0.00169402497
0.001707851917
0.001721767003
0.001734469902
0.001744525667
0.001750380787
0.001705530243
0.001712867476
0.001723268048
0.001735904075
0.001749782756
0.001763748774
0.00177649712
0.00178658808
0.001792463302
0.001747424335
0.00175478801
0.00176522558
0.001777905776
0.001791831964
0.001805844686
0.001818634643
0.001828757778
0.001834651353
0.001789437632
0.001796825542
0.001807296993
0.001820017593
0.001833987173
0.001848042485
0.001860870322
0.001871022696
0.001876932923
0.001831557783
0.001838967782
0.001849470082
0.001862227421
0.001876236392
0.001890330294
0.001903192384
0.001913371145
0.00191929637
0.001873772814
0.001881202812
0.001891733014
0.001904523528
0.001918568002
0.001932696605
0.001945589423
0.001955791798
0.001961730417
0.001916071115
0.001923519084
0.001934074322
0.001946894547
0.001960970743
0.001975130272
0.001988050394
0.001998273691
0.002004224145
0.001958441439
0.001965905406
0.001976482895
0.001989329468
0.002003433715
0.0020176205
0.002030564602
0.002040806207
0.002046766981
0.002000872889
0.002008350938
0.002018947974
0.002031817627
0.00204594636
0.00206015684
0.002073121695
0.00208337907
0.002089348697
0.002043354915
0.002050845185
0.002061459141
0.002074348702
0.00208849846
0.002102729177
0.002115711652
0.002125982336
0.00213195939
0.002085877299
0.002093377983
0.00210400631
0.002116912699
0.002131080123
0.002145327722
0.002158324778
0.002168606382
0.002174589481
0.00212843015
0.002135939495
0.002146579718
0.002159499946
0.002173681775
0.002187943
0.002200951688
0.002211241895
0.002217229699
0.002171003893
0.002178520197
0.002189169914
0.00220210108
0.002216294151
0.002230565843
0.002243583301
0.002253879862
0.002259871069
0.002213589259
0.002221110869
0.002231767748
0.002244707037
0.002258908278
0.002273187372
0.002286210823
0.002296511556
0.002302504903
0.002256177269
0.002263702582
0.002274364359
0.002287309036
0.002301515468
0.002315798984
0.002328825732
0.002339128519
0.002345122781
0.002298759226
0.002306286683
0.00231695116
0.00232989857
0.002344107294
0.002358392341
0.002371419766
0.002381722547
0.002387716532
0.002341326694
0.002348854781
0.00235951982
0.00237246738
0.00238667558
0.002400959345
0.002413984897
0.00242428567
0.002430278218
0.002383871484
0.002391398725
0.002402062245
0.002415007442
0.002429212374
0.002443492116
0.002456513312
0.002466810123
0.002472800105
0.002426385626
0.002433910584
0.002444570555
0.002457510935
0.002471709923
0.002485982965
0.002498997378
0.00250928832
0.00251527463
0.002468861345
0.002476382616
0.002487037052
0.002499970215
0.002514160637
0.002528424358
0.002541429611
0.00255171281
0.002557694364
0.002511291028
0.002518807231
0.002529454184
0.002542377773
0.002556557052
0.002570808872
0.002583802621
0.002594076233
0.00260005196
0.002553667174
0.00256117695
0.002571814498
0.002584726184
0.002598891773
0.002613129138
0.002626109061
0.002636371254
0.00264234009
0.002595982349
0.002603484346
0.002614110578
0.002627008045
0.002641157406
0.002655377769
0.002668341546
0.002678590486
0.002684551366
0.002638229109
0.002645721977
0.002656334978
0.002669215901
0.002683346481
0.002697547274
0.002710492561
0.002720726394
0.002726678236
0.002680399922
0.002687882292
0.002698480121
0.002711342139
0.00272545134
0.002739629944
0.002752554343
0.002762771164
0.002768712859
0.002722487057
0.002729957526
0.002740538187
0.002753378869
0.00276746401
0.002781617711
0.002794518732
0.00280471656
0.002810646946
0.002764482453
0.002771939558
0.002782500972
0.002795317773
0.002809376038
0.002823501979
0.002836376992
0.002846553724
0.002852471569
0.002806377562
0.002813819754
0.002824359708
0.002837149918
0.0028511783
0.002865273417
0.002878119588
0.002888272955
0.002894176923
0.002848163149
0.002855588755
0.002866104857
0.002878865537
0.00289286076
0.002906921706
0.002919735929
0.002929863434
0.002935752049
0.002889829066
0.002897236245
0.002907725861
0.002920453761
0.002934412195
0.002948435246
0.002961214052
0.002971312898
0.002977184506
0.002931363974
0.002938750669
0.002949210843
0.002961902315
0.002975819867
0.002989800812
0.003002540271
0.003012607276
0.003018459988
0.002972755031
0.002980118905
0.002990546279
0.003003197159
0.003017069155
0.003031003168
0.00304369876
0.003053730259
0.003059561896
0.003013987531
0.003021325898
0.003031716603
0.003044322094
0.003058143129
0.003072024624
0.003084671104
0.003094662837
0.003100470861
0.003055044499
0.003062354244
0.00307270379
0.003085258313
0.003099022096
0.003112844557
0.003125435802
0.003135382786
0.003141164225
0.003095906252
0.003103183741
0.003113486885
0.003125983923
0.003139683098
0.003153438898
0.003165967733
0.003175864124
0.003181615488
0.003136549917
0.003143790899
0.003154041511
0.003166473435
0.003180099387
0.003193779592
0.003206237609
0.003216076548
0.003221793743
0.003176948931
0.003184148436
0.003194339342
0.00320669723
0.003220239883
0.003233834042
0.003246211406
0.003255984866
0.003261663097
0.003217072526
0.003224224754
0.003234347585
0.003246621029
0.003260068632
0.003273564561
0.003285849806
0.003295548434
0.003301182115
0.003256885215
0.003263983424
0.003274028459
0.003286205374
0.003299544291
0.003312927861
0.003325107688
0.003334720649
0.003340303311
0.003296346305
0.003303382706
0.003313338717
0.003325405155
0.003338619665
0.0033518746
0.003363933684
0.003373448504
0.003378972711
0.003335409442
0.003342375105
0.003352229218
0.003364169197
0.003377241292
0.003390348958
0.003402269788
0.003411672239
0.003417129512
0.003374022212
0.003380906972
0.003390644554
0.003402439923
0.003415349175
0.003428288402
0.003440051136
0.003449325118
0.003454705885
0.003412125877
0.003418918266
0.003428522819
0.003440153134
0.003452876499
0.003465623513
0.003477205906
0.0034863334
0.003491626955
0.003449655213
0.003456342413
0.003465795497
0.003477237874
0.003489749673
0.003502278047
0.003513655428
0.003522616483
0.003527810991
0.003486538486
0.003493106257
0.003502387399
0.003513616566
0.003525888519
0.003538169217
0.003549314535
0.003558087321
0.003563169855
0.003522697387
0.003529130123
0.003538216967
0.003549205377
0.003561206723
0.003573208235
0.003584092199
0.003592653129
0.003597609749
0.003558047553
0.003564328406
0.003573196851
0.003583914863
0.003595612579
0.003607301154
0.003617892476
0.00362621642
0.003631032305
0.003592499305
0.003598610333
0.003607234749
0.003617650907
0.003629010035
0.003640350052
0.003650615807
0.003658676397
0.003663336038
0.003625958647
0.003631881018
0.003640234553