/*--------------------------------*- C++ -*----------------------------------*\
| =========                 |                                                 |
| \\      /  F ield         | OpenFOAM: The Open Source CFD Toolbox           |
|  \\    /   O peration     | Version:  2212                                  |
|   \\  /    A nd           | Website:  www.openfoam.com                      |
|    \\/     M anipulation  |                                                 |
\*---------------------------------------------------------------------------*/
FoamFile
{
    version     2.0;
    format      ascii;
    arch        "LSB;label=32;scalar=64";
    class       volScalarField;
    location    "30.00000000";
    object      A2_0;
}
// * * * * * * * * * * * * * * * * * * * * * * * * * * * * * * * * * * * * * //

dimensions      [0 0 0 0 0 0 0];

internalField   nonuniform List<scalar> 
3000
(
4.681583812e-23
5.256814697e-23
6.124147881e-23
7.27867416e-23
8.707701355e-23
1.037158828e-22
1.216978902e-22
1.388402923e-22
1.509581479e-22
1.757914434e-22
1.981887549e-22
2.319439438e-22
2.769729269e-22
3.331874987e-22
4.00230998e-22
4.769128006e-22
5.593797298e-22
6.324466504e-22
3.938730534e-22
4.475575722e-22
5.292412577e-22
6.400187422e-22
7.817502617e-22
9.563104021e-22
1.16281137e-21
1.389560897e-21
1.583156565e-21
7.505436364e-22
8.618471788e-22
1.033712642e-21
1.271788639e-21
1.584208536e-21
1.978378205e-21
2.451320661e-21
2.9643738e-21
3.377181532e-21
1.333435347e-21
1.550153587e-21
1.890169379e-21
2.370583182e-21
3.013638169e-21
3.836607355e-21
4.824313398e-21
5.869531549e-21
6.669311265e-21
2.294041956e-21
2.701326074e-21
3.349701182e-21
4.280631468e-21
5.544063762e-21
7.172602573e-21
9.119550823e-21
1.114245021e-20
1.264451168e-20
3.89590542e-21
4.644562335e-21
5.850360169e-21
7.601320212e-21
9.995478574e-21
1.30814508e-20
1.673317107e-20
2.044694893e-20
2.312856742e-20
6.594883161e-21
7.950053119e-21
1.015200812e-20
1.337391157e-20
1.779578365e-20
2.34817265e-20
3.014683076e-20
3.682071272e-20
4.155565802e-20
1.118126856e-20
1.360785455e-20
1.757593224e-20
2.341084994e-20
3.14320794e-20
4.171657295e-20
5.368312587e-20
6.553901928e-20
7.385749383e-20
1.902491381e-20
2.333567717e-20
3.041666365e-20
4.086182003e-20
5.522832181e-20
7.359886044e-20
9.485471003e-20
1.157598273e-19
1.303194512e-19
3.250320259e-20
4.011689469e-20
5.266208838e-20
7.120308153e-20
9.670300005e-20
1.292342462e-19
1.667185839e-19
2.033970514e-19
2.288167331e-19
5.57462027e-20
6.913726281e-20
9.124749551e-20
1.239606477e-19
1.689335184e-19
2.26193718e-19
2.919665228e-19
3.56099609e-19
4.00407922e-19
9.593793638e-20
1.194228879e-19
1.582508352e-19
2.157275492e-19
2.946906896e-19
3.950418844e-19
5.100171138e-19
6.218602195e-19
6.990539018e-19
1.655874224e-19
2.067043239e-19
2.747415831e-19
3.754687902e-19
5.137180674e-19
6.890401269e-19
8.89327942e-19
1.083763246e-18
1.218583721e-18
2.86482152e-19
3.584150051e-19
4.775283471e-19
6.538889709e-19
8.957035758e-19
1.20151876e-18
1.548999136e-18
1.884023067e-18
2.122989354e-18
4.965263483e-19
6.223396915e-19
8.308677166e-19
1.13984915e-18
1.563579744e-18
2.098528288e-18
2.700492321e-18
3.252761385e-18
3.70580321e-18
8.614882409e-19
1.081384377e-18
1.446273712e-18
1.987884271e-18
2.733106532e-18
3.681584041e-18
4.774601473e-18
5.866363796e-18
6.548824767e-18
1.495234293e-18
1.878813263e-18
2.515582912e-18
3.460963283e-18
4.761331915e-18
6.413195801e-18
8.302595876e-18
1.013378066e-17
1.137659617e-17
2.595140268e-18
3.262983598e-18
4.371670273e-18
6.017204863e-18
8.278861568e-18
1.11475397e-17
1.442087496e-17
1.758550852e-17
1.975097676e-17
4.503713014e-18
5.66507425e-18
7.592950909e-18
1.045366175e-17
1.438369487e-17
1.936539007e-17
2.50461021e-17
3.053645072e-17
3.429608435e-17
7.815560537e-18
9.833831615e-18
1.318411849e-17
1.815488152e-17
2.498216436e-17
3.363392004e-17
4.349689434e-17
5.302744101e-17
5.955347518e-17
1.356304018e-17
1.706936313e-17
2.28897566e-17
3.152474041e-17
4.338305776e-17
5.840727359e-17
7.553093148e-17
9.207379997e-17
1.033996446e-16
2.353846516e-17
2.962891762e-17
3.973871192e-17
5.473614233e-17
7.532882245e-17
1.014136792e-16
1.311359349e-16
1.598423925e-16
1.794910874e-16
4.085312559e-17
5.143086801e-17
6.898838308e-17
9.503110073e-17
1.307829257e-16
1.760579333e-16
2.276299092e-16
2.774226616e-16
3.11493861e-16
7.090691124e-17
8.927575602e-17
1.197622761e-16
1.649742753e-16
2.270255712e-16
3.055781486e-16
3.950193367e-16
4.81337501e-16
5.403781538e-16
1.230686914e-16
1.549621417e-16
2.078865989e-16
2.863540646e-16
3.940076715e-16
5.30226448e-16
6.85243666e-16
8.347631197e-16
9.369786222e-16
2.135848734e-16
2.689479971e-16
3.607962875e-16
4.969241384e-16
6.835929104e-16
9.196470405e-16
1.188084965e-15
1.446806606e-15
1.623549325e-15
3.706066378e-16
4.666771096e-16
6.260062319e-16
8.620311084e-16
1.185473245e-15
1.594151187e-15
2.058455279e-15
2.505503358e-15
2.810606183e-15
6.428618444e-16
8.094864263e-16
1.085702603e-15
1.494613681e-15
2.054489813e-15
2.761151237e-15
3.563004045e-15
4.334034734e-15
4.859581019e-15
1.114577456e-15
1.403361195e-15
1.881800246e-15
2.589481962e-15
3.557345909e-15
4.777270163e-15
6.159312529e-15
7.485956291e-15
8.388719107e-15
1.931080706e-15
2.431077613e-15
3.258812385e-15
4.48182282e-15
6.152086552e-15
8.253631442e-15
1.062961809e-14
1.290539943e-14
1.445076401e-14
3.342564415e-15
4.207070748e-15
5.636864707e-15
7.746539079e-15
1.062253522e-14
1.423316497e-14
1.830494584e-14
2.219440953e-14
2.482857214e-14
5.77859278e-15
7.270658251e-15
9.735389432e-15
1.336589849e-14
1.830412019e-14
2.44868733e-14
3.143755821e-14
3.805496072e-14
4.252220026e-14
9.974335501e-15
1.254358157e-14
1.678138817e-14
2.301047766e-14
3.146020258e-14
4.200448929e-14
5.381388446e-14
6.50122471e-14
7.254292587e-14
1.718329631e-14
2.159461717e-14
2.885763102e-14
3.950621029e-14
5.390358315e-14
7.17990235e-14
9.175240992e-14
1.105849071e-13
1.231926568e-13
2.95336608e-14
3.708100332e-14
4.948026991e-14
6.760392276e-14
9.201273852e-14
1.222117029e-13
1.557095218e-13
1.871555929e-13
2.081002813e-13
5.0621306e-14
6.347931743e-14
8.454878671e-14
1.152349466e-13
1.563756183e-13
2.070039572e-13
2.628321804e-13
3.149236297e-13
3.494220165e-13
8.648958461e-14
1.082857471e-13
1.438937617e-13
1.955384658e-13
2.644181978e-13
3.486704321e-13
4.409647248e-13
5.265066225e-13
5.82807559e-13
1.472356121e-13
1.839699587e-13
2.437736881e-13
3.300989393e-13
4.445578973e-13
5.836206508e-13
7.348588969e-13
8.740219684e-13
9.650109673e-13
2.496217245e-13
3.111260929e-13
4.108608537e-13
5.540570913e-13
7.426874052e-13
9.701831131e-13
1.215679837e-12
1.439853004e-12
1.585416765e-12
4.212832684e-13
5.23504544e-13
6.885358822e-13
9.240856787e-13
1.232175266e-12
1.600820433e-12
1.995385931e-12
2.352830601e-12
2.583302283e-12
7.074442193e-13
8.75965038e-13
1.146719179e-12
1.53069292e-12
2.029111136e-12
2.620557617e-12
3.24824199e-12
3.812298719e-12
4.17342863e-12
1.181527859e-12
1.456914641e-12
1.897057804e-12
2.516988973e-12
3.315288537e-12
4.254487313e-12
5.242679762e-12
6.123563847e-12
6.683630376e-12
1.961745745e-12
2.407551142e-12
3.116129983e-12
4.107002497e-12
5.372493055e-12
6.84842214e-12
8.388052821e-12
9.74966654e-12
1.060957554e-11
3.236751869e-12
3.951314126e-12
5.080524704e-12
6.647972828e-12
8.633168974e-12
1.092844782e-11
1.330268927e-11
1.538641297e-11
1.669395322e-11
5.304877586e-12
6.43847668e-12
8.219334461e-12
1.067291672e-11
1.375463688e-11
1.728747336e-11
2.091222307e-11
2.407037601e-11
2.604023445e-11
8.633474573e-12
1.041295814e-11
1.319194898e-11
1.699238009e-11
2.172695385e-11
2.711012333e-11
3.259075124e-11
3.733340435e-11
4.027513873e-11
1.394770341e-11
1.671143316e-11
2.100230829e-11
2.682791231e-11
3.402855258e-11
4.215180771e-11
5.036228304e-11
5.742245024e-11
6.177942585e-11
2.236201262e-11
2.66089738e-11
3.316531257e-11
4.200482504e-11
5.284938395e-11
6.499399365e-11
7.718671473e-11
8.761077365e-11
9.40141581e-11
3.55729767e-11
4.203123776e-11
5.194738043e-11
6.522874685e-11
8.140899047e-11
9.940620643e-11
1.173638399e-10
1.326365275e-10
1.419798882e-10
5.613969219e-11
6.586123929e-11
8.07118763e-11
1.004800895e-10
1.244075212e-10
1.508569073e-10
1.771015522e-10
1.993181761e-10
2.128604093e-10
8.788840638e-11
1.023799332e-10
1.244123075e-10
1.535739233e-10
1.886622887e-10
2.272312549e-10
2.653117006e-10
2.974148145e-10
3.169219111e-10
1.36492618e-10
1.578955151e-10
1.902920717e-10
2.329482807e-10
2.840001046e-10
3.398350619e-10
3.947213199e-10
4.408260446e-10
4.687653655e-10
2.102854305e-10
2.416199793e-10
2.88859788e-10
3.50768639e-10
4.245089474e-10
5.047999729e-10
5.834228274e-10
6.492605316e-10
6.890658033e-10
3.214200896e-10
3.669219146e-10
4.352745036e-10
5.244780279e-10
6.302794971e-10
7.450289146e-10
8.570162299e-10
9.505409032e-10
1.00697528e-09
4.874982135e-10
5.530762658e-10
6.512742207e-10
7.789536513e-10
9.298249303e-10
1.092894706e-09
1.251574636e-09
1.383789454e-09
1.4634404e-09
7.338471407e-10
8.277071037e-10
9.678615029e-10
1.149500958e-09
1.363431282e-09
1.593967875e-09
1.817733687e-09
2.003815914e-09
2.115768977e-09
1.096693391e-09
1.230185018e-09
1.429029469e-09
1.685996982e-09
1.987782717e-09
2.312152513e-09
2.626316699e-09
2.887146229e-09
3.043901037e-09
1.627568307e-09
1.816335494e-09
2.096914298e-09
2.458606811e-09
2.882329158e-09
3.336743763e-09
3.776053311e-09
4.140286894e-09
4.35900049e-09
2.399402849e-09
2.664942415e-09
3.058898192e-09
3.565647624e-09
4.158028935e-09
4.792101274e-09
5.404145101e-09
5.911027018e-09
6.215199779e-09
3.514930742e-09
3.886702114e-09
4.437371324e-09
5.144376163e-09
5.969320023e-09
6.850874511e-09
7.70069302e-09
8.403858339e-09
8.825616218e-09
5.118235377e-09
5.636511481e-09
6.403106756e-09
7.385742985e-09
8.530466297e-09
9.752035507e-09
1.092834688e-08
1.190095975e-08
1.248413851e-08
7.410561653e-09
8.130274757e-09
9.193525852e-09
1.055450884e-08
1.213780997e-08
1.382539389e-08
1.544898916e-08
1.679067201e-08
1.759497758e-08
1.06718874e-08
1.166780658e-08
1.31375532e-08
1.501657591e-08
1.719995993e-08
1.95248109e-08
2.175984876e-08
2.360600557e-08
2.471261286e-08
1.52902298e-08
1.666391359e-08
1.868929959e-08
2.127597011e-08
2.427857916e-08
2.747301497e-08
3.054217569e-08
3.307650067e-08
3.459556567e-08
2.180126769e-08
2.369037025e-08
2.647348543e-08
3.002463494e-08
3.414321666e-08
3.852176391e-08
4.272650704e-08
4.619770315e-08
4.827840243e-08
3.094159877e-08
3.353227299e-08
3.734632907e-08
4.220906373e-08
4.784455534e-08
5.383208633e-08
5.957959808e-08
6.432360871e-08
6.716748518e-08
4.371981248e-08
4.726314608e-08
5.247655269e-08
5.911877192e-08
6.681147346e-08
7.498040973e-08
8.281921054e-08
8.928857671e-08
9.316715254e-08
6.151049521e-08
6.63441248e-08
7.345213145e-08
8.250260536e-08
9.297832816e-08
1.040974044e-07
1.147639726e-07
1.235662328e-07
1.288440247e-07
8.617718857e-08
9.275343408e-08
1.024192816e-07
1.14719713e-07
1.289496462e-07
1.440470746e-07
1.585261431e-07
1.704734153e-07
1.776376066e-07
1.20230998e-07
1.291529932e-07
1.422606936e-07
1.589323773e-07
1.782095857e-07
1.986535861e-07
2.182548336e-07
2.344267279e-07
2.441247346e-07
1.670316943e-07
1.790989763e-07
1.968197867e-07
2.193473574e-07
2.453826031e-07
2.729819418e-07
2.994354049e-07
3.212570224e-07
3.343429185e-07
2.31037359e-07
2.473021082e-07
2.711763186e-07
3.015104226e-07
3.365491371e-07
3.736752699e-07
4.092466757e-07
4.385824259e-07
4.561725339e-07
3.181064416e-07
3.399409087e-07
3.719755328e-07
4.126548533e-07
4.596153192e-07
5.093457094e-07
5.569708477e-07
5.96233002e-07
6.197698233e-07
4.358521335e-07
4.650266543e-07
5.078078921e-07
5.620986613e-07
6.247286915e-07
6.910078113e-07
7.544420327e-07
8.067103754e-07
8.380324866e-07
5.940431081e-07
6.328125045e-07
6.89629453e-07
7.616775217e-07
8.447233619e-07
9.325341313e-07
1.016509525e-06
1.085655644e-06
1.127069582e-06
8.050373052e-07
8.562315645e-07
9.312049203e-07
1.026192095e-06
1.135569611e-06
1.251104448e-06
1.361484193e-06
1.452291748e-06
1.506640606e-06
1.084227612e-06
1.151340916e-06
1.249547923e-06
1.373841476e-06
1.516796975e-06
1.667615487e-06
1.811533654e-06
1.929805653e-06
2.000529937e-06
1.45047173e-06
1.537742688e-06
1.665328114e-06
1.826611033e-06
2.011858346e-06
2.207018848e-06
2.392995119e-06
2.545642307e-06
2.636831773e-06
1.926475414e-06
2.03895126e-06
2.203214344e-06
2.410584647e-06
2.648406237e-06
2.898560202e-06
3.136581769e-06
3.331688127e-06
3.448123871e-06
2.539100683e-06
2.682679576e-06
2.892129101e-06
3.156159174e-06
3.458463019e-06
3.775904804e-06
4.077465914e-06
4.324310431e-06
4.471445949e-06
3.319579306e-06
3.501027324e-06
3.765401078e-06
4.098154623e-06
4.478485009e-06
4.877153415e-06
5.255238848e-06
5.564241006e-06
5.748197025e-06
4.303625365e-06
4.530568675e-06
4.860818969e-06
5.27582682e-06
5.749328688e-06
6.244741947e-06
6.713725586e-06
7.096407144e-06
7.323942588e-06
5.531457109e-06
5.812353132e-06
6.220600472e-06
6.732796167e-06
7.316097042e-06
7.925213903e-06
8.500783777e-06
8.969698057e-06
9.248170866e-06
7.047743725e-06
7.391829747e-06
7.89126705e-06
8.516820849e-06
9.227884924e-06
9.96900336e-06
1.066805486e-05
1.123670485e-05
1.157402668e-05
8.901404464e-06
9.318577288e-06
9.923322678e-06
1.067953591e-05
1.153755172e-05
1.243018129e-05
1.327070291e-05
1.395345321e-05
1.435804013e-05
1.114525437e-05
1.164601636e-05
1.237103587e-05
1.327622024e-05
1.430146662e-05
1.536619632e-05
1.636715065e-05
1.717913434e-05
1.765985334e-05
1.383579242e-05
1.443117839e-05
1.529218216e-05
1.636553633e-05
1.757924727e-05
1.883760953e-05
2.001880808e-05
2.0975826e-05
2.154193555e-05
1.703293569e-05
1.773443978e-05
1.874777823e-05
2.000926169e-05
2.143348593e-05
2.290781184e-05
2.428977811e-05
2.540818586e-05
2.606926743e-05
2.079974491e-05
2.161924518e-05
2.280180062e-05
2.427199898e-05
2.592944662e-05
2.764270403e-05
2.924651706e-05
3.05430937e-05
3.130897127e-05
2.520212907e-05
2.615180497e-05
2.752087137e-05
2.922084415e-05
3.113471051e-05
3.311031545e-05
3.495742617e-05
3.644921925e-05
3.732986393e-05
3.030850678e-05
3.140074371e-05
3.297388638e-05
3.492498811e-05
3.711874534e-05
3.938033879e-05
4.149235287e-05
4.319649627e-05
4.420191484e-05
3.61893978e-05
3.743667321e-05
3.923156136e-05
4.145522821e-05
4.395237813e-05
4.652356293e-05
4.892198756e-05
5.085549138e-05
5.199559908e-05
4.291691839e-05
4.433166573e-05
4.636587342e-05
4.888337164e-05
5.170715713e-05
5.461119497e-05
5.731715127e-05
5.949666647e-05
6.078114629e-05
5.056416006e-05
5.215860946e-05
5.444938445e-05
5.728152142e-05
6.045459957e-05
6.371407286e-05
6.674798014e-05
6.918954424e-05
7.062769694e-05
5.920444077e-05
6.099043863e-05
6.355444301e-05
6.672124713e-05
7.026533246e-05
7.390178148e-05
7.728302399e-05
8.0001797e-05
8.160238748e-05
6.891043049e-05
7.089924326e-05
7.375227417e-05
7.727265465e-05
8.120814588e-05
8.524169548e-05
8.898828562e-05
9.199828743e-05
9.376939417e-05
7.975316671e-05
8.195527686e-05
8.511197904e-05
8.900338059e-05
9.334898784e-05
9.779798114e-05
0.0001019262349
0.0001052400965
0.0001071889709
9.180098832e-05
9.422589247e-05
9.769947697e-05
0.0001019775465
0.0001067499376
0.0001116305949
0.0001161548353
0.000119783576
0.0001219165185
0.0001051184273
0.0001077744474
0.0001115764313
0.0001162547144
0.0001214681987
0.0001267943194
0.0001317266232
0.0001356794638
0.0001380017217
0.0001197651049
0.0001226592225
0.0001267992039
0.0001318888873
0.0001375551538
0.0001433378755
0.0001486878749
0.0001529720962
0.0001554877881
0.000135794681
0.0001389324045
0.0001434178848
0.0001489275984
0.0001550555208
0.0001613031476
0.0001670778948
0.0001716987456
0.0001744108148
0.0001532539051
0.0001566391759
0.0001614754387
0.0001674111259
0.0001740066431
0.0001807245494
0.0001869284493
0.0001918891068
0.000194799304
0.0001721818104
0.0001758169528
0.0001810070033
0.0001873718652
0.000194437941
0.0002016285518
0.0002082633625
0.0002135649447
0.0002166738391
0.0001926090843
0.0001964947998
0.0002020393674
0.0002088338797
0.0002163705397
0.0002240333861
0.0002310982834
0.0002367399086
0.0002400469263
0.0002145576374
0.0002186930427
0.0002245906415
0.0002318126418
0.0002398170821
0.0002479489239
0.0002554406238
0.0002614195127
0.0002649229972
0.0002380403821
0.0002424230856
0.0002486701296
0.0002563149643
0.0002647817236
0.0002733767307
0.0002812896596
0.000287601273
0.000291298565
0.0002630612194
0.0002676874314
0.0002742783941
0.0002823391176
0.0002912603001
0.0003003102795
0.0003086367837
0.0003152749865
0.0003191625182
0.0002896152234
0.000294479893
0.0003014075022
0.0003098751145
0.0003192406508
0.000328735309
0.0003374658903
0.0003444231353
0.0003484965345
0.0003176890051
0.0003227859752
0.0003300414322
0.0003389051431
0.0003487030777
0.0003586303035
0.0003677538722
0.0003750213944
0.000379275594
0.0003472612281
0.0003525834024
0.0003601566156
0.0003694041241
0.0003796209141
0.0003899670723
0.0003994712061
0.0004070392205
0.0004114685702
0.0003783032502
0.0003838427636
0.0003917225863
0.0004013403626
0.0004119611796
0.0004227114031
0.0004325826038
0.0004404405014
0.0004450388774
0.0004107798568
0.0004165282441
0.0004247027089
0.0004346762709
0.0004456852931
0.0004568237658
0.0004670477073
0.0004751842425
0.0004799451526
0.0004446500582
0.0004505984155
0.0004590549572
0.0004693691325
0.0004807498217
0.0004922600453
0.0005028218052
0.0005112252717
0.0005161419544
0.0004798679201
0.0004860070548
0.0004947327171
0.0005053718856
0.0005171072421
0.00052897228
0.0005398565526
0.0005485149451
0.0005535804599
0.0005163834028
0.0005227039687
0.0005316855911
0.0005426339028
0.0005547066944
0.0005669093914
0.0005781006785
0.0005870018365
0.0005922091457
0.0005541431842
0.0005606358015
0.0005698601834
0.0005811017506
0.000593494713
0.0006060178874
0.0006175006653
0.0006266324008
0.0006319744413
0.0005930914507
0.0005997468084
0.0006092008502
0.0006207199108
0.0006334159199
0.0006462425281
0.0006580013907
0.0006673515972
0.0006728213432
0.0006331706391
0.0006399795807
0.0006496504011
0.0006614314565
0.0006744136712
0.0006875269447
0.0006995467241
0.000709103469
0.0007146939841
0.0006743221201
0.000681275713
0.0006911507446
0.00070317867
0.0007164306489
0.0007298142063
0.0007420800704
0.0007518316699
0.0007575361518
0.0007164868144
0.0007235764047
0.0007336434683
0.0007459035999
0.0007594093924
0.0007730473272
0.0007855448574
0.0007954799376
0.0008012917528
0.0007596057375
0.0007668229905
0.0007770703517
0.000789548552
0.0008032927674
0.0008171697152
0.0008298849664
0.0008399925099
0.0008459052214
0.0008036204788
0.0008109574064
0.000821373812
0.0008340565133
0.0008480243672
0.0008621255529
0.0008750450978
0.0008853144812
0.0008913218717
0.0008484736109
0.0008559225949
0.0008664973015
0.0008793715356
0.0008935488795
0.0009078601442
0.0009209710968
0.000931392109
0.000937488194
0.0008941089986
0.0009016628078
0.0009123856027
0.0009254390214
0.0009398123623
0.0009543201824
0.0009676102156
0.000978173073
0.0009843521089
0.0009404721683
0.0009481239146
0.0009589850996
0.0009722059763
0.000986762479
0.00100145397
0.001014911322
0.001025606677
0.001031863168
0.0009875105018
0.0009952536501
0.001006244001
0.001019621202
0.001034348679
0.001049211592
0.001062825065
0.001073644003
0.001079972704
0.00103517334
0.00104300171
0.00105411249
0.001067635442
0.001082522336
0.001097545042
0.001111303991
0.001122238032
0.001128633942
0.001083412089
0.001091319845
0.001102542801
0.001116201497
0.001131236846
0.001146408314
0.001160302633
0.001171343712
0.001177802075
0.001132180294
0.00114016193
0.001151489269
0.001165274252
0.001180447671
0.00119575745
0.001209777554
0.001220918017
0.001227434313
0.001181433679
0.001189484005
0.001200908373
0.001214810712
0.00123011238
0.001245550572
0.001259687375
0.00127091996
0.001277489898
0.001231130164
0.001239244286
0.001250758747
0.001264770008
0.001280190644
0.001295747878
0.001309992772
0.001321310596
0.001327930107
0.001281229852
0.001289403155
0.001301001162
0.001315113381
0.001330644214
0.001346311619
0.001360656456
0.001372052998
0.001378718224
0.001331694998
0.001339923128
0.001351598503
0.001365804156
0.001381436892
0.001397206075
0.001411643137
0.001423112224
0.001429819515
0.001382489962
0.001390768809
0.001402515714
0.001416807687
0.001432534481
0.001448397504
0.001462919494
0.001474455279
0.001481201177
0.001433581132
0.001441906813
0.00145371973
0.001468091302
0.00148390474
0.001499854096
0.001514454102
0.001526051052
0.001532832282
0.001484936867
0.001493305708
0.001505179423
0.001519624237
0.001535517306
0.00155154589
0.00156621737
0.001577870245
0.001584683709
0.001536527416
0.001544935944
0.001556865521
0.001571377561
0.001587343621
0.001603444708
0.001618181468
0.001629885309
0.001636728075
0.00158832484
0.001596769765
0.00160875053
0.001623324098
0.00163935686
0.001655524081
0.001670320256
0.001682070368
0.001688939663
0.001640302924
0.001648781127
0.00166080865
0.001675438346
0.001691531851
0.001707759169
0.001722609203
0.001734401142
0.00174129434
0.001692437088
0.001700945613
0.001713015692
0.001727696393
0.001743844988
0.001760126682
0.00177502531
0.001786854867
0.001793769485
0.001744704305
0.001753240343
0.001765348989
0.001780075834
0.001796274156
0.001812604798
0.001827547029
0.001839410218
0.001846343907
0.00179708301
0.001805643892
0.001817787316
0.001832555687
0.001848798645
0.001865173086
0.001880154189
0.001892047231
0.001898997765
0.001849553019
0.001858136208
0.001870310806
0.001885116316
0.001901399075
0.001917812426
0.001932827912
0.001944747227
0.0019517125
0.001902095446
0.001910698528
0.001922900874
0.00193773935
0.001954057314
0.001970504933
0.001985550542
0.001997492736
0.002004470752
0.001954692625
0.001963313301
0.001975540134
0.001990407607
0.002006756407
0.002023233883
0.002038305573
0.002050267426
0.002057256296
0.002007328037
0.002015964118
0.002028212331
0.002043105024
0.002059480504
0.002075983647
0.002091077579
0.002103056039
0.002110053972
0.002059986237
0.002068635637
0.002080902271
0.002095816587
0.002112214794
0.002128739619
0.002143852147
0.002155844316
0.002162849617
0.002112652788
0.002121313517
0.002133595753
0.002148528266
0.002164945436
0.002181488154
0.002196615816
0.002208618947
0.002215630009
0.002165314195
0.002173984356
0.002186279506
0.002201226953
0.002217659503
0.002234216512
0.002249356016
0.002261367502
0.002268382801
0.002217957846
0.002226635629
0.002238941131
0.002253900402
0.002270344923
0.002286912793
0.002302061015
0.00231407838
0.002321096471
0.002270571957
0.002279255636
0.002291569045
0.002306537177
0.00232299042
0.002339565891
0.002354719858
0.002366740752
0.002373760268
0.002323145516
0.002331833442
0.002344152428
0.002359126596
0.002375585468
0.002392165436
0.002407322325
0.002419344517
0.00242636416
0.002375668233
0.002384358836
0.002396681176
0.002411658687
0.002428120241
0.002444701754
0.002459858879
0.002471880253
0.002478898792
0.002428130498
0.002436822277
0.00244914585
0.002464124138
0.002480585569
0.002497165817
0.002512320626
0.002524339169
0.002531355438
0.002480523333
0.002489214857
0.00250153764
0.002516514258
0.002532972892
0.002549549201
0.002564699269
0.002576713073
0.002583725964
0.002532838353
0.002541528255
0.002553848319
0.002568820936
0.002585274227
0.002601844053
0.002616987074
0.002628994325
0.00263600279
0.002585067729
0.002593754706
0.002606070211
0.002621036603
0.002637482128
0.002654043049
0.002669176831
0.002681175808
0.002688178852
0.00263720415
0.002645886959
0.002658196152
0.002673154201
0.00268958965
0.002706139364
0.002721261822
0.002733250892
0.002740247572
0.002689240796
0.002697918251
0.002710219458
0.002725167146
0.002741590321
0.002758126636
0.002773235793
0.002785213404
0.002792202825
0.002741171301
0.002749842271
0.002762133898
0.002777069302
0.002793478111
0.002809998944
0.002825092917
0.002837057597
0.002844038912
0.002792989727
0.002801653134
0.002813933662
0.002828854952
0.002845247403
0.002861750771
0.002876827774
0.002888778126
0.002895750532
0.002844690541
0.002853345357
0.002865613338
0.00288051877
0.002896892969
0.002913376989
0.002928435324
0.002940370023
0.002947332758
0.002896268584
0.00290491383
0.002917167885
0.0029320558
0.002948409943
0.002964872824
0.00297991088
0.002991828669
0.002998781012
0.002947719051
0.002956353794
0.002968592611
0.002983461428
0.002999793802
0.003016233843
0.003031250089
0.003043149776
0.003050091043
0.00299903747
0.003007660822
0.003019883151
0.003034731367
0.003051040341
0.003067455925
0.003082448908
0.003094329361
0.003101258906
0.003050219679
0.003058830794
0.003071035444
0.00308586163
0.003102145654
0.003118535244
0.003133503585
0.003145363732
0.003152280941
0.003101261807
0.003109859879
0.003122045718
0.003136848512
0.003153106111
0.003169468247
0.003184410638
0.003196249461
0.003203153752
0.003152160254
0.003160744515
0.003172910465
0.003187688572
0.003203918344
0.003220251638
0.003235166834
0.003246983367
0.00325387419
0.00320291167
0.00321148139
0.003223626423
0.00323837861
0.003254579221
0.003270882352
0.003285769169
0.003297562495
0.003304439327
0.003253512942
0.003262067422
0.003274190559
0.00328891565
0.003305085827
0.003321357538
0.003336214851
0.003347984096
0.003354846438
0.003303961164
0.00331249974
0.003324600045
0.003339296917
0.003355435446
0.003371674536
0.003386501269
0.0033982456
0.003405092979
0.003354253626
0.00336277566
0.003374852237
0.003389519815
0.003405625533
0.003421830852
0.003436625975
0.003448344594
0.003455176555
0.003404387782
0.003412892661
0.003424944649
0.003439581901
0.003455653689
0.003471824129
0.003486586652
0.00349827879
0.003505094896
0.003454361227
0.003462848359
0.003474874928
0.003489480853
0.003505517628
0.003521652118
0.003536381078
0.003548045989
0.003554845813
0.003504171664
0.003512640475
0.003524640813
0.003539214438
0.003555215143
0.003571312633
0.003586007088
0.003597644039
0.003604427164
0.003553816867
0.00356226679
0.003574240101
0.003588780464
0.003604744056
0.003620803507
0.003635462521
0.003647070781
0.00365383679
0.003603294632
0.003611725104
0.003623670592
0.003638176732
0.003654102161
0.003670122527
0.003684745154
0.003696323982
0.003703072448
0.003652602718
0.003661013167
0.003672930024
0.003687400962
0.003703287154
0.003719267359
0.003733852621
0.003745401249
0.003752131729
0.003701738776
0.00371012861
0.003722015995
0.003736450709
0.003752296541
0.003768235451
0.003782782312
0.00379429992
0.003801011937
0.003750700248
0.003759068839
0.003770925859
0.003785323255
0.003801127517
0.003817023906
0.003831531237
0.003843016927
0.003849709959
0.003799484255
0.003807830917
0.003819656592
0.003834015467
0.003849776822
0.003865629325
0.003880095864
0.003891548622
0.003898222074
0.00384808744
0.003856411406
0.003868204633
0.00388252363
0.003898240557
0.003914047612
0.003928471904
0.003939890559
0.003946543737
0.003896505785
0.003904806169
0.003916565677
0.003930843218
0.003946513945
0.003962273723
0.003976654054
0.003988037216
0.003994669298
0.003944734373
0.003953010133
0.003964734419
0.003978968635
0.003994591051
0.004010301364
0.004024635674
0.004035981666
0.004042591653
0.0039927671
0.004001016986
0.004012704242
0.004026892878
0.004042464429
0.004058122617
0.004072408396
0.004083715166
0.004090301833
0.00404059633
0.00404881882
0.004060466841
0.004074607143
0.0040901247
0.004105727498
0.004119961653
0.004131226671
0.004137788501
0.004088212474
0.004096405699
0.004108011776
0.00412210035
0.004137560053
0.004153103427
0.004167282133
0.00417850226
0.004185037372
0.004135603504
0.004143765156
0.004155325941
0.004169358594
0.004184755668
0.004200234621
0.004214353136
0.004225524479
0.004232030536
0.00418275438
0.00419088161
0.004202392965
0.004216364513
0.004231693052
0.004247101405
0.004261153858
0.004272271597
0.004278745708
0.004229646417
0.004237735707
0.004249192532
0.00426309658
0.004278349303
0.004293679436
0.004307658595
0.004318716791
0.004325155391
0.004276256566
0.0042843036
0.00429569963
0.004309528333
0.00432469631
0.004339938883
0.004353835887
0.004364827269
0.004371225996
0.004322556649
0.004330556157
0.004341883753
0.004355627549
0.004370699903
0.004385843553
0.004399647631
0.004410563369
0.00441691693
0.004368512551
0.004376458152
0.00438770807
0.004401355398
0.004416318997
0.004431350018
0.004445048193
0.004455877663
0.004462179695
0.0044140834
0.004421967438
0.004433128594
0.004446665609
0.004461504744
0.004476406766
0.004489983562
0.004500714117
0.004506957058
0.004459220777
0.004467034158
0.004478093399
0.004491503693
0.004506199774
0.004520953457
0.00453439062
0.00454500738
0.004551182342
0.004503867995
0.004511600034
0.004522541926
0.004535806272
0.00455033756
0.00456492033
0.004578196602
0.004588682262
0.004594778925
0.004547959502
0.004555597797
0.004566404444
0.004579500591
0.00459384197
0.004608227809
0.004621318757
0.004631653464
0.004637660011
0.004591420479
0.004598950812
0.00460960173
0.004622504248
0.004636627087
0.004650786408
0.004663664351
0.004673825658
0.00467972875
0.004634166671
0.004641572975
0.004652045039
0.004664725281
0.0046785974
0.004692497074
0.004705131098
0.004715094006
0.004720878819
0.004676104531
0.004683368898
0.004693636391
0.004706062573
0.004719648388
0.004733251946
0.004745608074
0.004755345179
0.004760995509
0.004717131774
0.004724234564
0.00473426934
0.004746406791
0.004759667692
0.004772935617
0.004784977153
0.004794458947
0.00479995739
0.004757138372
0.004764058422
0.00477383025
0.004785641922
0.004798536706
0.004811426958
0.004823115006
0.004832310328
0.004837638564
0.00479600809
0.004802723113
0.004812200242
0.004823647234
0.004836132762
0.004848601508
0.004859895698
0.004868772348
0.004873911519
0.004833620879
0.004840107836
0.004849257477
0.004860299758
0.004872331845
0.004884334421
0.004895193837
0.004903719349
0.00490865053
0.004869855262
0.004876090836
0.004884879911
0.004895477286
0.004907011809
0.004918503892
0.004928888197
0.004937030769
0.004941735525
0.004904591277
0.004910552494
0.004918948554
0.004929061807
0.004940056012
0.004950994983
0.004960865701
0.004968595242
0.004973056257
0.004937713889
0.004943378844
0.004951351102
0.004960943288
0.004971357237
0.004981703669
0.004991025579
0.004998314832
0.005002516573
0.004969116715
0.004974465349
0.004981985797
0.004991023606