/*--------------------------------*- C++ -*----------------------------------*\
| =========                 |                                                 |
| \\      /  F ield         | OpenFOAM: The Open Source CFD Toolbox           |
|  \\    /   O peration     | Version:  2212                                  |
|   \\  /    A nd           | Website:  www.openfoam.com                      |
|    \\/     M anipulation  |                                                 |
\*---------------------------------------------------------------------------*/
FoamFile
{
    version     2.0;
    format      ascii;
    arch        "LSB;label=32;scalar=64";
    class       volScalarField;
    location    "30.00000000";
    object      A2CH3-2;
}
// * * * * * * * * * * * * * * * * * * * * * * * * * * * * * * * * * * * * * //

dimensions      [0 0 0 0 0 0 0];

internalField   nonuniform List<scalar> 
3000
(
2.264770967e-22
2.543040661e-22
2.962612293e-22
3.52110856e-22
4.212388683e-22
5.017278085e-22
5.887143589e-22
6.716404382e-22
7.302617856e-22
8.504127846e-22
9.587607988e-22
1.122051892e-21
1.339878526e-21
1.611813886e-21
1.936133965e-21
2.307083371e-21
2.706029974e-21
3.059517051e-21
1.905414787e-21
2.165118082e-21
2.56026757e-21
3.096157484e-21
3.781788113e-21
4.626237184e-21
5.62524114e-21
6.722300604e-21
7.659081458e-21
3.630873615e-21
4.169320027e-21
5.000740782e-21
6.152462009e-21
7.663840337e-21
9.570755055e-21
1.185898844e-20
1.434189982e-20
1.634048216e-20
6.450741414e-21
7.499160134e-21
9.14405493e-21
1.146815763e-20
1.457910598e-20
1.856061176e-20
2.333979371e-20
2.839911548e-20
3.227282307e-20
1.109792417e-20
1.306826739e-20
1.620495231e-20
2.070857466e-20
2.682075608e-20
3.469913895e-20
4.411738032e-20
5.39013571e-20
6.116367987e-20
1.884740034e-20
2.246925454e-20
2.830267169e-20
3.677348895e-20
4.835598646e-20
6.328530375e-20
8.095132331e-20
9.891681669e-20
1.118883757e-19
3.190454677e-20
3.846062767e-20
4.911332034e-20
6.470037359e-20
8.609270905e-20
1.136004397e-19
1.458451666e-19
1.781322314e-19
2.010389545e-19
5.409270878e-20
6.583216174e-20
8.502913203e-20
1.132576245e-19
1.52063217e-19
2.018182078e-19
2.597108054e-19
3.170680582e-19
3.57311751e-19
9.203908769e-20
1.128939638e-19
1.471508178e-19
1.976831085e-19
2.67186404e-19
3.560607769e-19
4.588939809e-19
5.600304285e-19
6.304681677e-19
1.572452361e-19
1.940793113e-19
2.547713944e-19
3.444704583e-19
4.678360232e-19
6.252183925e-19
8.065633183e-19
9.840095995e-19
1.106987184e-18
2.696920364e-19
3.344764063e-19
4.414431393e-19
5.997056212e-19
8.172792961e-19
1.094297774e-18
1.412499383e-18
1.722768289e-18
1.937127143e-18
4.641351278e-19
5.77752716e-19
7.655980467e-19
1.043664111e-18
1.425679238e-18
1.911167556e-18
2.467405499e-18
3.008490665e-18
3.381945651e-18
8.010920232e-19
1.000011253e-18
1.329168358e-18
1.816476043e-18
2.485311667e-18
3.3335017e-18
4.302473677e-18
5.243132018e-18
5.895380041e-18
1.385968732e-18
1.733972648e-18
2.310231058e-18
3.163446166e-18
4.333321288e-18
5.812825188e-18
7.493901617e-18
9.114715432e-18
1.027081199e-17
2.402142734e-18
3.010815671e-18
4.019654421e-18
5.514477415e-18
7.564446416e-18
1.015247811e-17
1.306472533e-17
1.573655345e-17
1.792833005e-17
4.167795285e-18
5.231632759e-18
6.996934307e-18
9.617197545e-18
1.322251664e-17
1.781116762e-17
2.309909129e-17
2.838094398e-17
3.168263227e-17
7.233802808e-18
9.089524165e-18
1.21701601e-17
1.674382836e-17
2.303489998e-17
3.102647664e-17
4.016723436e-17
4.902635235e-17
5.50389897e-17
1.255505264e-17
1.578602132e-17
2.114975265e-17
2.911070901e-17
4.005241272e-17
5.393083582e-17
6.976695702e-17
8.507718905e-17
9.555354313e-17
2.178856422e-17
2.740713138e-17
3.67340356e-17
5.057391343e-17
6.958708323e-17
9.368810674e-17
1.211709157e-16
1.477327628e-16
1.659215557e-16
3.781100163e-17
4.757522711e-17
6.378363328e-17
8.783176766e-17
1.2086159e-16
1.627180601e-16
2.104343052e-16
2.565422936e-16
2.881147017e-16
6.561682415e-17
8.258012055e-17
1.107386965e-16
1.525140257e-16
2.09883574e-16
2.825694756e-16
3.654123037e-16
4.454453217e-16
5.002388135e-16
1.138770945e-16
1.433421942e-16
1.922525343e-16
2.648088505e-16
3.644345191e-16
4.906308811e-16
6.344246779e-16
7.733041281e-16
8.683628775e-16
1.976439758e-16
2.488182108e-16
3.337600042e-16
4.59752501e-16
6.32716851e-16
8.517535664e-16
1.101254491e-15
1.342147682e-15
1.506981308e-15
3.430416854e-16
4.319086251e-16
5.793998689e-16
7.981317542e-16
1.098330756e-15
1.478361584e-15
1.911070606e-15
2.3286707e-15
2.614304462e-15
5.953960327e-16
7.496938884e-16
1.005738004e-15
1.385357067e-15
1.906176253e-15
2.565191351e-15
3.315151747e-15
4.038514417e-15
4.533024506e-15
1.033305784e-15
1.301147965e-15
1.745502343e-15
2.404077549e-15
3.307165523e-15
4.449175747e-15
5.747856076e-15
6.99952983e-15
7.854596385e-15
1.792964005e-15
2.257744944e-15
3.028565967e-15
4.170434661e-15
5.735220776e-15
7.712370622e-15
9.958635154e-15
1.212141653e-14
1.359747858e-14
3.110112021e-15
3.916227866e-15
5.252538717e-15
7.230816451e-15
9.939450532e-15
1.335821964e-14
1.723751674e-14
2.096769899e-14
2.351024812e-14
5.392232857e-15
6.789344528e-15
9.103992794e-15
1.252769797e-14
1.72101431e-14
2.3112035e-14
2.979824084e-14
3.621643283e-14
4.058392409e-14
9.342407559e-15
1.176135093e-14
1.576586278e-14
2.168268534e-14
2.976328208e-14
3.993038114e-14
5.142520657e-14
6.243524705e-14
6.991159208e-14
1.617104814e-14
2.035345773e-14
2.727068173e-14
3.747711049e-14
5.139094009e-14
6.885886588e-14
8.855780239e-14
1.073747036e-13
1.201185627e-13
2.795635037e-14
3.517483874e-14
4.709900272e-14
6.466310285e-14
8.855380772e-14
1.184654519e-13
1.520922861e-13
1.841067278e-13
2.057188602e-13
4.825500395e-14
6.06848022e-14
8.118695717e-14
1.113227727e-13
1.522018373e-13
2.032142173e-13
2.603470866e-13
3.145238314e-13
3.509566272e-13
8.313135543e-14
1.044729579e-13
1.396108131e-13
1.911277516e-13
2.607810408e-13
3.47357689e-13
4.438905089e-13
5.3500056e-13
5.959958011e-13
1.428813893e-13
1.793948029e-13
2.393814204e-13
3.270621412e-13
4.451499561e-13
5.912500274e-13
7.533096819e-13
9.054431517e-13
1.006771806e-12
2.449016588e-13
3.071076455e-13
4.090399803e-13
5.574970622e-13
7.565322002e-13
1.001467881e-12
1.27156017e-12
1.523574257e-12
1.690474574e-12
4.18429401e-13
5.238774169e-13
6.961460206e-13
9.45998791e-13
1.279233189e-12
1.686838471e-12
2.133350562e-12
2.547195128e-12
2.819574361e-12
7.123136202e-13
8.90031324e-13
1.179356778e-12
1.596991142e-12
2.150734032e-12
2.823508034e-12
3.555186055e-12
4.228445386e-12
4.668642569e-12
1.207649105e-12
1.505202108e-12
1.987710561e-12
2.680482012e-12
3.593059734e-12
4.693664991e-12
5.881357664e-12
6.96588874e-12
7.670114065e-12
2.038133371e-12
2.532671376e-12
3.331079224e-12
4.470649489e-12
5.961161209e-12
7.744635766e-12
9.65351073e-12
1.138279821e-11
1.249780096e-11
3.422556281e-12
4.237845951e-12
5.547731903e-12
7.405364822e-12
9.816670564e-12
1.267803928e-11
1.571472389e-11
1.844358326e-11
2.01906996e-11
5.716133659e-12
7.048431956e-12
9.177807867e-12
1.217698314e-11
1.603908981e-11
2.058285508e-11
2.536364762e-11
2.962529122e-11
3.233484627e-11
9.490763438e-12
1.164753281e-11
1.507557818e-11
1.986933673e-11
2.59916744e-11
3.313209601e-11
4.058070052e-11
4.716807374e-11
5.132824148e-11
1.565913865e-11
1.911613138e-11
2.457915809e-11
3.216234136e-11
4.176655447e-11
5.287092152e-11
6.435730276e-11
7.44381832e-11
8.076395316e-11
2.566456341e-11
3.114882165e-11
3.97644634e-11
5.163468972e-11
6.654379412e-11
8.363536085e-11
1.011715953e-10
1.164504733e-10
1.259804823e-10
4.176805092e-11
5.0377045e-11
6.382157183e-11
8.220774057e-11
1.051132119e-10
1.311565331e-10
1.576713481e-10
1.806159018e-10
1.94847763e-10
6.747787931e-11
8.084857597e-11
1.016074744e-10
1.297912611e-10
1.646273545e-10
2.039269763e-10
2.436485573e-10
2.778050422e-10
2.988837163e-10
1.081856858e-10
1.287321365e-10
1.60451163e-10
2.032159888e-10
2.556810526e-10
3.144356413e-10
3.734229776e-10
4.238536707e-10
4.54832687e-10
1.720994229e-10
2.033439679e-10
2.513174555e-10
3.155716049e-10
3.938502596e-10
4.809192476e-10
5.677967142e-10
6.416846294e-10
6.868869789e-10
2.715999403e-10
3.186320145e-10
3.904781992e-10
4.861151872e-10
6.018740844e-10
7.298339294e-10
8.568032033e-10
9.642852321e-10
1.029801328e-09
4.251986538e-10
4.953075462e-10
6.018984384e-10
7.429799683e-10
9.127345358e-10
1.09932785e-09
1.283557646e-09
1.438869581e-09
1.533243117e-09
6.603442632e-10
7.638899114e-10
9.206219963e-10
1.126989362e-09
1.373973866e-09
1.644098578e-09
1.909633402e-09
2.132683863e-09
2.267851741e-09
1.01735337e-09
1.168947792e-09
1.39749062e-09
1.697000968e-09
2.053750686e-09
2.442191934e-09
2.822562498e-09
3.141079556e-09
3.33365403e-09
1.555026194e-09
1.775161303e-09
2.105846734e-09
2.537407171e-09
3.049266757e-09
3.604415403e-09
4.14620106e-09
4.598666108e-09
4.871691488e-09
2.358526285e-09
2.675789772e-09
3.150866203e-09
3.768571559e-09
4.498476762e-09
5.287396912e-09
6.055079407e-09
6.69472629e-09
7.080073311e-09
3.550403493e-09
4.004495245e-09
4.682556986e-09
5.561320229e-09
6.596303541e-09
7.711626168e-09
8.794192499e-09
9.694449194e-09
1.023607405e-08
5.305958455e-09
5.951790918e-09
6.913798036e-09
8.157000449e-09
9.61702866e-09
1.118631496e-08
1.270622581e-08
1.39681065e-08
1.472647976e-08
7.874581128e-09
8.787845573e-09
1.014529399e-08
1.189516517e-08
1.394512757e-08
1.614356842e-08
1.8268922e-08
2.003105549e-08
2.108917255e-08
1.160928708e-08
1.289399982e-08
1.479999478e-08
1.725167725e-08
2.011762512e-08
2.318524183e-08
2.614625084e-08
2.859846985e-08
3.007000214e-08
1.70074702e-08
1.880618922e-08
2.14704335e-08
2.48910142e-08
2.8882131e-08
3.314704601e-08
3.725833458e-08
4.066007191e-08
4.270040609e-08
2.476695236e-08
2.727459008e-08
3.098364368e-08
3.573787456e-08
4.127616723e-08
4.718605739e-08
5.287680429e-08
5.758196802e-08
6.040313707e-08
3.58628209e-08
3.934529454e-08
4.448992754e-08
5.107495093e-08
5.873533897e-08
6.68999071e-08
7.47545515e-08
8.124512274e-08
8.513597871e-08
5.165241623e-08
5.647180175e-08
6.3583886e-08
7.267607079e-08
8.324045673e-08
9.448871552e-08
1.053018648e-07
1.142332268e-07
1.195866649e-07
7.401830034e-08
8.066671707e-08
9.046892126e-08
1.029869508e-07
1.175170512e-07
1.32974489e-07
1.478248972e-07
1.600869232e-07
1.674365801e-07
1.055622207e-07
1.147073985e-07
1.281800145e-07
1.453697233e-07
1.65305018e-07
1.864973991e-07
2.068475077e-07
2.236467821e-07
2.337164407e-07
1.498671024e-07
1.624135207e-07
1.808841325e-07
2.044323581e-07
2.317215685e-07
2.607143127e-07
2.885439636e-07
3.115142666e-07
3.252842569e-07
2.118491186e-07
2.290198105e-07
2.542832839e-07
2.86470249e-07
3.237473782e-07
3.633322637e-07
4.01317895e-07
4.32668331e-07
4.514645721e-07
2.982280327e-07
3.216736335e-07
3.561521027e-07
4.00054656e-07
4.50873874e-07
5.048182727e-07
5.565722648e-07
5.992852038e-07
6.248982111e-07
4.181513111e-07
4.5009475e-07
4.970499235e-07
5.568113098e-07
6.25958847e-07
6.993368397e-07
7.697256633e-07
8.278199715e-07
8.62663139e-07
5.84015988e-07
6.274432833e-07
6.912564203e-07
7.724420919e-07
8.66347714e-07
9.659770772e-07
1.061541339e-06
1.140420034e-06
1.187738698e-06
8.125416482e-07
8.714515491e-07
9.579897483e-07
1.068052824e-06
1.19532809e-06
1.33034195e-06
1.459845937e-06
1.566751069e-06
1.630896028e-06
1.126157899e-06
1.205885392e-06
1.322976075e-06
1.471860005e-06
1.643994837e-06
1.826581117e-06
2.001723364e-06
2.146323987e-06
2.233104951e-06
1.554779481e-06
1.662410162e-06
1.820448364e-06
2.021357505e-06
2.253609842e-06
2.499954575e-06
2.73627336e-06
2.931414141e-06
3.048549461e-06
2.138050358e-06
2.282943896e-06
2.49565849e-06
2.766028787e-06
3.07854315e-06
3.410014181e-06
3.728021625e-06
3.990658979e-06
4.148337439e-06
2.928142372e-06
3.122583125e-06
3.407987504e-06
3.770688063e-06
4.189876499e-06
4.634480714e-06
5.061055213e-06
5.41340412e-06
5.624972287e-06
3.993190911e-06
4.253181339e-06
4.634730103e-06
5.119520762e-06
5.679732246e-06
6.273870967e-06
6.843929068e-06
7.314836508e-06
7.597620068e-06
5.421434863e-06
5.767641713e-06
6.275606138e-06
6.920864356e-06
7.666354568e-06
8.456886659e-06
9.215342231e-06
9.841894111e-06
1.021816077e-05
7.326096307e-06
7.784949486e-06
8.458009268e-06
9.312719563e-06
1.029990936e-05
1.134650694e-05
1.235050487e-05
1.317987027e-05
1.367796536e-05
9.850983535e-06
1.045591229e-05
1.134293785e-05
1.246890633e-05
1.376887836e-05
1.51466171e-05
1.646798913e-05
1.755948298e-05
1.821514423e-05
1.317672972e-05
1.396950088e-05
1.51314701e-05
1.660568445e-05
1.830681866e-05
2.010888523e-05
2.18366823e-05
2.32637218e-05
2.412072177e-05
1.752749306e-05
1.855959125e-05
2.007155134e-05
2.198857301e-05
2.419918965e-05
2.653954677e-05
2.878229452e-05
3.063355977e-05
3.174487238e-05
2.317784965e-05
2.451181528e-05
2.646477088e-05
2.893900079e-05
3.17898058e-05
3.480523014e-05
3.769212673e-05
4.007319984e-05
4.150175187e-05
3.045953638e-05
3.217016893e-05
3.467273338e-05
3.784031125e-05
4.148566435e-05
4.533665107e-05
4.901911224e-05
5.205329017e-05
5.387236433e-05
3.976764145e-05
4.194289567e-05
4.512213451e-05
4.914104017e-05
5.375953008e-05
5.863130866e-05
6.328329509e-05
6.711164809e-05
6.940482339e-05
5.156439817e-05
5.430494432e-05
5.830600209e-05
6.335655933e-05
6.91511798e-05
7.525321266e-05
8.107044124e-05
8.585094884e-05
8.871148706e-05
6.637950198e-05
6.979881347e-05
7.478479368e-05
8.10687099e-05
8.826537507e-05
9.582948128e-05
0.0001030273559
0.0001089330123
0.0001124626386
8.481020687e-05
8.903351946e-05
9.518380116e-05
0.0001029218585
0.0001117664801
0.000121043492
0.0001298536939
0.0001370695594
0.0001413766353
0.0001075171653
0.0001126796376
0.0001201870823
0.000129615465
0.0001403695594
0.0001516245286
0.0001622903188
0.000171009586
0.0001762067293
0.0001352166314
0.0001414607189
0.0001505277859
0.000161893113
0.0001748280424
0.0001883341423
0.0002011045488
0.0002115237862
0.0002177250422
0.0001686689789
0.0001761410983
0.0001869749924
0.0002005282392
0.0002159183236
0.0002319497218
0.0002470728905
0.0002593867051
0.0002667044204
0.0002086637722
0.0002175104015
0.0002303174751
0.0002463070757
0.0002644219245
0.0002832460033
0.0003009620782
0.0003153574975
0.0003238990734
0.0002560019266
0.000266365347
0.0002813450557
0.0003000095677
0.0003211060621
0.0003429754327
0.000363509379
0.0003801602802
0.000390024996
0.0003114757583
0.0003234896816
0.0003408284461
0.0003623892062
0.0003867036071
0.0004118483894
0.0004354031808
0.0004544650917
0.0004657411802
0.0003758479263
0.0003896332708
0.0004094986124
0.0004341528214
0.0004618934677
0.0004905142865
0.0005172648475
0.0005388704095
0.0005516325436
0.0004498303774
0.0004654914462
0.0004880267429
0.0005159413857
0.0005472824021
0.0005795444873
0.0006096327124
0.0006338880368
0.0006481953497
0.0005340644213
0.0005516857014
0.0005770058616
0.0006083127926
0.0006433891366
0.0006794178226
0.0007129489052
0.0007399309793
0.000755825697
0.0006291029689
0.0006487467187
0.0006769349907
0.0007117274225
0.0007506314909
0.0007905092925
0.0008275494904
0.0008573047089
0.0008748114251
0.0007353957963
0.0007571005246
0.0007882065677
0.000826537085
0.0008693169783
0.000913082307
0.0009536581661
0.0009862019811
0.001005327564
0.0008532784586
0.0008770583296
0.0009110975789
0.0009529776903
0.0009996371159
0.001047284582
0.001091383544
0.00112670116
0.001147435237
0.0009829652141
0.001008810346
0.001045764614
0.001091165751
0.001141665441
0.001193147594
0.001240719841
0.001278767822
0.001301083769
0.001124546043
0.001152423619
0.0011922428
0.00124109859
0.001295359029
0.001350589323
0.001401550639
0.001442259265
0.001466115598
0.001277987604
0.001307843658
0.001350448355
0.001402657939
0.001460563147
0.00151941986
0.001573655286
0.001616931467
0.001642273524
0.001443137752
0.001474899492
0.001520184344
0.001575616471
0.001637018549
0.001699349382
0.001756717403
0.001802447958
0.001829209782
0.001619733115
0.0016533116
0.001701149085
0.001759646719
0.001824370871
0.001889997945
0.001950334974
0.001998390103
0.002026496408
0.001807409099
0.001842702124
0.001892946607
0.001954331783
0.002022181554
0.002090906549
0.002154031485
0.002204268269
0.002233636415
0.002005711674
0.002042606715
0.00209509855
0.002159177247
0.002229939721
0.002301548939
0.002367267623
0.002419533416
0.002450075314
0.002214110306
0.00225248738
0.002307056895
0.002373623734
0.002447074515
0.002521343691
0.002589453107
0.002643588723
0.002675212618
0.002432011421
0.002471745789
0.002528217007
0.002597059622
0.002672967439
0.002749666161
0.002819958278
0.002875800887
0.00290841298
0.002658771885
0.002699736496
0.002757930511
0.002828833494
0.002906964328
0.002985859976
0.003058125158
0.003115510858
0.00314901674
0.002893712056
0.002935779706
0.002995517641
0.003068265975
0.003148386649
0.003229247811
0.003303277759
0.003362043786
0.003396349675
0.003136128073
0.003179173238
0.003240278751
0.003314660727
0.003396541927
0.003479141262
0.003554731479
0.003614718058
0.003649731837
0.003385303111
0.003429203457
0.003491504807
0.003567314399
0.003650733137
0.003734849705
0.003811801496
0.003872853343
0.003908485401
0.003640517463
0.00368515504
0.003748486707
0.003825525443
0.003910266989
0.003995688065
0.004073810096
0.004135777594
0.004171941495
0.003901057332
0.003946319473
0.004010523378
0.004088601741
0.004174461061
0.004260983491
0.004340092954
0.00440283303
0.004439446009
0.004166222325
0.004212002277
0.004276928642
0.004355867047
0.004442649802
0.004530080947
0.004610004365
0.004673381107
0.00471036443
0.004435331662
0.004481528992
0.004547036875
0.004626666279
0.004714189457
0.004802347772
0.004882921505
0.004946806552
0.004984085745
0.004707729164
0.00475424996
0.004820207531
0.004900369743
0.004988461955
0.005077177276
0.005158247773
0.005222520512
0.005260025485
0.00498278711
0.005029544031
0.005095828623
0.005176376349
0.005264877879
0.005353991465
0.005435415298
0.005499962908
0.005537627994
0.00525990907
0.005306821257
0.005373319248
0.005454115948
0.005542878593
0.005632242966
0.005713886708
0.005778604078
0.005816367999
0.005538531814
0.005585524717
0.005652131278
0.005733050866
0.005821937617
0.005911416267
0.005993156237
0.006057945787
0.006095751567
0.005818126422
0.00586513155
0.005931750305
0.006012676747
0.00610156137
0.006191028352
0.006272750274
0.006337521705
0.006375316537
0.006098198749
0.006145153375
0.006211695981
0.006292522803
0.006381289323
0.006470628775
0.006552227381
0.006616897398
0.006654632503
0.006378289352
0.006425136227
0.006491521964
0.006572151744
0.006660693891
0.006749799492
0.006831178039
0.00689566999
0.006933300424
0.006657972817
0.006704659878
0.006770815232
0.006851159096
0.006939379764
0.007028154204
0.007109224018
0.007173467543
0.007210952002
0.00693685748
0.006983337281
0.00704919537
0.007129172421
0.00721698307
0.007305337488
0.007386017483
0.007449948169
0.007487248804
0.007214584548
0.007260813855
0.007326313697
0.007405850306
0.00749317033
0.007581023745
0.007661239941
0.007724798962
0.007761881174
0.007490826405
0.00753676595
0.007601852066
0.007680881153
0.007767637277
0.007854916012
0.007934601044
0.007997734788
0.008034567028
0.007765285052
0.007810899239
0.00787552131
0.007953981943
0.008040107537
0.008126744639
0.008205837275
0.008268496993
0.008305050561
0.008037690512
0.008082947124
0.008147059585
0.008224896549
0.008310331118
0.008396265865
0.00847471056
0.008536852023
0.008573100878
0.008307799207
0.008352669136
0.008416230801
0.008493394157
0.008578082937
0.008663260364
0.008741006835
0.008802590006
0.008838510585
0.00857539233
0.008619849325
0.008682823041
0.008759267734
0.008843161309
0.008927531732
0.009004534566
0.009065523311
0.009101094358
0.008840274228
0.008884294663
0.008946646988
0.009022332446
0.009105386311
0.009188904966
0.009265123293
0.00932548511
0.009360687518
0.009102270834
0.009145833497
0.009207534404
0.009282424202
0.00936459839
0.009447225072
0.009522622225
0.009582327991
0.009617144663
0.009361228134
0.009404314039
0.009465336637
0.009539398151
0.009620656902
0.009702355677
0.009776898918
0.009835922638
0.009870338323
0.009617010621
0.009659602819
0.00971992313
0.009793127305
0.00987343879
0.009954177699
0.01002783789
0.01008615646
0.01012015762
0.009869499938
0.009911583378
0.009971180119
0.01004350118
0.01012283719
0.01020258794
0.0102753393
0.01033293231
0.01036650702
0.01011859356
0.01016015494
0.01021900931
0.01029042452
0.0103687602
0.01044749788
0.01051931774
0.01057616729
0.01060930511
0.01036420354
0.01040523117
0.01046332668
0.01053381609
0.01061112967
0.0106888325
0.01075970111
0.01081579164
0.0108484835
0.01060625529
0.01064673898
0.01070406126
0.01077360755
0.01084988013
0.01092652927
0.01099642955
0.01105174764
0.01108398576
0.01084468653
0.01088461749
0.01094115414
0.01100974237
0.01108495773
0.01116053703
0.01122945441
0.01128398865
0.01131576645
0.01107944624
0.01111881695
0.01117455741
0.0112421749
0.01131631929
0.01139081511
0.01145873733
0.0115124782
0.01154379018
0.01131049367
0.01134929782
0.01140423325
0.01147086939
0.01154393136
0.01161733243
0.01168424939
0.01173718905
0.01176803074
0.01153779752
0.01157602991
0.01163015304
0.01169579917
0.01176776942
0.0118400666
0.01190597022
0.01195810244
0.01198847032
0.01176133506
0.01179899153
0.01185229656
0.01191694581
0.01198781703
0.01205900322
0.01212388725
0.0121752073
0.01220509871
0.0119810914
0.01201816876
0.01207065127
0.01213429846
0.01220406518
0.01227413515
0.01233799506
0.01238849957
0.01241791266
0.01219705879
0.01223355474
0.01228521159
0.01234785307
0.01241651155
0.0124854618
0.01254829468
0.01259798154
0.01262691521
0.01240923596
0.01244514905
0.01249597829
0.01255761187
0.01262515994
0.01269298858
0.01275479298
0.01280366127
0.01283211512
0.01261762755
0.0126529571
0.01270295786
0.01276358271
0.0128300197
0.01289672634
0.01295750217
0.01300555206
0.01303352631
0.01282224354
0.01285698958
0.01290616206
0.01296577857
0.01303110518
0.01309669079
0.01315643925
0.0132036719
0.01323116738
0.01302309874
0.013057262
0.01310560732
0.01316421706
0.01322843524
0.01329290211
0.01335162554
0.01339804305
0.01342506112
0.01322021237
0.01325379418
0.01330131436
0.01335891996
0.01342203287
0.01348538445
0.01354308628
0.01358869161
0.01361523413
0.01341360757
0.01344660986
0.01349330773
0.01354991284
0.01361192471
0.01367416554
0.01373085021
0.01377564709
0.01380171639
0.01360331107
0.0136357363
0.01368161547
0.01373722462
0.01379814071
0.01385927634
0.01391494919
0.01395894209
0.0139845409
0.01378935279
0.01382120392
0.01386626869
0.01392088729
0.01398071376
0.01404075068
0.01409541792
0.01413861196
0.0141637434
0.01397176553
0.01400304597
0.01404730129
0.01410093554
0.01415967942
0.01421862497
0.01427229355
0.01431469448
0.01433936203
0.01415058464
0.01418129824
0.01422474966
0.01427740647
0.01433507558
0.01439293789
0.01444561548
0.01448722958
0.01451143705
0.01432584777
0.01435599877
0.01439865238
0.01445033933
0.01450694221
0.01456373011
0.01461542505
0.01465625912
0.01468001058
0.0144975946
0.01452718758
0.01456905
0.01461977526
0.01467532111
0.01473104412
0.0147817653
0.01482182661
0.01484512642
0.01466586658
0.01469490647
0.01473598477
0.01478575709
0.01484025571
0.01489492391
0.01494468079
0.014983977
0.01500682976
0.01483070677
0.01485919879
0.01489950046
0.01494832908
0.01500179082
0.01505541484
0.01510421736
0.01514275653
0.01516516704
0.01499215956
0.01502010921
0.01505964213
0.01510753676
0.01515997245
0.01521256343
0.01526042195
0.01529821248
0.01532018574
0.01515027056
0.01517768359
0.01521645597
0.01526342673
0.01531484768
0.01536641717
0.01541334246
0.01545039303
0.01547193423
0.01530508639
0.01533196876
0.01536998914
0.01541604652
0.01546646442
0.01551702439
0.01556302756
0.01559934714
0.01562046159
0.01545665452
0.0154830124
0.01552028959
0.01556544442
0.01561487132
0.01566443409
0.01570952656
0.01574512436
0.01576581751
0.01560502315
0.01563086289
0.01566740596
0.01571166936
0.01576011763
0.01580869581
0.01585288927
0.0158877747
0.01590805214
0.01575024105
0.01577556915
0.01581138739
0.01585477075
0.01590225303
0.01594985951
0.01599316591
0.01602734854
0.01604721596
0.01589235745
0.01591718056
0.01595228344
0.01599479839
0.01604132756
0.01608797547
0.01613040694
0.01616389653
0.01618335967
0.01603142193
0.01605574682
0.016090144
0.01613180233
0.0161773915
0.01622309416
0.016264663
0.01629746943
0.01631653413
0.01616748432
0.01619131785
0.01622501911
0.01626583281
0.01631049525
0.01635526614
0.01639598482
0.01642811805
0.0164467902
0.01630059457
0.0163239437
0.01635695895
0.01639694012
0.01644068925
0.016484542
0.01652442307
0.01655589317
0.0165741787
0.01643080269
0.01645367444
0.01648601367
0.01652517455
0.01656802388
0.01661097222
0.01665002833
0.01668084543
0.0166987503
0.01655815863
0.01658056008
0.01661223337
0.01665058626
0.01669254941
0.01673460714
0.016772851
0.01680302524
0.01682055544
0.01668271222
0.0167046505
0.01673566798
0.01677322524
0.01681431587
0.01685549683
0.01689294118
0.01692248275
0.01693964425
0.01680451311
0.01682599534
0.01685636717
0.01689314119
0.01693337298
0.01697369103
0.01701034861
0.01703926768
0.01705606648
0.01692361061
0.01694464395
0.01697438028
0.01701038346
0.01704977008
0.01708923907
0.01712512261
0.01715342932
0.01716987138
0.01704005368
0.01706064528
0.01708975625
0.01712500096
0.01716355606
0.01720218977
0.01723731194
0.01726501639
0.01728110763
0.01715389083
0.01717404778
0.01720254351
0.01723704205
0.0172747792
0.01731259136
0.01734696473
0.01737407694
0.01738982325
0.01726516997
0.01728489936
0.01731278988
0.01734655448
0.01738348714
0.01742049134
0.01745412838
0.01748065828
0.01749606546
0.0173739384
0.01739324723
0.01742054248
0.01745358524
0.01748972673
0.0175259364
0.01755884942
0.01758480679
0.01759988058
0.01748024262
0.0174991378
0.01752584761
0.01755818046
0.0175935439
0.01762897227
0.01766117338
0.01768656783
0.01770131387
0.01758412822
0.01760261658
0.01762875058
0.01766038525
0.01769498353
0.01772964358
0.01776114463
0.01778598558
0.01780040936
0.01768563979
0.01770372798
0.01772929563
0.01776024358
0.01779408928
0.01782799366
0.01785880621
0.0178831028
0.01789720966
0.01778482067
0.01780251519
0.01782752567
0.01785779805
0.01789090338
0.01792406437
0.01795419959
0.01797796068
0.01799175579
0.01788171283
0.01789901995
0.01792348216
0.01795308973
0.01798546647
0.01801789586
0.01804736448
0.01807059855
0.01808408684
0.01797635663
0.01799328239
0.01801720483
0.01804615789
0.01807781728
0.01810952633
0.01813833857
0.01816105367
0.01817423982
0.01806879059
0.01808534073
0.01810873148
0.01813703978
0.01816799246
0.01819899176
0.01822715722
0.01824936089
0.01826224928
0.01815905117
0.01817523105
0.0181980977
0.01822577035
0.01825602622
0.01828632563
0.0183138532
0.01833555239
0.01834814705
0.01824717245
0.01826298705
0.01828533657
0.01831238197
0.0183419501
0.0183715586
0.01839845636
0.01841965739
0.01843196194
0.01833318588
0.0183486397
0.01837047841
0.01839690409
0.01842579263
0.01845471825
0.01848099335
0.01850170178
0.01851371942
0.01841711998
0.018432217
0.01845355045
0.01847936304
0.01850757906
0.01853582873
0.01856148734
0.0185817079
0.01859344132
0.01849900008
0.01851374369
0.0185345766
0.01855978166
0.0185873311
0.01861491056
0.01863995771
0.01865969425
0.01867114564
0.018578848
0.01859324096
0.01861357712
0.01863817912
0.01866506663
0.01869198035
0.01871641989
0.01873567532
0.01874684628
0.01865668188
0.01867072625
0.01869056848
0.01871457065
0.01874079958
0.01876705066
0.01879088521
0.01880966142
0.01882055299
0.01873251592
0.01874621304
0.01876556313
0.01878896745
0.01881453974
0.01884012988
0.01886336076
0.01888165864
0.01889227125
0.01880636029
0.01881971075
0.01883856941
0.01886137658
0.01888629275
0.01891122222
0.01893384947
0.01895166887
0.01896200238
0.01887822108
0.01889122468
0.01890959155
0.01893180095
0.0189560601
0.01898032778
0.01900235014
0.01901968993
0.0190297436
0.01894810023
0.01896075606
0.01897862971
0.01900023944
0.01902383929
0.01904744267
0.01906885768
0.01908571577
0.01909548835
0.01901599576
0.01902830213
0.01904568011
0.01906668706
0.01908962403
0.01911255933
0.01913336337
0.01914973679
0.01915922652
0.01908190187
0.01909385645
0.01911073536
0.01913113527
0.01915340455
0.01917566679
0.01919585518
0.01921174018
0.01922094486
0.01914580922
0.01915740906
0.01917378465
0.01919357228
0.01921516799
0.0192367511
0.01925631824
0.01927171037
0.01928062741
0.01920770539
0.01921894699
0.01923481426
0.01925398347
0.01927489875
0.01929579576
0.01931473524
0.01932962946
0.01933825596
0.01926757525
0.01927845466
0.01929380798
0.01931235182
0.01933257898
0.01935278215
0.01937108695
0.01938547772
0.01939381049
0.01932540154
0.01933591439
0.0193507475
0.01936865838
0.0193881891
0.01940769009
0.01942535266
0.01943923405
0.01944726969
0.01938116507
0.01939130666
0.01940561294
0.01942288283
0.01944170834
0.01946049838
0.01947751074
0.0194908765
0.01949861141
0.01943484547
0.01944461094
0.01945838352
0.01947500411
0.01949311533
0.01951118531
0.01952753921
0.01954038282
0.01954781321
0.01948642185
0.01949580627
0.01950903818
0.01952500104
0.01954238872
0.01955972937
0.01957541632
0.01958773106
0.01959485299
0.01953587353
0.019544872
0.01955755629
0.01957285299
0.01958950789
0.01960610987
0.0196211213
0.0196329003
0.0196397097
0.01958318078
0.0195917885
0.01960391839
0.01961854068
0.01963445369
0.01965030777
0.01966463513
0.01967587149
0.01968236425
0.01962832554
0.01963653796
0.01964810697
0.01966204696
0.01967720934
0.0196923066
0.01970594158
0.01971662852
0.01972280056
0.01967129236
0.01967910525
0.01969010741
0.01970335777
0.0197177614
0.01973209349
0.01974502827
0.01975515939
0.01976100681
0.01971206922
0.01971947889
0.0197299089
0.01974246317
0.01975610084
0.01976966038
0.01978188799
0.01979145755
0.01979697684
0.01975064857
0.01975765196
0.01976750551
0.0197793584
0.01979222424
0.01980500519
0.01981651998
0.01982552333
0.01983071165
0.01978702831
0.01979362323
0.01980289722
0.01981404501
0.01982613493
0.01983813316
0.01984893132
0.01985736536
0.01986222085
0.01982121275
0.01982739809
0.01983609102
0.01984653196
0.01985784418
0.01986905805
0.01987913818
0.0198870019
0.01989152401
0.01985321361
0.01985898958
0.01986710186
0.01987683668
0.01988737227
0.0198978032