/*--------------------------------*- C++ -*----------------------------------*\
| =========                 |                                                 |
| \\      /  F ield         | OpenFOAM: The Open Source CFD Toolbox           |
|  \\    /   O peration     | Version:  2212                                  |
|   \\  /    A nd           | Website:  www.openfoam.com                      |
|    \\/     M anipulation  |                                                 |
\*---------------------------------------------------------------------------*/
FoamFile
{
    version     2.0;
    format      ascii;
    arch        "LSB;label=32;scalar=64";
    class       volScalarField;
    location    "30.00000000";
    object      A2CH3-2_0;
}
// * * * * * * * * * * * * * * * * * * * * * * * * * * * * * * * * * * * * * //

dimensions      [0 0 0 0 0 0 0];

internalField   nonuniform List<scalar> 
3000
(
2.264786148e-22
2.543060962e-22
2.962641363e-22
3.521150767e-22
4.212448522e-22
5.017358758e-22
5.887244176e-22
6.716516523e-22
7.302728168e-22
8.504184146e-22
9.587683181e-22
1.12206262e-21
1.339894017e-21
1.611835636e-21
1.936162532e-21
2.307116211e-21
2.706058638e-21
3.059531189e-21
1.905426737e-21
2.165133933e-21
2.560290008e-21
3.096189525e-21
3.78183164e-21
4.626286963e-21
5.625267375e-21
6.722223369e-21
7.658816484e-21
3.6308939e-21
4.169346436e-21
5.000777337e-21
6.152512199e-21
7.663899579e-21
9.570777279e-21
1.18587802e-20
1.434095322e-20
1.63383033e-20
6.450771408e-21
7.499197842e-21
9.144104835e-21
1.146822105e-20
1.457916047e-20
1.856051666e-20
2.333897537e-20
2.839605756e-20
3.226615656e-20
1.109796486e-20
1.306831619e-20
1.620501409e-20
2.070865621e-20
2.682087762e-20
3.469940155e-20
4.411823874e-20
5.39041874e-20
6.117000986e-20
1.884745362e-20
2.246931519e-20
2.830274321e-20
3.677357529e-20
4.835610062e-20
6.328551228e-20
8.095188764e-20
9.891836089e-20
1.118913039e-19
3.190461686e-20
3.84607045e-20
4.911340639e-20
6.470046998e-20
8.60928178e-20
1.136005763e-19
1.458453927e-19
1.781326702e-19
2.010396407e-19
5.409280237e-20
6.583226276e-20
8.502924332e-20
1.132577475e-19
1.520633523e-19
2.018183581e-19
2.597109813e-19
3.170682768e-19
3.573120093e-19
9.203921296e-20
1.128940992e-19
1.471509683e-19
1.976832786e-19
2.671865985e-19
3.560610015e-19
4.588942423e-19
5.600307307e-19
6.304685014e-19
1.572454021e-19
1.940794934e-19
2.547716024e-19
3.444707039e-19
4.678363213e-19
6.252187599e-19
8.065637705e-19
9.840101403e-19
1.10698779e-18
2.69692255e-19
3.344766535e-19
4.414434362e-19
5.997059966e-19
8.172797877e-19
1.094298425e-18
1.412500229e-18
1.722769336e-18
1.937128335e-18
4.641354186e-19
5.777530614e-19
7.655984912e-19
1.043664718e-18
1.42568009e-18
1.911168742e-18
2.467407086e-18
3.008492654e-18
3.381947919e-18
8.010924166e-19
1.000011746e-18
1.329169034e-18
1.816477017e-18
2.485313082e-18
3.333503697e-18
4.302476342e-18
5.24313532e-18
5.895383755e-18
1.38596926e-18
1.733973332e-18
2.310232026e-18
3.163447582e-18
4.333323333e-18
5.812828012e-18
7.493905272e-18
9.114719806e-18
1.027081678e-17
2.402143407e-18
3.010816544e-18
4.01965564e-18
5.514479151e-18
7.564448821e-18
1.015248125e-17
1.306472915e-17
1.573655772e-17
1.792833454e-17
4.167796082e-18
5.231633752e-18
6.996935617e-18
9.61719928e-18
1.322251885e-17
1.781117023e-17
2.309909414e-17
2.838094683e-17
3.168263497e-17
7.23380371e-18
9.08952521e-18
1.217016134e-17
1.67438298e-17
2.303490157e-17
3.102647819e-17
4.016723565e-17
4.902635323e-17
5.503899026e-17
1.25550537e-17
1.578602244e-17
2.114975383e-17
2.911071019e-17
4.00524138e-17
5.393083663e-17
6.976695742e-17
8.507718903e-17
9.55535429e-17
2.178856557e-17
2.740713276e-17
3.673403699e-17
5.057391477e-17
6.958708446e-17
9.368810776e-17
1.211709165e-16
1.477327635e-16
1.659215565e-16
3.781100347e-17
4.757522899e-17
6.378363524e-17
8.78317697e-17
1.208615921e-16
1.627180622e-16
2.104343074e-16
2.565422961e-16
2.881147045e-16
6.561682665e-17
8.258012315e-17
1.107386994e-16
1.525140288e-16
2.098835774e-16
2.825694793e-16
3.654123078e-16
4.454453261e-16
5.002388184e-16
1.138770977e-16
1.433421977e-16
1.922525382e-16
2.648088548e-16
3.644345239e-16
4.906308865e-16
6.344246835e-16
7.733041341e-16
8.683628842e-16
1.976439797e-16
2.488182152e-16
3.337600091e-16
4.597525066e-16
6.327168572e-16
8.517535733e-16
1.101254499e-15
1.34214769e-15
1.506981316e-15
3.430416902e-16
4.319086306e-16
5.793998749e-16
7.981317612e-16
1.098330764e-15
1.478361593e-15
1.911070615e-15
2.32867071e-15
2.614304473e-15
5.953960386e-16
7.496938952e-16
1.005738012e-15
1.385357077e-15
1.906176264e-15
2.565191364e-15
3.315151759e-15
4.03851443e-15
4.533024522e-15
1.033305791e-15
1.301147974e-15
1.745502354e-15
2.404077562e-15
3.307165539e-15
4.449175766e-15
5.747856095e-15
6.999529851e-15
7.854596411e-15
1.792964014e-15
2.257744957e-15
3.028565984e-15
4.170434682e-15
5.735220802e-15
7.712370653e-15
9.958635185e-15
1.212141656e-14
1.359747862e-14
3.110112035e-15
3.916227886e-15
5.252538743e-15
7.230816484e-15
9.939450577e-15
1.335821969e-14
1.723751679e-14
2.096769904e-14
2.351024819e-14
5.392232881e-15
6.78934456e-15
9.103992834e-15
1.252769803e-14
1.721014317e-14
2.311203509e-14
2.979824092e-14
3.621643292e-14
4.058392422e-14
9.342407598e-15
1.176135098e-14
1.576586285e-14
2.168268544e-14
2.97632822e-14
3.993038128e-14
5.14252067e-14
6.243524721e-14
6.991159229e-14
1.61710482e-14
2.035345781e-14
2.727068184e-14
3.747711064e-14
5.13909403e-14
6.885886612e-14
8.855780264e-14
1.073747038e-13
1.20118563e-13
2.795635047e-14
3.517483887e-14
4.709900291e-14
6.466310313e-14
8.85538081e-14
1.184654523e-13
1.520922866e-13
1.841067283e-13
2.057188609e-13
4.825500413e-14
6.068480244e-14
8.118695753e-14
1.113227732e-13
1.52201838e-13
2.032142181e-13
2.603470874e-13
3.145238323e-13
3.509566284e-13
8.313135575e-14
1.044729583e-13
1.396108138e-13
1.911277525e-13
2.60781042e-13
3.473576904e-13
4.438905103e-13
5.350005616e-13
5.959958032e-13
1.428813898e-13
1.793948037e-13
2.393814216e-13
3.270621428e-13
4.451499581e-13
5.912500297e-13
7.533096841e-13
9.054431544e-13
1.00677181e-12
2.449016598e-13
3.07107647e-13
4.090399824e-13
5.574970649e-13
7.565322037e-13
1.001467885e-12
1.271560173e-12
1.523574261e-12
1.69047458e-12
4.184294028e-13
5.238774195e-13
6.961460242e-13
9.459987955e-13
1.279233195e-12
1.686838477e-12
2.133350568e-12
2.547195136e-12
2.819574371e-12
7.123136234e-13
8.900313285e-13
1.179356784e-12
1.59699115e-12
2.150734042e-12
2.823508045e-12
3.555186065e-12
4.228445398e-12
4.668642586e-12
1.20764911e-12
1.505202116e-12
1.987710571e-12
2.680482025e-12
3.59305975e-12
4.693665009e-12
5.881357682e-12
6.965888762e-12
7.670114095e-12
2.038133381e-12
2.532671389e-12
3.331079241e-12
4.47064951e-12
5.961161236e-12
7.744635797e-12
9.65351076e-12
1.138279825e-11
1.249780101e-11
3.422556299e-12
4.237845971e-12
5.547731931e-12
7.405364861e-12
9.816670612e-12
1.267803933e-11
1.571472394e-11
1.844358332e-11
2.019069968e-11
5.716133689e-12
7.048431992e-12
9.177807918e-12
1.217698321e-11
1.603908989e-11
2.058285516e-11
2.53636477e-11
2.962529132e-11
3.233484639e-11
9.49076349e-12
1.164753288e-11
1.507557826e-11
1.986933684e-11
2.599167452e-11
3.313209612e-11
4.058070063e-11
4.71680739e-11
5.132824169e-11
1.565913874e-11
1.91161315e-11
2.457915823e-11
3.216234152e-11
4.176655465e-11
5.287092171e-11
6.435730296e-11
7.443818347e-11
8.076395351e-11
2.566456357e-11
3.114882185e-11
3.976446362e-11
5.163468999e-11
6.654379443e-11
8.363536115e-11
1.011715956e-10
1.164504737e-10
1.259804828e-10
4.176805119e-11
5.037704532e-11
6.38215722e-11
8.220774101e-11
1.051132124e-10
1.311565336e-10
1.576713486e-10
1.806159025e-10
1.948477638e-10
6.747787974e-11
8.084857649e-11
1.01607475e-10
1.297912618e-10
1.646273553e-10
2.03926977e-10
2.436485581e-10
2.778050433e-10
2.988837177e-10
1.081856865e-10
1.287321374e-10
1.60451164e-10
2.032159899e-10
2.556810537e-10
3.144356424e-10
3.734229789e-10
4.238536726e-10
4.548326891e-10
1.720994241e-10
2.033439693e-10
2.513174572e-10
3.155716067e-10
3.938502615e-10
4.809192494e-10
5.677967163e-10
6.416846324e-10
6.868869823e-10
2.715999423e-10
3.186320167e-10
3.904782019e-10
4.861151902e-10
6.018740874e-10
7.298339324e-10
8.568032067e-10
9.642852368e-10
1.029801333e-09
4.251986571e-10
4.9530755e-10
6.018984427e-10
7.429799731e-10
9.127345407e-10
1.099327854e-09
1.283557651e-09
1.438869589e-09
1.533243126e-09
6.603442686e-10
7.638899177e-10
9.206220033e-10
1.12698937e-09
1.373973874e-09
1.644098585e-09
1.909633411e-09
2.132683874e-09
2.267851753e-09
1.017353379e-09
1.168947802e-09
1.397490631e-09
1.697000979e-09
2.053750697e-09
2.442191945e-09
2.822562511e-09
3.141079573e-09
3.333654048e-09
1.555026208e-09
1.775161319e-09
2.105846751e-09
2.537407187e-09
3.049266773e-09
3.60441542e-09
4.14620108e-09
4.598666134e-09
4.871691515e-09
2.358526307e-09
2.675789795e-09
3.150866228e-09
3.768571585e-09
4.498476786e-09
5.287396936e-09
6.055079436e-09
6.694726328e-09
7.08007335e-09
3.550403526e-09
4.004495281e-09
4.682557024e-09
5.561320267e-09
6.596303576e-09
7.711626204e-09
8.794192542e-09
9.694449252e-09
1.023607411e-08
5.305958505e-09
5.951790972e-09
6.913798091e-09
8.157000504e-09
9.617028712e-09
1.118631501e-08
1.270622587e-08
1.396810659e-08
1.472647985e-08
7.874581202e-09
8.787845652e-09
1.014529407e-08
1.189516525e-08
1.394512765e-08
1.61435685e-08
1.82689221e-08
2.003105562e-08
2.108917269e-08
1.160928719e-08
1.289399994e-08
1.47999949e-08
1.725167737e-08
2.011762524e-08
2.318524195e-08
2.614625099e-08
2.859847004e-08
3.007000232e-08
1.700747036e-08
1.880618939e-08
2.147043367e-08
2.489101437e-08
2.888213116e-08
3.314704618e-08
3.72583348e-08
4.066007218e-08
4.270040636e-08
2.47669526e-08
2.727459034e-08
3.098364393e-08
3.573787481e-08
4.127616747e-08
4.718605764e-08
5.287680459e-08
5.75819684e-08
6.040313744e-08
3.586282124e-08
3.93452949e-08
4.44899279e-08
5.107495127e-08
5.87353393e-08
6.689990744e-08
7.475455191e-08
8.124512327e-08
8.513597922e-08
5.165241672e-08
5.647180227e-08
6.358388651e-08
7.267607128e-08
8.324045719e-08
9.4488716e-08
1.053018654e-07
1.142332275e-07
1.195866656e-07
7.401830103e-08
8.066671781e-08
9.046892199e-08
1.029869515e-07
1.175170518e-07
1.329744896e-07
1.47824898e-07
1.600869242e-07
1.674365811e-07
1.055622217e-07
1.147073995e-07
1.281800155e-07
1.453697242e-07
1.653050189e-07
1.864974e-07
2.068475089e-07
2.236467835e-07
2.337164421e-07
1.498671037e-07
1.624135222e-07
1.808841339e-07
2.044323593e-07
2.317215696e-07
2.60714314e-07
2.885439653e-07
3.115142686e-07
3.252842588e-07
2.118491204e-07
2.290198124e-07
2.542832857e-07
2.864702507e-07
3.237473798e-07
3.633322655e-07
4.013178973e-07
4.326683337e-07
4.514645748e-07
2.982280352e-07
3.216736362e-07
3.561521053e-07
4.000546584e-07
4.508738763e-07
5.048182752e-07
5.565722678e-07
5.992852076e-07
6.248982147e-07
4.181513145e-07
4.500947536e-07
4.97049927e-07
5.568113131e-07
6.259588501e-07
6.99336843e-07
7.697256675e-07
8.278199766e-07
8.62663144e-07
5.840159927e-07
6.274432883e-07
6.912564251e-07
7.724420963e-07
8.663477182e-07
9.659770817e-07
1.061541345e-06
1.140420041e-06
1.187738705e-06
8.125416546e-07
8.714515559e-07
9.579897549e-07
1.06805283e-06
1.195328095e-06
1.330341956e-06
1.459845945e-06
1.566751079e-06
1.630896038e-06
1.126157908e-06
1.205885401e-06
1.322976084e-06
1.471860013e-06
1.643994844e-06
1.826581125e-06
2.001723374e-06
2.146324e-06
2.233104964e-06
1.554779493e-06
1.662410175e-06
1.820448376e-06
2.021357516e-06
2.253609852e-06
2.499954586e-06
2.736273373e-06
2.931414159e-06
3.048549478e-06
2.138050374e-06
2.282943913e-06
2.495658505e-06
2.766028801e-06
3.078543163e-06
3.410014195e-06
3.728021644e-06
3.990659002e-06
4.148337462e-06
2.928142393e-06
3.122583147e-06
3.407987525e-06
3.770688081e-06
4.189876517e-06
4.634480733e-06
5.061055238e-06
5.41340415e-06
5.624972316e-06
3.99319094e-06
4.253181368e-06
4.63473013e-06
5.119520786e-06
5.679732268e-06
6.273870992e-06
6.8439291e-06
7.314836548e-06
7.597620106e-06
5.421434901e-06
5.767641752e-06
6.275606174e-06
6.920864387e-06
7.666354597e-06
8.456886691e-06
9.215342273e-06
9.841894163e-06
1.021816082e-05
7.326096357e-06
7.784949538e-06
8.458009314e-06
9.312719603e-06
1.029990939e-05
1.134650698e-05
1.235050492e-05
1.317987034e-05
1.367796543e-05
9.8509836e-06
1.045591236e-05
1.134293791e-05
1.246890638e-05
1.376887841e-05
1.514661716e-05
1.646798921e-05
1.755948307e-05
1.821514431e-05
1.31767298e-05
1.396950097e-05
1.513147018e-05
1.660568452e-05
1.830681872e-05
2.01088853e-05
2.18366824e-05
2.326372192e-05
2.412072188e-05
1.752749317e-05
1.855959136e-05
2.007155144e-05
2.198857309e-05
2.419918973e-05
2.653954687e-05
2.878229465e-05
3.063355992e-05
3.174487253e-05
2.317784979e-05
2.451181543e-05
2.646477101e-05
2.893900091e-05
3.178980591e-05
3.480523026e-05
3.769212689e-05
4.007320004e-05
4.150175206e-05
3.045953656e-05
3.217016912e-05
3.467273355e-05
3.78403114e-05
4.148566449e-05
4.533665124e-05
4.901911245e-05
5.205329043e-05
5.387236459e-05
3.976764169e-05
4.194289592e-05
4.512213474e-05
4.914104037e-05
5.375953027e-05
5.863130887e-05
6.328329536e-05
6.711164843e-05
6.940482371e-05
5.156439847e-05
5.430494463e-05
5.830600238e-05
6.335655958e-05
6.915118004e-05
7.525321292e-05
8.107044158e-05
8.585094926e-05
8.871148746e-05
6.637950235e-05
6.979881386e-05
7.478479404e-05
8.106871021e-05
8.826537537e-05
9.582948162e-05
0.0001030273563
0.0001089330129
0.0001124626391
8.481020734e-05
8.903351995e-05
9.518380161e-05
0.0001029218589
0.0001117664805
0.0001210434925
0.0001298536944
0.00013706956
0.000141376636
0.0001075171658
0.0001126796382
0.0001201870829
0.0001296154655
0.0001403695598
0.0001516245291
0.0001622903194
0.0001710095868
0.00017620673
0.0001352166321
0.0001414607197
0.0001505277866
0.0001618931137
0.000174828043
0.0001883341429
0.0002011045496
0.0002115237872
0.0002177250431
0.0001686689798
0.0001761410992
0.0001869749933
0.0002005282399
0.0002159183243
0.0002319497226
0.0002470728915
0.0002593867063
0.0002667044215
0.0002086637733
0.0002175104027
0.0002303174762
0.0002463070766
0.0002644219254
0.0002832460042
0.0003009620794
0.0003153574989
0.0003238990748
0.0002560019278
0.0002663653483
0.0002813450569
0.0003000095688
0.0003211060631
0.0003429754338
0.0003635093804
0.0003801602818
0.0003900249975
0.0003114757598
0.0003234896831
0.0003408284475
0.0003623892074
0.0003867036082
0.0004118483907
0.0004354031825
0.0004544650936
0.000465741182
0.000375847928
0.0003896332726
0.000409498614
0.0004341528229
0.0004618934691
0.000490514288
0.0005172648494
0.0005388704117
0.0005516325456
0.0004498303793
0.0004654914483
0.0004880267447
0.0005159413873
0.0005472824036
0.000579544489
0.0006096327145
0.0006338880392
0.000648195352
0.0005340644235
0.0005516857037
0.0005770058637
0.0006083127944
0.0006433891383
0.0006794178244
0.0007129489075
0.000739930982
0.0007558256995
0.0006291029714
0.0006487467213
0.000676934993
0.0007117274245
0.0007506314928
0.0007905092946
0.0008275494929
0.0008573047119
0.0008748114279
0.000735395799
0.0007571005274
0.0007882065702
0.0008265370872
0.0008693169804
0.0009130823092
0.0009536581688
0.0009862019843
0.001005327567
0.0008532784616
0.0008770583326
0.0009110975816
0.0009529776927
0.0009996371181
0.001047284584
0.001091383547
0.001126701163
0.00114743524
0.0009829652173
0.00100881035
0.001045764617
0.001091165754
0.001141665443
0.001193147596
0.001240719844
0.001278767825
0.001301083773
0.001124546047
0.001152423623
0.001192242803
0.001241098593
0.001295359032
0.001350589326
0.001401550642
0.001442259269
0.001466115601
0.001277987608
0.001307843662
0.001350448359
0.001402657942
0.00146056315
0.001519419863
0.00157365529
0.001616931471
0.001642273528
0.001443137756
0.001474899496
0.001520184348
0.001575616474
0.001637018552
0.001699349385
0.001756717407
0.001802447963
0.001829209786
0.00161973312
0.001653311604
0.001701149089
0.001759646722
0.001824370875
0.001889997949
0.001950334979
0.001998390108
0.002026496413
0.001807409103
0.001842702129
0.001892946611
0.001954331787
0.002022181558
0.002090906552
0.002154031489
0.002204268274
0.00223363642
0.002005711678
0.00204260672
0.002095098554
0.002159177251
0.002229939724
0.002301548942
0.002367267628
0.002419533422
0.002450075319
0.002214110311
0.002252487386
0.0023070569
0.002373623738
0.002447074518
0.002521343695
0.002589453112
0.002643588728
0.002675212623
0.002432011426
0.002471745794
0.002528217012
0.002597059627
0.002672967443
0.002749666165
0.002819958283
0.002875800893
0.002908412986
0.00265877189
0.002699736501
0.002757930516
0.002828833498
0.002906964332
0.00298585998
0.003058125163
0.003115510864
0.003149016746
0.002893712062
0.002935779712
0.002995517646
0.003068265979
0.003148386653
0.003229247815
0.003303277764
0.003362043792
0.003396349681
0.003136128079
0.003179173244
0.003240278756
0.003314660731
0.003396541931
0.003479141267
0.003554731485
0.003614718065
0.003649731843
0.003385303117
0.003429203463
0.003491504813
0.003567314403
0.003650733141
0.003734849709
0.003811801501
0.00387285335
0.003908485407
0.003640517469
0.003685155046
0.003748486712
0.003825525448
0.003910266994
0.003995688069
0.004073810102
0.004135777601
0.004171941501
0.003901057338
0.003946319479
0.004010523384
0.004088601746
0.004174461065
0.004260983496
0.00434009296
0.004402833037
0.004439446015
0.004166222332
0.004212002284
0.004276928648
0.004355867052
0.004442649807
0.004530080952
0.004610004371
0.004673381114
0.004710364436
0.004435331669
0.004481528999
0.004547036881
0.004626666285
0.004714189461
0.004802347777
0.004882921511
0.004946806559
0.004984085751
0.00470772917
0.004754249967
0.004820207537
0.004900369748
0.004988461959
0.005077177281
0.005158247779
0.005222520519
0.005260025491
0.004982787117
0.005029544038
0.005095828629
0.005176376355
0.005264877884
0.00535399147
0.005435415304
0.005499962915
0.005537628001
0.005259909076
0.005306821264
0.005373319255
0.005454115954
0.005542878598
0.005632242971
0.005713886714
0.005778604085
0.005816368006
0.005538531821
0.005585524724
0.005652131285
0.005733050871
0.005821937622
0.005911416273
0.005993156244
0.006057945794
0.006095751574
0.005818126429
0.005865131557
0.005931750311
0.006012676752
0.006101561375
0.006191028357
0.00627275028
0.006337521712
0.006375316544
0.006098198757
0.006145153382
0.006211695988
0.006292522808
0.006381289328
0.00647062878
0.006552227387
0.006616897406
0.00665463251
0.006378289359
0.006425136235
0.006491521971
0.006572151749
0.006660693896
0.006749799497
0.006831178046
0.006895669998
0.006933300431
0.006657972825
0.006704659886
0.006770815239
0.006851159101
0.006939379769
0.007028154209
0.007109224025
0.00717346755
0.007210952009
0.006936857487
0.006983337288
0.007049195376
0.007129172426
0.007216983075
0.007305337493
0.007386017489
0.007449948176
0.007487248811
0.007214584555
0.007260813862
0.007326313704
0.007405850311
0.007493170335
0.007581023751
0.007661239947
0.007724798969
0.00776188118
0.007490826412
0.007536765957
0.007601852073
0.007680881159
0.007767637282
0.007854916018
0.00793460105
0.007997734795
0.008034567034
0.00776528506
0.007810899246
0.007875521316
0.007953981949
0.008040107542
0.008126744644
0.008205837281
0.008268497
0.008305050567
0.00803769052
0.008082947131
0.008147059591
0.008224896554
0.008310331122
0.00839626587
0.008474710567
0.00853685203
0.008573100884
0.008307799215
0.008352669143
0.008416230807
0.008493394163
0.008578082942
0.008663260369
0.008741006841
0.008802590013
0.008838510592
0.008575392337
0.008619849332
0.008682823048
0.008759267739
0.008843161314
0.008927531738
0.009004534572
0.009065523318
0.009101094364
0.008840274235
0.008884294671
0.008946646995
0.009022332451
0.009105386316
0.009188904972
0.009265123299
0.009325485117
0.009360687524
0.009102270841
0.009145833504
0.00920753441
0.009282424207
0.009364598395
0.009447225077
0.009522622231
0.009582327999
0.00961714467
0.009361228141
0.009404314046
0.009465336643
0.009539398156
0.009620656907
0.009702355682
0.009776898924
0.009835922645
0.00987033833
0.009617010628
0.009659602827
0.009719923136
0.00979312731
0.009873438795
0.009954177704
0.01002783789
0.01008615646
0.01012015763
0.009869499945
0.009911583385
0.009971180125
0.01004350119
0.0101228372
0.01020258794
0.0102753393
0.01033293231
0.01036650703
0.01011859357
0.01016015495
0.01021900932
0.01029042453
0.0103687602
0.01044749788
0.01051931775
0.0105761673
0.01060930512
0.01036420354
0.01040523117
0.01046332668
0.0105338161
0.01061112967
0.01068883251
0.01075970112
0.01081579165
0.01084848351
0.01060625529
0.01064673899
0.01070406126
0.01077360755
0.01084988013
0.01092652927
0.01099642956
0.01105174764
0.01108398577
0.01084468654
0.01088461749
0.01094115415
0.01100974238
0.01108495773
0.01116053703
0.01122945441
0.01128398866
0.01131576646
0.01107944624
0.01111881695
0.01117455742
0.01124217491
0.01131631929
0.01139081512
0.01145873733
0.0115124782
0.01154379019
0.01131049368
0.01134929783
0.01140423326
0.0114708694
0.01154393137
0.01161733243
0.0116842494
0.01173718906
0.01176803075
0.01153779753
0.01157602992
0.01163015304
0.01169579917
0.01176776942
0.0118400666
0.01190597022
0.01195810245
0.01198847032
0.01176133507
0.01179899154
0.01185229657
0.01191694582
0.01198781704
0.01205900323
0.01212388726
0.01217520731
0.01220509871
0.01198109141
0.01201816877
0.01207065128
0.01213429846
0.01220406518
0.01227413515
0.01233799507
0.01238849958
0.01241791266
0.01219705879
0.01223355475
0.0122852116
0.01234785308
0.01241651155
0.0124854618
0.01254829468
0.01259798154
0.01262691521
0.01240923597
0.01244514906
0.01249597829
0.01255761188
0.01262515995
0.01269298859
0.01275479299
0.01280366128
0.01283211512
0.01261762756
0.0126529571
0.01270295787
0.01276358272
0.01283001971
0.01289672634
0.01295750218
0.01300555206
0.01303352632
0.01282224354
0.01285698958
0.01290616206
0.01296577858
0.01303110518
0.0130966908
0.01315643925
0.0132036719
0.01323116739
0.01302309875
0.013057262
0.01310560732
0.01316421706
0.01322843525
0.01329290212
0.01335162554
0.01339804306
0.01342506113
0.01322021237
0.01325379418
0.01330131436
0.01335891997
0.01342203288
0.01348538445
0.01354308629
0.01358869161
0.01361523414
0.01341360758
0.01344660986
0.01349330774
0.01354991284
0.01361192472
0.01367416554
0.01373085021
0.01377564709
0.01380171639
0.01360331108
0.0136357363
0.01368161547
0.01373722463
0.01379814071
0.01385927634
0.0139149492
0.0139589421
0.01398454091
0.0137893528
0.01382120392
0.01386626869
0.0139208873
0.01398071377
0.01404075069
0.01409541792
0.01413861197
0.01416374341
0.01397176554
0.01400304598
0.01404730129
0.01410093555
0.01415967943
0.01421862498
0.01427229356
0.01431469448
0.01433936204
0.01415058465
0.01418129825
0.01422474966
0.01427740647
0.01433507559
0.01439293789
0.01444561549
0.01448722959
0.01451143705
0.01432584778
0.01435599877
0.01439865239
0.01445033933
0.01450694221
0.01456373012
0.01461542505
0.01465625913
0.01468001059
0.0144975946
0.01452718758
0.01456905001
0.01461977527
0.01467532112
0.01473104412
0.01478176531
0.01482182661
0.01484512642
0.01466586659
0.01469490648
0.01473598478
0.0147857571
0.01484025572
0.01489492391
0.0149446808
0.01498397701
0.01500682976
0.01483070677
0.0148591988
0.01489950047
0.01494832909
0.01500179082
0.01505541484
0.01510421736
0.01514275653
0.01516516704
0.01499215957
0.01502010922
0.01505964213
0.01510753676
0.01515997246
0.01521256343
0.01526042196
0.01529821248
0.01532018575
0.01515027057
0.0151776836
0.01521645597
0.01526342673
0.01531484768
0.01536641718
0.01541334247
0.01545039304
0.01547193423
0.0153050864
0.01533196877
0.01536998914
0.01541604652
0.01546646442
0.0155170244
0.01556302757
0.01559934715
0.01562046159
0.01545665453
0.01548301241
0.0155202896
0.01556544443
0.01561487132
0.01566443409
0.01570952656
0.01574512436
0.01576581752
0.01560502315
0.01563086289
0.01566740596
0.01571166937
0.01576011763
0.01580869581
0.01585288928
0.0158877747
0.01590805215
0.01575024105
0.01577556915
0.01581138739
0.01585477076
0.01590225303
0.01594985951
0.01599316591
0.01602734855
0.01604721596
0.01589235745
0.01591718056
0.01595228345
0.01599479839
0.01604132757
0.01608797547
0.01613040694
0.01616389654
0.01618335968
0.01603142194
0.01605574683
0.016090144
0.01613180233
0.01617739151
0.01622309416
0.01626466301
0.01629746943
0.01631653413
0.01616748433
0.01619131786
0.01622501912
0.01626583281
0.01631049525
0.01635526615
0.01639598482
0.01642811806
0.0164467902
0.01630059458
0.01632394371
0.01635695895
0.01639694012
0.01644068925
0.016484542
0.01652442307
0.01655589317
0.0165741787
0.01643080269
0.01645367444
0.01648601367
0.01652517455
0.01656802389
0.01661097223
0.01665002834
0.01668084543
0.0166987503
0.01655815863
0.01658056009
0.01661223338
0.01665058627
0.01669254941
0.01673460714
0.01677285101
0.01680302525
0.01682055544
0.01668271223
0.0167046505
0.01673566799
0.01677322524
0.01681431587
0.01685549683
0.01689294118
0.01692248275
0.01693964426
0.01680451311
0.01682599535
0.01685636717
0.0168931412
0.01693337298
0.01697369103
0.01701034862
0.01703926768
0.01705606649
0.01692361061
0.01694464396
0.01697438029
0.01701038347
0.01704977009
0.01708923907
0.01712512261
0.01715342932
0.01716987138
0.01704005369
0.01706064528
0.01708975626
0.01712500096
0.01716355606
0.01720218977
0.01723731194
0.01726501639
0.01728110763
0.01715389083
0.01717404779
0.01720254352
0.01723704206
0.0172747792
0.01731259136
0.01734696473
0.01737407695
0.01738982325
0.01726516998
0.01728489937
0.01731278989
0.01734655449
0.01738348714
0.01742049134
0.01745412838
0.01748065828
0.01749606546
0.0173739384
0.01739324723
0.01742054249
0.01745358524
0.01748972673
0.0175259364
0.01755884942
0.01758480679
0.01759988058
0.01748024262
0.01749913781
0.01752584761
0.01755818046
0.0175935439
0.01762897228
0.01766117338
0.01768656784
0.01770131387
0.01758412823
0.01760261658
0.01762875058
0.01766038525
0.01769498353
0.01772964359
0.01776114463
0.01778598558
0.01780040936
0.0176856398
0.01770372798
0.01772929563
0.01776024358
0.01779408928
0.01782799367
0.01785880621
0.01788310281
0.01789720967
0.01778482068
0.01780251519
0.01782752567
0.01785779806
0.01789090339
0.01792406437
0.01795419959
0.01797796068
0.01799175579
0.01788171283
0.01789901996
0.01792348216
0.01795308973
0.01798546647
0.01801789586
0.01804736449
0.01807059855
0.01808408685
0.01797635663
0.01799328239
0.01801720484
0.01804615789
0.01807781729
0.01810952633
0.01813833858
0.01816105367
0.01817423982
0.01806879059
0.01808534073
0.01810873149
0.01813703979
0.01816799246
0.01819899176
0.01822715723
0.01824936089
0.01826224928
0.01815905117
0.01817523105
0.0181980977
0.01822577036
0.01825602622
0.01828632563
0.0183138532
0.0183355524
0.01834814705
0.01824717245
0.01826298705
0.01828533657
0.01831238197
0.0183419501
0.0183715586
0.01839845636
0.01841965739
0.01843196194
0.01833318588
0.0183486397
0.01837047841
0.01839690409
0.01842579263
0.01845471825
0.01848099336
0.01850170178
0.01851371942
0.01841711999
0.01843221701
0.01845355045
0.01847936304
0.01850757906
0.01853582873
0.01856148734
0.0185817079
0.01859344132
0.01849900008
0.0185137437
0.0185345766
0.01855978167
0.0185873311
0.01861491056
0.01863995771
0.01865969425
0.01867114564
0.01857884801
0.01859324096
0.01861357713
0.01863817912
0.01866506663
0.01869198035
0.01871641989
0.01873567532
0.01874684628
0.01865668188
0.01867072625
0.01869056848
0.01871457065
0.01874079958
0.01876705066
0.01879088521
0.01880966142
0.01882055299
0.01873251592
0.01874621304
0.01876556313
0.01878896746
0.01881453974
0.01884012988
0.01886336076
0.01888165864
0.01889227125
0.0188063603
0.01881971075
0.01883856941
0.01886137658
0.01888629275
0.01891122223
0.01893384947
0.01895166887
0.01896200238
0.01887822108
0.01889122468
0.01890959156
0.01893180095
0.0189560601
0.01898032778
0.01900235014
0.01901968993
0.01902974361
0.01894810023
0.01896075606
0.01897862971
0.01900023944
0.01902383929
0.01904744267
0.01906885768
0.01908571577
0.01909548835
0.01901599576
0.01902830214
0.01904568012
0.01906668706
0.01908962403
0.01911255934
0.01913336337
0.01914973679
0.01915922652
0.01908190187
0.01909385645
0.01911073536
0.01913113527
0.01915340455
0.01917566679
0.01919585518
0.01921174019
0.01922094486
0.01914580923
0.01915740907
0.01917378465
0.01919357228
0.01921516799
0.0192367511
0.01925631824
0.01927171037
0.01928062741
0.01920770539
0.01921894699
0.01923481426
0.01925398347
0.01927489875
0.01929579576
0.01931473524
0.01932962946
0.01933825596
0.01926757525
0.01927845467
0.01929380798
0.01931235183
0.01933257898
0.01935278215
0.01937108695
0.01938547772
0.01939381049
0.01932540154
0.01933591439
0.0193507475
0.01936865838
0.0193881891
0.01940769009
0.01942535266
0.01943923405
0.01944726969
0.01938116507
0.01939130667
0.01940561295
0.01942288284
0.01944170834
0.01946049838
0.01947751074
0.0194908765
0.01949861141
0.01943484547
0.01944461095
0.01945838352
0.01947500412
0.01949311533
0.01951118531
0.01952753921
0.01954038283
0.01954781321
0.01948642185
0.01949580628
0.01950903818
0.01952500104
0.01954238872
0.01955972937
0.01957541632
0.01958773107
0.01959485299
0.01953587353
0.019544872
0.0195575563
0.01957285299
0.01958950789
0.01960610987
0.0196211213
0.0196329003
0.0196397097
0.01958318078
0.0195917885
0.01960391839
0.01961854068
0.01963445369
0.01965030777
0.01966463513
0.01967587149
0.01968236426
0.01962832554
0.01963653796
0.01964810698
0.01966204696
0.01967720934
0.0196923066
0.01970594158
0.01971662852
0.01972280056
0.01967129236
0.01967910526
0.01969010741
0.01970335777
0.0197177614
0.0197320935
0.01974502827
0.01975515939
0.01976100681
0.01971206922
0.01971947889
0.0197299089
0.01974246317
0.01975610084
0.01976966038
0.01978188799
0.01979145755
0.01979697684
0.01975064858
0.01975765196
0.01976750551
0.0197793584
0.01979222424
0.01980500519
0.01981651999
0.01982552333
0.01983071165
0.01978702831
0.01979362323
0.01980289723
0.01981404501
0.01982613493
0.01983813317
0.01984893132
0.01985736536
0.01986222085
0.01982121275
0.0198273981
0.01983609103
0.01984653197
0.01985784418
0.01986905805
0.01987913818
0.01988700191
0.01989152401
0.01985321361
0.01985898958
0.01986710186
0.01987683668
0.01988737227
0.0198978032