/*--------------------------------*- C++ -*----------------------------------*\
| =========                 |                                                 |
| \\      /  F ield         | OpenFOAM: The Open Source CFD Toolbox           |
|  \\    /   O peration     | Version:  2212                                  |
|   \\  /    A nd           | Website:  www.openfoam.com                      |
|    \\/     M anipulation  |                                                 |
\*---------------------------------------------------------------------------*/
FoamFile
{
    version     2.0;
    format      ascii;
    arch        "LSB;label=32;scalar=64";
    class       volScalarField;
    location    "30.00000000";
    object      AC3H4_0;
}
// * * * * * * * * * * * * * * * * * * * * * * * * * * * * * * * * * * * * * //

dimensions      [0 0 0 0 0 0 0];

internalField   nonuniform List<scalar> 
3000
(
2.63348809e-22
2.957065043e-22
3.444951635e-22
4.094384397e-22
4.89822302e-22
5.834169887e-22
6.845669716e-22
7.809944821e-22
8.491589738e-22
9.888644565e-22
1.114853321e-21
1.304731331e-21
1.558024879e-21
1.874237609e-21
2.251363767e-21
2.682707403e-21
3.146596275e-21
3.557612941e-21
2.21562514e-21
2.517611646e-21
2.97709758e-21
3.600239444e-21
4.397501437e-21
5.379430843e-21
6.541041475e-21
7.816577805e-21
8.905644834e-21
4.221992646e-21
4.848102972e-21
5.814887288e-21
7.154119671e-21
8.911554456e-21
1.112886371e-20
1.378934383e-20
1.667560448e-20
1.89981155e-20
7.500935309e-21
8.720040709e-21
1.063273087e-20
1.33352022e-20
1.695258767e-20
2.158208941e-20
2.713845827e-20
3.301881022e-20
3.751894538e-20
1.290467109e-20
1.519578559e-20
1.884312174e-20
2.407993314e-20
3.118719145e-20
4.03482959e-20
5.130046667e-20
6.267951004e-20
7.112816225e-20
2.191573727e-20
2.612721773e-20
3.291029485e-20
4.276012954e-20
5.622822177e-20
7.358805177e-20
9.413040428e-20
1.150217061e-19
1.301065602e-19
3.709853253e-20
4.472191156e-20
5.710880784e-20
7.523334776e-20
1.001082331e-19
1.320940754e-19
1.695881338e-19
2.07131562e-19
2.337676299e-19
6.289881611e-20
7.654938407e-20
9.887150604e-20
1.316954207e-19
1.76818312e-19
2.346730857e-19
3.019902175e-19
3.68684868e-19
4.154799865e-19
1.070226458e-19
1.312725623e-19
1.711062082e-19
2.29864817e-19
3.10682772e-19
4.140252717e-19
5.335989944e-19
6.511997365e-19
7.331042361e-19
1.828439321e-19
2.256743423e-19
2.962466752e-19
4.005481149e-19
5.439967132e-19
7.269997963e-19
9.378663563e-19
1.144199593e-18
1.287197023e-18
3.135962766e-19
3.88927076e-19
5.133072195e-19
6.973336816e-19
9.503267582e-19
1.272441807e-18
1.642444286e-18
2.003222668e-18
2.252477546e-18
5.396932414e-19
6.718069269e-19
8.902320783e-19
1.213565226e-18
1.657769566e-18
2.222291753e-18
2.869081058e-18
3.498250809e-18
3.932501429e-18
9.315040633e-19
1.162805816e-18
1.545547174e-18
2.112184818e-18
2.889901753e-18
3.876170593e-18
5.002883696e-18
6.096673857e-18
6.855102687e-18
1.6115939e-18
2.016250081e-18
2.686318775e-18
3.678430504e-18
5.038751927e-18
6.759107117e-18
8.71384907e-18
1.059851798e-17
1.194281733e-17
2.793192388e-18
3.500952231e-18
4.674021545e-18
6.41218924e-18
8.795875938e-18
1.180521717e-17
1.519155316e-17
1.829833162e-17
2.084691007e-17
4.84627775e-18
6.083298806e-18
8.135976191e-18
1.11827955e-17
1.537502893e-17
2.071067168e-17
2.685942208e-17
3.300111281e-17
3.684028597e-17
8.411404065e-18
1.056922045e-17
1.415135657e-17
1.946957721e-17
2.678477884e-17
3.607731203e-17
4.670610216e-17
5.700740385e-17
6.399884366e-17
1.459890571e-17
1.835584708e-17
2.459274559e-17
3.384967374e-17
4.657258771e-17
6.271029203e-17
8.112438962e-17
9.892698793e-17
1.11108797e-16
2.533554989e-17
3.1868769e-17
4.271400879e-17
5.880689324e-17
8.091523446e-17
1.089396855e-16
1.408964459e-16
1.717823201e-16
1.929320832e-16
4.39662955e-17
5.532004838e-17
7.416703608e-17
1.021299885e-16
1.405367659e-16
1.892070889e-16
2.446911051e-16
2.983050551e-16
3.350171645e-16
7.629865431e-17
9.602342142e-17
1.28765958e-16
1.773419315e-16
2.440507211e-16
3.285692272e-16
4.248981149e-16
5.179597811e-16
5.816731558e-16
1.324152591e-16
1.666770096e-16
2.23549509e-16
3.079173346e-16
4.237611571e-16
5.705011405e-16
7.377032609e-16
8.99191024e-16
1.009724475e-15
2.298186284e-16
2.893235645e-16
3.880931106e-16
5.345960418e-16
7.357174173e-16
9.904113209e-16
1.280528731e-15
1.560637146e-15
1.75230419e-15
3.988857655e-16
5.022194365e-16
6.737209158e-16
9.280603668e-16
1.277129041e-15
1.71902544e-15
2.222175563e-15
2.707757163e-15
3.039889512e-15
6.923211107e-16
8.717372576e-16
1.169463032e-15
1.610880636e-15
2.216484462e-15
2.982781241e-15
3.854828388e-15
4.695947942e-15
5.270959794e-15
1.201518598e-15
1.512963058e-15
2.029654301e-15
2.795439581e-15
3.845542093e-15
5.173461234e-15
6.683554952e-15
8.138989855e-15
9.133253506e-15
2.084842292e-15
2.625285359e-15
3.521589063e-15
4.849343638e-15
6.668862764e-15
8.967874704e-15
1.157981076e-14
1.409467337e-14
1.581102497e-14
3.616410077e-15
4.553754286e-15
6.107604448e-15
8.407927894e-15
1.15575031e-14
1.553281688e-14
2.004362844e-14
2.438105062e-14
2.733750378e-14
6.27003953e-15
7.894588344e-15
1.058604041e-14
1.456709383e-14
2.001179868e-14
2.687446522e-14
3.46491249e-14
4.211214052e-14
4.719061991e-14
1.086326693e-14
1.367599242e-14
1.833240259e-14
2.521243039e-14
3.460847525e-14
4.643068613e-14
5.979676523e-14
7.25991408e-14
8.12925673e-14
1.880354842e-14
2.36668165e-14
3.171010206e-14
4.35780452e-14
5.975692055e-14
8.006846682e-14
1.029742122e-13
1.248543348e-13
1.396727792e-13
3.250739121e-14
4.090098426e-14
5.476629442e-14
7.518967141e-14
1.029695672e-13
1.377505568e-13
1.768515358e-13
2.140776394e-13
2.392080318e-13
5.611048177e-14
7.056373888e-14
9.440345949e-14
1.294451136e-13
1.769789207e-13
2.362956553e-13
3.027292395e-13
3.657254689e-13
4.080891949e-13
9.66643869e-14
1.214802094e-13
1.623381901e-13
2.222416208e-13
3.032338363e-13
4.039043806e-13
5.161518713e-13
6.220938155e-13
6.930185312e-13
1.661411826e-13
2.0859865e-13
2.783505468e-13
3.803048969e-13
5.176163412e-13
6.87500184e-13
8.759416857e-13
1.05284111e-12
1.170665155e-12
2.847694192e-13
3.57101978e-13
4.756279756e-13
6.482525288e-13
8.796887892e-13
1.164497786e-12
1.478558659e-12
1.771598364e-12
1.965668546e-12
4.865458777e-13
6.091598764e-13
8.094722507e-13
1.099998794e-12
1.487480742e-12
1.961440485e-12
2.480640714e-12
2.961855441e-12
3.278575557e-12
8.282717e-13
1.034920236e-12
1.371345255e-12
1.856966721e-12
2.500853958e-12
3.283149504e-12
4.133938115e-12
4.916798006e-12
5.42865533e-12
1.404243063e-12
1.750234995e-12
2.311291457e-12
3.116839848e-12
4.177977009e-12
5.457750919e-12
6.838789309e-12
8.09987233e-12
8.918739235e-12
2.369921924e-12
2.944966219e-12
3.873347639e-12
5.198429684e-12
6.931583365e-12
9.005391679e-12
1.122501452e-11
1.323581466e-11
1.453232997e-11
3.9797143e-12
4.927725693e-12
6.450849238e-12
8.610888167e-12
1.14147331e-11
1.474190747e-11
1.827293778e-11
2.144603166e-11
2.347756333e-11
6.64665957e-12
8.195843843e-12
1.067186297e-11
1.415927741e-11
1.865010141e-11
2.39335527e-11
2.949261771e-11
3.444802097e-11
3.759866874e-11
1.103574899e-11
1.354362062e-11
1.752972109e-11
2.310386194e-11
3.022286467e-11
3.85256885e-11
4.718686618e-11
5.484661166e-11
5.968402179e-11
1.820823616e-11
2.222799543e-11
2.85803547e-11
3.73980169e-11
4.856572025e-11
6.147779535e-11
7.483407724e-11
8.655605457e-11
9.391161571e-11
2.984233481e-11
3.621937954e-11
4.623757399e-11
6.004018124e-11
7.737638467e-11
9.725035259e-11
1.17641387e-10
1.354075846e-10
1.464890283e-10
4.856700571e-11
5.857746429e-11
7.421065158e-11
9.558996622e-11
1.222243287e-10
1.525074e-10
1.83338748e-10
2.100186195e-10
2.265673935e-10
7.846131738e-11
9.400864037e-11
1.181469387e-10
1.509189126e-10
1.914262444e-10
2.371238457e-10
2.833121701e-10
3.230294244e-10
3.475397657e-10
1.257937823e-10
1.496850094e-10
1.865677166e-10
2.362945971e-10
2.973011298e-10
3.656213756e-10
4.342124463e-10
4.928538576e-10
5.288766322e-10
2.001064314e-10
2.364373151e-10
2.922207489e-10
3.669357513e-10
4.579591043e-10
5.59204581e-10
6.602278512e-10
7.461468106e-10
7.987094136e-10
3.157904124e-10
3.704789133e-10
4.540217622e-10
5.652297642e-10
6.998373304e-10
8.486341172e-10
9.962803899e-10
1.121266689e-09
1.197452733e-09
4.943580672e-10
5.758800951e-10
6.998248308e-10
8.63878479e-10
1.061277851e-09
1.278262451e-09
1.49250232e-09
1.673116098e-09
1.782864656e-09
7.676967566e-10
8.880985846e-10
1.07034927e-09
1.310323837e-09
1.597539831e-09
1.911676401e-09
2.220485458e-09
2.479893483e-09
2.637096459e-09
1.182617518e-09
1.358889011e-09
1.624644719e-09
1.972940401e-09
2.387822602e-09
2.839588451e-09
3.28199526e-09
3.652481186e-09
3.876484929e-09
1.807337758e-09
2.063303487e-09
2.447835922e-09
2.949708737e-09
3.545019894e-09
4.190746451e-09
4.821000367e-09
5.347405906e-09
5.665077218e-09
2.740544628e-09
3.109435692e-09
3.661869736e-09
4.380245302e-09
5.229235045e-09
6.147029462e-09
7.040289759e-09
7.784718299e-09
8.233270344e-09
4.124010675e-09
4.651959804e-09
5.440412217e-09
6.462429894e-09
7.666414883e-09
8.964217002e-09
1.022429687e-08
1.127251712e-08
1.190335448e-08
6.160060318e-09
6.910840336e-09
8.029387087e-09
9.475273845e-09
1.117391799e-08
1.300042708e-08
1.477029096e-08
1.62404067e-08
1.712432314e-08
9.135613015e-09
1.019704314e-08
1.177513882e-08
1.381020502e-08
1.619541231e-08
1.875484338e-08
2.123076751e-08
2.328490263e-08
2.451908775e-08
1.345507798e-08
1.494765506e-08
1.716282044e-08
2.001360979e-08
2.334821322e-08
2.69201278e-08
3.03707224e-08
3.323073366e-08
3.494821684e-08
1.968504985e-08
2.177352298e-08
2.486834977e-08
2.884426707e-08
3.348703617e-08
3.845287482e-08
4.324456447e-08
4.721312637e-08
4.959546424e-08
2.861453264e-08
3.152332844e-08
3.582812752e-08
4.135023052e-08
4.778917046e-08
5.466762688e-08
6.129867502e-08
6.678745986e-08
7.008169846e-08
4.133525464e-08
4.536888693e-08
5.133165576e-08
5.897077456e-08
6.786726988e-08
7.736125075e-08
8.650696836e-08
9.407411658e-08
9.861536575e-08
5.934751428e-08
6.491740238e-08
7.314323071e-08
8.367014741e-08
9.591713421e-08
1.089756951e-07
1.21548129e-07
1.31947796e-07
1.381891314e-07
8.469791309e-08
9.235735423e-08
1.036598398e-07
1.181107986e-07
1.349087574e-07
1.528081012e-07
1.700342358e-07
1.842816587e-07
1.928334835e-07
1.201560282e-07
1.306453146e-07
1.461128998e-07
1.65874156e-07
1.888292747e-07
2.132775552e-07
2.368007364e-07
2.562568647e-07
2.679382582e-07
1.694371449e-07
1.837409371e-07
2.0482127e-07
2.317366565e-07
2.629858528e-07
2.962568853e-07
3.282665363e-07
3.547465893e-07
3.706513703e-07
2.374774952e-07
2.568965247e-07
2.855018828e-07
3.220072637e-07
3.643745478e-07
4.09475243e-07
4.528695934e-07
4.887795606e-07
5.103595517e-07
3.307670363e-07
3.570058907e-07
3.956421659e-07
4.449298254e-07
5.021173975e-07
5.629923696e-07
6.215773735e-07
6.700809823e-07
6.992479538e-07
4.577426548e-07
4.93014635e-07
5.44935158e-07
6.111494511e-07
6.879646121e-07
7.697385463e-07
8.484629679e-07
9.136786157e-07
9.529243533e-07
6.292419308e-07
6.763907436e-07
7.457742543e-07
8.34237018e-07
9.368522586e-07
1.046106109e-06
1.151327783e-06
1.238550287e-06
1.291081161e-06
8.590146681e-07
9.216509708e-07
1.013800292e-06
1.131260687e-06
1.267499389e-06
1.412570609e-06
1.552342605e-06
1.668278892e-06
1.738157611e-06
1.164286235e-06
1.246934913e-06
1.368489578e-06
1.523388554e-06
1.703023181e-06
1.894313872e-06
2.07867281e-06
2.231675062e-06
2.323958773e-06
1.566362982e-06
1.674614663e-06
1.833767228e-06
2.036502264e-06
2.271546675e-06
2.521818041e-06
2.763051741e-06
2.96332748e-06
3.084189121e-06
2.091264413e-06
2.231922356e-06
2.438624777e-06
2.701796641e-06
3.006770165e-06
3.331398258e-06
3.644267532e-06
3.904045029e-06
4.060864512e-06
2.77035797e-06
2.951569254e-06
3.21771287e-06
3.556333248e-06
3.948472041e-06
4.365639056e-06
4.767529549e-06
5.101159242e-06
5.30257318e-06
3.640959376e-06
3.87231742e-06
4.211867875e-06
4.643504963e-06
5.142895671e-06
5.673692675e-06
6.184676519e-06
6.608654636e-06
6.864557865e-06
4.746845443e-06
5.039449336e-06
5.468516046e-06
6.013354033e-06
6.642964937e-06
7.311383934e-06
7.954175464e-06
8.487081553e-06
8.808577259e-06
6.138610443e-06
6.505065385e-06
7.041883736e-06
7.722670718e-06
8.508254503e-06
9.341047402e-06
1.014083921e-05
1.080319117e-05
1.120252492e-05
7.873786769e-06
8.328129435e-06
8.99293287e-06
9.834789504e-06
1.08046258e-05
1.183099582e-05
1.281514022e-05
1.36291487e-05
1.411959457e-05
1.00166512e-05
1.057418522e-05
1.138894557e-05
1.241900561e-05
1.360344658e-05
1.485452623e-05
1.605198427e-05
1.70409553e-05
1.763606238e-05
1.263765092e-05
1.33146811e-05
1.430270247e-05
1.554957125e-05
1.698038809e-05
1.848849064e-05
1.992895696e-05
2.111625237e-05
2.182961701e-05
1.581240352e-05
1.662585986e-05
1.781122333e-05
1.930425442e-05
2.101375986e-05
2.281126177e-05
2.452389632e-05
2.593237779e-05
2.677719127e-05
1.962025576e-05
2.058722359e-05
2.199407752e-05
2.37624395e-05
2.578216135e-05
2.790013672e-05
2.991274059e-05
3.156394399e-05
3.25524984e-05
2.414241115e-05
2.52795335e-05
2.693111514e-05
2.900236005e-05
3.136178572e-05
3.382901542e-05
3.616694998e-05
3.808021579e-05
3.922339397e-05
2.945919784e-05
3.078177313e-05
3.269930063e-05
3.50984447e-05
3.782396667e-05
4.066573832e-05
4.335082621e-05
4.554243634e-05
4.684921575e-05
3.564687068e-05
3.716836539e-05
3.937031012e-05
4.211876308e-05
4.523248448e-05
4.846941174e-05
5.151888765e-05
5.400126307e-05
5.547826486e-05
4.277517006e-05
4.450659302e-05
4.700779414e-05
5.012231239e-05
5.364092929e-05
5.728787646e-05
6.07134601e-05
6.349447293e-05
6.514558628e-05
5.090451761e-05
5.285383628e-05
5.566469585e-05
5.915645e-05
6.309028887e-05
6.715547711e-05
7.09626327e-05
7.404508024e-05
7.587118724e-05
6.008333707e-05
6.225498446e-05
6.538080362e-05
6.925463243e-05
7.360691218e-05
7.809127051e-05
8.227870463e-05
8.565998106e-05
8.765880059e-05
7.034568177e-05
7.274019178e-05
7.618069675e-05
8.043460236e-05
8.520097374e-05
9.009777996e-05
9.46572116e-05
9.832919905e-05
0.0001004952592
8.170932391e-05
8.432312177e-05
8.807221382e-05
9.269713391e-05
9.786552776e-05
0.0001031603629
0.0001080765795
0.0001120257635
0.0001143505032
9.417442612e-05
9.699978854e-05
0.0001010455345
0.0001060254061
0.0001115761988
0.000117247215
0.0001224984075
0.0001267062062
0.0001291781968
0.0001077228727
0.0001107480594
0.0001150729221
0.0001203850296
0.0001262915112
0.0001323099917
0.0001378683423
0.0001423116249
0.0001449168956
0.0001223182909
0.0001255278371
0.0001301091269
0.0001357247091
0.000141953819
0.0001482849889
0.0001541174702
0.0001587692272
0.0001614916725
0.0001379067452
0.0001412818939
0.00014609241
0.0001519774813
0.0001584907619
0.0001650947955
0.0001711641276
0.0001759942523
0.000178816095
0.0001544180451
0.0001579372898
0.0001629461083
0.0001690624431
0.0001758171481
0.0001826503105
0.0001889160189
0.0001938921512
0.0001967944347
0.0001717675733
0.0001754072776
0.0001805806371
0.0001868868549
0.0001938371507
0.0002008530065
0.0002072725223
0.0002123609113
0.0002153239966
0.0001898585166
0.000193593574
0.0001988958094
0.0002053485037
0.000212446695
0.0002195973249
0.0002261270714
0.0002312934163
0.0002342974588
0.0002085843708
0.0002123888711
0.0002177833469
0.0002243381989
0.0002315359245
0.0002387730913
0.0002453695126
0.0002505797457
0.0002536051359
0.0002278315887
0.0002316794594
0.0002371294611
0.0002437422924
0.0002509916383
0.0002582678594
0.0002648883511
0.0002701093383
0.0002731370905
0.0002474822492
0.0002513478464
0.0002568173949
0.0002634451189
0.0002706996131
0.0002779691036
0.0002845728208
0.0002897729604
0.0002927850412
0.0002674166392
0.0002712752685
0.0002767298327
0.0002833312777
0.0002905467383
0.0002977662047
0.0003043147292
0.0003094644392
0.0003124440311
0.0002875156595
0.0002913440146
0.0002967511052
0.0003032876916
0.0003104229151
0.0003175521862
0.0003240100483
0.0003290821391
0.0003320138389
0.0003076629882
0.0003114394993
0.0003167691362
0.0003232054022
0.0003302226861
0.0003372251817
0.0003435602367
0.0003485301724
0.0003514001264
0.0003277469549
0.0003314520468
0.0003366770999
0.000342981076
0.0003498465805
0.0003566896238
0.0003628732911
0.0003677193482
0.0003705153297
0.0003476621001
0.0003512783631
0.0003563747719
0.0003625182126
0.000369202173
0.0003758571594
0.0003818645388
0.0003865678711
0.0003892793069
0.0003673104116
0.0003708226912
0.0003757695739
0.0003817280616
0.000388204866
0.0003946473055
0.0004004571849
0.0004050018095
0.0004076197633
0.0003866022433
0.0003899976598
0.0003947773253
0.0004005302615
0.0004067784135
0.0004129878654
0.0004185826387
0.0004229553564
0.000425472476
0.0004054569357
0.0004087248424
0.0004133227202
0.0004188532234
0.0004248552104
0.0004308151309
0.0004361806432
0.0004403709065
0.0004427813438
0.0004238031614
0.0004269350545
0.0004313395588
0.0004366342884
0.0004423763744
0.0004480738967
0.000453199235
0.0004571989776
0.0004594982883
0.00044157903
0.00044456842
0.0004487707636
0.0004538196869
0.0004592916508
0.0004647173165
0.0004695945611
0.0004733980009
0.0004755830297
0.000458731984
0.0004615742406
0.0004655682127
0.0004703643338
0.00047555917
0.0004807066274
0.0004853305792
0.0004889340045
0.0004910027633
0.0004752185229
0.0004779107014
0.0004816924233
0.0004862314874
0.0004911450848
0.0004960107712
0.0005003786663
0.0005037802151
0.0005057317572
0.0004910037888
0.0004935444484
0.0004971121174
0.000501392305
0.000506023117
0.0005106059347
0.0005147171571
0.0005179165966
0.0005197508916
0.0005060610482
0.0005084500671
0.0005118036994
0.0005158253199
0.0005201740374
0.0005244750345
0.0005283308349
0.0005313293461
0.0005330471593
0.0005203710975
0.0005226094925
0.0005257506713
0.0005295158652
0.0005335851001
0.0005376071639
0.0005412103907
0.0005440103641
0.0005456131411
0.0005339216215
0.0005360113744
0.0005389430103
0.000542455467
0.0005462494526
0.0005499970209
0.0005533518677
0.0005559567119
0.0005574464711
0.0005467065262
0.0005486504225
0.0005513765294
0.0005546412233
0.0005581655374
0.0005616443311
0.0005647561041
0.0005671700695
0.0005685493038
0.0005587252668
0.0005605267465
0.0005630522363
0.0005660751868
0.000569336498
0.0005725532783
0.0005754281851
0.000577656204
0.0005789277908
0.0005699821871
0.0005716452102
0.0005739757073
0.0005767637617
0.0005797696014
0.0005827319517
0.0005853769121
0.0005874244559
0.0005885915771
0.000580485883
0.0005820148091
0.0005841564852
0.0005867171253
0.0005894756864
0.0005921918193
0.0005946142973
0.00059648725
0.0005975533208
0.0005902486071
0.0005916480866
0.0005936075121
0.0005959486835
0.0005984686415
0.000600947229
0.0006031550869
0.0006048596342
0.0006058282413
0.0005992857232
0.0006005605974
0.0006023446085
0.0006044745686
0.0006067649255
0.0006090149505
0.0006110163199
0.0006125588526
0.0006134336994
0.0006076152134
0.0006087704156
0.0006103859874
0.0006123131703
0.0006143831188
0.0006164137483
0.000618216921
0.000619603952
0.0006203888124
0.0006152570495
0.0006162976168
0.0006177518028
0.0006194847047
0.000621343514
0.0006231639916
0.0006247773272
0.000626015422
0.0006267141007
0.0006222327532
0.0006231637491
0.0006244636672
0.0006260108064
0.0006276677386
0.0006292872994
0.0006307191501
0.0006318148689
0.0006324311686
0.0006285650998
0.0006293915583
0.0006305442905
0.00063191418
0.0006333784201
0.000634806223
0.0006360648725
0.0006370247233
0.0006375624175
0.0006342777832
0.00063500467
0.0006360172004
0.0006372182382
0.0006384988839
0.000639743963
0.0006408375795
0.0006416679803
0.0006421307916
0.0006393951212
0.0006400273056
0.0006409064839
0.0006419469099
0.0006430529102
0.0006441241262
0.0006450607233
0.0006457679721
0.0006461595549
0.0006439417961
0.000644484029
0.0006452365392
0.0006461243955
0.0006470644875
0.0006479705059
0.000648757917
0.0006493481696
0.0006496720963
0.0006479426311
0.0006483995287
0.000649031866
0.0006497749689
0.0006505576442
0.0006513069114
0.0006519527639
0.0006524320143
0.000652691764
0.0006514223992
0.0006517984318
0.0006523168877
0.0006529228116
0.0006535563053
0.0006541570238
0.000654668711
0.0006550427728
0.0006552417216
0.0006544056614
0.0006547051453
0.0006551157965
0.0006555918597
0.0006560841324
0.000656544237
0.0006569289093
0.0006572034082
0.0006573448241
0.0006569166317
0.0006571437241
0.0006574524241
0.0006578056779
0.0006581644011
0.0006584915385
0.0006587561051
0.0006589364758
0.0006590235159
0.0006589790666
0.0006591377629
0.0006593501387
0.0006595873634
0.0006598199156
0.0006600214421
0.000660172562
0.0006602640432
0.0006602997507
0.0006606161764
0.0006607103101
0.0006608317621
0.0006609594667
0.0006610729341
0.0006611559181
0.000661199994
0.0006612076239
0.0006611949259
0.0006618505557
0.0006618837997
0.0006619195033
0.000661943928
0.0006619451068
0.0006619163302
0.0006618595079
0.0006617881232
0.0006617298304
0.0006627041282
0.0006626799975
0.0006626349069
0.0006625620269
0.0006624574273
0.0006623233897
0.000662171562
0.000662025797
0.0006619246028
0.0006631981066
0.0006631199614
0.0006629988136
0.0006628343441
0.000662630195
0.000662397117
0.0006621559251
0.0006619402161
0.0006617986986
0.0006633529635
0.0006632240131
0.0006630313332
0.0006627807348
0.0006624829893
0.0006621568177
0.0006618316554
0.0006615502441
0.0006613708689
0.0006631884127
0.0006630117195
0.0006627518264
0.0006624203121
0.0006620346544
0.0006616210684
0.0006612170889
0.0006608740263
0.0006606591481
0.0006627233994
0.0006625018837
0.0006621788962
0.0006617714381
0.0006613032903
0.000660807707
0.0006603298226
0.0006599289802
0.0006596808478
0.0006619760974
0.0006617125421
0.0006613303856
0.0006608517229
0.0006603062538
0.0006597338382
0.0006591867356
0.0006587318026
0.0006584525601
0.0006609639128
0.0006606609682
0.0006602233816
0.000659678029
0.0006590601627
0.0006584158357
0.0006578039789
0.0006572984726
0.0006569901632
0.0006597034918
0.000659363681
0.000658874224
0.0006582664797
0.0006575809052
0.0006568693524
0.000656196992
0.0006556442621
0.000655308831
0.0006582107335
0.0006578364573
0.000657298517
0.0006566324716
0.0006558836511
0.0006551093322
0.0006543805137
0.0006537837474
0.0006534230454
0.0006565008049
0.0006560943467
0.0006555111451
0.0006547906896
0.000653982868
0.0006531500249
0.0006523685963
0.0006517308248
0.0006513466116
0.0006545881591
0.0006541516901
0.0006535262905
0.0006527551245
0.0006518923377
0.0006510050035
0.0006501746228
0.0006494987273
0.0006490926749
0.0006524865553
0.0006520221387
0.0006513574525
0.0006505390921
0.0006496251759
0.0006486871834
0.0006478113262
0.0006471000437
0.0006466737401
0.0006502090794
0.0006497186756
0.0006490174689
0.0006481552546
0.0006471938526
0.0006462088424
0.0006452908098
0.0006445467389
0.0006441016911
0.0006477681673
0.000647253638
0.0006465185375
0.0006456156416
0.0006446102138
0.0006435816425
0.0006426245678
0.0006418501749
0.0006413878127
0.0006451756271
0.0006446387398
0.0006438722395
0.0006429316731
0.0006418855038
0.0006408166517
0.0006398235081
0.0006390211323
0.0006385428115
0.000642442663
0.0006418850953
0.0006410895616
0.0006401141823
0.0006390303875
0.0006379243664
0.0006368979737
0.000636069833
0.0006355768384
0.0006395798988
0.000639003242
0.0006381809201
0.0006371734384
0.0006360549733
0.000634914734
0.0006338577653
0.0006330059616
0.0006324995104
0.0006365974014
0.0006360031647
0.0006351561836
0.0006341191696
0.000632968836
0.0006317971754
0.0006307121636
0.0006298386881
0.0006293199327
0.0006335047039
0.0006328943183
0.0006320246962
0.0006309605859
0.0006297810389
0.000628580607
0.0006274699513
0.0006265766891
0.0006260467204
0.0006303108293
0.0006296856506
0.0006287953
0.0006277064014
0.0006265001563
0.0006252734626
0.0006241394346
0.00062322817
0.0006226880199
0.0006270243121
0.0006263856251
0.0006254763575
0.0006243648566
0.0006231342949
0.0006218837153
0.0006207284648
0.0006198008857
0.0006192515298
0.0006236532212
0.0006230022422
0.000622075773
0.0006209437393
0.0006196911154
0.0006184188981
0.0006172444586
0.0006163021611
0.0006157445217
0.0006202051806
0.0006195430613
0.000618601014
0.0006174504059
0.0006161778528
0.0006148861243
0.0006136944186
0.0006127389113
0.0006121738597
0.0006166873909
0.0006160152208
0.0006150591316
0.0006138918018
0.0006126013365
0.0006112921074
0.0006100849529
0.0006091176611
0.00060854602
0.0006131066487
0.0006124254586
0.0006114567802
0.0006102744804
0.0006089680099
0.0006076431802
0.000606422294
0.0006054445634
0.0006048671093
0.0006094693667
0.0006087801309
0.0006078002367
0.0006066046227
0.0006052839488
0.0006039453134
0.0006027123166
0.0006017254177
0.0006011428833
0.0006057815918
0.0006050852314
0.000604095419
0.000602888055
0.0006015548796
0.0006002041333
0.0005989605561
0.0005979656873
0.0005973787633
0.0006020490237
0.0006013464085
0.0006003479038
0.0005991302668
0.0005977861966
0.0005964249388
0.0005951722249
0.0005941705163
0.0005935798538
0.0005982770319
0.0005975689834
0.0005965629433
0.0005953364277
0.0005939829788
0.0005926127182
0.0005913522288
0.0005903447456
0.0005897509579
0.0005944706723
0.0005937579656
0.0005927454823
0.0005915114033
0.0005901500056
0.0005887721648
0.0005875051829
0.0005864929285
0.000585896593
0.0005906347033
0.0005899180698
0.000588900173
0.000587659771
0.0005862917726
0.0005849076922
0.0005836354263
0.0005826193456
0.0005820210057
0.0005867736009
0.0005860537301
0.0005850313909
0.000583785835
0.0005824125062
0.0005810234489
0.0005797470369
0.0005787280189
0.0005781281858
0.0005828915737
0.0005821691155
0.0005811432488
0.0005798936404
0.0005785161774
0.0005771233323
0.0005758438451
0.0005748227262
0.0005742218804
0.0005789925769
0.0005782681435
0.000577239611
0.0005759869873
0.0005746065164
0.0005732110021
0.0005719294472
0.0005709070138
0.0005703056067
0.0005750803256
0.0005743544935
0.0005733241065
0.0005720694438
0.0005706870248
0.0005692898939
0.0005680072185
0.0005669842095
0.0005663826653
0.0005711583083
0.0005704316201
0.0005694001423
0.0005681443591
0.0005667609889
0.0005653632313
0.0005640803257
0.0005630574356
0.0005624561526
0.0005672297995
0.0005665027658
0.0005654709156
0.000564214876
0.0005628314923
0.0005614340383
0.0005601517395
0.0005591296205
0.0005585289726
0.0005632978718
0.000562570973
0.0005615394263
0.0005602839432
0.0005589014276
0.0005575051521
0.0005562242464
0.0005552035114
0.0005546038497
0.0005593654084
0.0005586390965
0.0005576084891
0.000556354327
0.0005549735088
0.0005535792345
0.0005523004613
0.0005512816861
0.0005506833405
0.0005554351146
0.0005547098151
0.0005536807456
0.000552428624
0.0005510502836
0.0005496587844
0.0005483828393
0.0005473665656
0.000546769846
0.0005515095306
0.0005507856441
0.000549758676
0.0005485092728
0.0005471341452
0.0005457461502
0.0005444736884
0.0005434604263
0.0005428656248
0.0005475910426
0.0005468689472
0.0005458446122
0.0005445985666
0.0005432273453
0.0005418435425
0.0005405751823
0.0005395654134
0.0005389728057
0.0005436818964
0.000542961949
0.0005419407496
0.0005406986661
0.000539332007
0.0005379530476
0.0005366893745
0.000535683555
0.0005350934024
0.0005397842095
0.0005390667487
0.0005380491613
0.0005368116134
0.0005354501394
0.0005340766419
0.0005328182128
0.000531816777
0.0005312293283
0.0005358999858
0.0005351853337
0.0005341718122
0.0005329393466
0.000531583652
0.0005302162076
0.0005289635551
0.000527966919
0.000527382413
0.0005320311299
0.000531319595
0.0005303105744
0.0005290837157
0.0005277343714
0.0005263735491
0.0005251271873
0.0005241357531
0.0005235544209
0.0005281794636
0.0005274713437
0.0005264672441
0.0005252464999
0.0005239040598
0.0005225504127
0.0005213108422
0.0005203250028
0.000519747071
0.0005243467439
0.0005236423291
0.0005226435606
0.0005214294273
0.0005200944344
0.0005187485062
0.000517516221
0.0005165363656
0.0005159620589
0.0005205346824
0.000519834259
0.0005188412269
0.0005176341962
0.0005163071898
0.0005149695227
0.0005137450173
0.0005127715368
0.000512201082
0.0005167449676
0.0005160488218
0.0005150619324
0.0005138624985
0.0005125440227
0.0005112151657
0.0005099989427
0.0005090322366
0.0005084658662
0.0005129792889
0.0005122877117
0.0005113073785
0.0005101160463
0.0005088066586
0.0005074871768
0.0005062797561
0.000505320239
0.0005047581952
0.0005092393635
0.0005085526553
0.0005075793067
0.0005063966004
0.0005050968821
0.0005037873666
0.0005025892944
0.0005016374041
0.0005010799432
0.0005055269656
0.0005048454422
0.0005038795289
0.0005027060018
0.0005014165682
0.0005001176473
0.0004989295062
0.0004979857114
0.0004974331083
0.0005018439585
0.0005011679565
0.0005002099602
0.000499046205
0.0004977677173
0.0004964800681
0.0004953024876
0.0004943672964
0.0004938198494
0.0004981923282
0.0004975222118
0.0004965726544
0.0004954193143
0.0004941524915
0.0004928768519
0.0004917105196
0.0004907844877
0.0004902425227
0.0004945742194
0.0004939103869
0.0004929698398
0.0004918276205
0.0004905732526
0.0004893104344
0.0004881561074
0.0004872398456
0.0004867037202
0.0004909919718
0.0004903348628
0.0004894039571
0.0004882736384
0.0004870325998
0.0004857835031
0.0004846420224
0.0004837361999
0.000483206305
0.0004874481568
0.0004867982587
0.0004858776945
0.0004847601424
0.0004835334047
0.0004822990307
0.0004811713333
0.0004802766788
0.0004797534399
0.0004839456123
0.0004833034669
0.0004823940221
0.000481290198
0.0004800788379
0.0004788602924
0.0004777474057
0.0004768647213
0.000476348603
0.0004804874766
0.0004798536857
0.000478956224
0.0004778671938
0.0004766724024
0.0004754709029
0.0004743739402
0.0004735040996
0.0004729956054
0.000477077217
0.0004764524482
0.0004755679266
0.0004744948697
0.0004733179634
0.0004721348555
0.0004710549977
0.0004701989324
0.0004696985989
0.0004737186564
0.0004731036454
0.0004722331173
0.0004711773279
0.0004700197402
0.0004688564564
0.0004677949648
0.0004669536642
0.0004664620587
0.0004704159934
0.0004698115464
0.0004689561631
0.0004679190502
0.0004667823338
0.000465640331
0.0004645985317
0.0004637730354
0.0004632907518
0.0004671738098
0.0004665807992
0.0004657417995
0.0004647248645
0.0004636105578
0.0004624913632
0.0004614706419
0.0004606620331
0.0004601896876
0.0004639970634
0.0004634164149
0.0004625950875
0.0004615997832
0.0004605094534
0.0004594146459
0.0004584164349
0.0004576258295
0.0004571640541
0.000460891033
0.0004603236297
0.0004595211657
0.0004585489482