/*--------------------------------*- C++ -*----------------------------------*\
| =========                 |                                                 |
| \\      /  F ield         | OpenFOAM: The Open Source CFD Toolbox           |
|  \\    /   O peration     | Version:  2212                                  |
|   \\  /    A nd           | Website:  www.openfoam.com                      |
|    \\/     M anipulation  |                                                 |
\*---------------------------------------------------------------------------*/
FoamFile
{
    version     2.0;
    format      ascii;
    arch        "LSB;label=32;scalar=64";
    class       volScalarField;
    location    "30.00000000";
    object      C2H2_0;
}
// * * * * * * * * * * * * * * * * * * * * * * * * * * * * * * * * * * * * * //

dimensions      [0 0 0 0 0 0 0];

internalField   nonuniform List<scalar> 
3000
(
0.3340065119
0.3340065119
0.3340065119
0.3340065119
0.3340065119
0.3340065119
0.3340065119
0.3340065119
0.3340065119
0.3340065119
0.3340065119
0.3340065119
0.3340065119
0.3340065119
0.3340065119
0.3340065119
0.3340065119
0.3340065119
0.3340065119
0.3340065119
0.3340065119
0.3340065119
0.3340065119
0.3340065119
0.3340065119
0.3340065119
0.3340065119
0.3340065119
0.3340065119
0.3340065119
0.3340065119
0.3340065119
0.3340065119
0.3340065119
0.3340065119
0.3340065119
0.3340065119
0.3340065119
0.3340065119
0.3340065119
0.3340065119
0.3340065119
0.3340065119
0.3340065119
0.3340065119
0.3340065119
0.3340065119
0.3340065119
0.3340065119
0.3340065119
0.3340065119
0.3340065119
0.3340065119
0.3340065119
0.3340065119
0.3340065119
0.3340065119
0.3340065119
0.3340065119
0.3340065119
0.3340065119
0.3340065119
0.3340065119
0.3340065119
0.3340065119
0.3340065119
0.3340065119
0.3340065119
0.3340065119
0.3340065119
0.3340065119
0.3340065119
0.3340065119
0.3340065119
0.3340065119
0.3340065119
0.3340065119
0.3340065119
0.3340065119
0.3340065119
0.3340065119
0.3340065119
0.3340065119
0.3340065119
0.3340065119
0.3340065119
0.3340065119
0.3340065119
0.3340065119
0.3340065119
0.3340065119
0.3340065119
0.3340065119
0.3340065119
0.3340065119
0.3340065119
0.3340065119
0.3340065119
0.3340065119
0.3340065119
0.3340065119
0.3340065119
0.3340065119
0.3340065119
0.3340065119
0.3340065119
0.3340065119
0.3340065119
0.3340065119
0.3340065119
0.3340065119
0.3340065119
0.3340065119
0.3340065119
0.3340065119
0.3340065119
0.3340065119
0.3340065119
0.3340065119
0.3340065119
0.3340065119
0.3340065119
0.3340065119
0.3340065119
0.3340065119
0.3340065119
0.3340065119
0.3340065119
0.3340065119
0.3340065119
0.3340065119
0.3340065119
0.3340065119
0.3340065119
0.3340065119
0.3340065119
0.3340065119
0.3340065119
0.3340065119
0.3340065119
0.3340065119
0.3340065119
0.3340065119
0.3340065119
0.3340065119
0.3340065119
0.3340065119
0.3340065119
0.3340065119
0.3340065119
0.3340065119
0.3340065119
0.3340065119
0.3340065119
0.3340065119
0.3340065119
0.3340065119
0.3340065119
0.3340065119
0.3340065119
0.3340065119
0.3340065119
0.3340065119
0.3340065119
0.3340065119
0.3340065119
0.3340065119
0.3340065119
0.3340065119
0.3340065119
0.3340065119
0.3340065119
0.3340065119
0.3340065119
0.3340065119
0.3340065119
0.3340065119
0.3340065119
0.3340065119
0.3340065119
0.3340065119
0.3340065119
0.3340065119
0.3340065119
0.3340065119
0.3340065119
0.3340065119
0.3340065119
0.3340065119
0.3340065119
0.3340065119
0.3340065119
0.3340065119
0.3340065119
0.3340065119
0.3340065119
0.3340065119
0.3340065119
0.3340065119
0.3340065119
0.3340065119
0.3340065119
0.3340065119
0.3340065119
0.3340065119
0.3340065119
0.3340065119
0.3340065119
0.3340065119
0.3340065119
0.3340065119
0.3340065119
0.3340065119
0.3340065119
0.3340065119
0.3340065119
0.3340065119
0.3340065119
0.3340065119
0.3340065119
0.3340065119
0.3340065119
0.3340065119
0.3340065119
0.3340065119
0.3340065119
0.3340065119
0.3340065119
0.3340065119
0.3340065119
0.3340065119
0.3340065119
0.3340065119
0.3340065119
0.3340065119
0.3340065119
0.3340065119
0.3340065119
0.3340065119
0.3340065119
0.3340065119
0.3340065119
0.3340065119
0.3340065119
0.3340065119
0.3340065119
0.3340065119
0.3340065119
0.3340065119
0.3340065119
0.3340065119
0.3340065119
0.3340065119
0.3340065119
0.3340065119
0.3340065119
0.3340065119
0.3340065119
0.3340065119
0.3340065119
0.3340065119
0.3340065119
0.3340065119
0.3340065119
0.3340065119
0.3340065119
0.3340065119
0.3340065119
0.3340065119
0.3340065119
0.3340065119
0.3340065119
0.3340065119
0.3340065119
0.3340065119
0.3340065119
0.3340065119
0.3340065118
0.3340065118
0.3340065119
0.3340065119
0.3340065119
0.3340065119
0.3340065119
0.3340065118
0.3340065118
0.3340065118
0.3340065118
0.3340065119
0.3340065119
0.3340065119
0.3340065118
0.3340065118
0.3340065118
0.3340065118
0.3340065117
0.3340065117
0.3340065119
0.3340065118
0.3340065118
0.3340065118
0.3340065118
0.3340065117
0.3340065117
0.3340065116
0.3340065116
0.3340065118
0.3340065118
0.3340065118
0.3340065117
0.3340065117
0.3340065116
0.3340065115
0.3340065114
0.3340065114
0.3340065118
0.3340065117
0.3340065117
0.3340065116
0.3340065115
0.3340065114
0.3340065112
0.3340065111
0.334006511
0.3340065117
0.3340065116
0.3340065115
0.3340065114
0.3340065112
0.334006511
0.3340065108
0.3340065106
0.3340065104
0.3340065115
0.3340065114
0.3340065113
0.3340065111
0.3340065108
0.3340065104
0.33400651
0.3340065096
0.3340065094
0.3340065113
0.3340065111
0.3340065109
0.3340065105
0.33400651
0.3340065094
0.3340065088
0.3340065082
0.3340065078
0.3340065108
0.3340065106
0.3340065101
0.3340065095
0.3340065087
0.3340065077
0.3340065067
0.3340065057
0.3340065051
0.3340065101
0.3340065097
0.334006509
0.3340065079
0.3340065066
0.334006505
0.3340065034
0.3340065018
0.3340065008
0.3340065089
0.3340065081
0.334006507
0.3340065053
0.3340065032
0.3340065007
0.334006498
0.3340064956
0.334006494
0.3340065068
0.3340065057
0.3340065038
0.3340065011
0.3340064977
0.3340064937
0.3340064894
0.3340064857
0.3340064833
0.3340065035
0.3340065016
0.3340064986
0.3340064943
0.3340064889
0.3340064826
0.334006476
0.3340064701
0.3340064665
0.334006498
0.334006495
0.3340064901
0.3340064834
0.3340064749
0.3340064651
0.3340064549
0.334006446
0.3340064404
0.3340064892
0.3340064843
0.3340064767
0.3340064662
0.334006453
0.3340064379
0.3340064224
0.3340064088
0.3340064004
0.334006475
0.3340064673
0.3340064554
0.3340064392
0.3340064189
0.3340063958
0.3340063724
0.3340063521
0.3340063395
0.3340064522
0.3340064404
0.334006422
0.3340063971
0.3340063663
0.3340063315
0.3340062964
0.3340062661
0.3340062475
0.3340064163
0.3340063981
0.3340063701
0.3340063323
0.3340062858
0.3340062339
0.3340061817
0.334006137
0.3340061096
0.33400636
0.3340063324
0.3340062899
0.3340062331
0.3340061639
0.3340060869
0.33400601
0.3340059446
0.3340059046
0.3340062724
0.3340062309
0.3340061674
0.3340060829
0.3340059806
0.3340058674
0.3340057551
0.33400566
0.334005602
0.3340061377
0.3340060758
0.3340059818
0.3340058572
0.3340057072
0.3340055423
0.3340053792
0.3340052417
0.3340051581
0.3340059322
0.334005841
0.3340057029
0.3340055209
0.3340053029
0.3340050641
0.3340048292
0.3340046315
0.3340045116
0.3340056219
0.3340054887
0.3340052877
0.3340050241
0.3340047096
0.3340043666
0.33400403
0.3340037474
0.3340035762
0.3340051578
0.3340049651
0.3340046753
0.3340042965
0.3340038463
0.3340033569
0.3340028777
0.3340024762
0.3340022331
0.3340044709
0.3340041945
0.3340037801
0.3340032404
0.3340026009
0.3340019075
0.3340012301
0.3340006632
0.33400032
0.3340034639
0.3340030712
0.3340024839
0.3340017211
0.33400082
0.3339998453
0.3339988949
0.3339981006
0.3339976201
0.3340020028
0.3340014497
0.3340006246
0.3339995557
0.3339982966
0.3339969379
0.3339956161
0.3339945131
0.3339938466
0.3339999039
0.333999132
0.333997983
0.3339964988
0.3339947551
0.3339928787
0.3339910575
0.3339895406
0.3339886245
0.3339969193
0.3339958522
0.3339942675
0.3339922258
0.3339898343
0.333987268
0.3339847829
0.3339827157
0.3339814675
0.3339927201
0.3339912597
0.3339890956
0.3339863153
0.333983068
0.3339795922
0.3339762322
0.3339734391
0.3339717519
0.3339868781
0.3339849
0.3339819755
0.3339782281
0.3339738623
0.3339691986
0.3339646953
0.3339609525
0.3339586902
0.3339788464
0.3339761959
0.3339722848
0.3339672843
0.3339614702
0.3339552683
0.333949284
0.3339443106
0.3339413025
0.3339679389
0.3339644238
0.3339592454
0.3339526362
0.3339449636
0.3339367883
0.333928905
0.3339223544
0.3339183912
0.3339533041
0.3339486878
0.3339418962
0.3339332408
0.3339232061
0.3339125257
0.3339022351
0.333893688
0.3338885173
0.3339338963
0.3339278908
0.3339190655
0.3339078337
0.3338948297
0.3338810062
0.3338677011
0.3338566595
0.3338499831
0.3339084496
0.3339007093
0.3338893481
0.3338749088
0.3338582164
0.3338404981
0.3338234675
0.3338093509
0.3338008231
0.3338754555
0.3338655742
0.3338510878
0.3338327046
0.3338114883
0.3337890066
0.3337674333
0.3337495782
0.3337388058
0.3338331497
0.3338206586
0.3338023698
0.3337791996
0.3337525078
0.3337242786
0.3336972415
0.3336749041
0.3336614485
0.3337795063
0.3337638759
0.3337410219
0.3337121189
0.3336788897
0.3336438204
0.3336103025
0.3335826658
0.3335660477
0.3337122432
0.3336928872
0.3336646267
0.3336289526
0.3335880256
0.333544929
0.3335038311
0.3334700166
0.3334497233
0.3336288365
0.3336051202
0.3335705453
0.3335269846
0.3334771201
0.3334247349
0.3333748958
0.3333339806
0.3333094757
0.3335265462
0.3334977977
0.3334559508
0.3334033327
0.3333432367
0.3332802544
0.333220477
0.3331715148
0.3331422509
0.3334024505
0.3333679747
0.3333178693
0.3332549942
0.3331833492
0.3331084464
0.3330375279
0.3329795736
0.332945007
0.3332534875
0.3332125832
0.3331532281
0.3330788973
0.3329943959
0.3329062693
0.3328230338
0.3327551698
0.3327147748
0.3330765048
0.3330284816
0.3329589059
0.3328719531
0.3327733328
0.3326707337
0.332574064
0.3324954246
0.3324487083
0.3328683121
0.3328125087
0.3327317869
0.3326311077
0.3325171823
0.3323989486
0.3322878137
0.3321976062
0.332144119
0.332625739
0.3325615391
0.3324688135
0.3323533915
0.3322230791
0.3320881598
0.3319616357
0.3318591545
0.3317984986
0.3323456938
0.3322725402
0.3321670393
0.3320359675
0.3318883107
0.3317357837
0.331593065
0.3314776963
0.3314095201
0.3320252219
0.3319426274
0.331823681
0.3316761771
0.331510357
0.3313394405
0.3311798459
0.3310510618
0.3309750489
0.331661561
0.3315691165
0.3314361655
0.3312715834
0.3310869315
0.3308969916
0.3307199711
0.3305773555
0.3304933105
0.3312521902
0.3311495693
0.3310021727
0.3308200091
0.330616011
0.3304065687
0.3302117314
0.3300550538
0.3299628594
0.3307948683
0.3306818317
0.3305196687
0.330319565
0.3300958645
0.3298666308
0.3296538068
0.3294829701
0.3293825853
0.3302876627
0.3301640556
0.3299869264
0.3297686731
0.3295251263
0.3292760425
0.3290452281
0.328860263
0.3287517195
0.3297289597
0.3295947157
0.329402567
0.3291661756
0.3289028508
0.3286340359
0.3283853835
0.3281864407
0.3280698387
0.3291175531
0.3289727403
0.3287656928
0.32851134
0.3282284751
0.3279402129
0.3276740207
0.3274613624
0.3273368657
0.3284527368
0.3282975144
0.328075813
0.3278038252
0.3275018157
0.3271945435
0.3269112443
0.3266852362
0.3265530666
0.3277342179
0.3275688289
0.3273328345
0.3270436756
0.3267230634
0.3263973598
0.3260975104
0.3258586119
0.3257190441
0.3269621072
0.326786872
0.3265370526
0.3262313133
0.3258927739
0.3255493464
0.3252336156
0.3249823707
0.3248357266
0.3261369075
0.3259522172
0.3256891389
0.3253675246
0.3250118549
0.3246515268
0.3243206836
0.3240577114
0.3239043546
0.3252594997
0.3250658092
0.3247901259
0.3244534451
0.3240815493
0.3237052463
0.3233601476
0.3230861325
0.3229264626
0.3243311243
0.324128945
0.3238413882
0.3234905395
0.3231034156
0.3227121519
0.3223537299
0.3220694119
0.3219038585
0.3233533605
0.3231432525
0.3228446206
0.3224805794
0.3220793048
0.3216741688
0.3213034181
0.3210095824
0.3208385997
0.3223281018
0.3221106663
0.3218018127
0.321425618
0.3210113348
0.3205934741
0.3202114384
0.3199089054
0.3197329663
0.3212575289
0.3210333993
0.3207152214
0.3203279618
0.3199018613
0.3194724683
0.319080227
0.3187698421
0.3185894323
0.3201440791
0.3199139131
0.3195873405
0.3191901395
0.3187534473
0.3183137438
0.317912399
0.3175950223
0.3174106344
0.3189904139
0.3187548851
0.3184208674
0.31801487
0.3175688307
0.3171200529
0.3167107161
0.3163872122
0.3161993405
0.3177993847
0.3175591738
0.317218669
0.3168050272
0.3163508895
0.315894274
0.3154780533
0.315149282
0.314958417
0.3165739957
0.3163297827
0.3159837459
0.3155636055
0.3151026077
0.3146393775
0.3142173657
0.3138841728
0.313690796
0.3153173673
0.3150698233
0.3147191959
0.3142936836
0.3138270406
0.3133583918
0.3129316554
0.3125948648
0.3123994444
0.3140326978
0.3137824782
0.3134281776
0.3129983894
0.31252728
0.312054371
0.3116239403
0.3112843459
0.3110873331
0.3127232272
0.3124709646
0.3121138755
0.311680866
0.3112064225
0.3107303631
0.3102972233
0.3099555837
0.3097574086
0.3113922004
0.3111384993
0.3107794655
0.3103442394
0.3098675377
0.309389381
0.3089544652
0.3086114978
0.3084125673
0.310042834
0.3097882657
0.3094280839
0.3089915878
0.3085136407
0.3080343757
0.3075985593
0.3072549365
0.3070556317
0.3086782849
0.3084233836
0.308062798
0.3076259152
0.3071476658
0.3066682126
0.306232309
0.3058886551
0.3056893302
0.307301622
0.307046882
0.3066865806
0.3062501265
0.3057724446
0.3052936508
0.3048584086
0.3045152983
0.3043162792
0.3059158016
0.3056616754
0.3053022875
0.3048670075
0.3043906871
0.3039133257
0.3034794275
0.3031373846
0.3029389689
0.3045236465
0.3042705441
0.3039126392
0.3034792071
0.3030049657
0.3025297349
0.302097797
0.3017572949
0.3015597518
0.3031278293
0.3028761177
0.3025202056
0.3020892242
0.3016177033
0.301145227
0.3007158005
0.3003772629
0.3001808338
0.3017308589
0.301480863
0.3011273948
0.3006993972
0.300231164
0.2997619943
0.2993355668
0.2989993693
0.2988042687
0.3003350711
0.3000870752
0.2997364452
0.2993118975
0.2988474478
0.2983820672
0.2979590658
0.2976255377
0.2974319543
0.2989426232
0.2986968723
0.2983494208
0.2979287251
0.2974684868
0.2970073123
0.2965881065
0.2962575337
0.2960656317
0.2975554905
0.2973121932
0.2969682095
0.2965517078
0.2960960453
0.2956394323
0.2952243378
0.2948969652
0.2947068861
0.2961754673
0.2959347978
0.2955945239
0.2951825024
0.2947317209
0.2942799678
0.2938692504
0.2935452851
0.293357149
0.294804169
0.2945662702
0.2942299045
0.2938225983
0.2933769488
0.2929303017
0.2925241813
0.2922037953
0.292017703
0.2934430371
0.2932080233
0.2928757247
0.2924733222
0.2920330064
0.2915916636
0.2911903184
0.2908736524
0.2906896865
0.2920933458
0.2918613055
0.2915331973
0.291135845
0.2907010202
0.2902651371
0.2898687078
0.2895558734
0.2893741004
0.2907562096
0.2905272085
0.2902033822
0.289811189
0.2893819729
0.2889516667
0.2885602601
0.2882513434
0.2880718151
0.2894325927
0.2892066761
0.2888871951
0.288500237
0.2880767123
0.2876520661
0.2872657591
0.286960823
0.2867835782
0.2881233182
0.2879005137
0.2875854168
0.2872037409
0.2867859593
0.2863670262
0.2859858695
0.2856849565
0.2855100224
0.2868290787
0.2866093985
0.2862987032
0.2859223311
0.2855103176
0.2850971248
0.2847211455
0.2844242804
0.2842516739
0.2855504466
0.2853338895
0.2850275948
0.2846565264
0.2842502828
0.2838428345
0.2834720399
0.2831792317
0.2830089605
0.2842878853
0.2840744385
0.2837725273
0.2834067437
0.2830062515
0.2826045324
0.282238912
0.281950156
0.28178222
0.2830417603
0.2828314003
0.282533841
0.2821733068
0.2817785303
0.2813825081
0.2810220365
0.2807373162
0.2805717082
0.2818123522
0.2816050443
0.2813117915
0.280956456
0.2805673443
0.280176972
0.2798216106
0.2795408992
0.2793776062
0.2805998503
0.2803955577
0.280106557
0.2797563562
0.279372845
0.2789880633
0.2786377623
0.2783610244
0.2782000281
0.2794043642
0.2792030458
0.2789182401
0.278573103
0.2781951176
0.2778158565
0.277470557
0.2771977493
0.2770390271
0.2782259383
0.2780275492
0.2777468762
0.2774067294
0.277034187
0.2766603685
0.2763200036
0.2760510771
0.2758946024
0.2770645593
0.2768690515
0.2765924446
0.2762572089
0.2758900243
0.2755215643
0.2751860615
0.274920962
0.2747667054
0.2759201638
0.2757274871
0.2754548762
0.2751244689
0.2747625541
0.2743993638
0.2740686457
0.2738073152
0.2736552447
0.2747926452
0.2746027474
0.2743340601
0.2740083952
0.2736516584
0.2732936466
0.2729676329
0.2727100102
0.2725600919
0.2736818591
0.273494687
0.273229849
0.2729088381
0.2725571846
0.2722042585
0.2718828664
0.2716288884
0.2714810867
0.2725876291
0.2724031288
0.2721420647
0.271825618
0.2714789518
0.2711310176
0.2708141619
0.270563763
0.2704180412
0.2715097517
0.2713278687
0.2710705025
0.2707585295
0.2704167535
0.270073716
0.2697613102
0.2695144239
0.2693707443
0.2704480002
0.2702686801
0.2700149356
0.2697073452
0.2693703614
0.2690321242
0.2687240815
0.2684806405
0.2683389648
0.2694021294
0.2692253178
0.2689751188
0.26867182
0.2683395299
0.2680059959
0.2677022294
0.2674621661
0.2673224557
0.2683718785
0.2681975214
0.2679507922
0.2676516941
0.2673239995
0.2669950715
0.2666954942
0.2664587408
0.2663209569
0.2673569744
0.2671850183
0.2669416836
0.266646696
0.2663234995
0.2659990808
0.265703606
0.2654700947
0.2653341983
0.2663571343
0.2661875263
0.2659475119
0.2656565456
0.2653377503
0.2650177451
0.2647262869
0.26449595
0.2643619022
0.2653720681
0.2652047562
0.2649679889
0.2646809557
0.2643664661
0.2640507796
0.2637632525
0.2635360227
0.2634037847
0.2644014809
0.2642364137
0.2640028213
0.2637196345
0.2634093562
0.2630978947
0.2628142141
0.2625900248
0.2624595582
0.263445074
0.2632822013
0.2630517128
0.2627722869
0.2624661271
0.2621587979
0.2618788806
0.2616576658
0.2615289324
0.2625025473
0.2623418196
0.2621143655
0.2618386165
0.2615364836
0.2612331957
0.2609569589
0.2607386538
0.2606116159
0.2615736001
0.2614149691
0.261190481
0.2609183264
0.2606201307
0.2603207942
0.2600481567
0.2598326974
0.259707318
0.2606579329
0.2605013509
0.260279762
0.260011121
0.2597167741
0.259421301
0.2591521829
0.2589395064
0.258815749
0.2597552476
0.2596006684
0.2593819129
0.2591167063
0.2588261219
0.2585344255
0.2582687484
0.258058793
0.2579366216
0.258865249
0.2587126271
0.2584966411
0.2582347914
0.2579478846
0.2576598804
0.2573975673
0.2571902722
0.2570696517
0.2579876454
0.2578369365
0.2576236573
0.2573650887
0.2570817767
0.2567973816
0.256538357
0.2563336629
0.2562145585
0.2571221491
0.2569733099
0.2567626762
0.2565073146
0.2562275165
0.2559466492
0.2556908394
0.255488688
0.2553710659
0.2562684769
0.2561214651
0.2559134172
0.2556611902
0.2553848268
0.2551074081
0.2548547408
0.2546550751
0.2545389021
0.2554263506
0.2552811249
0.2550756045
0.2548264415
0.2545534355
0.2542793878
0.2540297925
0.2538325568
0.2537178003
0.2545954973
0.2544520175
0.2542489677
0.2540027998
0.2537330756
0.2534623233
0.253215731
0.2530208708
0.2529074991
0.2537756496
0.2536338766
0.2534332419
0.2531900018
0.2529234858
0.2526559549
0.2524122983
0.2522197604
0.2521077424
0.2529665459
0.2528264413
0.2526281676
0.2523877898
0.2521244103
0.2518600287
0.2516192422
0.2514289745
0.2513182799
0.2521679304
0.2520294571
0.2518334917
0.2515959122
0.2513355991
0.2510742965
0.2508363159
0.2506482678
0.2505388671
0.2513795534
0.251242675
0.2510489665
0.2508141231
0.2505568082
0.2502985159
0.2500632788
0.2498774009
0.2497692651
0.2506011712
0.2504658522
0.2502743506
0.2500421827
0.2497877994
0.2495324507
0.2492998961
0.2491161401
0.2490092411
0.2498325459
0.2496987521
0.2495094086
0.2492798569
0.2490283404
0.2487758703
0.2485459388
0.2483642578
0.2482585681
0.2490734461
0.2489411439
0.248753911
0.248526918
0.2482782052
0.2480285501
0.2478011839
0.247621532
0.247517025
0.2483236462
0.2481928028
0.2480076343
0.247783144
0.2475371734
0.2472902715
0.2470654142
0.2468877468
0.2467843964
0.2475829264
0.2474535101
0.247270361
0.2470483187
0.2468050304
0.2465608217
0.2463384184
0.2461626921
0.2460604728
0.2468510731
0.246723053
0.2465418795
0.246322232
0.2460815678
0.2458399936
0.2456199909
0.2454461633
0.2453450504
0.2461278785
0.2460012243
0.2458219837
0.2456046794
0.2453665825
0.2451275857
0.2449099316
0.2447379615
0.2446379311
0.2454131403
0.2452878228
0.2451104736
0.244895462
0.2446598772
0.2444234024
0.2442080462
0.2440378936
0.2439389221
0.2447066621
0.2445826528
0.2444071545
0.2441943867
0.2439612601
0.2437272533
0.2435141458
0.2433457715
0.2432478362
0.2440082529
0.2438855239
0.2437118373
0.2435012655
0.2432705449
0.2430389536
0.2428280467
0.2426614127
0.2425644914
0.2433177272
0.2431962515
0.2430243383
0.2428159161
0.2425875506
0.2423583234
0.2421495705
0.24198464
0.2418887111
0.2426349046
0.2425146559
0.2423444789
0.2421381611
0.2419121012
0.2416851885
0.2414785442
0.2413152811
0.2412203236
0.2419596102
0.241840563
0.2416720858
0.2414678286
0.241244026
0.2410193794
0.2408147995
0.2406531689
0.2405591624
0.2412916739
0.2411738032
0.2410069908
0.2408047513
0.2405831593
0.2403607316
0.2401581732
0.239998141
0.2399050657
0.2406309308
0.2405142124
0.2403490303
0.240148767
0.23992934
0.2397090855
0.2395085068
0.2393500401
0.2392578765
0.2399772206
0.2398616309
0.239698046
0.2394997185
0.2392824121
0.2390642862
0.2388656467
0.2387087132
0.2386174427
0.2393303879
0.2392159041
0.2390538838
0.2388574529
0.2386422241
0.2384261836
0.2382294437
0.2380740123
0.2379836166
0.2386902819
0.2385768818
0.2384163948
0.2382218222
0.2380086292
0.2377946321
0.2375997536
0.2374457938
0.2373562553
0.2380567567
0.2379444186
0.2377854342
0.2375926829
0.2373814851
0.2371694906
0.2369764363
0.2368239189
0.2367352204
0.2374296705
0.2373183735
0.2371608621
0.2369698961
0.2367606541
0.2365506227
0.2363593566
0.2362082529
0.2361203778
0.2368088863
0.2366986101
0.236542543
0.2363533275
0.236146003
0.2359378964
0.2357483836
0.2355986662
0.2355115983
0.2361942717
0.2360849966
0.2359303459
0.2357428472
0.2355374035
0.2353311846
0.2351433914
0.2349950335
0.2349087574
0.2355856988
0.2354774058
0.2353241446
0.2351383302
0.2349347316
0.2347303648
0.2345442586
0.2343972346
0.2343117353
0.2349830445
0.2348757152
0.2347238177
0.2345396562
0.2343378685
0.2341353194
0.2339508692
0.2338051544
0.2337204175
0.2343861907
0.2342798076
0.2341292489
0.2339467103
0.2337467006
0.2335459365
0.2333631123
0.2332186832
0.2331346951
0.2337950244
0.2336895707
0.2335403271
0.2333593828
0.2331611199
0.2329621095
0.2327808831
0.2326377175
0.2325544652
0.2332094384
0.2331048982
0.2329569473
0.2327775703
0.2325810247
0.2323837386
0.2322040834
0.2320621602
0.2319796317
0.2326293318
0.2325256901
0.2323790109
0.2322011758
0.2320063201
0.2318107309
0.2316326221
0.2314919221
0.2314101061
0.2320546104
0.2319518535
0.2318064266
0.23163011
0.2314369189
0.2312430016
0.2310664168
0.2309269225
0.2308458089
0.231485188
0.2313833033
0.2312391112
0.2310642923
0.2308727431
0.2306804755
0.2305053948
0.2303670907
0.2302866706
0.2309209875
0.230819964
0.2306769913
0.2305036517
0.230313725
0.230123088
0.2299494946
0.2298123678
0.229732634
0.2303619418
0.2302617704
0.2301200044
0.2299481292
0.2297598091
0.2295707874
0.2293986681
0.2292627087
0.2291836556
0.2298079964
0.2297086699
0.2295681008
0.2293976788
0.2292109539
0.2290235369
0.2288528827
0.2287180844
0.2286397085
0.2292591102
0.2291606241
0.2290212459
0.2288522705
0.2286671345
0.228481317
0.2283121242
0.2281784846
0.2281007851
0.2287152587
0.2286176115
0.2284794226
0.2283118926
0.2281283453
0.2279441283
0.2277763992
0.2276439212
0.2275669002
0.2281764364
0.2280796301
0.2279426339
0.2277765546
0.2275946031
0.2274119954
0.2272457394
0.2271144318
0.2270380947
0.2276426598
0.2275467004
0.2274109065
0.2272462907
0.2270659506
0.22688497
0.226720205
0.2265900832
0.2265144398
0.2271139704
0.2270188692
0.2268842942
0.2267211635
0.2265424608
0.2263631351
0.2261998889
0.2260709765
0.2259960412
0.2265904392
0.2264962132
0.226362882
0.2262012685
0.2260242405
0.2258466102
0.2256849219
0.2255572517
0.2254830445
0.2260721706
0.2259788432
0.2258467905
0.2256867382
0.225511436
0.2253355554
0.225175478
0.225049093
0.2249756398
0.2255593069
0.2254669093
0.2253361809
0.2251777477
0.2250042378
0.2248301775
0.2246717784
0.2245467338
0.224474068
0.2250520334
0.2249606059
0.2248312601
0.2246745196
0.2245028864
0.224330735
0.2241740986
0.2240504634
0.2239786263
0.2245505845
0.2244601772
0.224332287
0.2241773308
0.2240076789
0.2238375463
0.2236827751
0.2235606333
0.2234896752
0.2240552492
0.2239659236
0.2238395783
0.2236865184
0.2235189751
0.2233509938
0.2231982112
0.2230776639
0.2230076452
0.2235663784
0.2234782088
0.2233535161
0.2232024871
0.2230372053
0.2228715308
0.222720884
0.2226020512
0.2225330436
0.2230843915
0.2229974664
0.2228745543
0.2227257157
0.2225628725
0.2223996883
0.2222513505
0.2221343734
0.222066461
0.2226097838
0.222524207
0.2224032253
0.2222567599
0.2220965611
0.2219360813
0.2217902543
0.2216752973
0.221608578
0.2221431324
0.2220590226
0.2219401398
0.2217962581
0.2216389421
0.2214814144
0.221338331
0.2212255834
0.2211601698
0.2216850917
0.221602583
0.2214859936
0.2213449377
0.2211907779
0.2210364855
0.2208964115
0.2207860891
0.2207221094
0.221236402
0.2211556478
0.2210415732
0.2209036182
0.2207529245
0.2206021874
0.2204654227
0.2203577685
0.2202953668
0.2207978951
0.2207190683
0.2206077573
0.2204732114
0.2203263302
0.2201795055
0.220046384
0.2199416679
0.2198810043
0.2203704937
0.220293786
0.220185514
0.2200547179
0.2199120307
0.2197695108
0.2196403981
0.2195389154
0.2194801646
0.2199552058
0.2198808265
0.2197758936
0.2196492172
0.2195111375
0.219373346
0.2192486359
0.2191507035
0.2190940526
0.219553115
0.2194812883
0.2193800153
0.2192578529
0.2191248199
0.218992205
0.2188723126
0.2187782632
0.2187239083
0.2191653631
0.2190963245
0.2189990471
0.2188818102
0.2187542797
0.2186273047
0.2185126565
0.2184228309
0.2183709717
0.2187931274
0.2187271179
0.218634179
0.2185222855
0.2184007184
0.2182798483
0.2181708702
0.218085606
0.2180364396
0.2184375897
0.2183748492
0.2182865885
0.2181804502
0.218065297
0.2179509832
0.2178480845
0.2177677039
0.2177214171
0.2180998997
0.2180406586
0.2179574005
0.2178574076
0.2177490915
0.2176417531
0.2175453097
0.2174701049
0.2174268651
0.2177811325
0.2177256025
0.2176476426
0.217554147
0.2174530446
0.2173530489
0.2172633846
0.2171936028
0.2171535496
0.2174822435
0.2174306073
0.2173581983
0.2172714964
0.2171779184
0.2170855611
0.2170029295
0.2169387586
0.2169019947
0.2172040224
0.2171564244
0.2170897622
0.2170100777
0.2169242507
0.2168397381
0.2167643061
0.2167058618
0.2166724461
0.2169470506
0.2169035876
0.2168427992
0.2167702688
0.2166923198
0.2166157532
0.2165475883
0.2164949045
0.2164648465
0.2167116648
0.2166723791
0.2166175122
0.2165521744
0.2164821193
0.2164134854
0.2163525471
0.21630557
0.2162788275
0.21649793
0.2164628046
0.216413822
0.2163556102
0.2162933479
0.2162325136
0.2161786508
0.2161372383
0.2161137166
0.2163056253
0.2162745817
0.2162313591
0.2161801003
0.2161254125
0.2160721269
0.2160250813
0.2159890067
0.2159685626
0.2161342431
0.2161071428
0.2160694706
0.2160248897
0.2159774473
0.2159313497
0.2158907649
0.2158597256
0.2158421723
0.2159830022
0.2159596507
0.2159272416
0.2158889706
0.2158483454
0.2158089791
0.2157744145
0.2157480443
0.21573316
0.2158508747
0.2158310288
0.2158035281
0.2157711203
0.2157368019
0.2157036321
0.2156745809
0.2156524647
0.2156400006
0.2157366242
0.2157200013
0.2156970007
0.2156699482
0.2156413641
0.2156137995
0.2155897079
0.2155713968
0.2155610839
0.2156388516
0.2156251408
0.2156061948
0.2155839487
0.2155604868
0.215537902
0.2155181906
0.2155032185
0.2154947906
0.2155560466
0.2155449208
0.2155295631
0.2155115543
0.2154925865
0.2154743465
0.2154584418
0.2154463696
0.2154395778
0.2154866394
0.2154777662
0.215465527
0.2154511854
0.2154360922
0.2154215948
0.2154089641
0.2153993655
0.2153939508
0.2154290484
0.2154221006
0.2154125225
0.2154013081
0.2153895122
0.2153781857
0.2153682968
0.21536077
0.2153565117
0.2153817304
0.21537641
0.2153690751
0.2153604902
0.2153514426
0.2153427342
0.2153351152
0.2153292964
0.215325989
0.2153432565
0.2153392885
0.2153337998
0.215327359
0.215320559
0.215313991
0.2153082184
0.2153037839
0.2153012454
0.2153122844
0.2153093947
0.2153053949
0.2153006857
0.2152956918
0.2152908387
0.2152865406
0.2152832087
0.2152812819
0.2152875663
0.2152855355
0.2152827144
0.2152793733
0.2152758019
0.2152722959
0.2152691534
0.2152666844
0.2152652362
0.2152680164
0.2152666524
0.2152647438
0.2152624595
0.2152599844
0.2152575148
0.2152552605
0.2152534547
0.2152523751
0.2152526824
0.2152518224
0.2152506025
0.2152491148
0.215247465
0.2152457752
0.2152441896
0.2152428844
0.2152420842
0.2152407446
0.2152402545
0.2152395397
0.2152386358
0.2152375911
0.2152364739
0.2152353809
0.2152344465
0.2152338545
0.2152315105
0.2152312823
0.2152309253
0.2152304354
0.2152298209
0.2152291128
0.2152283741
0.2152277087
0.2152272698
0.215224404
0.215224353
0.2152242385
0.2152240305
0.2152237109
0.2152232856
0.2152227949
0.2152223209
0.2152219927
0.2152189536
0.2152190151
0.2152190555
0.2152190291
0.215218902
0.2152186646
0.2152183422
0.2152180012
0.2152177521
0.215214779
0.2152149052
0.2152150357
0.2152151171
0.2152151072
0.2152149882
0.2152147759
0.2152145253
0.2152143318
0.2152115781
0.2152117346
0.215211909
0.2152120458
0.2152120998
0.2152120496
0.2152119059
0.2152117152
0.2152115607
0.2152091139
0.2152092773
0.2152094642
0.2152096203
0.2152097018
0.2152096867
0.215209583
0.2152094308
0.2152093029
0.2152072032
0.2152073585
0.2152075374
0.2152076897
0.2152077751
0.2152077731
0.2152076902
0.215207562
0.2152074526
0.2152057061
0.2152058444
0.2152060034
0.2152061383
0.2152062133
0.2152062107
0.2152061366
0.2152060234
0.2152059278
0.2152045172
0.2152046341
0.2152047671
0.2152048775
0.2152049347
0.2152049239
0.2152048523
0.2152047492
0.215204664
0.2152035578
0.215203652
0.2152037572
0.2152038406
0.2152038767
0.2152038551
0.2152037832
0.2152036872
0.2152036102
0.2152027698
0.2152028419
0.2152029198
0.2152029768
0.2152029929
0.2152029604
0.2152028872
0.2152027967
0.2152027266
0.2152021103
0.2152021624
0.2152022159
0.2152022495
0.2152022479
0.2152022058
0.2152021314
0.2152020457
0.2152019814
0.2152015493
0.2152015842
0.215201617
0.215201631
0.2152016145
0.2152015649
0.2152014901
0.215201409
0.21520135
0.2152010655
0.2152010863
0.2152011021
0.2152011002
0.2152010722
0.2152010173
0.2152009432
0.2152008669
0.2152008131
0.2152006435
0.215200653
0.2152006554
0.2152006413