/*--------------------------------*- C++ -*----------------------------------*\
| =========                 |                                                 |
| \\      /  F ield         | OpenFOAM: The Open Source CFD Toolbox           |
|  \\    /   O peration     | Version:  2212                                  |
|   \\  /    A nd           | Website:  www.openfoam.com                      |
|    \\/     M anipulation  |                                                 |
\*---------------------------------------------------------------------------*/
FoamFile
{
    version     2.0;
    format      ascii;
    arch        "LSB;label=32;scalar=64";
    class       volScalarField;
    location    "30.00000000";
    object      C2H3;
}
// * * * * * * * * * * * * * * * * * * * * * * * * * * * * * * * * * * * * * //

dimensions      [0 0 0 0 0 0 0];

internalField   nonuniform List<scalar> 
3000
(
8.088139637e-25
9.082222769e-25
1.058110521e-24
1.257630892e-24
1.504590978e-24
1.792141931e-24
2.102911235e-24
2.399183307e-24
2.608638628e-24
3.037168414e-24
3.424245808e-24
4.00761725e-24
4.785834196e-24
5.757378717e-24
6.916096991e-24
8.241430888e-24
9.666815933e-24
1.092980659e-23
6.80541416e-24
7.733280139e-24
9.145090023e-24
1.105978169e-23
1.350953475e-23
1.652680301e-23
2.009636737e-23
2.401635719e-23
2.736370355e-23
1.296917712e-23
1.489311357e-23
1.786394257e-23
2.19793662e-23
2.738008281e-23
3.419436694e-23
4.237146673e-23
5.124444596e-23
5.838678621e-23
2.304395367e-23
2.679051131e-23
3.266873571e-23
4.097443154e-23
5.209244427e-23
6.632213248e-23
8.340318849e-23
1.01486002e-22
1.153316637e-22
3.965010412e-23
4.669212257e-23
5.79029692e-23
7.399995078e-23
9.58471082e-23
1.240083706e-22
1.576750698e-22
1.926503135e-22
2.186121131e-22
6.734689119e-23
8.029335313e-23
1.011458046e-22
1.314272394e-22
1.728340557e-22
2.262078699e-22
2.893682845e-22
3.536018675e-22
3.999817975e-22
1.140221815e-22
1.37460983e-22
1.755470327e-22
2.312770784e-22
3.077669648e-22
4.061275774e-22
5.21431755e-22
6.368922133e-22
7.188109187e-22
1.933534938e-22
2.353308295e-22
3.039770068e-22
4.049236002e-22
5.437014986e-22
7.216461094e-22
9.287043528e-22
1.133857089e-21
1.277803982e-21
3.290536297e-22
4.036391329e-22
5.261605175e-22
7.069007595e-22
9.55508399e-22
1.273421902e-21
1.64128659e-21
2.003098321e-21
2.255095547e-21
5.622848243e-22
6.940435462e-22
9.11153614e-22
1.232045043e-21
1.673400209e-21
2.236485912e-21
2.885339671e-21
3.520274296e-21
3.960325582e-21
9.645703656e-22
1.196355145e-21
1.57907608e-21
2.145360111e-21
2.92391155e-21
3.915232704e-21
5.05399068e-21
6.164413359e-21
6.931609799e-21
1.660346979e-21
2.066927946e-21
2.739162798e-21
3.734320301e-21
5.1015747e-21
6.839265368e-21
8.830295832e-21
1.076718218e-20
1.210406091e-20
2.866332545e-21
3.578310192e-21
4.756491663e-21
6.500849735e-21
8.895140245e-21
1.193165584e-20
1.540075756e-20
1.876865564e-20
2.110402885e-20
4.960072463e-21
6.205913824e-21
8.268990877e-21
1.132377353e-20
1.551254278e-20
2.081024798e-20
2.68300465e-20
3.263431863e-20
3.677460019e-20
8.598528103e-21
1.07780042e-20
1.43905189e-20
1.974357124e-20
2.708506486e-20
3.635403733e-20
4.67847111e-20
5.635460668e-20
6.420566229e-20
1.49218414e-20
1.873191122e-20
2.505452165e-20
3.443978566e-20
4.735409078e-20
6.379167514e-20
8.273526482e-20
1.016580386e-19
1.13487002e-19
2.590438881e-20
3.255191139e-20
4.358779923e-20
5.997314284e-20
8.251248143e-20
1.1114598e-19
1.438987363e-19
1.756438407e-19
1.971898358e-19
4.496927201e-20
5.654556007e-20
7.576423374e-20
1.042905441e-19
1.435000122e-19
1.932360961e-19
2.49991102e-19
3.048640384e-19
3.424133209e-19
7.805787181e-20
9.819288665e-20
1.316188313e-19
1.812211955e-19
2.493687522e-19
3.357574128e-19
4.342733113e-19
5.294925454e-19
5.946983603e-19
1.354869088e-19
1.704857985e-19
2.285858496e-19
3.147926387e-19
4.332035919e-19
5.832665977e-19
7.543473541e-19
9.196699804e-19
1.032879127e-18
2.351721294e-19
2.959880208e-19
3.969451814e-19
5.467307717e-19
7.524415061e-19
1.013087404e-18
1.310171406e-18
1.59719298e-18
1.793706226e-18
4.082245808e-19
5.138833127e-19
6.892784584e-19
9.494834124e-19
1.306786395e-18
1.759409872e-18
2.275177019e-18
2.77334082e-18
3.114332216e-18
7.08662462e-19
8.922063329e-19
1.196875885e-18
1.648810244e-18
2.269267501e-18
3.055039468e-18
3.950145603e-18
4.814410813e-18
5.405815698e-18
1.230260961e-18
1.549062494e-18
2.07819576e-18
2.862949496e-18
3.940045605e-18
5.30364766e-18
6.856344832e-18
8.354893142e-18
9.379920388e-18
2.135762448e-18
2.68940906e-18
3.608176415e-18
4.970437649e-18
6.839493584e-18
9.204613812e-18
1.18962543e-17
1.449254303e-17
1.626749413e-17
3.707454493e-18
4.668725278e-18
6.263551232e-18
8.627345192e-18
1.186891833e-17
1.59682847e-17
2.063024121e-17
2.512362515e-17
2.819331544e-17
6.434628878e-18
8.103071593e-18
1.087021858e-17
1.496955429e-17
2.058742536e-17
2.768606417e-17
3.57512281e-17
4.351689536e-17
4.881694464e-17
1.116453197e-17
1.40589418e-17
1.885720131e-17
2.596081853e-17
3.568737424e-17
4.796442117e-17
6.189568363e-17
7.529175888e-17
8.442282338e-17
1.936231093e-17
2.437993769e-17
3.269303615e-17
4.498967727e-17
6.180769677e-17
8.300613927e-17
1.070221339e-16
1.300757005e-16
1.457632551e-16
3.355744193e-17
4.224715246e-17
5.663299884e-17
7.78889668e-17
1.069185764e-16
1.434442441e-16
1.847398658e-16
2.242935576e-16
2.511516645e-16
5.810802027e-17
7.31370258e-17
9.79932424e-17
1.346686456e-16
1.846655685e-16
2.474324415e-16
3.182141583e-16
3.858241508e-16
4.316106382e-16
1.005046605e-16
1.264519405e-16
1.693129899e-16
2.324444153e-16
3.183119721e-16
4.258139939e-16
5.46660563e-16
6.617037116e-16
7.393579021e-16
1.735866564e-16
2.182837044e-16
2.920041458e-16
4.003559558e-16
5.473201504e-16
7.306939585e-16
9.36043389e-16
1.130740534e-15
1.261646756e-15
2.992942859e-16
3.760751518e-16
5.024762588e-16
6.877695217e-16
9.38249436e-16
1.249524507e-15
1.596519897e-15
1.923945266e-15
2.143082478e-15
5.149990803e-16
6.464473056e-16
8.623556296e-16
1.177860002e-15
1.602648358e-15
2.128023635e-15
2.71057709e-15
3.25723784e-15
3.62117663e-15
8.84150807e-16
1.108287011e-15
1.475440612e-15
2.009942454e-15
2.726181294e-15
3.60710187e-15
4.577921574e-15
5.483198263e-15
6.082309566e-15
1.514149919e-15
1.894561372e-15
2.515702828e-15
3.415961137e-15
4.615675739e-15
6.08181405e-15
7.686358774e-15
9.172035991e-15
1.014879204e-14
2.586341763e-15
3.228625941e-15
4.273395925e-15
5.779843906e-15
7.774656446e-15
1.019476678e-14
1.282272554e-14
1.523703429e-14
1.681289862e-14
4.40646138e-15
5.484724607e-15
7.230970535e-15
9.733901586e-15
1.302425375e-14
1.698346515e-14
2.124549665e-14
2.512751629e-14
2.764156603e-14
7.489900143e-15
9.289250239e-15
1.218852675e-14
1.63158348e-14
2.169709027e-14
2.81128812e-14
3.495312032e-14
4.112495717e-14
4.508787473e-14
1.270698976e-14
1.569161808e-14
2.047286539e-14
2.722662196e-14
3.595080476e-14
4.624543874e-14
5.710403832e-14
6.679979686e-14
7.296686894e-14
2.153308943e-14
2.645591121e-14
3.429037536e-14
4.526033886e-14
5.92833178e-14
7.563993029e-14
9.2685928e-14
1.077284282e-13
1.171943498e-13
3.648361866e-14
4.456508062e-14
5.733231681e-14
7.503481898e-14
9.740009785e-14
1.231484942e-13
1.496161593e-13
1.726573646e-13
1.869746999e-13
6.187666768e-14
7.510231691e-14
9.582956766e-14
1.242610827e-13
1.597167202e-13
1.999387817e-13
2.406356826e-13
2.754972976e-13
2.968259443e-13
1.051715189e-13
1.267999323e-13
1.604113265e-13
2.05991201e-13
2.620386051e-13
3.245939406e-13
3.867543371e-13
4.389870199e-13
4.703239628e-13
1.792976156e-13
2.147494834e-13
2.693877514e-13
3.426433532e-13
4.314513342e-13
5.289098699e-13
6.238833659e-13
7.019599916e-13
7.47692296e-13
3.06621914e-13
3.650649978e-13
4.544898196e-13
5.732051846e-13
7.153532812e-13
8.690461379e-13
1.016222864e-12
1.134766254e-12
1.202539447e-12
5.254780293e-13
6.226703931e-13
7.706778387e-13
9.659530459e-13
1.198120343e-12
1.447269583e-12
1.68410495e-12
1.873544235e-12
1.981022005e-12
9.004314225e-13
1.063787533e-12
1.312356304e-12
1.640384409e-12
2.031459113e-12
2.454278402e-12
2.862358002e-12
3.197531872e-12
3.395439685e-12
1.537659701e-12
1.815142721e-12
2.239289346e-12
2.804092516e-12
3.488708313e-12
4.250454161e-12
5.020834385e-12
5.699571651e-12
6.138746937e-12
2.607402412e-12
3.082949278e-12
3.81750946e-12
4.814220401e-12
6.060982541e-12
7.518981318e-12
9.104842152e-12
1.06403029e-11
1.174932155e-11
4.378273894e-12
5.198779609e-12
6.486759748e-12
8.283095204e-12
1.062900888e-11
1.354751529e-11
1.69821458e-11
2.061717238e-11
2.349033981e-11
7.278134299e-12
8.702485744e-12
1.098475368e-11
1.427473352e-11
1.877885817e-11
2.472456706e-11
3.219116037e-11
4.058851432e-11
4.758159694e-11
1.202670722e-11
1.45208491e-11
1.860911047e-11
2.470062556e-11
3.339264879e-11
4.537707916e-11
6.097165379e-11
7.885542824e-11
9.383747663e-11
1.995122112e-11
2.437873509e-11
3.178744975e-11
4.312574789e-11
5.974139696e-11
8.303324896e-11
1.13210062e-10
1.467818845e-10
1.735806214e-10
3.370705855e-11
4.169414605e-11
5.525530927e-11
7.629531894e-11
1.0723658e-10
1.498219115e-10
2.022928877e-10
2.559264614e-10
2.943772519e-10
5.879045057e-11
7.336313188e-11
9.818331886e-11
1.364596013e-10
1.913078437e-10
2.626081377e-10
3.424255238e-10
4.137974262e-10
4.574042321e-10
1.062715064e-10
1.326782714e-10
1.770652125e-10
2.434499824e-10
3.332050442e-10
4.394350116e-10
5.437373096e-10
6.229886051e-10
6.626810559e-10
1.964145828e-10
2.424478453e-10
3.173817211e-10
4.233259463e-10
5.546668914e-10
6.927990457e-10
8.104584442e-10
8.862505972e-10
9.157926968e-10
3.602570948e-10
4.344830903e-10
5.495029397e-10
7.002809014e-10
8.69296697e-10
1.027506249e-09
1.14671901e-09
1.212564859e-09
1.22974376e-09
6.329083962e-10
7.399831586e-10
8.965987876e-10
1.086425769e-09
1.281142956e-09
1.448401984e-09
1.564176237e-09
1.619544607e-09
1.624842916e-09
1.037041351e-09
1.174241841e-09
1.365057387e-09
1.583153926e-09
1.795099097e-09
1.969535425e-09
2.08503709e-09
2.134072358e-09
2.129847592e-09
1.572885509e-09
1.734304432e-09
1.952336034e-09
2.194972321e-09
2.427014454e-09
2.617053144e-09
2.74250632e-09
2.793655606e-09
2.784387183e-09
2.23110229e-09
2.415747234e-09
2.66340759e-09
2.939033118e-09
3.205503313e-09
3.428755705e-09
3.581503373e-09
3.648762242e-09
3.642433376e-09
3.01173694e-09
3.22657945e-09
3.516757872e-09
3.84464756e-09
4.170087385e-09
4.453481278e-09
4.659964187e-09
4.765732227e-09
4.775974959e-09
3.928246324e-09
4.18687397e-09
4.540975004e-09
4.950001204e-09
5.368886088e-09
5.750819545e-09
6.050180336e-09
6.22905768e-09
6.278001723e-09
5.002193189e-09
5.323566823e-09
5.77021512e-09
6.298152913e-09
6.856926642e-09
7.390576624e-09
7.838752484e-09
8.141866157e-09
8.263393161e-09
6.258083392e-09
6.665427411e-09
7.240237357e-09
7.935288973e-09
8.694411274e-09
9.450722285e-09
1.012422133e-08
1.062323679e-08
1.086607959e-08
7.720053678e-09
8.241239739e-09
8.987395393e-09
9.908853721e-09
1.094402713e-08
1.20134785e-08
1.301163501e-08
1.380127805e-08
1.423114773e-08
9.412912582e-09
1.008018663e-08
1.104810145e-08
1.2265962e-08
1.36676378e-08
1.515964307e-08
1.660403908e-08
1.780181408e-08
1.850161627e-08
1.13642123e-08
1.221344587e-08
1.345947432e-08
1.505242341e-08
1.692288267e-08
1.896193483e-08
2.099194859e-08
2.273399008e-08
2.380133513e-08
1.360791473e-08
1.467719717e-08
1.626117194e-08
1.83127189e-08
2.076047796e-08
2.347876667e-08
2.624294552e-08
2.8675664e-08
3.0217345e-08
1.618880141e-08
1.75163742e-08
1.949803814e-08
2.20909959e-08
2.522293556e-08
2.875005764e-08
3.239409645e-08
3.566235365e-08
3.778618935e-08
1.916627157e-08
2.078797173e-08
2.322266419e-08
2.643264475e-08
3.034494646e-08
3.479625309e-08
3.944945791e-08
4.368310479e-08
4.648831584e-08
2.261585228e-08
2.456237741e-08
2.749657756e-08
3.138552872e-08
3.615499312e-08
4.162074127e-08
4.738359492e-08
5.268498861e-08
5.62529075e-08
2.662697971e-08
2.892138594e-08
3.238884582e-08
3.699979509e-08
4.267724962e-08
4.921486956e-08
5.615057811e-08
6.258626594e-08
6.69741946e-08
3.129654687e-08
3.395241278e-08
3.797158927e-08
4.332564141e-08
4.993292099e-08
5.756450917e-08
6.569762018e-08
7.329855657e-08
7.853952409e-08
3.67191385e-08
3.973976298e-08
4.431309268e-08
5.040943364e-08
5.794108477e-08
6.665827303e-08
7.598560215e-08
8.476744597e-08
9.091329256e-08
4.297626501e-08
4.635514755e-08
5.147048515e-08
5.828983524e-08
6.672049155e-08
7.649814567e-08
8.701576277e-08
9.704641529e-08
1.042535275e-07
5.012776408e-08
5.385060132e-08
5.948510271e-08
6.699702756e-08
7.629261682e-08
8.711319515e-08
9.886300214e-08
1.102369486e-07
1.183832456e-07
5.820894456e-08
6.225806927e-08
6.83857142e-08
7.656142619e-08
8.671022989e-08
9.861785345e-08
1.116481888e-07
1.241732159e-07
1.331497125e-07
6.723802841e-08
7.159799681e-08
7.820588626e-08
8.705145963e-08
9.81253977e-08
1.111252107e-07
1.252222266e-07
1.387311012e-07
1.484288916e-07
7.724655762e-08
8.192620761e-08
8.905568779e-08
9.866863453e-08
1.106044191e-07
1.244920057e-07
1.394770963e-07
1.538111195e-07
1.641169091e-07
8.839770671e-08
9.346558103e-08
1.011414416e-07
1.113741612e-07
1.239995987e-07
1.386130313e-07
1.543237629e-07
1.693260751e-07
1.801218107e-07
1.008169058e-07
1.061831919e-07
1.14279765e-07
1.250168551e-07
1.382027683e-07
1.53399438e-07
1.696799742e-07
1.851934824e-07
1.96357738e-07
1.142996797e-07
1.199081459e-07
1.283454778e-07
1.394917239e-07
1.531231169e-07
1.68767125e-07
1.854637838e-07
2.013311927e-07
2.127411204e-07
1.287234557e-07
1.345294535e-07
1.43240752e-07
1.547079484e-07
1.68673517e-07
1.846304303e-07
2.015902197e-07
2.176549836e-07
2.291882826e-07
1.439932766e-07
1.499548697e-07
1.588757516e-07
1.705762734e-07
1.847642825e-07
2.008992743e-07
2.1796985e-07
2.340774306e-07
2.45614111e-07
1.600202951e-07
1.660948461e-07
1.751595625e-07
1.87003804e-07
2.013006796e-07
2.174782194e-07
2.345085066e-07
2.505076913e-07
2.619315843e-07
1.767131768e-07
1.828561409e-07
1.919963662e-07
2.038920271e-07
2.181822497e-07
2.34266589e-07
2.511077676e-07
2.668519956e-07
2.780520457e-07
1.939746706e-07
2.001393429e-07
2.092840665e-07
2.211363758e-07
2.353030982e-07
2.51159251e-07
2.676659988e-07
2.830147045e-07
2.938860994e-07
2.117004239e-07
2.1783817e-07
2.269141666e-07
2.386266638e-07
2.525528054e-07
2.68047886e-07
2.840798283e-07
2.988998135e-07
3.093449947e-07
2.297789816e-07
2.358397615e-07
2.447724316e-07
2.562481274e-07
2.698178096e-07
2.84822634e-07
3.002459432e-07
3.144127629e-07
3.243423377e-07
2.480925757e-07
2.54025671e-07
2.627401367e-07
2.738829397e-07
2.869831563e-07
3.013740128e-07
3.160630847e-07
3.294624057e-07
3.387959571e-07
2.665185304e-07
2.722734083e-07
2.806957799e-07
2.914120891e-07
3.039345052e-07
3.175949901e-07
3.314341081e-07
3.439629804e-07
3.52629757e-07
2.849311466e-07
2.904584038e-07
2.985171337e-07
3.087174984e-07
3.205602697e-07
3.333830803e-07
3.462679714e-07
3.57835946e-07
3.657754053e-07
3.032039263e-07
3.084562542e-07
3.160834986e-07
3.256842477e-07
3.367537552e-07
3.486423372e-07
3.60481532e-07
3.710115622e-07
3.78173741e-07
3.212119823e-07
3.261451008e-07
3.332780128e-07
3.422027657e-07
3.52415171e-07
3.632851305e-07
3.740010522e-07
3.834301287e-07
3.897758198e-07
3.388344792e-07
3.434079894e-07
3.49989878e-07
3.581708597e-07
3.674534053e-07
3.772336172e-07
3.867633456e-07
3.950428333e-07
4.005435583e-07
3.559569593e-07
3.601350764e-07
3.661163794e-07
3.734954837e-07
3.817874822e-07
3.904208495e-07
3.987165311e-07
4.05812193e-07
4.104499717e-07
3.724734334e-07
3.762255706e-07
3.815646036e-07
3.88094166e-07
3.953476478e-07
4.02791492e-07
4.098203893e-07
4.157121052e-07
4.19479032e-07
3.882881426e-07
3.915893286e-07
3.962527913e-07
4.018960548e-07
4.080760654e-07
4.143021502e-07
4.200463448e-07
4.247275451e-07
4.276251948e-07
4.033169329e-07
4.061480573e-07
4.101112915e-07
4.148425672e-07
4.199271242e-07
4.249213361e-07
4.293771165e-07
4.328539682e-07
4.348926569e-07
4.174882145e-07
4.198361038e-07
4.230831128e-07
4.268876524e-07
4.308673917e-07
4.346291127e-07
4.378060919e-07
4.400964795e-07
4.412944136e-07
4.307435072e-07
4.32600844e-07
4.35124093e-07
4.379977025e-07
4.408752513e-07
4.434164735e-07
4.453364866e-07
4.464688366e-07
4.468511835e-07
4.430375956e-07
4.444026974e-07
4.462027225e-07
4.481511556e-07
4.4994028e-07
4.512845145e-07
4.519803548e-07
4.519923534e-07
4.515902669e-07
4.543383328e-07
4.552148147e-07
4.562996747e-07
4.573378489e-07
4.580624276e-07
4.582434623e-07
4.577575044e-07
4.566947551e-07
4.555443854e-07
4.646261513e-07
4.65022493e-07
4.654070954e-07
4.65558172e-07
4.65251043e-07
4.643116028e-07
4.626943696e-07
4.606090349e-07
4.58750552e-07
4.738933215e-07
4.738223646e-07
4.73527704e-07
4.728220781e-07
4.715238109e-07
4.695141704e-07
4.668228879e-07
4.637723524e-07
4.612490048e-07
4.821430282e-07
4.816214276e-07
4.806737668e-07
4.791480064e-07
4.769056412e-07
4.738822333e-07
4.701794129e-07
4.662249997e-07
4.630822281e-07
4.893883128e-07
4.884359623e-07
4.868659892e-07
4.845617586e-07
4.81427551e-07
4.774516086e-07
4.728036904e-07
4.680094546e-07
4.642940729e-07
4.956509319e-07
4.942903839e-07
4.921323677e-07
4.890953669e-07
4.851255705e-07
4.802618315e-07
4.747379132e-07
4.69169532e-07
4.649289869e-07
5.009601736e-07
4.992160696e-07
4.965070396e-07
4.927859845e-07
4.880396975e-07
4.823551967e-07
4.760258675e-07
4.697496392e-07
4.650313531e-07
5.053516695e-07
5.032501935e-07
5.000291596e-07
4.956748234e-07
4.902129184e-07
4.837758839e-07
4.767121764e-07
4.697941354e-07
4.646449353e-07
5.088662315e-07
5.064345987e-07
5.027418255e-07
4.978061568e-07
4.916903086e-07
4.845691731e-07
4.768416396e-07
4.693467904e-07
4.638124227e-07
5.115487383e-07
5.088147253e-07
5.046910718e-07
4.992263995e-07
4.925182193e-07
4.847807532e-07
4.764586696e-07
4.684503392e-07
4.625750675e-07
5.134470895e-07
5.104386127e-07
5.059249432e-07
4.999832742e-07
4.927435553e-07
4.844561232e-07
4.756068184e-07
4.671461227e-07
4.609724045e-07
5.146112424e-07
5.113559868e-07
5.064926565e-07
5.001250692e-07
4.924131443e-07
4.836400823e-07
4.743283899e-07
4.654738078e-07
4.590420441e-07
5.150923385e-07
5.116174394e-07
5.064438556e-07
4.996999889e-07
4.915731967e-07
4.823763065e-07
4.726641297e-07
4.634711775e-07
4.568195292e-07
5.149419226e-07
5.112736999e-07
5.058279595e-07
4.987555947e-07
4.902688517e-07
4.807070041e-07
4.706529869e-07
4.611739829e-07
4.543382468e-07
5.142112333e-07
5.103749881e-07
5.046935961e-07
4.973383323e-07
4.885438044e-07
4.786726438e-07
4.683319374e-07
4.586158482e-07
4.516293852e-07
5.129504787e-07
5.089703924e-07
5.030880897e-07
4.954931264e-07
4.864400031e-07
4.763117495e-07
4.657358665e-07
4.558282223e-07
4.487219297e-07
5.112077931e-07
5.071071099e-07
5.010569231e-07
4.932629991e-07
4.839973849e-07
4.736607309e-07
4.628974795e-07
4.528403567e-07
4.456426819e-07
5.090269801e-07
5.048292847e-07
4.986430901e-07
4.906887048e-07
4.812536634e-07
4.707537707e-07
4.598472628e-07
4.496793181e-07
4.424163033e-07
5.064530182e-07
5.02177602e-07
4.958864918e-07
4.878084502e-07
4.782441729e-07
4.676227501e-07
4.566134712e-07
4.463700222e-07
4.390653759e-07
5.035322498e-07
4.991967651e-07
4.928253348e-07
4.846581719e-07
4.750018729e-07
4.642972429e-07
4.532221519e-07
4.429352879e-07
4.356104744e-07
5.003069072e-07
4.959276719e-07
4.894989753e-07
4.812703015e-07
4.71557208e-07
4.608045227e-07
4.496971905e-07
4.393959067e-07
4.320702505e-07
4.9681572e-07
4.924077606e-07
4.859430997e-07
4.776789761e-07
4.679390455e-07
4.571697633e-07
4.460604071e-07
4.357707354e-07
4.28461532e-07
4.930942491e-07
4.886712481e-07
4.821899572e-07
4.739137812e-07
4.641724567e-07
4.534157345e-07
4.423315885e-07
4.320767903e-07
4.247994298e-07
4.891751561e-07
4.847494919e-07
4.782690596e-07
4.700020388e-07
4.602826839e-07
4.495636963e-07
4.385287585e-07
4.28329394e-07
4.210974629e-07
4.850883755e-07
4.806711632e-07
4.742072881e-07
4.659684727e-07
4.562921618e-07
4.456327272e-07
4.346680768e-07
4.245422288e-07
4.173676533e-07
4.808612495e-07
4.764623859e-07
4.700290191e-07
4.618352806e-07
4.522205513e-07
4.416396046e-07
4.307638693e-07
4.207274352e-07
4.136206414e-07
4.765186614e-07
4.72146891e-07
4.657563311e-07
4.576224725e-07
4.480853948e-07
4.375986904e-07
4.268288691e-07
4.168958033e-07
4.09865838e-07
4.720831666e-07
4.677461659e-07
4.614092044e-07
4.533482271e-07
4.439030229e-07
4.335250179e-07
4.228749322e-07
4.130570102e-07
4.061115659e-07
4.675751242e-07
4.63279579e-07
4.570056018e-07
4.490287977e-07
4.396878046e-07
4.294309909e-07
4.189123459e-07
4.092195227e-07
4.023650951e-07
4.630128207e-07
4.587644982e-07
4.525615864e-07
4.446786509e-07
4.35452421e-07
4.253274207e-07
4.149500858e-07
4.053907199e-07
3.986327415e-07
4.584126058e-07
4.542164299e-07
4.480914653e-07
4.403106254e-07
4.312080683e-07
4.212237922e-07
4.10995984e-07
4.015770123e-07
3.949199681e-07
4.537890313e-07
4.496491569e-07
4.43607929e-07
4.35936074e-07
4.269646022e-07
4.171283988e-07
4.070568217e-07
3.977839329e-07
3.91231472e-07
4.491549887e-07
4.450748743e-07
4.391221847e-07
4.315649966e-07
4.227306766e-07
4.130485024e-07
4.031385594e-07
3.940162694e-07
3.875712817e-07
4.445218424e-07
4.405043195e-07
4.346440812e-07
4.27206158e-07
4.185138455e-07
4.089903723e-07
3.992460688e-07
3.902780843e-07
3.839428184e-07
4.398995583e-07
4.359468962e-07
4.301822266e-07
4.228671974e-07
4.143206723e-07
4.049594611e-07
3.953837609e-07
3.86572863e-07
3.803489653e-07
4.352968275e-07
4.314107938e-07
4.257441021e-07
4.185547383e-07
4.101568371e-07
4.009604897e-07
3.915554407e-07
3.829035804e-07
3.767921437e-07
4.307211836e-07
4.269031008e-07
4.213361698e-07
4.142744901e-07
4.060272423e-07
3.969976099e-07
3.877647894e-07
3.792728383e-07
3.732743843e-07
4.261791138e-07
4.224299098e-07
4.16963966e-07
4.100313159e-07
4.019360076e-07
3.930741642e-07
3.840143238e-07
3.756826237e-07
3.69797273e-07
4.216761634e-07
4.179964179e-07
4.126321968e-07
4.058293265e-07
3.97886585e-07
3.891929241e-07
3.803061615e-07
3.721345272e-07
3.663620483e-07
4.172170332e-07
4.136070208e-07
4.083448277e-07
4.016719663e-07
3.938818443e-07
3.853561712e-07
3.766420271e-07
3.686298057e-07
3.629696577e-07
4.128056706e-07
4.092653997e-07
4.041051653e-07
3.975620893e-07
3.899241418e-07
3.815657536e-07
3.730232884e-07
3.651694219e-07
3.596207958e-07
4.084453517e-07
4.049746002e-07
3.999159311e-07
3.935020257e-07
3.860153784e-07
3.778231352e-07
3.694509972e-07
3.617540794e-07
3.563159362e-07
4.041387572e-07
4.007371046e-07
3.957793285e-07
3.894936431e-07
3.821570533e-07
3.741294413e-07
3.659259266e-07
3.583842548e-07
3.530553595e-07
3.998880417e-07
3.965548975e-07
3.916971036e-07
3.855384005e-07
3.783503125e-07
3.704854998e-07
3.624486064e-07
3.550602267e-07
3.498391789e-07
3.956948957e-07
3.924295249e-07
3.876706002e-07
3.81637399e-07
3.745959919e-07
3.668918791e-07
3.590193541e-07
3.517821032e-07
3.466673638e-07
3.915606022e-07
3.883621484e-07
3.837008098e-07
3.777914263e-07
3.708946574e-07
3.633489219e-07
3.556383041e-07
3.485498448e-07
3.435397604e-07
3.874860881e-07
3.843535934e-07
3.79788416e-07
3.740009968e-07
3.672466405e-07
3.598567753e-07
3.52305433e-07
3.453632864e-07
3.404561104e-07
3.834719697e-07
3.804043927e-07
3.759338354e-07
3.702663885e-07
3.636520693e-07
3.564154186e-07
3.490205821e-07
3.422221562e-07
3.374160676e-07
3.795185942e-07
3.765148256e-07
3.721372532e-07
3.665876751e-07
3.601108979e-07
3.53024687e-07
3.457834785e-07
3.391260927e-07
3.344192123e-07
3.756260761e-07
3.726849529e-07
3.683986557e-07
3.62964755e-07
3.566229312e-07
3.496842938e-07
3.425937522e-07
3.360746592e-07
3.314650648e-07
3.717943303e-07
3.689146477e-07
3.647178587e-07
3.593973769e-07
3.531878476e-07
3.46393849e-07
3.394509528e-07
3.330673578e-07
3.28553096e-07
3.680231012e-07
3.652036235e-07
3.610945331e-07
3.558851632e-07
3.498052185e-07
3.431528765e-07
3.363545631e-07
3.3010364e-07
3.256827377e-07
3.643119885e-07
3.615514581e-07
3.575282277e-07
3.524276293e-07
3.464745266e-07
3.399608288e-07
3.333040114e-07
3.271829178e-07
3.228533917e-07
3.606604702e-07
3.579576157e-07
3.540183886e-07
3.490242021e-07
3.431951805e-07
3.368171002e-07
3.302986826e-07
3.243045717e-07
3.200644364e-07
3.570679226e-07
3.544214658e-07
3.505643773e-07
3.456742355e-07
3.399665292e-07
3.337210385e-07
3.273379274e-07
3.21467959e-07
3.173152344e-07
3.535336381e-07
3.509423002e-07
3.471654856e-07
3.423770239e-07
3.367878733e-07
3.306719545e-07
3.244210704e-07
3.186724202e-07
3.146051373e-07
3.50056841e-07
3.475193472e-07
3.438209493e-07
3.391318146e-07
3.336584756e-07
3.276691309e-07
3.215474176e-07
3.159172846e-07
3.11933491e-07
3.466367006e-07
3.441517851e-07
3.405299603e-07
3.359378179e-07
3.305775703e-07
3.247118302e-07
3.187162624e-07
3.132018757e-07
3.0929964e-07
3.432723436e-07
3.408387527e-07
3.372916762e-07
3.327942165e-07
3.275443708e-07
3.217993008e-07
3.159268905e-07
3.105255152e-07
3.067029304e-07
3.399628642e-07
3.375793596e-07
3.341052296e-07
3.297001733e-07
3.245580761e-07
3.189307829e-07
3.131785852e-07
3.078875265e-07
3.041427134e-07
3.367073328e-07
3.343726944e-07
3.309697358e-07
3.266548378e-07
3.216178771e-07
3.161055131e-07
3.104706307e-07
3.05287238e-07
3.016183478e-07
3.335048038e-07
3.312178317e-07
3.278842991e-07
3.236573527e-07
3.187229614e-07
3.133227288e-07
3.078023156e-07
3.027239858e-07
2.99129202e-07
3.303543223e-07
3.281138383e-07
3.248480186e-07
3.207068581e-07
3.158725175e-07
3.105816716e-07
3.051729357e-07
3.001971158e-07
2.96674656e-07
3.272549292e-07
3.250597787e-07
3.218599926e-07
3.178024958e-07
3.13065738e-07
3.0788159e-07
3.025817966e-07
2.977059852e-07
2.942541028e-07
3.242056655e-07
3.220547182e-07
3.189193227e-07
3.149434128e-07
3.10301823e-07
3.052217419e-07
3.000282152e-07
2.95249965e-07
2.9186695e-07
3.212055758e-07
3.190977271e-07
3.16025116e-07
3.121287633e-07
3.075799817e-07
3.026013963e-07
2.975115209e-07
2.9282844e-07
2.895126205e-07
3.182537103e-07
3.161878817e-07
3.131764871e-07
3.093577104e-07
3.048994332e-07
3.000198339e-07
2.95031057e-07
2.904408102e-07
2.87190553e-07
3.153491252e-07
3.13324265e-07
3.103725582e-07
3.066294258e-07
3.022594074e-07
2.974763473e-07
2.925861801e-07
2.880864904e-07
2.849002026e-07
3.124908815e-07
3.105059655e-07
3.076124576e-07
3.039430884e-07
2.99659142e-07
2.94970239e-07
2.901762583e-07
2.85764909e-07
2.826410389e-07
3.09678041e-07
3.077320727e-07
3.048953154e-07
3.0129788e-07
2.970978793e-07
2.925008174e-07
2.878006678e-07
2.834755043e-07
2.804125436e-07
3.06909659e-07
3.050016699e-07
3.022202561e-07
2.986929773e-07
2.945748577e-07
2.90067389e-07
2.854587852e-07
2.812177179e-07
2.782142037e-07
3.041847716e-07
3.023138214e-07
2.99586385e-07
2.961275389e-07
2.920892985e-07
2.876692454e-07
2.831499751e-07
2.789909824e-07
2.760455007e-07
3.015023767e-07
2.996675527e-07
2.969927689e-07
2.936006844e-07
2.896403853e-07
2.853056415e-07
2.808735685e-07
2.767947011e-07
2.7390589e-07
2.988614055e-07
2.970618218e-07
2.944384055e-07
2.911114639e-07
2.872272311e-07
2.829757636e-07
2.786288299e-07
2.746282146e-07
2.717947689e-07
2.962606817e-07
2.94495477e-07
2.919221803e-07
2.88658812e-07
2.848488321e-07
2.806786799e-07
2.764149074e-07
2.724907505e-07
2.697114262e-07
2.93698865e-07
2.919671986e-07
2.894428053e-07
2.862414845e-07
2.825039999e-07
2.784132701e-07
2.742307592e-07
2.703813475e-07
2.676549655e-07
2.911743736e-07
2.894754194e-07
2.869987364e-07
2.838579702e-07
2.801912687e-07
2.761781274e-07
2.720750501e-07
2.682987485e-07
2.656241962e-07
2.886852827e-07
2.870182186e-07
2.845880616e-07
2.815063734e-07
2.779087694e-07
2.739714236e-07
2.699460091e-07
2.662412504e-07
2.636174792e-07
2.86229192e-07
2.845931855e-07
2.822083573e-07
2.791842598e-07
2.756540651e-07
2.717907335e-07
2.678412408e-07
2.642065046e-07
2.616325204e-07
2.838030596e-07
2.821972457e-07
2.798565052e-07
2.768884617e-07
2.734239412e-07
2.696328072e-07
2.657574815e-07
2.621912573e-07
2.596661008e-07
2.814029961e-07
2.798264479e-07
2.775284666e-07
2.746148361e-07
2.712141445e-07
2.674932893e-07
2.636902949e-07
2.601910239e-07
2.577137358e-07
2.79024018e-07
2.774757069e-07
2.75219011e-07
2.723579742e-07
2.690190696e-07
2.653663777e-07
2.616337038e-07
2.58199693e-07
2.557692613e-07
2.766597585e-07
2.751385035e-07
2.729213986e-07
2.701108617e-07
2.66831392e-07
2.632444264e-07
2.595797588e-07
2.562090631e-07
2.538243462e-07
2.743021383e-07
2.728065421e-07
2.706270198e-07
2.678644935e-07
2.646416531e-07
2.611174953e-07
2.575180506e-07
2.54208317e-07
2.518679416e-07
2.719410017e-07
2.704693746e-07
2.683249985e-07
2.656074514e-07
2.624378056e-07
2.589728599e-07
2.554351799e-07
2.521834525e-07
2.498856808e-07
2.695637281e-07
2.68113998e-07
2.660017716e-07
2.633254577e-07
2.602047356e-07
2.567944943e-07
2.533141997e-07
2.501166862e-07
2.47859257e-07
2.671548327e-07
2.657244445e-07
2.636406598e-07
2.610009208e-07
2.579237744e-07
2.545625414e-07
2.511340383e-07
2.479858536e-07
2.457658032e-07
2.646955766e-07
2.632813809e-07
2.612214522e-07
2.586124945e-07
2.555722157e-07
2.522527526e-07
2.488688049e-07
2.457638007e-07
2.43577308e-07
2.6216361e-07
2.607617477e-07
2.58720036e-07
2.561346927e-07
2.531228891e-07
2.498359273e-07
2.464867198e-07
2.434178238e-07
2.412601545e-07
2.595326805e-07
2.581384697e-07
2.561081175e-07
2.535376445e-07
2.50544053e-07
2.472783073e-07
2.439522674e-07
2.409100805e-07
2.387751149e-07
2.567724334e-07
2.55380258e-07
2.533530182e-07
2.507868596e-07
2.477990418e-07
2.445408622e-07
2.412242687e-07
2.381971593e-07
2.360772489e-07
2.538483324e-07
2.524515322e-07
2.504175814e-07
2.478430521e-07
2.448457576e-07
2.415774682e-07
2.382557117e-07
2.352301734e-07
2.331161533e-07
2.507217248e-07
2.493124926e-07
2.4726028e-07
2.44662434e-07
2.416378691e-07
2.38340115e-07
2.349956334e-07
2.319557845e-07
2.298368274e-07
2.473499973e-07
2.459192291e-07
2.438351676e-07
2.41196096e-07
2.38122187e-07
2.347765631e-07
2.31389548e-07
2.283172411e-07
2.261808897e-07
2.4368669e-07
2.422237943e-07
2.400920628e-07
2.373905785e-07
2.342479253e-07
2.3083289e-07
2.273810355e-07
2.242559907e-07
2.220883119e-07
2.396810674e-07
2.381733587e-07
2.359755205e-07
2.331941581e-07
2.299623411e-07
2.264543563e-07
2.229134468e-07
2.197137452e-07
2.174996792e-07
2.352767984e-07
2.337132932e-07
2.314364042e-07
2.285569717e-07
2.25213522e-07