/*--------------------------------*- C++ -*----------------------------------*\
| =========                 |                                                 |
| \\      /  F ield         | OpenFOAM: The Open Source CFD Toolbox           |
|  \\    /   O peration     | Version:  2212                                  |
|   \\  /    A nd           | Website:  www.openfoam.com                      |
|    \\/     M anipulation  |                                                 |
\*---------------------------------------------------------------------------*/
FoamFile
{
    version     2.0;
    format      ascii;
    arch        "LSB;label=32;scalar=64";
    class       volScalarField;
    location    "30.00000000";
    object      C3H3;
}
// * * * * * * * * * * * * * * * * * * * * * * * * * * * * * * * * * * * * * //

dimensions      [0 0 0 0 0 0 0];

internalField   nonuniform List<scalar> 
3000
(
2.319333885e-23
2.604307932e-23
3.033988375e-23
3.605940698e-23
4.313876213e-23
5.138158373e-23
6.028982198e-23
6.878222949e-23
7.478560382e-23
8.709010075e-23
9.818594579e-23
1.14908476e-22
1.372159583e-22
1.650646842e-22
1.982780992e-22
2.362667937e-22
2.771226554e-22
3.133230249e-22
1.951320419e-22
2.217280778e-22
2.621950707e-22
3.170752045e-22
3.872901963e-22
4.737696866e-22
5.760770264e-22
6.884261072e-22
7.843610909e-22
3.718349845e-22
4.26976913e-22
5.121221526e-22
6.300691617e-22
7.84848428e-22
9.80134299e-22
1.214470636e-21
1.468743452e-21
1.673416092e-21
6.606155905e-22
7.679834377e-22
9.364360056e-22
1.174445814e-21
1.493035962e-21
1.900779236e-21
2.390211598e-21
2.90833183e-21
3.305033164e-21
1.136530303e-21
1.338311826e-21
1.659537634e-21
2.120750612e-21
2.746695092e-21
3.553515186e-21
4.518031504e-21
5.520003503e-21
6.263735618e-21
1.930148907e-21
2.301060613e-21
2.898457049e-21
3.765947943e-21
4.952104042e-21
6.481005891e-21
8.290171907e-21
1.013000735e-20
1.14584175e-20
3.267322779e-21
3.938726849e-21
5.029662367e-21
6.625922705e-21
8.816698461e-21
1.163374818e-20
1.493591099e-20
1.824240987e-20
2.058827381e-20
5.539598603e-21
6.741828778e-21
8.707778815e-21
1.15986417e-20
1.557269924e-20
2.066807844e-20
2.659682551e-20
3.247074858e-20
3.659208213e-20
9.425664512e-21
1.156140006e-20
1.506962443e-20
2.024460703e-20
2.736239969e-20
3.646397382e-20
4.699506459e-20
5.735239205e-20
6.456588221e-20
1.610338852e-20
1.987554523e-20
2.609098726e-20
3.527701837e-20
4.791081783e-20
6.402826041e-20
8.259969635e-20
1.007718751e-19
1.133659443e-19
2.761900258e-20
3.425353436e-20
4.52079393e-20
6.141551482e-20
8.369711885e-20
1.120664349e-19
1.446532952e-19
1.764277728e-19
1.983801525e-19
4.753181417e-20
5.916733089e-20
7.840447196e-20
1.068810719e-19
1.460030427e-19
1.957216513e-19
2.526856944e-19
3.080979508e-19
3.463432866e-19
8.203939125e-20
1.024106061e-19
1.361194149e-19
1.860243445e-19
2.545194592e-19
3.413821697e-19
4.406140995e-19
5.369464455e-19
6.037428367e-19
1.419363099e-19
1.775752123e-19
2.365895416e-19
3.239668667e-19
4.437731849e-19
5.952884312e-19
7.674466195e-19
9.334333444e-19
1.051828609e-18
2.460021646e-19
3.083360498e-19
4.116507134e-19
5.647347781e-19
7.746710655e-19
1.039710082e-18
1.337951846e-18
1.611572412e-18
1.836031143e-18
4.268217365e-19
5.357687917e-19
7.165524274e-19
9.848922573e-19
1.354111159e-18
1.824032581e-18
2.365566165e-18
2.906478022e-18
3.244602245e-18
7.408100025e-19
9.308534854e-19
1.24633985e-18
1.714726899e-18
2.358992358e-18
3.177405677e-18
4.113506047e-18
5.020763835e-18
5.636514984e-18
1.285756496e-18
1.616638362e-18
2.165935373e-18
2.981212887e-18
4.101747231e-18
5.523029527e-18
7.1447987e-18
8.712711831e-18
9.785589967e-18
2.231355745e-18
2.80675037e-18
3.76191392e-18
5.179248822e-18
7.126377948e-18
9.594551613e-18
1.240905223e-17
1.512923761e-17
1.699194273e-17
3.872205478e-18
4.872154886e-18
6.532049592e-18
8.994806918e-18
1.237737439e-17
1.666387442e-17
2.155047108e-17
2.627236699e-17
2.950568143e-17
6.719785765e-18
8.45698841e-18
1.134069401e-17
1.561888445e-17
2.149407105e-17
2.89377977e-17
3.742169011e-17
4.561783128e-17
5.122920526e-17
1.166209579e-17
1.467960185e-17
1.968848519e-17
2.711894109e-17
3.732155578e-17
5.024526187e-17
6.497111243e-17
7.919368725e-17
8.892860611e-17
2.024062006e-17
2.548134777e-17
3.41801942e-17
4.708302259e-17
6.479621491e-17
8.722765512e-17
1.127789198e-16
1.374486708e-16
1.543291998e-16
3.51307266e-17
4.423154534e-17
5.933604968e-17
8.173627245e-17
1.124795018e-16
1.513982687e-16
1.95711783e-16
2.384779997e-16
2.677296104e-16
6.097420898e-17
7.677577512e-17
1.029971248e-16
1.418737232e-16
1.952105554e-16
2.626999621e-16
3.395030314e-16
4.135822409e-16
4.642247722e-16
1.058203277e-16
1.332499115e-16
1.787560214e-16
2.462003791e-16
3.386851675e-16
4.556378643e-16
5.886350686e-16
7.168183533e-16
8.043852928e-16
1.836165472e-16
2.312145312e-16
3.101539274e-16
4.270921308e-16
5.873410964e-16
7.898200264e-16
1.019858858e-15
1.241348221e-15
1.392511e-15
3.185050199e-16
4.010589418e-16
5.379098703e-16
7.405043076e-16
1.017894175e-15
1.368008617e-15
1.765285502e-15
2.147291611e-15
2.407672803e-15
5.522158815e-16
6.952933928e-16
9.323353703e-16
1.282955315e-15
1.762482192e-15
2.366892007e-15
3.051623024e-15
3.708906876e-15
4.156179487e-15
9.567513171e-16
1.204474107e-15
1.614574177e-15
2.220513037e-15
3.048042936e-15
4.089250502e-15
5.266429867e-15
6.393962648e-15
7.159611431e-15
1.656069031e-15
2.084387524e-15
2.792777005e-15
3.838012314e-15
5.262920704e-15
7.05180232e-15
9.069160638e-15
1.099619015e-14
1.230128244e-14
2.862996046e-15
3.602237871e-15
4.823385605e-15
6.622116408e-15
9.068751665e-15
1.213198833e-14
1.557569576e-14
1.885427887e-14
2.106756664e-14
4.941771258e-15
6.214700768e-15
8.314316345e-15
1.140051033e-14
1.558691514e-14
2.081106775e-14
2.666201663e-14
3.221023027e-14
3.594129486e-14
8.513441554e-15
1.069902458e-14
1.429747507e-14
1.957329938e-14
2.670645842e-14
3.557273026e-14
4.54586087e-14
5.478914407e-14
6.103563663e-14
1.463241401e-14
1.837173488e-14
2.451493506e-14
3.349427476e-14
4.558758998e-14
6.054962655e-14
7.714607614e-14
9.272599006e-14
1.031030079e-13
2.508026207e-14
3.145074709e-14
4.188958813e-14
5.709300583e-14
7.747609749e-14
1.025598413e-13
1.302198609e-13
1.560285009e-13
1.731206812e-13
4.285115921e-14
5.36500403e-14
7.129198576e-14
9.687928836e-14
1.310056631e-13
1.727483242e-13
2.18475413e-13
2.608570366e-13
2.887512639e-13
7.294771405e-14
9.114770143e-14
1.207773861e-13
1.635471259e-13
2.202556756e-13
2.891541454e-13
3.640849488e-13
4.330331231e-13
4.781135132e-13
1.236748189e-13
1.541470886e-13
2.035605623e-13
2.745069741e-13
3.679636465e-13
4.806761347e-13
6.02307209e-13
7.133735553e-13
7.854929629e-13
2.087244072e-13
2.593698353e-13
3.411344446e-13
4.578373517e-13
6.104800252e-13
7.931249038e-13
9.886119954e-13
1.165707622e-12
1.279894611e-12
3.50502728e-13
4.339962298e-13
5.681411465e-13
7.583806212e-13
1.005321525e-12
1.298353225e-12
1.609338991e-12
1.888800525e-12
2.067722128e-12
5.853874653e-13
7.218276982e-13
9.39896392e-13
1.247040967e-12
1.642558098e-12
2.10788373e-12
2.59748334e-12
3.033917153e-12
3.311402052e-12
9.719468883e-13
1.192821115e-12
1.543886424e-12
2.034814139e-12
2.661801429e-12
3.393050638e-12
4.155861026e-12
4.830473104e-12
5.256515536e-12
1.603650563e-12
1.95768077e-12
2.517148729e-12
3.293741818e-12
4.277308646e-12
5.414506562e-12
6.590827105e-12
7.623210867e-12
8.271033858e-12
2.628309135e-12
3.18995232e-12
4.072280818e-12
5.287911921e-12
6.814755511e-12
8.565106435e-12
1.036099722e-11
1.192571283e-11
1.290168547e-11
4.277477756e-12
5.159127464e-12
6.535985963e-12
8.418920558e-12
1.076468027e-11
1.343179105e-11
1.614719082e-11
1.849696076e-11
1.995445881e-11
6.910450882e-12
8.279752754e-12
1.04056862e-11
1.329200973e-11
1.685960477e-11
2.088431903e-11
2.495225317e-11
2.845026558e-11
3.060896545e-11
1.107941376e-11
1.318359968e-11
1.643198411e-11
2.08115867e-11
2.6184611e-11
3.220176576e-11
3.824276998e-11
4.340748507e-11
4.658012031e-11
1.76250069e-11
2.082481939e-11
2.573787825e-11
3.231827986e-11
4.033497455e-11
4.925192781e-11
5.814929177e-11
6.571638297e-11
7.034571027e-11
2.781529862e-11
3.263198953e-11
3.998997232e-11
4.97844568e-11
6.16397134e-11
7.474454439e-11
8.774796806e-11
9.875566407e-11
1.05465475e-10
4.354636665e-11
5.072652439e-11
6.164297374e-11
7.609178468e-11
9.347716847e-11
1.125871368e-10
1.314551003e-10
1.47361491e-10
1.570268758e-10
6.762993543e-11
7.823471936e-11
9.428668584e-11
1.154221528e-10
1.407175277e-10
1.683828929e-10
1.9557824e-10
2.184225388e-10
2.322661881e-10
1.041963122e-10
1.197225623e-10
1.431298526e-10
1.738056252e-10
2.103438429e-10
2.501279105e-10
2.890854182e-10
3.217079797e-10
3.414315918e-10
1.592702532e-10
1.818174466e-10
2.156876789e-10
2.598899493e-10
3.12316756e-10
3.691773391e-10
4.246691805e-10
4.710124953e-10
4.989770206e-10
2.415792821e-10
2.740769942e-10
3.227397215e-10
3.860121352e-10
4.607772875e-10
5.415873202e-10
6.202219092e-10
6.857418449e-10
7.252138767e-10
3.636849638e-10
4.102029629e-10
4.796651078e-10
5.69687915e-10
6.757147522e-10
7.899723851e-10
9.008753339e-10
9.931032221e-10
1.048592203e-09
5.435604256e-10
6.097309845e-10
7.082972051e-10
8.356763209e-10
9.852744538e-10
1.14607179e-09
1.301815979e-09
1.431127216e-09
1.508846961e-09
8.067820567e-10
9.003749894e-10
1.039492606e-09
1.218834842e-09
1.428944874e-09
1.654290517e-09
1.87216705e-09
2.052831843e-09
2.161331346e-09
1.189564859e-09
1.321270801e-09
1.516681301e-09
1.768060894e-09
2.061953701e-09
2.376579595e-09
2.680334435e-09
2.931953315e-09
3.082978951e-09
1.742955167e-09
1.927453773e-09
2.2007642e-09
2.551725555e-09
2.961324039e-09
3.39915424e-09
3.821360895e-09
4.170827157e-09
4.380502796e-09
2.538610076e-09
2.796028866e-09
3.176858718e-09
3.665153214e-09
4.234204804e-09
4.841729198e-09
5.427034166e-09
5.911222335e-09
6.20166829e-09
3.676746437e-09
4.034654036e-09
4.563568559e-09
5.240893747e-09
6.029306754e-09
6.870198686e-09
7.679772076e-09
8.349231303e-09
8.750791559e-09
5.297033185e-09
5.793160514e-09
6.525676603e-09
7.462787651e-09
8.5525699e-09
9.71402469e-09
1.083168305e-08
1.175572803e-08
1.231004516e-08
7.593431013e-09
8.2793858e-09
9.291447913e-09
1.058515989e-08
1.208857536e-08
1.369003934e-08
1.523069944e-08
1.650445687e-08
1.726873748e-08
1.083427001e-08
1.178061335e-08
1.317609252e-08
1.495889473e-08
1.702969631e-08
1.923492664e-08
2.135632562e-08
2.311053689e-08
2.416350242e-08
1.538918521e-08
1.669237202e-08
1.861334169e-08
2.106661245e-08
2.391553814e-08
2.694931372e-08
2.986832669e-08
3.228305865e-08
3.373330087e-08
2.176482532e-08
2.355667208e-08
2.619746379e-08
2.956961564e-08
3.348577459e-08
3.765709226e-08
4.167252382e-08
4.499643571e-08
4.69942166e-08
3.065139625e-08
3.311192037e-08
3.673825281e-08
4.136955173e-08
4.674985763e-08
5.248409064e-08
5.80085218e-08
6.258599255e-08
6.533996015e-08
4.298193088e-08
4.635658211e-08
5.133133839e-08
5.768754175e-08
6.507690151e-08
7.29600917e-08
8.056415382e-08
8.687333365e-08
9.067413599e-08
6.000547655e-08
6.462785637e-08
7.144522375e-08
8.016241685e-08
9.030773689e-08
1.011466869e-07
1.116197494e-07
1.203252351e-07
1.255784648e-07
8.337389274e-08
8.96949068e-08
9.902437348e-08
1.109671138e-07
1.248879027e-07
1.397894884e-07
1.542205921e-07
1.66244388e-07
1.735153286e-07
1.152395868e-07
1.238633707e-07
1.366041233e-07
1.529376836e-07
1.720143544e-07
1.924855293e-07
2.123663788e-07
2.289790616e-07
2.390506621e-07
1.583584658e-07
1.700840915e-07
1.87428197e-07
2.097025823e-07
2.357794037e-07
2.638442751e-07
2.911905362e-07
3.141194598e-07
3.28061766e-07
2.161893091e-07
2.320549512e-07
2.555538423e-07
2.857915087e-07
3.212832286e-07
3.596035162e-07
3.970792512e-07
4.286198842e-07
4.478622289e-07
2.929787134e-07
3.143015406e-07
3.459245217e-07
3.866948071e-07
4.346731632e-07
4.866413047e-07
5.376510894e-07
5.807475274e-07
6.071314103e-07
3.938206881e-07
4.22221627e-07
4.643879404e-07
5.188397279e-07
5.830585338e-07
6.528073989e-07
7.214872735e-07
7.797108504e-07
8.154740813e-07
5.246815225e-07
5.620804566e-07
6.176401517e-07
6.894537889e-07
7.742536655e-07
8.664968812e-07
9.574857438e-07
1.034766983e-06
1.082321216e-06
6.923800581e-07
7.409459469e-07
8.13083714e-07
9.063024588e-07
1.016334646e-06
1.135941875e-06
1.253776599e-06
1.35362399e-06
1.414776628e-06
9.045018076e-07
9.665444259e-07
1.058587618e-06
1.177307474e-06
1.317058734e-06
1.468350298e-06
1.616446278e-06
1.740527337e-06
1.814904127e-06
1.169189151e-06
1.2469804e-06
1.362098463e-06
1.510015951e-06
1.683165788e-06
1.86910596e-06
2.04887059e-06
2.196969354e-06
2.285917431e-06
1.49468162e-06
1.590189697e-06
1.730960301e-06
1.910747009e-06
2.119384442e-06
2.340672798e-06
2.551850898e-06
2.726132446e-06
2.831183331e-06
1.888386145e-06
2.002880006e-06
2.170704271e-06
2.383257132e-06
2.626941244e-06
2.883274885e-06
3.128323412e-06
3.331151303e-06
3.453877071e-06
2.355160132e-06
2.488750766e-06
2.683133443e-06
2.926855142e-06
3.205738171e-06
3.499567479e-06
3.781068315e-06
4.014692012e-06
4.156531217e-06
2.894595661e-06
3.045815037e-06
3.2656689e-06
3.541957686e-06
3.858341493e-06
4.192075465e-06
4.512271943e-06
4.778514018e-06
4.940596511e-06
3.504061378e-06
3.673899133e-06
3.920861173e-06
4.231448044e-06
4.587239182e-06
4.962678119e-06
5.323083663e-06
5.623071176e-06
5.806064955e-06
4.187029343e-06
4.376379212e-06
4.651661844e-06
4.997783973e-06
5.394103094e-06
5.812095691e-06
6.213224511e-06
6.54719291e-06
6.751188722e-06
4.946837733e-06
5.15618245e-06
5.460323474e-06
5.84236116e-06
6.279279981e-06
6.739510667e-06
7.18071055e-06
7.547881842e-06
7.772321069e-06
5.785743295e-06
6.015018054e-06
6.347742374e-06
6.765051952e-06
7.241453829e-06
7.742334508e-06
8.221709436e-06
8.620242301e-06
8.863889568e-06
6.704375995e-06
6.95291374e-06
7.313074528e-06
7.763927524e-06
8.277464112e-06
8.816115253e-06
9.330529711e-06
9.757537728e-06
1.001849695e-05
7.701440574e-06
7.967964801e-06
8.353543528e-06
8.835139766e-06
9.382265798e-06
9.954575554e-06
1.049973212e-05
1.095136358e-05
1.122713354e-05
8.773593521e-06
9.056246002e-06
9.464400598e-06
9.972941059e-06
1.0549015e-05
1.114976524e-05
1.172034472e-05
1.219191443e-05
1.247947737e-05
9.915461494e-06
1.02118589e-05
1.063901267e-05
1.116982207e-05
1.176926106e-05
1.239230746e-05
1.298215817e-05
1.346831877e-05
1.376425368e-05
1.111977959e-05
1.142709394e-05
1.186905763e-05
1.241674626e-05
1.303322234e-05
1.367171362e-05
1.42740742e-05
1.476901306e-05
1.506962423e-05
1.237762877e-05
1.269268588e-05
1.314480415e-05
1.370345701e-05
1.433012003e-05
1.497674022e-05
1.558447973e-05
1.608212698e-05
1.638357827e-05
1.367874902e-05
1.399813848e-05
1.445545077e-05
1.501883128e-05
1.564854356e-05
1.629576106e-05
1.690162059e-05
1.739585467e-05
1.769430087e-05
1.501190242e-05
1.533209206e-05
1.578949789e-05
1.635125346e-05
1.697682192e-05
1.761713066e-05
1.821395241e-05
1.869879175e-05
1.899049949e-05
1.636525969e-05
1.668270793e-05
1.713512711e-05
1.768898517e-05
1.830337826e-05
1.892951846e-05
1.95104512e-05
1.998022294e-05
2.02616758e-05
1.772678502e-05
1.80380453e-05
1.848056499e-05
1.902050989e-05
1.961704961e-05
2.022219882e-05
2.078087167e-05
2.123035131e-05
2.149833551e-05
1.908459772e-05
1.938641032e-05
1.981441269e-05
2.033483653e-05
2.090735852e-05
2.148528692e-05
2.201594671e-05
2.244046571e-05
2.26921346e-05
2.042729342e-05
2.071666154e-05
2.11259279e-05
2.162175104e-05
2.216472894e-05
2.2709916e-05
2.320752666e-05
2.36030472e-05
2.383596464e-05
2.174421315e-05
2.201846147e-05
2.24052509e-05
2.287201026e-05
2.338064341e-05
2.388835597e-05
2.434866093e-05
2.47118194e-05
2.492398319e-05
2.302565383e-05
2.328246918e-05
2.364357146e-05
2.40774772e-05
2.454774294e-05
2.501407712e-05
2.543362762e-05
2.576174998e-05
2.595159755e-05
2.42630185e-05
2.45004734e-05
2.483323768e-05
2.52312005e-05
2.565987439e-05
2.608176511e-05
2.645791882e-05
2.674901175e-05
2.691541091e-05
2.54489087e-05
2.566546934e-05
2.596781114e-05
2.63274437e-05
2.671209192e-05
2.708729516e-05
2.741819025e-05
2.767091268e-05
2.781314041e-05
2.657716447e-05
2.677168538e-05
2.704207507e-05
2.736167178e-05
2.770062081e-05
2.802767391e-05
2.831218384e-05
2.852580356e-05
2.864351579e-05
2.764285933e-05
2.781456714e-05
2.805200366e-05
2.83305034e-05
2.862279205e-05
2.890095758e-05
2.91386318e-05
2.931297137e-05
2.94061667e-05
2.864225864e-05
2.879072754e-05
2.899470085e-05
2.923163701e-05
2.947695589e-05
2.970615406e-05
2.989714946e-05
3.003252545e-05
3.010150504e-05
2.957275001e-05
2.969787119e-05
2.986831693e-05
3.006375897e-05
3.026238173e-05
3.044311593e-05
3.0588123e-05
3.068528195e-05
3.073060792e-05
3.043275373e-05
3.053470112e-05
3.067195055e-05
3.082644059e-05
3.097915094e-05
3.111243009e-05
3.121259739e-05
3.12726511e-05
3.129510497e-05
3.122162066e-05
3.13008148e-05
3.140554243e-05
3.152003001e-05
3.16280476e-05
3.171530849e-05
3.177216805e-05
3.179653047e-05
3.179707294e-05
3.193952365e-05
3.199659511e-05
3.206976631e-05
3.214554363e-05
3.221045134e-05
3.22534833e-05
3.2268879e-05
3.225920625e-05
3.223893938e-05
3.258734742e-05
3.26231011e-05
3.266592121e-05
3.270456071e-05
3.272823524e-05
3.272910888e-05
3.270512939e-05
3.2663264e-05
3.262339627e-05
3.316658075e-05
3.31819619e-05
3.319582799e-05
3.31991237e-05
3.318367075e-05
3.314467197e-05
3.308358907e-05
3.301150925e-05
3.295332399e-05
3.367921375e-05
3.367527631e-05
3.36617325e-05
3.363164592e-05
3.357934086e-05
3.350291087e-05
3.340712391e-05
3.330689806e-05
3.323172543e-05
3.412764206e-05
3.410551975e-05
3.406621654e-05
3.400482768e-05
3.391806218e-05
3.380674391e-05
3.367873049e-05
3.355247719e-05
3.346166973e-05
3.451457918e-05
3.447545951e-05
3.441211742e-05
3.432158122e-05
3.420281601e-05
3.405920701e-05
3.390147996e-05
3.375133336e-05
3.364624495e-05
3.484297765e-05
3.4788079e-05
3.470245648e-05
3.458496459e-05
3.443668831e-05
3.426339999e-05
3.407847043e-05
3.39065508e-05
3.378851901e-05
3.511595979e-05
3.504651127e-05
3.494037679e-05
3.479812448e-05
3.462281827e-05
3.442244118e-05
3.421278733e-05
3.402117642e-05
3.389150784e-05
3.533675956e-05
3.52539831e-05
3.51290906e-05
3.496424807e-05
3.476435536e-05
3.453942982e-05
3.430747101e-05
3.409819179e-05
3.395815024e-05
3.550868119e-05
3.541377348e-05
3.527183889e-05
3.508652514e-05
3.486442503e-05
3.461741613e-05
3.43654912e-05
3.414049137e-05
3.399128849e-05
3.563509552e-05
3.55292004e-05
3.537187079e-05
3.516812399e-05
3.492610467e-05
3.465937936e-05
3.438972796e-05
3.415086646e-05
3.399365421e-05
3.571955183e-05
3.560368277e-05
3.54324657e-05
3.521219118e-05
3.495241344e-05
3.466821473e-05
3.43829592e-05
3.413199419e-05
3.396785881e-05
3.576628381e-05
3.564103527e-05
3.545705761e-05
3.522189385e-05
3.494632072e-05
3.464672972e-05
3.434785371e-05
3.408643073e-05
3.391638737e-05
3.578196297e-05
3.564653689e-05
3.54495656e-05
3.520051887e-05
3.491077179e-05
3.459764691e-05
3.42869678e-05
3.401660706e-05
3.384159485e-05
3.576805209e-05
3.562413862e-05
3.541466972e-05
3.515152105e-05
3.484868792e-05
3.452359628e-05
3.420273845e-05
3.3924824e-05
3.374570245e-05
3.57255838e-05
3.557444852e-05
3.535461e-05
3.50782532e-05
3.476286799e-05
3.442707633e-05
3.409746634e-05
3.381324424e-05
3.363079292e-05
3.565621843e-05
3.5498983e-05
3.527047725e-05
3.498345703e-05
3.465584476e-05
3.431040489e-05
3.397329647e-05
3.368388389e-05
3.34988062e-05
3.556189674e-05
3.539953898e-05
3.516379071e-05
3.486788041e-05
3.453001299e-05
3.417572974e-05
3.383221276e-05
3.353860837e-05
3.335153732e-05
3.544467731e-05
3.527807681e-05
3.503637776e-05
3.473327363e-05
3.438739537e-05
3.402494505e-05
3.367601102e-05
3.337912538e-05
3.319063565e-05
3.530662211e-05
3.513656561e-05
3.489005264e-05
3.458118028e-05
3.422891202e-05
3.385955268e-05
3.350628099e-05
3.320698977e-05
3.301761341e-05
3.514974128e-05
3.497693662e-05
3.472662507e-05
3.441324247e-05
3.40560017e-05
3.368118522e-05
3.332456887e-05
3.302366052e-05
3.283387361e-05
3.497596221e-05
3.480105388e-05
3.454787407e-05
3.423116074e-05
3.387037863e-05
3.349192067e-05
3.313244392e-05
3.283051614e-05
3.264071574e-05
3.478710472e-05
3.461067624e-05
3.435546918e-05
3.403648673e-05
3.367343019e-05
3.329284327e-05
3.293111146e-05
3.262874389e-05
3.243929538e-05
3.458486828e-05
3.440744097e-05
3.415094957e-05
3.383060937e-05
3.346628833e-05
3.308455873e-05
3.272153198e-05
3.241937422e-05
3.223064094e-05
3.437083229e-05
3.419287044e-05
3.39357518e-05
3.361485186e-05
3.325014496e-05
3.286816762e-05
3.250472134e-05
3.220338534e-05
3.201570458e-05
3.414645938e-05
3.396837676e-05
3.371121523e-05
3.339046414e-05
3.302615367e-05
3.264473551e-05
3.228166356e-05
3.198170175e-05
3.179537505e-05
3.39130992e-05
3.373526512e-05
3.34785824e-05
3.315861407e-05
3.279540393e-05
3.241527844e-05
3.205330688e-05
3.175519836e-05
3.157048404e-05
3.36719924e-05
3.349473648e-05
3.323899922e-05
3.29203839e-05
3.255891659e-05
3.21807783e-05
3.182066208e-05
3.152471933e-05
3.134180951e-05
3.342427446e-05
3.324788987e-05
3.299351356e-05
3.267676057e-05
3.231761424e-05
3.194209964e-05
3.158456266e-05
3.129099903e-05
3.111004136e-05
3.317098023e-05
3.299572571e-05
3.274307637e-05
3.24286321e-05
3.207230581e-05
3.169993812e-05
3.134548678e-05
3.105461668e-05
3.087576688e-05
3.291304952e-05
3.273915174e-05
3.248854937e-05
3.217680321e-05
3.182373288e-05
3.145497998e-05
3.110412634e-05
3.081614917e-05
3.063952659e-05
3.265133314e-05
3.247898877e-05
3.223070984e-05
3.192199553e-05
3.157254905e-05
3.120779266e-05
3.086092084e-05
3.057606516e-05
3.040178662e-05
3.238659938e-05
3.221597741e-05
3.197025798e-05
3.166485691e-05
3.131933595e-05
3.095886789e-05
3.061621516e-05
3.033476933e-05
3.016295922e-05
3.211954087e-05
3.195078542e-05
3.170782602e-05
3.140597581e-05
3.106463398e-05
3.070870298e-05
3.037049806e-05
3.009267903e-05
2.992343698e-05
3.185078081e-05
3.168401399e-05
3.144398396e-05
3.114588457e-05
3.080893487e-05
3.045775072e-05
3.01241886e-05
2.985017435e-05
2.968357953e-05
3.158087869e-05
3.1416203e-05
3.117924405e-05
3.088506219e-05
3.055268147e-05
3.020641766e-05
2.987765918e-05
2.960759643e-05
2.944371092e-05
3.131033558e-05
3.114783601e-05
3.091406525e-05
3.06239379e-05
3.029627048e-05
2.995506755e-05
2.963124232e-05
2.936525022e-05
2.920412121e-05
3.103959902e-05
3.087934494e-05
3.064885743e-05
3.0362895e-05
3.004005605e-05
2.970402494e-05
2.938523449e-05
2.912340763e-05
2.896506912e-05
3.076906765e-05
3.061111447e-05
3.038398562e-05
3.010227476e-05
2.978435341e-05
2.945357856e-05
2.913989935e-05
2.888231038e-05
2.872678466e-05
3.049909554e-05
3.034348622e-05
3.01197739e-05
2.984238009e-05
2.952944228e-05
2.920398454e-05
2.889547072e-05
2.864217272e-05
2.848947175e-05
3.022999624e-05
3.007676266e-05
2.985650916e-05
2.958347908e-05
2.927557011e-05
2.89554694e-05
2.865215533e-05
2.840318402e-05
2.825331064e-05
2.996204654e-05
2.981121076e-05
2.959444452e-05
2.932580816e-05
2.90229551e-05
2.870823285e-05
2.841013537e-05
2.816551104e-05
2.80184601e-05
2.969548994e-05
2.95470653e-05
2.933380257e-05
2.906957519e-05
2.877178898e-05
2.84624503e-05
2.816957082e-05
2.792930019e-05
2.778505952e-05
2.943053985e-05
2.928453203e-05
2.907477825e-05
2.881496214e-05
2.852223959e-05
2.821827523e-05
2.793060165e-05
2.769467944e-05
2.755323079e-05
2.916738251e-05
2.902379046e-05
2.881754162e-05
2.856212771e-05
2.827445319e-05
2.797584137e-05
2.769334972e-05
2.746176019e-05
2.732308003e-05
2.890617974e-05
2.876499651e-05
2.856224032e-05
2.831120957e-05
2.802855664e-05
2.773526469e-05
2.74579207e-05
2.723063891e-05
2.709469918e-05
2.864707138e-05
2.850828485e-05
2.830900181e-05
2.806232656e-05
2.778465938e-05
2.749664512e-05
2.72244056e-05
2.700139868e-05
2.686816742e-05
2.839017752e-05
2.825377111e-05
2.805793546e-05
2.781558056e-05
2.754285518e-05
2.726006829e-05
2.699288235e-05
2.677411054e-05
2.66435525e-05
2.813560054e-05
2.800155384e-05
2.780913444e-05
2.757105828e-05
2.730322378e-05
2.702560694e-05
2.676341713e-05
2.654883473e-05
2.64209119e-05
2.788342703e-05
2.775171629e-05
2.756267737e-05
2.732883287e-05
2.706583238e-05
2.679332234e-05
2.653606561e-05
2.632562189e-05
2.620029394e-05
2.763372939e-05
2.750432805e-05
2.731862992e-05
2.70889653e-05
2.683073693e-05
2.656326544e-05
2.631087405e-05
2.610451401e-05
2.598173874e-05
2.738656742e-05
2.725944653e-05
2.707704618e-05
2.685150575e-05
2.659798341e-05
2.633547804e-05
2.608788034e-05
2.58855454e-05
2.576527908e-05
2.714198965e-05
2.701711827e-05
2.683796994e-05
2.661649473e-05
2.636760886e-05
2.610999376e-05
2.58671149e-05
2.56687435e-05
2.555094123e-05
2.690003463e-05
2.677738017e-05
2.66014358e-05
2.638396419e-05
2.613964239e-05
2.588683894e-05
2.564860151e-05
2.545412969e-05
2.533874565e-05
2.666073203e-05
2.654026055e-05
2.636747025e-05
2.615393846e-05
2.591410609e-05
2.566603348e-05
2.543235803e-05
2.524171991e-05
2.512870765e-05
2.642410365e-05
2.630578014e-05
2.613609256e-05
2.592643513e-05
2.569101579e-05
2.544759155e-05
2.521839711e-05
2.503152531e-05
2.492083796e-05
2.619016431e-05
2.607395295e-05
2.590731561e-05
2.57014658e-05
2.547038182e-05
2.523152227e-05
2.500672677e-05
2.482355282e-05
2.471514329e-05
2.595892273e-05
2.584478706e-05
2.568114667e-05
2.547903682e-05
2.525220963e-05
2.501783029e-05
2.479735096e-05
2.46178056e-05
2.451162675e-05
2.573038218e-05
2.561828533e-05
2.545758805e-05
2.525914992e-05
2.503650039e-05
2.480651633e-05
2.459027001e-05
2.441428355e-05
2.431028836e-05
2.550454119e-05
2.539444602e-05
2.523663768e-05
2.504180273e-05
2.48232515e-05
2.459757766e-05
2.438548114e-05
2.421298367e-05
2.411112534e-05
2.528139408e-05
2.517326336e-05
2.501828967e-05
2.482698929e-05
2.461245705e-05
2.439100852e-05
2.418297878e-05
2.401390044e-05
2.391413255e-05
2.50609315e-05
2.495472798e-05
2.480253474e-05
2.461470049e-05
2.440410821e-05
2.418680049e-05
2.398275492e-05
2.381702612e-05
2.37193027e-05
2.484314079e-05
2.473882739e-05
2.458936062e-05
2.440492442e-05
2.419819357e-05
2.398494276e-05
2.378479943e-05
2.362235102e-05
2.352662666e-05
2.462800634e-05
2.452554619e-05
2.43787523e-05
2.419764661e-05
2.399469936e-05
2.378542239e-05
2.358910019e-05
2.342986367e-05
2.333609362e-05
2.441550981e-05
2.431486638e-05
2.417069228e-05
2.399285023e-05
2.379360963e-05
2.358822444e-05
2.339564328e-05
2.323955094e-05
2.314769116e-05
2.420563019e-05
2.410676734e-05
2.396516054e-05
2.379051612e-05
2.359490623e-05
2.339333191e-05
2.32044129e-05
2.3051398e-05
2.296140526e-05
2.39983437e-05
2.390122575e-05
2.376213448e-05
2.35906226e-05
2.339856862e-05
2.320072559e-05
2.301539118e-05
2.286538812e-05
2.277722007e-05
2.379362347e-05
2.369821523e-05
2.356158847e-05
2.339314505e-05
2.320457346e-05
2.301038355e-05
2.282855767e-05
2.268150212e-05
2.259511737e-05
2.359143885e-05
2.349770565e-05
2.336349315e-05
2.319805516e-05
2.301289371e-05
2.282228026e-05
2.264388843e-05
2.249971752e-05
2.241507571e-05
2.339175431e-05
2.329966196e-05
2.316781422e-05
2.300531962e-05
2.282349734e-05
2.263638519e-05
2.246135458e-05
2.232000706e-05
2.223706887e-05
2.31945278e-05
2.310404248e-05
2.297451059e-05
2.281489819e-05
2.263634523e-05
2.245266062e-05
2.228092004e-05
2.214233641e-05
2.206106363e-05
2.299970828e-05
2.291079637e-05
2.278353175e-05
2.262674091e-05
2.24513882e-05
2.227105849e-05
2.210253827e-05
2.19666609e-05
2.188701641e-05
2.28072324e-05
2.271986014e-05
2.25948141e-05
2.244078415e-05
2.226856286e-05
2.209151605e-05
2.192614771e-05
2.179292087e-05
2.171486854e-05
2.261701997e-05
2.253115298e-05
2.240827599e-05
2.225694539e-05
2.208778598e-05
2.191394985e-05
2.175166553e-05
2.162103542e-05
2.154453992e-05
2.242896803e-05
2.234457057e-05
2.222381124e-05
2.207511629e-05
2.190894716e-05
2.173824794e-05
2.157897949e-05
2.145089406e-05
2.137592054e-05
2.224294335e-05
2.21599773e-05
2.204128088e-05
2.189515392e-05
2.17318994e-05
2.156425996e-05
2.140793758e-05
2.128234625e-05
2.120885978e-05
2.205877309e-05
2.197719657e-05
2.186050295e-05
2.171686991e-05
2.155644757e-05
2.139178482e-05
2.123833513e-05
2.111518833e-05
2.104315319e-05
2.187623354e-05
2.179599908e-05
2.168124022e-05
2.154001735e-05
2.13823345e-05
2.122055601e-05
2.106989953e-05
2.094914806e-05
2.087852672e-05
2.16950369e-05
2.161608919e-05
2.150318579e-05
2.136427568e-05
2.120922491e-05
2.105022467e-05
2.090227265e-05
2.078386685e-05
2.071461869e-05
2.151481628e-05
2.143708941e-05
2.1325947e-05
2.118923371e-05
2.103668759e-05
2.088034093e-05
2.073499153e-05
2.061888038e-05
2.055096017e-05
2.133510912e-05
2.125852346e-05
2.114902792e-05
2.101437152e-05
2.086417671e-05
2.071033469e-05
2.056746883e-05
2.045359898e-05
2.038695508e-05
2.115533988e-05
2.107979872e-05
2.097181163e-05
2.083904274e-05
2.069101436e-05
2.053949869e-05
2.039897613e-05
2.028729067e-05
2.02218626e-05
2.097480252e-05
2.090018893e-05
2.079354345e-05
2.066245919e-05
2.051637788e-05
2.036697987e-05
2.022863873e-05
2.011907275e-05
2.00547859e-05
2.079264405e-05
2.071881829e-05
2.061331658e-05
2.048368e-05
2.033929723e-05
2.01917937e-05
2.005547343e-05
1.994792392e-05
1.98846705e-05
2.060785027e-05
2.05346478e-05
2.043005963e-05
2.030160244e-05
2.015865745e-05
2.001287502e-05
1.987864164e-05
1.977272359e-05
1.971029822e-05
2.041923617e-05
2.034646602e-05
2.024252585e-05
2.011494108e-05
1.997313609e-05
1.982886492e-05
1.969672905e-05
1.959203044e-05
1.953019083e-05
2.022544749e-05
2.01528949e-05
2.004930746e-05
1.992225898e-05
1.978126902e-05
1.963824058e-05
1.950799016e-05
1.940413939e-05
1.934262502e-05
2.002497985e-05
1.995241763e-05
1.984888227e-05
1.972206004e-05
1.958167966e-05
1.944003585e-05
1.931082786e-05
1.920723048e-05
1.914569362e-05
1.981622514e-05
1.974343327e-05
1.963967308e-05
1.951281256e-05
1.937285756e-05
1.923251627e-05
1.910333179e-05
1.899925249e-05
1.893727043e-05
1.959757603e-05
1.952439006e-05
1.942025115e-05
1.929335956e-05
1.915425455e-05
1.901364279e-05
1.888332688e-05
1.877792368e-05
1.871501207e-05
1.936762869e-05
1.929400794e-05
1.918954804e-05
1.906303099e-05
1.892344946e-05
1.878105679e-05
1.864839938e-05
1.854075915e-05
1.847638647e-05
1.912563679e-05
1.90518408e-05
1.894754521e-05
1.881996121e-05
1.867794409e-05
1.853223419e-05
1.839597405e-05
1.828512828e-05
1.821872627e-05
1.887243203e-05
1.879804653e-05
1.86918677e-05