/*--------------------------------*- C++ -*----------------------------------*\
| =========                 |                                                 |
| \\      /  F ield         | OpenFOAM: The Open Source CFD Toolbox           |
|  \\    /   O peration     | Version:  2212                                  |
|   \\  /    A nd           | Website:  www.openfoam.com                      |
|    \\/     M anipulation  |                                                 |
\*---------------------------------------------------------------------------*/
FoamFile
{
    version     2.0;
    format      ascii;
    arch        "LSB;label=32;scalar=64";
    class       volScalarField;
    location    "30.00000000";
    object      CH2CO_0;
}
// * * * * * * * * * * * * * * * * * * * * * * * * * * * * * * * * * * * * * //

dimensions      [0 0 0 0 0 0 0];

internalField   nonuniform List<scalar> 
3000
(
9.652518516e-21
1.083853231e-20
1.262680366e-20
1.500721046e-20
1.795358384e-20
2.138419161e-20
2.509172821e-20
2.862615526e-20
3.112462008e-20
3.624478923e-20
4.086267793e-20
4.782233811e-20
5.71064326e-20
6.869677499e-20
8.251982959e-20
9.833011517e-20
1.153331854e-19
1.303981635e-19
8.120899439e-20
9.227769671e-20
1.091192797e-19
1.319594338e-19
1.611817038e-19
1.971725963e-19
2.39749077e-19
2.865004489e-19
3.264161778e-19
1.547475703e-19
1.776961992e-19
2.131315172e-19
2.622181578e-19
3.266330662e-19
4.079032068e-19
5.054148416e-19
6.111967194e-19
6.963101455e-19
2.749285827e-19
3.19611688e-19
3.897163597e-19
4.887683824e-19
6.213538794e-19
7.910342606e-19
9.94680423e-19
1.210185078e-18
1.375085666e-18
4.729871331e-19
5.569612536e-19
6.906436808e-19
8.825835324e-19
1.143078883e-18
1.478852133e-18
1.880275122e-18
2.297357258e-18
2.607052022e-18
8.032604986e-19
9.576191216e-19
1.206231392e-18
1.56724561e-18
2.060874938e-18
2.697142957e-18
3.450057256e-18
4.215766424e-18
4.76866403e-18
1.3597377e-18
1.639147641e-18
2.093148351e-18
2.757442798e-18
3.669147687e-18
4.841479643e-18
6.215695827e-18
7.591721766e-18
8.567976265e-18
2.305362016e-18
2.805677318e-18
3.623818534e-18
4.826866223e-18
6.480689319e-18
8.601153909e-18
1.106842676e-17
1.351288375e-17
1.522799305e-17
3.922570599e-18
4.811367002e-18
6.271330083e-18
8.424920232e-18
1.138701632e-17
1.517466772e-17
1.955721468e-17
2.386744739e-17
2.686936153e-17
6.701534205e-18
8.271330924e-18
1.085790833e-17
1.468070414e-17
1.993829638e-17
2.6645613e-17
3.43741617e-17
4.193655547e-17
4.717760436e-17
1.149379331e-17
1.425477207e-17
1.881347634e-17
2.555829843e-17
3.483083841e-17
4.663678894e-17
6.019787472e-17
7.342088204e-17
8.255640288e-17
1.978055498e-17
2.462269978e-17
3.262827486e-17
4.447886648e-17
6.075954538e-17
8.145002912e-17
1.051557071e-16
1.282156014e-16
1.441314519e-16
3.414093807e-17
4.261845142e-17
5.664642411e-17
7.741443442e-17
1.059187729e-16
1.42066805e-16
1.83362295e-16
2.234511099e-16
2.512484952e-16
5.906710385e-17
7.389827306e-17
9.84571505e-17
1.34819315e-16
1.846768298e-16
2.477300316e-16
3.193737935e-16
3.884492768e-16
4.377195237e-16
1.023741735e-16
1.283144625e-16
1.713089262e-16
2.350149486e-16
3.223800383e-16
4.326761282e-16
5.56789522e-16
6.706567704e-16
7.640652732e-16
1.776222902e-16
2.2296064e-16
2.98193796e-16
4.098634663e-16
5.6351395e-16
7.590717534e-16
9.844309074e-16
1.209531283e-15
1.350241599e-15
3.082885265e-16
3.873751262e-16
5.186647698e-16
7.135840039e-16
9.816949844e-16
1.322277521e-15
1.711835448e-15
2.089390504e-15
2.345635141e-15
5.350679661e-16
6.727644052e-16
9.013542565e-16
1.240631814e-15
1.706941893e-15
2.298408107e-15
2.973306834e-15
3.625793361e-15
4.072271231e-15
9.285789281e-16
1.168029261e-15
1.565520319e-15
2.155343831e-15
2.965641016e-15
3.992770682e-15
5.164024163e-15
6.296028376e-15
7.071192468e-15
1.61141814e-15
2.027546789e-15
2.718311458e-15
3.743187123e-15
5.150841439e-15
6.934666945e-15
8.968222419e-15
1.093323772e-14
1.227878036e-14
2.79643782e-15
3.519374128e-15
4.719427239e-15
6.499794712e-15
8.944751528e-15
1.204245568e-14
1.55730244e-14
1.898384552e-14
2.131901672e-14
4.853178464e-15
6.10891255e-15
8.19335757e-15
1.12855391e-14
1.553135345e-14
2.090954893e-14
2.703770611e-14
3.295642525e-14
3.700760806e-14
8.423128233e-15
1.060405516e-14
1.42240769e-14
1.959358413e-14
2.696492248e-14
3.629975785e-14
4.693290694e-14
5.71992144e-14
6.422404015e-14
1.461964051e-14
1.840694284e-14
2.469267665e-14
3.401452092e-14
4.68083042e-14
6.300433425e-14
8.144538635e-14
9.924253109e-14
1.114155778e-13
2.537439587e-14
3.195021167e-14
4.286221644e-14
5.904069813e-14
8.123680065e-14
1.093224916e-13
1.412840596e-13
1.721120944e-13
1.931869646e-13
4.403709097e-14
5.545190191e-14
7.438925229e-14
1.024561962e-13
1.409437058e-13
1.896135262e-13
2.449602621e-13
2.983036872e-13
3.347446359e-13
7.641195757e-14
9.62198406e-14
1.290704404e-13
1.777342294e-13
2.444217757e-13
3.286833056e-13
4.244138777e-13
5.165865919e-13
5.794929254e-13
1.325457427e-13
1.66900526e-13
2.238509879e-13
3.081605861e-13
4.235962743e-13
5.692962667e-13
7.346228911e-13
8.935945879e-13
1.001952123e-12
2.298044245e-13
2.893460763e-13
3.879910049e-13
5.339013617e-13
7.334562897e-13
9.849812049e-13
1.269931757e-12
1.543460182e-12
1.72959251e-12
3.981516796e-13
5.012414234e-13
6.719044108e-13
9.240656367e-13
1.26844189e-12
1.701740023e-12
2.191622767e-12
2.660845105e-12
2.979469557e-12
6.891724439e-13
8.674170192e-13
1.162213029e-12
1.597187303e-12
2.190162387e-12
2.934604792e-12
3.774127689e-12
4.57606029e-12
5.119173954e-12
1.19143456e-12
1.499069756e-12
2.007249911e-12
2.755791043e-12
3.773957372e-12
5.048722145e-12
6.48181969e-12
7.846200812e-12
8.767259683e-12
2.056515786e-12
2.586244893e-12
3.459999088e-12
4.744317522e-12
6.486488281e-12
8.660517415e-12
1.109538759e-11
1.340427461e-11
1.495695575e-11
3.542864211e-12
4.452393689e-12
5.949887413e-12
8.145419637e-12
1.111388105e-11
1.480357675e-11
1.891758141e-11
2.280048027e-11
2.539995585e-11
6.089269999e-12
7.64538677e-12
1.020187698e-11
1.393862564e-11
1.897125418e-11
2.519770021e-11
3.210430676e-11
3.85878824e-11
4.290627467e-11
1.043713163e-11
1.308820604e-11
1.743232522e-11
2.375922137e-11
3.224163736e-11
4.268022853e-11
5.419093638e-11
6.493119337e-11
7.204409851e-11
1.783246589e-11
2.232641479e-11
2.966810225e-11
4.031624775e-11
5.451792634e-11
7.188912138e-11
9.091843587e-11
1.085555364e-10
1.201637109e-10
3.035708599e-11
3.793100014e-11
5.02613785e-11
6.805998794e-11
9.165923213e-11
1.203313123e-10
1.515137498e-10
1.802065187e-10
1.989667132e-10
5.146701291e-11
6.414802652e-11
8.471141546e-11
1.142357352e-10
1.531277041e-10
2.000329892e-10
2.50649752e-10
2.968700073e-10
3.268824937e-10
8.685998283e-11
1.079360323e-10
1.419623199e-10
1.905281874e-10
2.540504131e-10
3.300580907e-10
4.114100838e-10
4.851084747e-10
5.326274151e-10
1.458599191e-10
1.806056389e-10
2.364299365e-10
3.155980252e-10
4.183625032e-10
5.40307781e-10
6.697247332e-10
7.860228843e-10
8.604812485e-10
2.436042188e-10
3.003835874e-10
3.911326474e-10
5.189507849e-10
6.835454502e-10
8.771912782e-10
1.080938992e-09
1.262561771e-09
1.378037631e-09
4.044629285e-10
4.96379176e-10
6.424745172e-10
8.467740779e-10
1.107695701e-09
1.412006973e-09
1.729453223e-09
2.010195768e-09
2.187495036e-09
6.673251282e-10
8.146534147e-10
1.047474925e-09
1.370654488e-09
1.779968689e-09
2.253219486e-09
2.74275347e-09
3.172388269e-09
3.441985118e-09
1.093680684e-09
1.327405026e-09
1.694583547e-09
2.20047e-09
2.835874577e-09
3.56430021e-09
4.311683877e-09
4.962864577e-09
5.369031546e-09
1.779836196e-09
2.146725924e-09
2.719699642e-09
3.503287976e-09
4.479500137e-09
5.589465823e-09
6.719545744e-09
7.697471563e-09
8.304055994e-09
2.87517385e-09
3.444986356e-09
4.329678693e-09
5.530836386e-09
7.015555766e-09
8.690567685e-09
1.038361772e-08
1.183950587e-08
1.273798103e-08
4.609145986e-09
5.484745393e-09
6.836521882e-09
8.659128299e-09
1.089527664e-08
1.33996424e-08
1.591407392e-08
1.806387593e-08
1.938452862e-08
7.330769804e-09
8.662224337e-09
1.07066899e-08
1.344519955e-08
1.678174396e-08
2.049334163e-08
2.419715341e-08
2.73474871e-08
2.92749153e-08
1.156584177e-08
1.356993127e-08
1.663167165e-08
2.070778359e-08
2.56422581e-08
3.109774728e-08
3.651194954e-08
4.10959349e-08
4.389049858e-08
1.809905543e-08
2.108612256e-08
2.562822024e-08
3.164125833e-08
3.887814284e-08
4.683508754e-08
5.469351527e-08
6.132023561e-08
6.534775673e-08
2.809083428e-08
3.250160977e-08
3.917948511e-08
4.797488179e-08
5.850541147e-08
7.00276186e-08
8.135932307e-08
9.088223121e-08
9.665514773e-08
4.323914971e-08
4.969441218e-08
5.942950844e-08
7.219339367e-08
8.740533873e-08
1.039797893e-07
1.202217742e-07
1.338325279e-07
1.420667751e-07
6.600759359e-08
7.537593931e-08
8.945543457e-08
1.078417302e-07
1.296671341e-07
1.533617458e-07
1.765117475e-07
1.958678172e-07
2.075604069e-07
9.993969747e-08
1.13428422e-07
1.336389433e-07
1.599398642e-07
1.910529128e-07
2.247275109e-07
2.575474436e-07
2.849404029e-07
3.014701446e-07
1.500889678e-07
1.693652065e-07
1.981708476e-07
2.355434598e-07
2.796226019e-07
3.272064351e-07
3.734860629e-07
4.120545608e-07
4.353055181e-07
2.236025496e-07
2.509535515e-07
2.917309711e-07
3.444953112e-07
4.065655541e-07
4.734146209e-07
5.383042839e-07
5.922969545e-07
6.248086917e-07
3.305069129e-07
3.690501553e-07
4.263955253e-07
5.004208359e-07
5.872918661e-07
6.806397222e-07
7.710662021e-07
8.461737893e-07
8.913384797e-07
4.847532745e-07
5.387072619e-07
6.188291115e-07
7.220233129e-07
8.42839196e-07
9.723611069e-07
1.097557283e-06
1.20135188e-06
1.263683443e-06
7.055801388e-07
7.806048075e-07
8.91814794e-07
1.034732829e-06
1.201657215e-06
1.380187518e-06
1.552386773e-06
1.694905618e-06
1.780393452e-06
1.019237255e-06
1.122852365e-06
1.276169119e-06
1.47276835e-06
1.701854091e-06
1.946319565e-06
2.181664197e-06
2.376161958e-06
2.492719851e-06
1.461100843e-06
1.603199351e-06
1.813099441e-06
2.081698729e-06
2.394011327e-06
2.726635824e-06
3.046332015e-06
3.310227162e-06
3.468256523e-06
2.078228041e-06
2.271721045e-06
2.557093787e-06
2.921600141e-06
3.344643659e-06
3.794455123e-06
4.226207043e-06
4.582256924e-06
4.795347432e-06
2.932441294e-06
3.194071e-06
3.57941579e-06
4.070844307e-06
4.640306336e-06
5.244972365e-06
5.824731291e-06
6.30247095e-06
6.588262193e-06
4.103985947e-06
4.455309084e-06
4.972169875e-06
5.63045029e-06
6.392272028e-06
7.200280314e-06
7.974331563e-06
8.611798146e-06
8.993013556e-06
5.695660827e-06
6.164179673e-06
6.852790568e-06
7.728839128e-06
8.741588291e-06
9.814756274e-06
1.084212837e-05
1.1687854e-05
1.219349728e-05
7.837217152e-06
8.45762393e-06
9.368715637e-06
1.052670472e-05
1.18641837e-05
1.328041295e-05
1.463551702e-05
1.575071071e-05
1.641737428e-05
1.068975152e-05
1.150521948e-05
1.27018926e-05
1.42216012e-05
1.597552403e-05
1.783160746e-05
1.960690976e-05
2.106765326e-05
2.194082779e-05
1.44497489e-05
1.551317785e-05
1.707268924e-05
1.905170788e-05
2.13341718e-05
2.374833763e-05
2.605673512e-05
2.795589931e-05
2.909109915e-05
1.935241188e-05
2.072747283e-05
2.274270032e-05
2.529818155e-05
2.824354628e-05
3.135729455e-05
3.433373297e-05
3.678220863e-05
3.824565823e-05
2.567387596e-05
2.74356708e-05
3.001597394e-05
3.32855479e-05
3.705125558e-05
4.102995842e-05
4.483175319e-05
4.795852671e-05
4.982711784e-05
3.373197699e-05
3.596711059e-05
3.923828349e-05
4.337974143e-05
4.814560321e-05
5.317735045e-05
5.798269912e-05
6.193334325e-05
6.429360437e-05
4.388530851e-05
4.669118712e-05
5.079423427e-05
5.598364645e-05
6.194922469e-05
6.824154139e-05
7.424589335e-05
7.917921791e-05
8.212515499e-05
5.653037169e-05
6.001359776e-05
6.510216292e-05
7.153025256e-05
7.891018899e-05
8.668453761e-05
9.409481126e-05
0.0001001777242
0.0001038075894
7.209664454e-05
7.637047194e-05
8.260690598e-05
9.04737313e-05
9.949118296e-05
0.0001089755465
0.0001180026049
0.00012540362
0.0001298159135
9.10393847e-05
9.622031423e-05
0.0001037705528
0.0001132788077
0.0001241574837
0.0001355777186
0.0001464279397
0.0001553101698
0.0001605994572
0.0001138299831
0.0001200336921
0.0001290612811
0.0001404087381
0.0001533642795
0.0001669352051
0.0001798022942
0.0001903171028
0.0001965704277
0.0001409437906
0.0001482806714
0.0001589403763
0.0001723120792
0.0001875435655
0.0002034607519
0.0002185190112
0.000230801959
0.0002380987331
0.0001728456248
0.0001814162357
0.0001938476637
0.000209408373
0.0002270904264
0.0002455229705
0.0002629220568
0.0002770919558
0.0002855066723
0.0002099736419
0.0002198643793
0.0002341859917
0.0002520731825
0.0002723485814
0.0002934322885
0.0003132912972
0.0003294397181
0.0003390118531
0.0002527228209
0.0002640021268
0.0002803060487
0.0003006239319
0.0003235978751
0.0003474296022
0.000369825117
0.0003879884611
0.0003987337827
0.0003014296468
0.0003141448347
0.000332492917
0.0003553081991
0.0003810438666
0.0004076668805
0.0004326082391
0.0004527810658
0.0004646907861
0.0003563598472
0.0003705353408
0.0003909566174
0.0004162947872
0.0004447929809
0.0004741791653
0.0005016229087
0.0005237581533
0.0005367992401
0.0004177013687
0.0004333368617
0.0004558177015
0.0004836369237
0.0005148318565
0.0005468963964
0.0005767481692
0.0006007590377
0.0006148755684
0.0004855351089
0.0005025888365
0.0005270612878
0.000557267516
0.0005910393723
0.0006256442673
0.0006577624587
0.0006835257927
0.0006986411778
0.0005598003852
0.0005782019216
0.0006045588326
0.0006370107228
0.0006731897114
0.00071014865
0.0007443494992
0.0007717103102
0.0007877301791
0.0006403212412
0.0006599740911
0.0006880724005
0.0007225863397
0.0007609584376
0.0008000431421
0.0008361070701
0.0008648839446
0.0008816994827
0.0007268114904
0.0007475962276
0.0007772615221
0.0008136176603
0.0008539316288
0.0008948793407
0.0009325581525
0.0009625492052
0.0009800407401
0.0008188829818
0.0008406610304
0.0008716930497
0.0009096422667
0.0009516175743
0.0009941392727
0.001033163841
0.001064152903
0.001082193552
0.0009160569688
0.000938674875
0.0009708536508
0.001010125136
0.001053460386
0.001097249324
0.001137337383
0.001169100139
0.001187559365
0.001017778011
0.001041071988
0.001074164293
0.001114473367
0.001158854827
0.001203595001
0.001244458722
0.001276768564
0.001295515494
0.001123429666
0.001147230186
0.001180995979
0.001222051802
0.001267161676
0.001312535884
0.001353888955
0.001386522349
0.001405428782
0.001232351171
0.001256487408
0.00129068601
0.001332198867
0.001377722989
0.001423420216
0.001464984209
0.001497725441
0.001516668447
0.00134385437
0.001368158313
0.001402554074
0.001444241988
0.001489876709
0.001535598613
0.001577108482
0.001609753671
0.001628617765
0.001457240187
0.001481550297
0.001515917591
0.001557512071
0.001602970152
0.001648436523
0.001689645131
0.001722005468
0.001740684312
0.001571814072
0.001595978388
0.001630105807
0.001671356612
0.001716372022
0.001761325123
0.001802006754
0.001833910943
0.001852308596
0.00168689994
0.001710778577
0.001744472263
0.001785151121
0.001829482685
0.001873690462
0.001913643323
0.001944939241
0.001962970973
0.001801852283
0.00182531929
0.001858405385
0.00189830865
0.001941742573
0.001985000763
0.002024048518
0.00205460415
0.002072196843
0.001916066201
0.001939010816
0.001971337045
0.002010287339
0.002052638653
0.002094771861
0.002132764281
0.002162467992
0.002179560193
0.002028985289
0.002051312595
0.00208274905
0.002120595969
0.002161709004
0.002202570863
0.002239383694
0.002268143932
0.002284685585
0.00214010735
0.002161738412
0.002192177613
0.002228797606
0.002268545607
0.002308018141
0.002343552309
0.002371296836
0.002387248772
0.002248988056
0.002269859601
0.002299215945
0.002334511481
0.002372795513
0.002410787849
0.002444968138
0.00247164288
0.002486976113
0.002355242699
0.002375306423
0.00240351512
0.002437413297
0.002474160585
0.002510607165
0.00254338048
0.002568948108
0.002583642985
0.002458546271
0.002477767846
0.002504783475
0.00253723419
0.002572396039
0.002607254459
0.002638587824
0.00266302614
0.002677071411
0.002558632105
0.002576989978
0.002602784759
0.002633758584
0.002667308016
0.002700556637
0.002730435009
0.002753735239
0.00276712707
0.002655289347
0.002672773403
0.002697335295
0.002726821167
0.002758750404
0.002790385841
0.002818809855
0.002840974904
0.002853715894
0.002748359532
0.002764969678
0.002788300396
0.002816303238
0.002846621124
0.002876655716
0.002903639443
0.002924682175
0.002936780388
0.002837732489
0.002853477235
0.002875590256
0.002902128602
0.002930858072
0.002959317412
0.002984886189
0.003004827779
0.003016295827
0.00292334183
0.002938236893
0.002959155526
0.002984259237
0.003011434883
0.00303835547
0.003062543851
0.003081412241
0.003092266427
0.003005160207
0.003019227192
0.003038982742
0.003062690849
0.003088356654
0.003113783712
0.003136633576
0.003154462062
0.003164721599
0.003083194509
0.003096459684
0.003115089764
0.003137448487
0.00316165574
0.003185641235
0.003207200083
0.003224026035
0.003233712346
0.003157481143
0.003169974324
0.003187521322
0.003208582288
0.003231387722
0.00325398859
0.00327430802
0.003290171761
0.003299307859
0.0032280815
0.003239835062
0.003256344783
0.003276163443
0.003297627595
0.00331890419
0.003338038578
0.003352982398
0.003361592352
0.003295077691
0.003306125705
0.003321646191
0.003340280452
0.003360466241
0.003380481001
0.003398486358
0.00341255368
0.003420662156
0.003358568608
0.0033689461
0.003383526616
0.003401035677
0.003420007202
0.003438823514
0.003455756535
0.003468991206
0.003476623082
0.003418666338
0.00342840867
0.00344209886
0.003458542236
0.003476363772
0.003494045041
0.003509962307
0.00352240802
0.003529588071
0.003475492959
0.003484635315
0.00349748451
0.003512921233
0.003529656416
0.003546265297
0.003561222637
0.003572922459
0.003579675098
0.003529177701
0.00353775468
0.003549811338
0.003564299324
0.003580010498
0.003595608295
0.003609660275
0.003620656273
0.003627005351
0.00357985448
0.003587899775
0.003599211047
0.003612806599
0.003627554312
0.003642200512
0.003655400046
0.003665733004
0.00367170165
0.003627659776
0.003635205931
0.003645817339
0.003658574775
0.003672417405
0.003686169328
0.003698567387
0.003708276593
0.003713887101
0.003672730835
0.003679809071
0.003689764269
0.003701735661
0.003714729146
0.003727641704
0.003739287114
0.003748410211
0.003753683957
0.003715204168
0.003721844267
0.003731184888
0.003742419881
0.003754617545
0.00376674308
0.003777682392
0.003786255287
0.003791212676
0.003755214327
0.003761444567
0.003770210133
0.003780755849
0.003792208302
0.003803596498
0.00381387391
0.003821930714
0.003826591152
0.003792892892
0.003798740029
0.003806967922
0.003816868923
0.003827624025
0.003838321875
0.003847979211
0.003855552226
0.003859934105
0.003828367824
0.003833857034
0.003841582475
0.003850880765
0.003860983634
0.003871035454
0.003880112175
0.003887231901
0.003891352608
0.003861762899
0.003866917802
0.003874173833
0.003882908864
0.003892401912
0.003901849384
0.003910382631
0.003917077802
0.003920953732
0.003893197201
0.003898039914
0.003904857472
0.003913066189
0.003921989187
0.003930871425
0.003938896081
0.003945193704
0.003948840286
0.0039227848
0.003927335996
0.003933744009
0.00394146096
0.003949851113
0.003958204748
0.00396575351
0.00397167893
0.00397511066
0.003950634569
0.003954913544
0.003960939017
0.003968196468
0.003976088527
0.003983947814
0.003991051289
0.003996628253
0.003999858727
0.003976850095
0.003980874834
0.00398654295
0.003993370998
0.004000797398
0.004008194332
0.004014881131
0.004020131861
0.004023173816
0.004001529671
0.004005316922
0.004010651139
0.004017077838
0.004024068829
0.004031033257
0.004037330102
0.004042275375
0.004045140734
0.00402476635
0.004028331697
0.004033353849
0.004039405325
0.004045989096
0.004052548852
0.004058480685
0.004063139912
0.004065839826
0.004046648046
0.004050005982
0.004054736383
0.004060436956
0.004066639761
0.004072820785
0.004078410874
0.004082802181
0.004085347074
0.004067257676
0.004070421674
0.004074879217
0.004080251514
0.004086097799
0.004091924265
0.00409719431
0.004101334615
0.004103734222
0.004086673318
0.004089655901
0.004093858154
0.004098923229
0.004104435757
0.004109930189
0.004114900417
0.004118805505
0.004121068919
0.004104968407
0.004107781215
0.004111744513
0.004116521954
0.004121721914
0.004126905294
0.004131594561
0.004135279156
0.004137414866
0.004122211934
0.004124865787
0.00412860532
0.00413311335
0.004138020467
0.00414291234
0.004147338222
0.00415081606
0.004152831992
0.004138468656
0.004140973612
0.004144503506
0.004148759082
0.004153391719
0.004158010292
0.004162189175
0.00416547307
0.004167376622
0.004153799305
0.004156164719
0.004159498116
0.004163517016
0.004167892273
0.00417225451
0.004176201669
0.004179303579
0.004181101658
0.004168260808
0.004170495381
0.004173644508
0.004177441423
0.004181575226
0.004185696937
0.004189426617
0.004192357695
0.00419405675
0.004181906491
0.004184018319
0.004186994561
0.00419058317
0.004194490357
0.004198386279
0.004201911766
0.004204682425
0.004206288477
0.004194786292
0.004196782913
0.004199596869
0.004202989917
0.004206684318
0.004210368195
0.004213701887
0.004216321841
0.004217840514
0.004206946955
0.004208835392
0.004211496937
0.004214706302
0.004218200812
0.004221685464
0.004224838929
0.004227317253
0.004228753799
0.00421843223
0.004220219025
0.004222737365
0.004225774122
0.004229080771
0.004232378161
0.0042353622
0.004237707367
0.004239066692
0.004229283056
0.004230974309
0.004233358029
0.004236232509
0.004239362521
0.004242483818
0.004245308519
0.004247528444
0.004248815136
0.004239537734
0.004241139137
0.004243396247
0.004246118093
0.004249081947
0.004252037581
0.004254712368
0.00425681445
0.004258032796
0.004249232104
0.004250748967
0.004252886945
0.004255465162
0.004258272646
0.004261072364
0.004263606044
0.004265597201
0.004266751211
0.004258399697
0.004259836981
0.004261862811
0.004264305809
0.004266966072
0.004269618983
0.004272019793
0.004273906493
0.004274999918
0.004267071888
0.004268434228
0.004270354437
0.00427267008
0.004275191673
0.004277706297
0.004279981941
0.004281770238
0.004282806587
0.004275278039
0.004276569768
0.00427839046
0.004280586101
0.004282977023
0.004285361331
0.004287519019
0.004289214578
0.004290197139
0.004283045632
0.004284270803
0.004285997687
0.004288080206
0.004290347945
0.004292609398
0.00429465588
0.004296264006
0.004297195856
0.004290400392
0.004291562799
0.00429320122
0.004295177058
0.004297328624
0.004299474209
0.004301415807
0.004302941471
0.004303825494
0.004297366406
0.004298469603
0.004300024565
0.004301899756
0.004303941715
0.00430597798
0.004307820617
0.004309268478
0.004310107377
0.004303966236
0.004305013549
0.004306489743
0.00430826994
0.004310208447
0.004312141527
0.00431389076
0.004315265184
0.004316061493
0.004310221012
0.004311215563
0.004312617385
0.004314307889
0.004316148714
0.004317984366
0.004319645402
0.004320950486
0.004321706582
0.004316150539
0.004317095253
0.004318426827
0.00432003261
0.004321781169
0.00432352479
0.004325102518
0.004326342106
0.004327060221
0.004321773377
0.004322671
0.004323936196
0.004325461926
0.004327123298
0.004328779958
0.004330278966
0.004331456666
0.004332138894
0.00432710693
0.00432796004
0.004329162492
0.004330612548
0.004332191507
0.004333765965
0.004335190562
0.004336309763
0.00433695807
0.004332167521
0.004332978539
0.00433412166
0.004335500159
0.004337001186
0.004338497913
0.004339852147
0.004340916035
0.00434153227
0.004336970463
0.004337741666
0.004338828662
0.004340139473
0.004341566781
0.004342989979
0.004344277657
0.004345289223
0.004345875124
0.004341530131
0.004342263656
0.004343297544
0.004344544304
0.004345901854
0.004347255476
0.004348480175
0.004349442235
0.004349999433
0.004345860017
0.004346557879
0.004347541495
0.004348727624
0.004350019143
0.004351306905
0.004352471991
0.004353387193
0.004353917227
0.004349972797
0.004350636888
0.004351572901
0.004352701619
0.004353930614
0.004355156015
0.004356264656
0.004357135491
0.004357639806
0.004353880377
0.00435451248
0.004355403403
0.004356477741
0.004357647513
0.004358813847
0.004359869026
0.00436069784
0.004361177798
0.004357593949
0.004358195742
0.004359043942
0.004360066755
0.004361180413
0.004362290783
0.004363295309
0.004364084312
0.004364541194
0.004361124034
0.0043616971
0.004362504807
0.004363478784
0.004364539259
0.004365596587
0.004366553107
0.00436730438
0.004367739395
0.004364480528
0.004365026359
0.004365795675
0.004366723352
0.004367733405
0.004368740446
0.004369651456
0.004370366962
0.004370781248
0.004367672744
0.004368192744
0.004368925651
0.004369809419
0.004370771655
0.004371731008
0.00437259886
0.004373280449
0.00437367508
0.004370709444
0.004371204941
0.004371903309
0.004372745423
0.004373662299
0.004374576415
0.004375403328
0.004376052746
0.004376428734
0.004373598881
0.004374071125
0.004374736719
0.004375539309
0.004376413142
0.004377284334
0.004378072402
0.004378691296
0.004379049597
0.004376348825
0.004376799
0.004377433485
0.004378198559
0.004379031539
0.00437986199
0.004380613191
0.004381203115
0.004381544631
0.004378966601
0.004379395822
0.004380000772
0.004380730227
0.004381524421
0.004382316193
0.004383032393
0.004383594816
0.004383920398
0.00438145911
0.004381868431
0.004382445332
0.004383140961
0.004383898321
0.004384653363
0.004385336326
0.004385872634
0.004386183086
0.004383832859
0.004384223276
0.004384773533
0.004385437031
0.004386159402
0.004386879554
0.004387530946
0.004388042449
0.004388338532
0.004386093986
0.004386466442
0.004386991382
0.004387624349
0.004388313476
0.004389000478
0.004389621874
0.004390109811
0.004390392242
0.004388248281
0.004388603665
0.004389104544
0.004389708495
0.004390366027
0.004391021523
0.004391614413
0.004392079954
0.004392349413
0.004390301206
0.004390640363
0.004391118367
0.004391694735
0.00439232223
0.004392947777
0.004393513568
0.004393957821
0.004394214949
0.00439225792
0.004392581644
0.004393037898
0.004393588036
0.004394186972
0.00439478404
0.004395324065
0.004395748077
0.004395993481
0.004394123289
0.004394432335
0.004394867901
0.004395393092
0.004395964863
0.004396534845
0.004397050364
0.004397455124
0.004397689378
0.004395901909
0.004396196991
0.004396612874
0.00439711433
0.004397660256
0.00439820447
0.004398696673
0.004399083119
0.004399306765
0.004397598117
0.00439787991
0.004398277062
0.00439875593
0.004399277261
0.004399796951
0.004400266967
0.004400635983
0.004400849536
0.004399216009
0.004399485151
0.004399864471
0.004400321836
0.004400819754
0.004401316098
0.004401764991
0.004402117415
0.004402321359
0.004400759446
0.004401016541
0.004401378881
0.004401815769
0.00440229139
0.0044027655
0.004403194278
0.004403530901
0.004403725694
0.004402232072
0.00440247769
0.004402823854
0.004403241234
0.004403695613
0.004404148541
0.004404558153
0.004404879722
0.004405065796
0.004403637318
0.004403871998
0.004404202745
0.004404601532
0.004405035663
0.0044054684
0.004405859744
0.00440616696
0.004406344724
0.004404978413
0.004405202664
0.004405518709
0.004405899765
0.004406314585
0.004406728066
0.004407101984
0.00440739551
0.004407565345
0.004406258392
0.004406472691
0.004406774707
0.004407138843
0.004407535235
0.004407930335
0.004408287619
0.004408568077
0.004408730343
0.004407480099
0.004407684896
0.004407973516
0.004408321491
0.004408700281
0.004409077822
0.004409419214
0.004409687184
0.004409842217
0.004408646197
0.004408841911
0.004409117725
0.004409450252
0.004409812211
0.004410172961
0.004410499153
0.004410755176
0.004410903288
0.004409759165
0.004409946189
0.004410209748
0.004410527488
0.004410873335
0.004411218007
0.00441152964
0.004411774219
0.004411915699
0.00441082131
0.004411000007
0.004411251822
0.004411555389
0.004411885789
0.004412215041
0.004412512707
0.004412746304
0.00441288142
0.004411834762
0.004412005467
0.00441224601
0.004412535969
0.004412851533
0.00441316597
0.004413450213
0.004413673251
0.004413802246
0.004412801484
0.004412964505
0.004413194207
0.004413471075
0.004413772359
0.004414072533
0.004414343846
0.004414556709
0.004414679803
0.00441372327
0.004413878887
0.004414098139
0.004414362383
0.004414649894
0.004414936301
0.004415195128
0.004415398161
0.004415515552
0.004414601754
0.004414750218
0.004414959372
0.004415211413
0.004415485601
0.004415758685
0.004416005421
0.00441619893
0.004416310793
0.004415438408
0.004415579943
0.004415779312
0.004416019522
0.004416280786
0.004416540938
0.004416775931
0.004416960184
0.004417066672
0.004416234553
0.004416369356
0.004416559214
0.00441678792
0.004417036609
0.004417284169
0.004417507719
0.004417682949
0.004417784194
0.004416991364
0.004417119606
0.004417300191
0.004417517673
0.004417754086
0.004417989345
0.004418201711
0.004418368114
0.004418464228
0.004417709879
0.004417831706
0.00441800322
0.004418209717
0.004418434108
0.004418657312
0.00441885871
0.004419016453
0.004419107529
0.004418391009
0.004418506543
0.004418669156
0.004418864867
0.004419077447
0.004419288802
0.004419479414
0.004419628633
0.00441971475
0.00441903555
0.004419144892
0.004419298744
0.004419483835
0.004419684781
0.004419884459
0.004420064433
0.004420205243
0.004420286463
0.004419644197
0.004419747432
0.004419892639
0.004420067249
0.00442025671
0.004420444852
0.004420614313
0.004420746807
0.004420823183
0.004420217568
0.004420314766
0.004420451429
0.004420615677
0.004420793776
0.004420970503
0.004421129555
0.004421253814
0.004421325393
0.004420756223
0.004420847448
0.004420975655
0.004421129642
0.004421296488
0.004421461907
0.004421610646
0.004421726744
0.004421793568
0.004421260693
0.004421346001
0.004421465829
0.004421609651
0.004421765347
0.004421919561
0.004422058083
0.004422166095
0.004422228211
0.00442173149
0.004421810937
0.004421922465
0.004422056218
0.004422200873
0.004422343993
0.004422472401
0.004422572414
0.004422629872
0.004422169141
0.004422242786
0.004422346102
0.004422469895
0.004422603632
0.004422735788
0.004422854206
0.004422946324
0.004422999189
0.004422574208
0.004422642123
0.004422737331
0.004422851295
0.004422974266
0.004423095619
0.004423204203
0.004423288556
0.004423336908
0.004422947319
0.004423009592
0.004423096821
0.004423201121
0.004423313516
0.004423424269
0.004423523217
0.004423599971
0.004423643911
0.004423289195
0.004423345937
0.00442342535
0.004423520192
0.00442362225
0.00442372266
0.00442381222
0.004423881583
0.004423921239