/*--------------------------------*- C++ -*----------------------------------*\
| =========                 |                                                 |
| \\      /  F ield         | OpenFOAM: The Open Source CFD Toolbox           |
|  \\    /   O peration     | Version:  2212                                  |
|   \\  /    A nd           | Website:  www.openfoam.com                      |
|    \\/     M anipulation  |                                                 |
\*---------------------------------------------------------------------------*/
FoamFile
{
    version     2.0;
    format      ascii;
    arch        "LSB;label=32;scalar=64";
    class       volScalarField;
    location    "30.00000000";
    object      CH3CO;
}
// * * * * * * * * * * * * * * * * * * * * * * * * * * * * * * * * * * * * * //

dimensions      [0 0 0 0 0 0 0];

internalField   nonuniform List<scalar> 
3000
(
9.258973061e-45
1.176619022e-44
1.611946004e-44
2.301524919e-44
3.338332424e-44
4.825928653e-44
6.83585155e-44
9.285303156e-44
1.15983793e-43
9.578214593e-44
1.226869972e-43
1.697400759e-43
2.451181605e-43
3.604996122e-43
5.311839388e-43
7.743145006e-43
1.097759233e-42
1.442720096e-42
4.574395623e-43
5.96063959e-43
8.436640941e-43
1.252505565e-42
1.903253357e-42
2.910522264e-42
4.407684609e-42
6.443611454e-42
8.525544171e-42
1.644746118e-42
2.191808491e-42
3.196919961e-42
4.91922445e-42
7.777269183e-42
1.237653602e-41
1.938528532e-41
2.884831477e-41
3.795698291e-41
5.199114598e-42
7.108989715e-42
1.072648168e-41
1.715530322e-41
2.821994566e-41
4.654598299e-41
7.477294364e-41
1.121324432e-40
1.462730554e-40
1.547233652e-41
2.172085322e-41
3.390201836e-41
5.625358764e-41
9.585890844e-41
1.62763365e-40
2.662449142e-40
4.010283519e-40
5.20013717e-40
4.492277178e-41
6.466003202e-41
1.04098961e-40
1.783252641e-40
3.125297605e-40
5.414109169e-40
8.936108607e-40
1.342686371e-39
1.725239694e-39
1.295793773e-40
1.906980071e-40
3.153005883e-40
5.543833643e-40
9.926611339e-40
1.743592687e-39
2.891944595e-39
4.332527527e-39
5.529887015e-39
3.746953514e-40
5.618852811e-40
9.495324467e-40
1.704024023e-39
3.100015343e-39
5.496777747e-39
9.141730389e-39
1.36608887e-38
1.735308735e-38
1.090165624e-39
1.659907361e-39
2.853818178e-39
5.201543247e-39
9.571922682e-39
1.70800655e-38
2.844527792e-38
4.241521616e-38
5.36858982e-38
3.194388652e-39
4.922387227e-39
8.575022073e-39
1.580923745e-38
2.932743836e-38
5.254584061e-38
8.755640523e-38
1.303154287e-37
1.644896781e-37
9.423271478e-39
1.465409894e-38
2.577961481e-38
4.79204531e-38
8.938359152e-38
1.605415348e-37
2.674868412e-37
3.97470876e-37
5.006403511e-37
2.79620142e-38
4.378326031e-38
7.757861691e-38
1.45040184e-37
2.714888281e-37
4.881907659e-37
8.128535579e-37
1.205977862e-36
1.516782296e-36
8.338326987e-38
1.312394578e-37
2.337707763e-37
4.388211359e-37
8.231331667e-37
1.480254693e-36
2.460763623e-36
3.643395551e-36
4.581836347e-36
2.496364532e-37
3.944948202e-37
7.055805943e-37
1.328588481e-36
2.495779107e-36
4.485229025e-36
7.432250699e-36
1.094734204e-35
1.382967516e-35
7.494761033e-37
1.188266495e-36
2.132752437e-36
4.028070877e-36
7.582894326e-36
1.363440005e-35
2.250534162e-35
3.247543213e-35
4.194435216e-35
2.253287408e-36
3.581726663e-36
6.447545103e-36
1.221501231e-35
2.308289093e-35
4.177470112e-35
6.996387289e-35
1.048917798e-34
1.299177512e-34
6.774642039e-36
1.078621044e-35
1.944777239e-35
3.688643663e-35
6.972757077e-35
1.26047326e-34
2.101770087e-34
3.112156913e-34
3.895320843e-34
2.035494586e-35
3.243652822e-35
5.852415338e-35
1.110211118e-34
2.097539749e-34
3.786727422e-34
6.30157369e-34
9.314837463e-34
1.166833065e-33
6.110832135e-35
9.74204075e-35
1.758108355e-34
3.334557261e-34
6.296108406e-34
1.135527106e-33
1.887524488e-33
2.787955453e-33
3.495496359e-33
1.833105353e-34
2.922838534e-34
5.274474889e-34
1.000026997e-33
1.886876968e-33
3.399839102e-33
5.645514094e-33
8.332186927e-33
1.045998545e-32
5.494422057e-34
8.760305611e-34
1.580419611e-33
2.994655108e-33
5.645236295e-33
1.015987912e-32
1.684866968e-32
2.483551675e-32
3.114888225e-32
1.64526768e-33
2.622555975e-33
4.728662122e-33
8.951839623e-33
1.685328211e-32
3.028242896e-32
5.012877197e-32
7.376134513e-32
9.238596498e-32
4.920280408e-33
7.839016122e-33
1.412147698e-32
2.669641086e-32
5.016671445e-32
8.993574724e-32
1.485000294e-31
2.179598044e-31
2.724527509e-31
1.468795031e-32
2.338187376e-32
4.206272238e-32
7.935874119e-32
1.487322765e-31
2.657818798e-31
4.372829064e-31
6.395209327e-31
7.971009454e-31
4.373598377e-32
6.953865187e-32
1.248457143e-31
2.348713994e-31
4.385574876e-31
7.80188084e-31
1.27720818e-30
1.858487745e-30
2.306827817e-30
1.297785626e-31
2.059824715e-31
3.687697909e-31
6.910247297e-31
1.28372568e-30
2.269744617e-30
3.690246914e-30
5.332389624e-30
6.580333366e-30
3.832722475e-31
6.068488645e-31
1.082263096e-30
2.017169808e-30
3.721634619e-30
6.526121985e-30
1.051295927e-29
1.504873888e-29
1.842353763e-29
1.124762367e-30
1.775038865e-30
3.14934828e-30
5.828252843e-30
1.065581104e-29
1.848401303e-29
2.941731542e-29
4.159066602e-29
5.038381641e-29
3.273469521e-30
5.143595682e-30
9.064450146e-30
1.662015359e-29
3.00320287e-29
5.137286252e-29
8.049974894e-29
1.120194273e-28
1.33875719e-28
9.425758595e-30
1.472726833e-29
2.57285849e-29
4.662027658e-29
8.299815954e-29
1.395068244e-28
2.143978215e-28
2.925014249e-28
3.437149973e-28
2.677702805e-29
4.153766419e-29
7.177313358e-29
1.281438911e-28
2.23968924e-28
3.684230491e-28
5.529501918e-28
7.365186704e-28
8.479942601e-28
7.480534542e-29
1.150005851e-28
1.960222317e-28
3.436890871e-28
5.874137622e-28
9.415782067e-28
1.373960874e-27
1.779161083e-27
2.000157971e-27
2.047524058e-28
3.113072466e-28
5.219212335e-28
8.953695817e-28
1.490228029e-27
2.317303939e-27
3.273100905e-27
4.10380267e-27
4.490737389e-27
5.468756271e-28
8.204463346e-28
1.348633602e-27
2.255037212e-27
3.639352312e-27
5.466139305e-27
7.442740573e-27
9.003535496e-27
9.566074527e-27
1.419114046e-27
2.095631837e-27
3.366192511e-27
5.464694509e-27
8.516527173e-27
1.230596884e-26
1.609654712e-26
1.873665103e-26
1.929698557e-26
3.561561663e-27
5.163791908e-27
8.078237774e-27
1.268466042e-26
1.901847159e-26
2.635026381e-26
3.302613458e-26
3.69316707e-26
3.68492558e-26
8.605397036e-27
1.221880251e-26
1.855694635e-26
2.808869039e-26
4.039107074e-26
5.353288726e-26
6.420253366e-26
6.895056228e-26
6.669130379e-26
1.992948034e-26
2.764648165e-26
4.064389166e-26
5.913842586e-26
8.138213169e-26
1.03054979e-25
1.182616274e-25
1.221033907e-25
1.146933694e-25
4.406385412e-26
5.959160084e-26
8.460327615e-26
1.180994533e-25
1.55358913e-25
1.879857491e-25
2.066924174e-25
2.056476224e-25
1.881224677e-25
9.270383596e-26
1.220122784e-25
1.66998641e-25
2.234152063e-25
2.809766022e-25
3.253238129e-25
3.436112654e-25
3.305765717e-25
2.955742396e-25
1.851580277e-25
2.368727486e-25
3.12270506e-25
4.003725172e-25
4.819808751e-25
5.353424106e-25
5.451118003e-25
5.092240496e-25
4.468392016e-25
3.507446605e-25
4.35856207e-25
5.533727227e-25
6.806018084e-25
7.859893336e-25
8.402594791e-25
8.28218753e-25
7.545876651e-25
6.525087319e-25
6.305607316e-25
7.610847252e-25
9.312151037e-25
1.100545708e-24
1.222621602e-24
1.262496293e-24
1.209360286e-24
1.078937112e-24
9.227081e-25
1.078596705e-24
1.26518688e-24
1.493773445e-24
1.700120089e-24
1.822090305e-24
1.823057426e-24
1.702116149e-24
1.490765888e-24
1.263600692e-24
1.763527818e-24
2.01265403e-24
2.297381693e-24
2.524211837e-24
2.616436533e-24
2.541329522e-24
2.314394934e-24
1.98894508e-24
1.669448503e-24
2.774082229e-24
3.085997157e-24
3.414157027e-24
3.631032504e-24
3.647258562e-24
3.439832108e-24
3.047862285e-24
2.555488314e-24
2.109871368e-24
4.231123804e-24
4.60015556e-24
4.949287408e-24
5.11160259e-24
4.98552705e-24
4.561878657e-24
3.911017317e-24
3.162672034e-24
2.531842221e-24
6.306622827e-24
6.725019135e-24
7.067936607e-24
7.12104746e-24
6.767403258e-24
6.01406428e-24
4.975818664e-24
3.859575811e-24
2.991507336e-24
9.242559066e-24
9.707933176e-24
1.002250633e-23
9.912309151e-24
9.240210593e-24
8.044030474e-24
6.541022545e-24
5.134149164e-24
4.447027183e-24
1.335234415e-23
1.387794452e-23
1.416225245e-23
1.385842141e-23
1.282297365e-23
1.122321696e-23
9.670313617e-24
9.088654922e-24
8.745468024e-24
1.897690609e-23
1.961014343e-23
1.992354547e-23
1.951981144e-23
1.840763001e-23
1.745406157e-23
1.820675903e-23
1.936872724e-23
1.994459843e-23
2.637992009e-23
2.727288568e-23
2.793710354e-23
2.821514819e-23
2.930036383e-23
3.353609971e-23
3.94493583e-23
4.524421275e-23
4.872766009e-23
3.576655194e-23
3.752902983e-23
4.017920244e-23
4.564739411e-23
5.649328669e-23
7.208050159e-23
9.081415132e-23
1.0917978e-22
1.212088499e-22
4.884022408e-23
5.426436015e-23
6.72520806e-23
8.847623768e-23
1.198537458e-22
1.618333516e-22
2.118378699e-22
2.613228411e-22
2.943775121e-22
7.955619182e-23
9.904921353e-23
1.334498117e-22
1.869520571e-22
2.64016235e-22
3.662512987e-22
4.866187442e-22
6.023770173e-22
6.763465405e-22
1.57908835e-22
2.046461431e-22
2.851056615e-22
4.095168928e-22
5.874811175e-22
8.190644368e-22
1.080153978e-21
1.31356156e-21
1.448434469e-21
3.424195502e-22
4.48339796e-22
6.300516915e-22
9.086791224e-22
1.298321387e-21
1.782527025e-21
2.289062717e-21
2.698026278e-21
2.906908601e-21
7.751123268e-22
1.010446562e-21
1.409288318e-21
2.005508809e-21
2.802390837e-21
3.726905949e-21
4.612897806e-21
5.266953796e-21
5.580841832e-21
1.782184788e-21
2.287293244e-21
3.121215783e-21
4.31562246e-21
5.817817815e-21
7.438242081e-21
8.894151715e-21
9.950192881e-21
1.050851522e-20
4.042969417e-21
5.063759548e-21
6.689061224e-21
8.901699459e-21
1.152723741e-20
1.422942039e-20
1.664937138e-20
1.856212193e-20
1.982306692e-20
8.798736109e-21
1.071028853e-20
1.364554085e-20
1.747806045e-20
2.188440812e-20
2.643144877e-20
3.077802859e-20
3.47640129e-20
3.798324706e-20
1.8049746e-20
2.139270274e-20
2.640877057e-20
3.285250068e-20
4.031644955e-20
4.840494148e-20
5.696798996e-20
6.601214191e-20
7.429078287e-20
3.485452758e-20
4.049718201e-20
4.893943612e-20
5.991148879e-20
7.310717036e-20
8.846213545e-20
1.064262513e-19
1.273810313e-19
1.477925046e-19
6.411290623e-20
7.365148403e-20
8.811141192e-20
1.074566512e-19
1.319176698e-19
1.624596939e-19
2.010439927e-19
2.487259468e-19
2.963092705e-19
1.141466489e-19
1.306130414e-19
1.561045901e-19
1.914201766e-19
2.383312624e-19
3.003656943e-19
3.82761757e-19
4.874194339e-19
5.921602457e-19
1.993093626e-19
2.283951477e-19
2.744666313e-19
3.404824134e-19
4.318969165e-19
5.57802861e-19
7.297417879e-19
9.498330674e-19
1.168091258e-18
3.442657425e-19
3.965036671e-19
4.810500285e-19
6.057352858e-19
7.838456807e-19
1.035420088e-18
1.38291775e-18
1.825716852e-18
2.257848681e-18
5.911741396e-19
6.857645838e-19
8.416618128e-19
1.076704298e-18
1.419476018e-18
1.909849249e-18
2.587389786e-18
3.440452219e-18
4.256556934e-18
1.011656282e-18
1.182866023e-18
1.468964052e-18
1.906881602e-18
2.553027939e-18
3.480735951e-18
4.753697372e-18
6.330501804e-18
7.806238354e-18
1.726213565e-18
2.033609895e-18
2.552075958e-18
3.352709498e-18
4.539476622e-18
6.238633121e-18
8.543881644e-18
1.13468421e-17
1.391102484e-17
2.934887569e-18
3.478909844e-18
4.401210259e-18
5.830607443e-18
7.947900336e-18
1.095815172e-17
1.498611772e-17
1.978935025e-17
2.408440184e-17
4.964153475e-18
5.908650791e-18
7.51250908e-18
9.997010683e-18
1.366076666e-17
1.881953775e-17
2.561942212e-17
3.35718685e-17
4.052699281e-17
8.336272585e-18
9.939528227e-18
1.265884009e-17
1.685636341e-17
2.300259153e-17
3.155986861e-17
4.266675204e-17
5.541334633e-17
6.632833218e-17
1.386822874e-17
1.652357175e-17
2.101240172e-17
2.790140646e-17
3.789996101e-17
5.165262191e-17
6.923136901e-17
8.904608529e-17
1.05681022e-16
2.280736566e-17
2.709368421e-17
3.430409139e-17
4.528859381e-17
6.107281286e-17
8.251185544e-17
1.095086714e-16
1.394294992e-16
1.640930043e-16
3.70091332e-17
4.375044795e-17
5.502206289e-17
7.204858954e-17
9.62539845e-17
1.287150112e-16
1.690051852e-16
2.129604798e-16
2.485915864e-16
5.915820606e-17
6.949000607e-17
8.664720242e-17
1.123271689e-16
1.484301846e-16
1.962364297e-16
2.547577381e-16
3.176758314e-16
3.679063294e-16
9.302755388e-17
1.084660453e-16
1.339165948e-16
1.716459405e-16
2.240937742e-16
2.926849294e-16
3.755600643e-16
4.634828715e-16
5.327743407e-16
1.437620054e-16
1.662711816e-16
2.030990264e-16
2.571667214e-16
3.314920272e-16
4.275379791e-16
5.421988328e-16
6.625027063e-16
7.564360069e-16
2.18166506e-16
2.502179832e-16
3.0226346e-16
3.779428912e-16
4.80852682e-16
6.123614264e-16
7.677177782e-16
9.291407347e-16
1.053459185e-15
3.249800852e-16
3.696049739e-16
4.415324309e-16
5.451586704e-16
6.846568612e-16
8.611609443e-16
1.06752114e-15
1.279024856e-15
1.439991774e-15
4.751329991e-16
5.359601476e-16
6.333346459e-16
7.724369217e-16
9.580549338e-16
1.190283841e-15
1.458098657e-15
1.729268504e-15
1.933445824e-15
6.820428494e-16
7.633941143e-16
8.928502773e-16
1.076397615e-15
1.318340642e-15
1.617084333e-15
1.957373252e-15
2.298044765e-15
2.552010292e-15
9.622932583e-16
1.069360827e-15
1.238344155e-15
1.475194786e-15
1.78379451e-15
2.160306946e-15
2.584202325e-15
3.004009795e-15
3.314025537e-15
1.335169961e-15
1.472912574e-15
1.68866288e-15
1.988110189e-15
2.374030029e-15
2.839528716e-15
3.357738464e-15
3.865604984e-15
4.237254168e-15
1.820519133e-15
1.994182786e-15
2.264261774e-15
2.635683532e-15
3.109376146e-15
3.674463432e-15
4.296677256e-15
4.90027349e-15
5.338087789e-15
2.439869896e-15
2.654720443e-15
2.986583859e-15
3.438969413e-15
4.010108723e-15
4.684154933e-15
5.418429403e-15
6.123633678e-15
6.6307343e-15
3.215642913e-15
3.476683122e-15
3.877262581e-15
4.418698007e-15
5.095587075e-15
5.88610552e-15
6.738264068e-15
7.548657664e-15
8.126433847e-15
4.170266531e-15
4.481939724e-15
4.957214761e-15
5.594355745e-15
6.383338903e-15
7.295388639e-15
8.268474187e-15
9.184904982e-15
9.832751692e-15
5.325201639e-15
5.691092504e-15
6.245666918e-15
6.98322883e-15
7.888143333e-15
8.923798002e-15
1.001761496e-14
1.103785962e-14
1.175299293e-14
6.699909554e-15
7.122458368e-15
7.759164721e-15
8.599462103e-15
9.621165767e-15
1.077908526e-14
1.198986366e-14
1.310841319e-14
1.388577719e-14
8.310814833e-15
8.791063516e-15
9.510621995e-15
1.045318925e-14
1.158919782e-14
1.286433441e-14
1.418454192e-14
1.53925279e-14
1.622480138e-14
1.017032313e-14
1.07077111e-14
1.150846729e-14
1.254978863e-14
1.379405059e-14
1.517751312e-14
1.659583158e-14
1.788110166e-14
1.875880636e-14
1.228595532e-14
1.287818057e-14
1.375594233e-14
1.488931249e-14
1.623214038e-14
1.771122986e-14
1.921270215e-14
2.056004373e-14
2.147174986e-14
1.465965389e-14
1.530261068e-14
1.625059807e-14
1.74661267e-14
1.889429359e-14
2.045271231e-14
2.201905454e-14
2.341055601e-14
2.434317442e-14
1.728730765e-14
1.797510699e-14
1.898402134e-14
2.026878437e-14
2.176578328e-14
2.338400811e-14
2.499407116e-14
2.640960194e-14
2.734874753e-14
2.015852632e-14
2.088359987e-14
2.194181032e-14
2.328014177e-14
2.482659488e-14
2.648239501e-14
2.811275076e-14
2.953053416e-14
3.046094114e-14
2.325668052e-14
2.400996285e-14
2.510380069e-14
2.647770922e-14
2.805190467e-14
2.972097532e-14
3.134659567e-14
3.27438442e-14
3.364981153e-14
2.655920524e-14
2.733038435e-14
2.844452876e-14
2.983421573e-14
3.141274217e-14
3.306941991e-14
3.466441253e-14
3.601799274e-14
3.688383753e-14
3.003814855e-14
3.081597054e-14
3.193390398e-14
3.331835432e-14
3.487679865e-14
3.649482033e-14
3.803318351e-14
3.932027781e-14
4.013077511e-14
3.366093318e-14
3.443354385e-14
3.553805209e-14
3.689566589e-14
3.840933766e-14
3.996260467e-14
4.14189648e-14
4.261769969e-14
4.335848967e-14
3.73912872e-14
3.814659226e-14
3.922028235e-14
4.052951472e-14
4.197416113e-14
4.343747271e-14
4.478777139e-14
4.587778593e-14
4.653573224e-14
4.119029296e-14
4.191631819e-14
4.294212838e-14
4.418210647e-14
4.553458493e-14
4.688430881e-14
4.810641197e-14
4.906934541e-14
4.96328329e-14
4.501749979e-14
4.570273383e-14
4.666441169e-14
4.781550139e-14
4.905438157e-14
5.026903593e-14
5.134324384e-14
5.216312775e-14
5.262229168e-14
4.883204637e-14
4.946575112e-14
5.034827964e-14
5.139257949e-14
5.249865287e-14
5.355938103e-14
5.446882531e-14
5.513237158e-14
5.547925486e-14
5.25937424e-14
5.316621898e-14
5.39561752e-14
5.487792105e-14
5.583460304e-14
5.672552941e-14
5.745645017e-14
5.795323265e-14
5.81818715e-14
5.626406569e-14
5.676686766e-14
5.745270323e-14
5.823857329e-14
5.90321902e-14
5.974065331e-14
6.028255647e-14
6.060508928e-14
6.071153111e-14
5.980703933e-14
6.023312811e-14
6.080536659e-14
6.144468316e-14
6.206464257e-14
6.25813077e-14
6.292700827e-14
6.307072839e-14
6.305298833e-14
6.318996281e-14
6.353380431e-14
6.398515482e-14
6.446998411e-14
6.490883373e-14
6.522769307e-14
6.53732547e-14
6.533642011e-14
6.519438476e-14
6.638398153e-14
6.664158563e-14
6.696697659e-14
6.72921335e-14
6.754551789e-14
6.766379056e-14
6.760837558e-14
6.739189227e-14
6.712718032e-14
6.936448809e-14
6.95333957e-14
6.972993614e-14
6.989290416e-14
6.995943257e-14
6.987737995e-14
6.962302582e-14
6.923021861e-14
6.884600849e-14
7.211135812e-14
7.21905821e-14
7.225746036e-14
7.225823972e-14
7.213928081e-14
7.185995414e-14
7.141129355e-14
7.084763587e-14
7.034847065e-14
7.460903031e-14
7.459895835e-14
7.453728962e-14
7.43781882e-14
7.407760811e-14
7.360654623e-14
7.297048789e-14
7.2243305e-14
7.163488409e-14
7.684644641e-14
7.67487142e-14
7.656134929e-14
7.624673135e-14
7.57705921e-14
7.511548628e-14
7.430087269e-14
7.3419032e-14
7.270799815e-14
7.88168711e-14
7.863421442e-14
7.83255217e-14
7.786152917e-14
7.721776326e-14
7.638810529e-14
7.540536189e-14
7.437896217e-14
7.357269143e-14
8.05176136e-14
8.025370773e-14
7.982933989e-14
7.922359971e-14
7.842167536e-14
7.742840293e-14
7.628919141e-14
7.512926091e-14
7.423566143e-14
8.194967451e-14
8.160896824e-14
8.10756241e-14
8.033695359e-14
7.938754322e-14
7.824269445e-14
7.695958054e-14
7.567779203e-14
7.470511659e-14
8.311734011e-14
8.270489098e-14
8.207008107e-14
8.120820153e-14
8.012286367e-14
7.883925039e-14
7.742539415e-14
7.603380293e-14
7.49904786e-14
8.402774505e-14
8.35490612e-14
8.282088456e-14
8.1846151e-14
8.063703372e-14
7.92279408e-14
7.769681528e-14
7.620762413e-14
7.510210128e-14
8.469042111e-14
8.41513144e-14
8.333825223e-14
8.226140574e-14
8.094097757e-14
7.941989313e-14
7.778503518e-14
7.621038892e-14
7.50510107e-14
8.511684376e-14
8.452329901e-14
8.363403099e-14
8.246597881e-14
8.104679139e-14
7.942717129e-14
7.770196652e-14
7.60537769e-14
7.484866955e-14
8.531997368e-14
8.467804418e-14
8.372129619e-14
8.247292581e-14
8.096741241e-14
7.926248112e-14
7.745998383e-14
7.574978471e-14
7.450676783e-14
8.531375145e-14
8.462951273e-14
8.361396023e-14
8.229599911e-14
8.071631331e-14
7.893890243e-14
7.707169042e-14
7.531052266e-14
7.403703927e-14
8.511241349e-14
8.439207449e-14
8.332638382e-14
8.194932914e-14
8.030723018e-14
7.846965493e-14
7.654971725e-14
7.474804074e-14
7.345110483e-14
8.473146199e-14
8.398054923e-14
8.287304767e-14
8.144715551e-14
7.975392992e-14
7.786789784e-14
7.590655202e-14
7.407418211e-14
7.276034194e-14
8.41868607e-14
8.341064963e-14
8.226879298e-14
8.080367187e-14
7.907003476e-14
7.714656863e-14
7.515439921e-14
7.330046315e-14
7.197577782e-14
8.349428618e-14
8.269776387e-14
8.15286163e-14
8.003282934e-14
7.826887064e-14
7.631825069e-14
7.430506692e-14
7.243797757e-14
7.110800515e-14
8.266899702e-14
8.18568375e-14
8.066701802e-14
7.914863203e-14
7.736337635e-14
7.539507142e-14
7.336987862e-14
7.149732269e-14
7.016711795e-14
8.172570915e-14
8.090224577e-14
7.969787495e-14
7.816430623e-14
7.636589155e-14
7.438860366e-14
7.235960441e-14
7.048854517e-14
6.916266552e-14
8.067849782e-14
7.984771363e-14
7.863440918e-14
7.709245743e-14
7.528836458e-14
7.33098624e-14
7.128442395e-14
6.942110523e-14
6.810362174e-14
7.954071712e-14
7.870624137e-14
7.748911402e-14
7.594495354e-14
7.414196322e-14
7.216916112e-14
7.015386431e-14
6.830384422e-14
6.699836386e-14
7.832494051e-14
7.749005093e-14
7.627370636e-14
7.473288169e-14
7.2937046e-14
7.097604064e-14
6.897677206e-14
6.714497286e-14
6.585466693e-14
7.70429237e-14
7.621055638e-14
7.499911166e-14
7.346656358e-14
7.168325037e-14
6.973940377e-14
6.776136177e-14
6.595209069e-14
6.467971532e-14
7.570558536e-14
7.487834987e-14
7.367545856e-14
7.215556419e-14
7.038952627e-14
6.846761319e-14
6.651523982e-14
6.473219808e-14
6.348011437e-14
7.432300379e-14
7.350320003e-14
7.23120756e-14
7.080867396e-14
6.906406487e-14
6.716823398e-14
6.524534546e-14
6.349169084e-14
6.226189871e-14
7.290442439e-14
7.209406044e-14
7.091750192e-14
6.943392529e-14
6.771433296e-14
6.584814434e-14
6.395798693e-14
6.223638304e-14
6.10305534e-14
7.145827954e-14
7.065909117e-14
6.949951126e-14
6.803862017e-14
6.634710694e-14
6.451357608e-14
6.265887316e-14
6.097153463e-14
5.979103997e-14
6.99922175e-14
6.920568855e-14
6.806514301e-14
6.662936266e-14
6.496850658e-14
6.317014688e-14
6.135313564e-14
5.970187931e-14
5.854782485e-14
6.851313781e-14
6.774052094e-14
6.662073849e-14
6.521209634e-14
6.358403474e-14
6.182290603e-14
6.004539177e-14
5.843166622e-14
5.73049138e-14
6.702723114e-14
6.626956833e-14
6.517198024e-14
6.379214306e-14
6.21986155e-14
6.047637118e-14
5.873977439e-14
5.716469235e-14
5.606588285e-14
6.554002173e-14
6.479816414e-14
6.372393259e-14
6.23742413e-14
6.081662828e-14
5.913455369e-14
5.743994232e-14
5.590432369e-14
5.483390327e-14
6.405641161e-14
6.333103849e-14
6.22810837e-14
6.09625871e-14
5.944194889e-14
5.780100524e-14
5.614914668e-14
5.4653537e-14
5.3611775e-14
6.258072511e-14
6.187236175e-14
6.084738753e-14
5.956087382e-14
5.807798655e-14
5.647885076e-14
5.487025739e-14
5.341494754e-14
5.240195417e-14
6.111675308e-14
6.042578745e-14
5.942630466e-14
5.817232964e-14
5.672771497e-14
5.517080478e-14
5.360574051e-14
5.21908215e-14
5.120657401e-14
5.966779626e-14
5.899449447e-14
5.802084292e-14
5.679975655e-14
5.539371098e-14
5.387921584e-14
5.235773027e-14
5.09831154e-14
5.002747546e-14
5.823670717e-14
5.75812278e-14
5.663359658e-14
5.544556772e-14
5.407819031e-14
5.260610025e-14
5.112805699e-14
4.97935049e-14
4.886623422e-14
5.68259302e-14
5.618833757e-14
5.526678372e-14
5.411182299e-14
5.278304066e-14
5.13531726e-14
4.991827447e-14
4.862341058e-14
4.772418517e-14
5.543753961e-14
5.48178158e-14
5.392228148e-14
5.280026201e-14
5.150985269e-14
5.012187423e-14
4.872968594e-14
4.747402189e-14
4.660244496e-14
5.407327516e-14
5.347133108e-14
5.260165903e-14
5.15123354e-14
5.025994884e-14
4.891339971e-14
4.75633684e-14
4.634631951e-14
4.55019331e-14
5.273457556e-14
5.215026081e-14
5.130620843e-14
5.024923363e-14
4.903441027e-14
4.772872165e-14
4.642019523e-14
4.52410962e-14
4.44233915e-14
5.142260932e-14
5.085572121e-14
5.003697317e-14
4.901191393e-14
4.783410176e-14
4.656861355e-14
4.530085714e-14
4.415897604e-14
4.336740271e-14
5.013830348e-14
4.958859501e-14
4.879477456e-14
4.780112509e-14
4.665969472e-14
4.543367101e-14
4.420588155e-14
4.310043228e-14
4.233440659e-14
4.888236991e-14
4.834955695e-14
4.758023607e-14
4.66174302e-14
4.551168835e-14
4.432433111e-14
4.313565043e-14
4.20658037e-14
4.132471584e-14
4.765532944e-14
4.713909717e-14
4.639380551e-14
4.546122762e-14
4.439042901e-14
4.324089029e-14
4.209041651e-14
4.105530963e-14
4.033853005e-14
4.645753396e-14
4.59575425e-14
4.523577536e-14
4.433276998e-14
4.329612792e-14
4.218352057e-14
4.10703183e-14
4.006906365e-14
3.937594868e-14
4.528918649e-14
4.480507589e-14
4.410630132e-14
4.32321816e-14
4.222887725e-14
4.115228437e-14
4.007539356e-14
3.910708612e-14
3.843698286e-14
4.415035938e-14
4.368175408e-14
4.300541899e-14
4.215947419e-14
4.118866477e-14
4.014714798e-14
3.910559167e-14
3.816931555e-14
3.752156609e-14
4.304101082e-14
4.258752349e-14
4.193305915e-14
4.111456115e-14
4.017538704e-14
3.91679937e-14
3.816078482e-14
3.725561885e-14
3.662956401e-14
4.19609997e-14
4.152223465e-14
4.088906142e-14
4.009727044e-14
3.918886139e-14
3.821463089e-14
3.724077808e-14
3.636580074e-14
3.576078315e-14
4.091009905e-14
4.048565516e-14
3.987318663e-14
3.910735615e-14
3.82288367e-14
3.728680585e-14
3.634531851e-14
3.549961212e-14
3.491497897e-14
3.988800803e-14
3.947748134e-14
3.888512786e-14
3.814450896e-14
3.729500305e-14
3.638421076e-14
3.547410339e-14
3.465675766e-14
3.409186298e-14
3.889436274e-14
3.849734863e-14
3.792452045e-14
3.720836543e-14
3.638700041e-14
3.550649169e-14
3.462678753e-14
3.383690261e-14
3.32911092e-14
3.792874587e-14
3.754484094e-14
3.699095084e-14
3.62985164e-14
3.550442644e-14
3.465325576e-14
3.380298995e-14
3.303967893e-14
3.251235999e-14
3.699069525e-14
3.661949899e-14
3.60839645e-14
3.541451444e-14
3.464684336e-14
3.382407754e-14
3.300229971e-14
3.22646908e-14
3.175523121e-14
3.607971157e-14
3.572082768e-14
3.520307302e-14
3.455588046e-14
3.381378423e-14
3.301850481e-14
3.222428122e-14
3.151151943e-14
3.10193169e-14
3.519526513e-14
3.484830269e-14
3.434776039e-14
3.372210967e-14
3.300475836e-14
3.223606359e-14
3.146847895e-14
3.077972752e-14
3.030419341e-14
3.433680186e-14
3.400137633e-14
3.351748849e-14
3.291267678e-14
3.221925625e-14
3.147626269e-14
3.073442155e-14
3.006886309e-14
2.960942309e-14
3.350374867e-14
3.317948264e-14
3.271170209e-14
3.212704062e-14
3.145675389e-14
3.073859771e-14
3.002162563e-14
2.937846296e-14
2.893455762e-14
3.269551811e-14
3.238204196e-14
3.192983315e-14
3.136464827e-14
3.071671655e-14
3.002255457e-14
2.932959898e-14
2.870805581e-14
2.827914089e-14
3.191151246e-14
3.160846489e-14
3.117130457e-14
3.062493859e-14
2.999860217e-14
2.932761264e-14
2.865784351e-14
2.805716489e-14
2.764271164e-14
3.115112736e-14
3.085815581e-14
3.043553361e-14
2.990734539e-14
2.930186428e-14
2.865324746e-14
2.800585778e-14
2.742531042e-14
2.702480572e-14
3.041375487e-14
3.013051582e-14
2.972193467e-14
2.921130016e-14
2.862595454e-14
2.799893314e-14
2.737313923e-14
2.681201171e-14
2.642495813e-14
2.969878614e-14
2.942494536e-14
2.902992181e-14
2.853623437e-14
2.797032497e-14
2.736414444e-14
2.675918614e-14
2.6216789e-14
2.584270484e-14
2.900561366e-14
2.874084638e-14
2.835891083e-14
2.788158147e-14
2.733442978e-14
2.674835845e-14
2.616349927e-14
2.563916503e-14
2.527758428e-14
2.833363304e-14
2.807762405e-14
2.770832089e-14
2.724677843e-14
2.671772684e-14
2.615105609e-14
2.558558322e-14
2.507866636e-14
2.472913867e-14
2.768224437e-14
2.743468812e-14
2.707757581e-14
2.663126699e-14
2.611967886e-14
2.55717231e-14
2.502494742e-14
2.45348244e-14
2.419691504e-14
2.705085317e-14
2.681145375e-14
2.646610487e-14
2.603449434e-14
2.553975403e-14
2.500985074e-14
2.448110683e-14
2.400717602e-14
2.368046585e-14
2.643887069e-14
2.620734183e-14
2.587334304e-14
2.545591336e-14
2.497742617e-14
2.446493587e-14
2.395358201e-14
2.349526371e-14
2.317934924e-14
2.584571367e-14
2.562177872e-14
2.529873066e-14
2.489498217e-14
2.44321743e-14
2.393648049e-14
2.344189861e-14
2.299863511e-14
2.269312853e-14
2.527080335e-14
2.505419508e-14
2.474171224e-14
2.435116292e-14
2.390348123e-14
2.342399027e-14
2.294558593e-14
2.251684153e-14
2.222137084e-14
2.471356351e-14
2.450402395e-14
2.420173435e-14
2.382391946e-14
2.339083123e-14
2.292697207e-14
2.246417433e-14
2.204943533e-14
2.176364448e-14
2.417341746e-14
2.397069758e-14
2.367824233e-14
2.33127139e-14
2.289370626e-14
2.244492999e-14
2.199719106e-14
2.159596565e-14
2.131951456e-14
2.364978371e-14
2.345364292e-14
2.317067556e-14
2.281700158e-14
2.241158063e-14
2.197735967e-14
2.154415425e-14
2.115597208e-14
2.088853657e-14
2.314207018e-14
2.295227559e-14
2.267846103e-14
2.233622419e-14
2.194391366e-14
2.152374038e-14
2.110456448e-14
2.072897577e-14
2.047024719e-14
2.264966662e-14
2.246599206e-14
2.220100512e-14
2.186980098e-14
2.149014015e-14
2.108352475e-14
2.067789369e-14
2.031446759e-14
2.006415195e-14
2.217193524e-14
2.19941598e-14
2.173768318e-14
2.141711761e-14
2.104965837e-14
2.065612574e-14
2.026357104e-14
1.991189301e-14
1.966970935e-14
2.170819933e-14
2.153610554e-14
2.128782705e-14
2.097751271e-14
2.062181546e-14
2.024090072e-14
1.986096567e-14
1.95206334e-14
1.928631126e-14
2.125773005e-14
2.109110141e-14
2.085071039e-14
2.055026215e-14
2.020589036e-14
1.983713284e-14
1.946936624e-14
1.913998397e-14
1.89132596e-14
2.08197314e-14
2.065834934e-14
2.042553216e-14
2.013456125e-14
1.980107447e-14
1.944400991e-14
1.908795794e-14
1.876912873e-14
1.854973982e-14
2.039332378e-14
2.023696395e-14
2.001139851e-14
1.972950538e-14
1.940645068e-14
1.906060144e-14
1.871579729e-14
1.840711317e-14
1.819479196e-14
1.997752666e-14
1.982595464e-14
1.960730387e-14
1.93340697e-14
1.902097137e-14
1.868583474e-14
1.835178612e-14
1.805281593e-14
1.784728062e-14
1.957124119e-14
1.942420744e-14
1.921211195e-14
1.894708894e-14
1.86434366e-14
1.831847117e-14
1.799464557e-14
1.770492088e-14
1.750586554e-14
1.91732334e-14
1.903046791e-14
1.882453771e-14
1.85672382e-14
1.827247339e-14
1.795708328e-14
1.764289106e-14
1.736189093e-14
1.716897447e-14
1.878211949e-14
1.86433259e-14
1.844313169e-14
1.819301625e-14
1.790651713e-14
1.760003291e-14
1.729480385e-14
1.702194438e-14
1.683478068e-14
1.839635419e-14
1.826120399e-14
1.806626815e-14
1.782273343e-14
1.754379859e-14
1.724545451e-14
1.694840145e-14
1.668303909e-14
1.650119041e-14
1.801422366e-14
1.788235068e-14
1.769213925e-14
1.74545078e-14
1.718234615e-14
1.689127665e-14
1.660151718e-14
1.634289739e-14
1.616585339e-14
1.763384389e-14
1.750483912e-14
1.731875375e-14
1.708626317e-14
1.681998002e-14
1.653520422e-14
1.625175066e-14
1.599900413e-14
1.582617304e-14
1.725316542e-14
1.712657209e-14
1.694394182e-14
1.671573106e-14
1.645430268e-14
1.617466498e-14
1.58964666e-14
1.56486242e-14
1.547933327e-14
1.686998484e-14
1.674529414e-14
1.656536935e-14
1.6340474e-14
1.608275838e-14
1.58070167e-14
1.553288977e-14
1.528886546e-14
1.512235624e-14
1.648196011e-14
1.635860569e-14
1.618054705e-14
1.595787579e-14
1.570255892e-14
1.54294926e-14
1.515814686e-14
1.491674455e-14
1.475217674e-14
1.608662363e-14
1.596397613e-14
1.57868508e-14
1.556518532e-14
1.531105125e-14
1.503931608e-14
1.476935105e-14
1.452927548e-14
1.436573784e-14
1.568137658e-14
1.555872861e-14
1.538151564e-14
1.51597859e-14
1.490558579e-14
1.463375695e-14
1.436369131e-14
1.412357571e-14
1.396010707e-14
1.52634663e-14
1.514019063e-14