/*--------------------------------*- C++ -*----------------------------------*\
| =========                 |                                                 |
| \\      /  F ield         | OpenFOAM: The Open Source CFD Toolbox           |
|  \\    /   O peration     | Version:  2212                                  |
|   \\  /    A nd           | Website:  www.openfoam.com                      |
|    \\/     M anipulation  |                                                 |
\*---------------------------------------------------------------------------*/
FoamFile
{
    version     2.0;
    format      ascii;
    arch        "LSB;label=32;scalar=64";
    class       volScalarField;
    location    "30.00000000";
    object      CH3COCH3_0;
}
// * * * * * * * * * * * * * * * * * * * * * * * * * * * * * * * * * * * * * //

dimensions      [0 0 0 0 0 0 0];

internalField   nonuniform List<scalar> 
3000
(
0.01368422948
0.01368422948
0.01368422948
0.01368422948
0.01368422948
0.01368422948
0.01368422948
0.01368422948
0.01368422948
0.01368422948
0.01368422948
0.01368422948
0.01368422948
0.01368422948
0.01368422948
0.01368422948
0.01368422948
0.01368422948
0.01368422948
0.01368422948
0.01368422948
0.01368422948
0.01368422948
0.01368422948
0.01368422948
0.01368422948
0.01368422948
0.01368422948
0.01368422948
0.01368422948
0.01368422948
0.01368422948
0.01368422948
0.01368422948
0.01368422948
0.01368422948
0.01368422948
0.01368422948
0.01368422948
0.01368422948
0.01368422948
0.01368422948
0.01368422948
0.01368422948
0.01368422948
0.01368422948
0.01368422948
0.01368422948
0.01368422948
0.01368422948
0.01368422948
0.01368422948
0.01368422948
0.01368422948
0.01368422948
0.01368422948
0.01368422948
0.01368422948
0.01368422948
0.01368422948
0.01368422948
0.01368422948
0.01368422948
0.01368422948
0.01368422948
0.01368422948
0.01368422948
0.01368422948
0.01368422948
0.01368422948
0.01368422948
0.01368422948
0.01368422948
0.01368422948
0.01368422948
0.01368422948
0.01368422948
0.01368422948
0.01368422948
0.01368422948
0.01368422948
0.01368422948
0.01368422948
0.01368422948
0.01368422948
0.01368422948
0.01368422948
0.01368422948
0.01368422948
0.01368422948
0.01368422948
0.01368422948
0.01368422948
0.01368422948
0.01368422948
0.01368422948
0.01368422948
0.01368422948
0.01368422948
0.01368422948
0.01368422948
0.01368422948
0.01368422948
0.01368422948
0.01368422948
0.01368422948
0.01368422948
0.01368422948
0.01368422948
0.01368422948
0.01368422948
0.01368422948
0.01368422948
0.01368422948
0.01368422948
0.01368422948
0.01368422948
0.01368422948
0.01368422948
0.01368422948
0.01368422948
0.01368422948
0.01368422948
0.01368422948
0.01368422948
0.01368422948
0.01368422948
0.01368422948
0.01368422948
0.01368422948
0.01368422948
0.01368422948
0.01368422948
0.01368422948
0.01368422948
0.01368422948
0.01368422948
0.01368422948
0.01368422948
0.01368422948
0.01368422948
0.01368422948
0.01368422948
0.01368422948
0.01368422948
0.01368422948
0.01368422948
0.01368422948
0.01368422948
0.01368422948
0.01368422948
0.01368422948
0.01368422948
0.01368422948
0.01368422948
0.01368422948
0.01368422948
0.01368422948
0.01368422948
0.01368422948
0.01368422948
0.01368422948
0.01368422948
0.01368422948
0.01368422948
0.01368422948
0.01368422948
0.01368422948
0.01368422948
0.01368422948
0.01368422948
0.01368422948
0.01368422948
0.01368422948
0.01368422948
0.01368422948
0.01368422948
0.01368422948
0.01368422948
0.01368422948
0.01368422948
0.01368422948
0.01368422948
0.01368422948
0.01368422948
0.01368422948
0.01368422948
0.01368422948
0.01368422948
0.01368422948
0.01368422948
0.01368422948
0.01368422948
0.01368422948
0.01368422948
0.01368422948
0.01368422948
0.01368422948
0.01368422948
0.01368422948
0.01368422948
0.01368422948
0.01368422948
0.01368422948
0.01368422948
0.01368422948
0.01368422948
0.01368422948
0.01368422948
0.01368422948
0.01368422948
0.01368422948
0.01368422948
0.01368422948
0.01368422948
0.01368422948
0.01368422948
0.01368422948
0.01368422948
0.01368422948
0.01368422948
0.01368422948
0.01368422948
0.01368422948
0.01368422948
0.01368422948
0.01368422948
0.01368422948
0.01368422948
0.01368422948
0.01368422948
0.01368422948
0.01368422948
0.01368422948
0.01368422948
0.01368422948
0.01368422948
0.01368422948
0.01368422948
0.01368422948
0.01368422948
0.01368422948
0.01368422948
0.01368422948
0.01368422948
0.01368422948
0.01368422948
0.01368422948
0.01368422948
0.01368422948
0.01368422948
0.01368422948
0.01368422948
0.01368422948
0.01368422948
0.01368422948
0.01368422948
0.01368422948
0.01368422948
0.01368422948
0.01368422948
0.01368422948
0.01368422948
0.01368422948
0.01368422948
0.01368422948
0.01368422948
0.01368422948
0.01368422948
0.01368422948
0.01368422948
0.01368422948
0.01368422948
0.01368422948
0.01368422948
0.01368422948
0.01368422948
0.01368422948
0.01368422948
0.01368422948
0.01368422948
0.01368422948
0.01368422948
0.01368422948
0.01368422948
0.01368422947
0.01368422947
0.01368422947
0.01368422948
0.01368422948
0.01368422948
0.01368422948
0.01368422947
0.01368422947
0.01368422947
0.01368422947
0.01368422947
0.01368422948
0.01368422948
0.01368422947
0.01368422947
0.01368422947
0.01368422947
0.01368422946
0.01368422946
0.01368422946
0.01368422947
0.01368422947
0.01368422947
0.01368422947
0.01368422946
0.01368422946
0.01368422945
0.01368422945
0.01368422944
0.01368422947
0.01368422947
0.01368422946
0.01368422946
0.01368422945
0.01368422944
0.01368422943
0.01368422942
0.01368422942
0.01368422946
0.01368422946
0.01368422945
0.01368422944
0.01368422943
0.01368422942
0.0136842294
0.01368422938
0.01368422937
0.01368422945
0.01368422945
0.01368422944
0.01368422942
0.0136842294
0.01368422937
0.01368422935
0.01368422932
0.0136842293
0.01368422944
0.01368422942
0.01368422941
0.01368422938
0.01368422934
0.0136842293
0.01368422926
0.01368422921
0.01368422919
0.0136842294
0.01368422939
0.01368422935
0.01368422931
0.01368422925
0.01368422918
0.01368422911
0.01368422904
0.013684229
0.01368422935
0.01368422932
0.01368422927
0.0136842292
0.01368422911
0.01368422899
0.01368422887
0.01368422876
0.01368422869
0.01368422926
0.01368422921
0.01368422913
0.01368422901
0.01368422886
0.01368422868
0.01368422849
0.01368422832
0.01368422821
0.01368422912
0.01368422904
0.0136842289
0.01368422871
0.01368422847
0.01368422819
0.01368422788
0.01368422762
0.01368422745
0.01368422888
0.01368422875
0.01368422853
0.01368422823
0.01368422785
0.0136842274
0.01368422693
0.01368422651
0.01368422625
0.0136842285
0.01368422828
0.01368422793
0.01368422746
0.01368422685
0.01368422615
0.01368422543
0.0136842248
0.0136842244
0.01368422787
0.01368422752
0.01368422698
0.01368422623
0.01368422529
0.01368422422
0.01368422312
0.01368422216
0.01368422156
0.01368422685
0.01368422631
0.01368422547
0.01368422431
0.01368422287
0.01368422123
0.01368421956
0.01368421812
0.01368421722
0.01368422524
0.0136842244
0.01368422309
0.01368422132
0.01368421913
0.01368421665
0.01368421415
0.01368421201
0.01368421068
0.01368422268
0.01368422138
0.01368421939
0.0136842167
0.0136842134
0.0136842097
0.01368420599
0.01368420282
0.01368420087
0.01368421866
0.01368421669
0.01368421368
0.01368420964
0.01368420471
0.01368419923
0.01368419377
0.01368418912
0.01368418627
0.01368421241
0.01368420945
0.01368420493
0.01368419892
0.01368419163
0.01368418358
0.01368417559
0.01368416883
0.01368416471
0.01368420277
0.01368419836
0.01368419165
0.01368418278
0.0136841721
0.01368416036
0.01368414876
0.01368413898
0.01368413304
0.01368418802
0.01368418151
0.01368417165
0.01368415867
0.01368414313
0.01368412613
0.01368410941
0.01368409536
0.01368408684
0.01368416565
0.01368415612
0.01368414176
0.01368412292
0.01368410047
0.01368407601
0.01368405205
0.01368403197
0.01368401982
0.01368413203
0.01368411821
0.01368409743
0.01368407029
0.01368403809
0.01368400312
0.01368396897
0.01368394041
0.01368392316
0.01368408193
0.01368406202
0.01368403219
0.01368399337
0.01368394746
0.01368389777
0.01368384935
0.01368380894
0.01368378456
0.01368400786
0.0136839794
0.01368393688
0.01368388173
0.01368381668
0.01368374646
0.01368367818
0.01368362128
0.01368358699
0.01368389925
0.01368385887
0.01368379867
0.01368372079
0.01368362917
0.01368353052
0.01368343477
0.01368335512
0.01368330716
0.01368374125
0.01368368433
0.01368359966
0.01368349036
0.01368336212
0.01368322433
0.01368309088
0.01368298004
0.0136829134
0.01368351317
0.01368343347
0.01368331513
0.01368316272
0.0136829843
0.01368279305
0.0136826082
0.01368245496
0.01368236294
0.01368318644
0.01368307557
0.01368291123
0.01368270005
0.01368245341
0.01368218964
0.01368193523
0.01368172467
0.01368159838
0.01368272203
0.01368256881
0.0136823421
0.0136820514
0.01368171266
0.01368135118
0.01368100317
0.01368071555
0.01368054318
0.01368206717
0.01368185687
0.01368154622
0.01368114869
0.01368068642
0.01368019406
0.01367972078
0.01367933007
0.01367909607
0.0136811515
0.01368086483
0.013680442
0.01367990186
0.01367927491
0.01367860819
0.01367796813
0.0136774402
0.01367712417
0.01367988221
0.01367949405
0.01367892228
0.01367819299
0.01367734773
0.01367645002
0.01367558907
0.01367487942
0.01367445477
0.0136781383
0.01367761619
0.01367684795
0.0136758693
0.01367473641
0.01367353446
0.01367238262
0.01367143364
0.01367086589
0.01367576397
0.01367506629
0.01367404064
0.01367273546
0.01367122608
0.01366962598
0.01366809343
0.01366683115
0.01366607598
0.01367256131
0.01367163525
0.01367027493
0.01366854534
0.01366654677
0.01366442937
0.01366240208
0.01366073246
0.0136597335
0.01366828277
0.01366706214
0.01366527033
0.01366299378
0.01366036487
0.01365758091
0.01365491593
0.01365272103
0.01365140748
0.01366262363
0.01366102667
0.01365868378
0.01365570898
0.01365227561
0.01364864097
0.01364516198
0.01364229619
0.01364058065
0.01365521514
0.0136531424
0.01365010318
0.01364624653
0.01364179759
0.01363708928
0.01363258282
0.01362887
0.01362664672
0.01364561863
0.01364295136
0.01363904257
0.0136340855
0.01362837018
0.01362232377
0.0136165372
0.01361176915
0.01360891326
0.01363332122
0.0136299204
0.01362493964
0.01361862748
0.01361135444
0.01360366377
0.01359630552
0.01359024259
0.01358661066
0.01361773347
0.01361343982
0.01360715587
0.01359919876
0.01359003786
0.01358035763
0.01357110037
0.01356347472
0.01355890692
0.01359818928
0.01359282452
0.01358497949
0.01357505566
0.0135636425
0.01355159403
0.01354008107
0.01353060245
0.01352492633
0.01357394856
0.01356731797
0.01355763136
0.01354539293
0.0135313363
0.01351651614
0.01350237049
0.01349073435
0.01348376992
0.01354420309
0.01353609936
0.01352427407
0.01350935498
0.01349224657
0.01347423742
0.01345707266
0.01344296939
0.01343453476
0.01350808625
0.01349829449
0.01348402424
0.01346604992
0.01344547559
0.0134238582
0.01340328974
0.01338641365
0.01337633031
0.01346468695
0.0134529906
0.0134359685
0.01341456652
0.01339011816
0.01336448321
0.01334013839
0.01332019428
0.01330828788
0.01341306807
0.01339925533
0.01337918304
0.01335399425
0.01332528182
0.01329524135
0.01326676848
0.01324347459
0.01322957242
0.0133522887
0.01333615915
0.01331275631
0.01328344612
0.01325010998
0.01321530944
0.01318238863
0.01315549361
0.01313946769
0.01328142891
0.01326279999
0.01323581322
0.01320208246
0.01316380448
0.01312393402
0.01308629735
0.01305562195
0.01303737537
0.01319961488
0.01317832808
0.01314753914
0.01310913333
0.01306564711
0.01302046638
0.01297793636
0.01294335861
0.0129228289
0.01310604223
0.01308196769
0.01304720029
0.0130039191
0.01295504304
0.01290441083
0.01285688537
0.01281834423
0.01279550518
0.01299999387
0.01297303572
0.01293417303
0.01288591115
0.01283155969
0.01277541927
0.01272287414
0.01268037095
0.01265523313
0.01288089078
0.01285101313
0.01280801812
0.01275474955
0.01269492153
0.0126333015
0.01257579041
0.01252938817
0.01250199808
0.01274835124
0.01271556361
0.01266846252
0.01261023904
0.01254501771
0.01247803072
0.01241568314
0.0123655039
0.01233594194
0.01260216697
0.01256652376
0.01251540575
0.01245235494
0.01238190532
0.01230974441
0.01224276108
0.01218898159
0.01215735915
0.01244230901
0.01240390798
0.01234892272
0.01228124413
0.01220580795
0.01212874045
0.01205738701
0.012000233
0.01196668875
0.0122689287
0.01222790818
0.0121692616
0.01209722091
0.01201710943
0.01193546899
0.01186006799
0.01179980739
0.01176450311
0.01208235356
0.01203888856
0.01197683696
0.01190075837
0.0118163435
0.01173052063
0.01165144243
0.01158837782
0.01155149385
0.01188307823
0.01183737555
0.01177221851
0.01169247583
0.01160417996
0.01151461146
0.0114322644
0.01136672514
0.01132845573
0.01167175108
0.0116240438
0.01155611617
0.01147312295
0.01138140803
0.01128856592
0.01120338619
0.01113572043
0.0110962691
0.0114491574
0.01139969884
0.01132936231
0.01124356155
0.0111489178
0.01105329812
0.01096573968
0.01089630653
0.01085588164
0.01121619985
0.0111652575
0.01109289194
0.01100474573
0.01090768049
0.01080979233
0.01072031724
0.0106494794
0.01060829
0.0109738773
0.01092172673
0.01084772174
0.01075770125
0.01065872832
0.01055908348
0.0104681529
0.01039626987
0.01035452197
0.01072326276
0.01067018188
0.01059492881
0.01050350485
0.01040313457
0.01030223815
0.0102103042
0.0101377263
0.01009561957
0.01046548128
0.010411745
0.01033562961
0.01024326417
0.01014199455
0.01004033655
0.009947835261
0.009874898456
0.009832623454
0.01020168851
0.010147564
0.01007096002
0.009978098727
0.009876407793
0.00977445603
0.00968180142
0.009608823068
0.009566559023
0.009933050453
0.009878793096
0.009802056659
0.009709122536
0.009607461965
0.009505656235
0.009413235555
0.009340511089
0.009298424174
0.009660724989
0.009606574988
0.009530040168
0.009437428542
0.009336218601
0.00923496619
0.00914313635
0.009070936844
0.009029178971
0.009385845339
0.009332025116
0.009256000422
0.009164075087
0.009063700906
0.008963373358
0.008872458465
0.008801029046
0.008759737118
0.009109505797
0.009056218081
0.008980983979
0.008890074521
0.008790883599
0.00869181468
0.008602104602
0.008531663625
0.008490959209
0.008832749759
0.00878017635
0.00870598371
0.008616383929
0.008518684785
0.008421169527
0.008332919381
0.008263658273
0.008223647633
0.008556560071
0.008504861229
0.00843193062
0.008343897929
0.008247959762
0.008152254454
0.008065684883
0.007997768564
0.007958543
0.00828185161
0.008231165987
0.008159687716
0.008073443402
0.007979496627
0.00788581961
0.007801117725
0.007734685503
0.007696321931
0.008009465976
0.007959911016
0.007890045803
0.007805775999
0.007714013509
0.007622546633
0.007539867495
0.007475034327
0.007437596054
0.007740168105
0.007691840838
0.007623721008
0.007541578258
0.007452157266
0.007363047862
0.007282516369
0.007219374406
0.00718291204
0.007474644626
0.007427622762
0.007361353848
0.007281459117
0.007194503441
0.007107866676
0.007029579751
0.006968200076
0.006932752532
0.007213503727
0.007167846983
0.007103509634
0.007025954651
0.006941557307
0.006857478806
0.006781507771
0.006721942256
0.006687537811
0.006957276324
0.006913027918
0.006850680005
0.006775529824
0.006693755818
0.006612294435
0.006538687496
0.006480970707
0.006447628078
0.006706418325
0.006663606554
0.006603285404
0.00653058108
0.006451470294
0.006372660946
0.006301445696
0.006245596812
0.006213326219
0.00646131376
0.006419953635
0.006361678304
0.006291439601
0.006215009692
0.006138866177
0.006070052068
0.00601607674
0.005984880945
0.00622227862
0.006182373482
0.006126147015
0.006058375078
0.005984624311
0.005911142046
0.005844722769
0.005792614916
0.005762490208
0.005989565189
0.005951108292
0.005896919908
0.00583159984
0.005760509811
0.005689668441
0.005625624188
0.005575367682
0.005546304805
0.005763366742
0.005726342755
0.005674169929
0.005611273231
0.005542811427
0.005474577272
0.005412876839
0.005364447072
0.005336432082
0.00554382244
0.005508208858
0.005458019266
0.005397506103
0.005331628277
0.005265956591
0.005206559318
0.00515992464
0.005132939693
0.005331022323
0.005296790766
0.005248544064
0.005190365349
0.005127017689
0.005063854716
0.005006712241
0.004961835261
0.004935859319
0.005125012277
0.005092129667
0.005045779112
0.004989878381
0.004928999461
0.004868284279
0.004813342116
0.004770180865
0.004745190335
0.004925798906
0.004894228515
0.004849722403
0.004796037488
0.004737560005
0.004679226165
0.004626425099
0.004584934062
0.004560903356
0.004733354221
0.004703056603
0.004660339539
0.004608804035
0.00455265633
0.004496633287
0.004445910593
0.00440604161
0.00438294364
0.004547620129
0.00451855392
0.004477567911
0.004428112447
0.004374219817
0.00432043417
0.004271724669
0.004233427715
0.004211234324
0.004368512607
0.004340635219
0.004301320632
0.004253873966
0.004202159801
0.004150536351
0.004103773304
0.004066997149
0.004045679465
0.004195925584
0.004169193773
0.004131490109
0.004085980047
0.00403636678
0.003986829444
0.003941945336
0.003906638129
0.003886166892
0.004029734604
0.004004104937
0.003967951481
0.00392430562
0.003876715509
0.003829188047
0.003786115222
0.003752224967
0.003732570793
0.003869799835
0.003845229189
0.003810565593
0.003768711963
0.003723067748
0.003677474392
0.003636145574
0.003603620517
0.003584754112
0.003715969004
0.00369241488
0.003659181697
0.003619049326
0.003575274773
0.003531540723
0.003491889447
0.003460678401
0.003442570747
0.003568080151
0.003545500911
0.003513639899
0.003475159272
0.003433179607
0.003391231443
0.003353192411
0.003323245021
0.003305867524
0.003425964025
0.003404319072
0.003373773438
0.003336876757
0.003296619037
0.003256385048
0.003219894403
0.00319116136
0.003174485973
0.003289446161
0.003268696087
0.003239410682
0.003204032085
0.003165425427
0.003126835842
0.003091831381
0.003064264583
0.003048263899
0.003158348702
0.003138455384
0.003110376843
0.00307645256
0.003039428293
0.003002415455
0.002968836787
0.002942389461
0.002927036787
0.003032491964
0.003013418635
0.002986495462
0.002953963926
0.002918455691
0.00288295418
0.002850742827
0.002825369619
0.002810639025
0.002911695785
0.002893407069
0.002867589699
0.002836391607
0.002802335435
0.002768282129
0.002737381589
0.002713038614
0.002698904972
0.002795780667
0.002778242597
0.002753483412
0.002723561754
0.002690896099
0.002658230204
0.002628585993
0.002605230867
0.002591669872
0.002684568742
0.002667748754
0.002644002087
0.002615302152
0.002583967888
0.00255263093
0.00252419058
0.002501782439
0.002488770624
0.002577884604
0.002561751526
0.002538973629
0.00251144296
0.002481383344
0.00245131915
0.002424032212
0.002402531716
0.00239004646
0.002475555948
0.002460079962
0.002438228969
0.002411817325
0.002382977966
0.002354132637
0.002327950653
0.002307319969
0.002295339488
0.002377414098
0.00236256671
0.002341602585
0.002316261893
0.0022885907
0.002260912564
0.002235789028
0.002215991805
0.002204495145
0.002283294439
0.002269048431
0.002248932918
0.002224617206
0.002198064323
0.002171503881
0.002147394197
0.002128395537
0.002117362561
0.002193036742
0.002179366131
0.002160062687
0.002136728016
0.002111245754
0.002085755614
0.002062617041
0.002044383464
0.002033794831
0.00210648541
0.002093365397
0.002074839131
0.002052443519
0.002027986277
0.002003521084
0.001981312682
0.001963812088
0.001953649237
0.002023489657
0.002010896579
0.001993114182
0.001971617527
0.001948141715
0.001924658076
0.001903340644
0.00188654227
0.001876787399
0.001943903617
0.001931814896
0.001914744574
0.001894108574
0.001871572534
0.001849028948
0.00182856496
0.001812439339
0.001803075382
0.001867586411
0.001855980507
0.00183959191
0.001819779991
0.001798143911
0.001776500692
0.001756854241
0.001741373153
0.001732383756
0.001794402162
0.001783258521
0.001767522686
0.001748499917
0.001727725759
0.001706944963
0.001688081692
0.001673218121
0.001664587617
0.001724219983
0.001713518993
0.00169840827
0.001680141296
0.001660192715
0.001640238065
0.00162212511
0.001607853197
0.001599566582
0.001656913926
0.001646636871
0.001632124867
0.001614581833
0.001595424102
0.00157626092
0.001558866846
0.001545161844
0.001537204751
0.001592362912
0.001582491929
0.001568553444
0.001551703926
0.001533303866
0.001514898999
0.001498193741
0.001485031971
0.001477390647
0.001530450641
0.001520968678
0.001507579651
0.001491394589
0.001473720493
0.001456042251
0.001439997055
0.001427355861
0.001420017142
0.001471065486
0.001461956261
0.001449093713
0.001433545347
0.001416566915
0.001399585001
0.00138417237
0.001372030075
0.001364981364
0.001414100371
0.001405348335
0.001392990319
0.001378052125
0.001361740401
0.00134542585
0.001330619484
0.001318955354
0.001312184596
0.001359452644
0.001351042948
0.001339168496
0.001324815129
0.001309142436
0.001293467556
0.001279242304
0.001268036501
0.001261532159
0.001307023944
0.001298942399
0.001287531478
0.001273738718
0.001258678597
0.001243616909
0.001229948718
0.001219182264
0.001212933302
0.001256720059
0.001248953109
0.001237986573
0.001224731269
0.001210258426
0.00119578461
0.001182650472
0.001172305215
0.001166301071
0.001208450784
0.001200985474
0.001190445023
0.001177705043
0.001163795294
0.001149885135
0.001137263044
0.001127321617
0.001121552187
0.001162129779
0.001154953725
0.001144821864
0.001132576048
0.001119206265
0.001105836606
0.001093705511
0.001084151298
0.001078606915
0.001117674425
0.001110775785
0.001101035787
0.001089263899
0.001076411964
0.001063560653
0.001051900418
0.001042717524
0.001037388937
0.001075005676
0.00106837313
0.001059008999
0.001047691686
0.001035336442
0.001022982288
0.001011773648
0.001002946864
0.0009978252214
0.001034047929
0.001027670646
0.001018667081
0.001007785831
0.0009959070404
0.00098402977
0.0009732542918
0.0009647690654
0.0009598458992
0.0009947288717
0.000988596494
0.0009799388588
0.0009694759623
0.0009580542605
0.0009466344768
0.0009362745231
0.0009281169292
0.0009233841347
0.000956979359
0.0009510819761
0.0009427562662
0.0009326947771
0.0009217116361
0.0009107307774
0.0009007694701
0.0008929261826
0.0008883760043
0.0009207332733
0.0009150614019
0.0009070542164
0.0008973779183
0.0008868156067
0.0008762559092
0.0008666770953
0.0008591353607
0.0008547603763
0.0008859273988
0.0008804719628
0.0008727704761
0.0008634638488
0.0008533053956
0.000843149857
0.0008339380759
0.0008266856875
0.0008224787931
0.0008525012966
0.0008472536083
0.0008398455437
0.0008308937307
0.0008211228909
0.0008113552361
0.0008024956886
0.0007955209622
0.0007914753583
0.0008203971837
0.0008153489264
0.0008082225308
0.0007996113094
0.0007902125308
0.0007808171793
0.0007722956979
0.0007655874482
0.000761696626
0.0007895598176
0.0007847030279
0.0007778470481
0.0007695628007
0.0007605211929
0.000751483227
0.0007432862476
0.0007368337662
0.0007330914949
0.0007599363836
0.000755263436
0.0007486670961
0.0007406967824
0.0007319980869
0.0007233032225
0.0007154177574
0.0007092107916
0.0007056111057
0.0007314763877
0.000726979979
0.0007206329586
0.0007129640903
0.000704594652
0.0006962292101
0.0006886428224
0.0006826715549
0.0006792087425
0.0007041315532
0.0006998046881
0.0006936971022
0.0006863177178
0.0006782644583
0.0006702153382
0.0006629161174
0.0006571711467
0.0006538397389
0.0006778557219
0.0006736916993
0.0006678140787
0.0006607127204
0.0006529631125
0.000645217766
0.0006381943047
0.0006326666275
0.0006294613868
0.0006526047598
0.0006485971596
0.0006429404328
0.000636106124
0.0006286481673
0.0006211945749
0.0006144359469
0.0006091169401
0.0006060328509
0.0006283364667
0.0006244791378
0.0006190346132
0.0006124568379
0.0006052790361
0.0005981056836
0.0005916014229
0.0005864828274
0.0005835150864
0.0006050104908
0.0006012975394
0.0005960568892
0.0005897255719
0.0005828169108
0.0005759127678
0.0005696528492
0.0005647267543
0.0005618707613
0.0005825882477
0.000579014026
0.0005739692707
0.0005678747578
0.0005612246851
0.0005545791849
0.0005485540051
0.0005438128341
0.0005410641835
0.0005610328434
0.0005575919398
0.0005527354337
0.000546868476
0.0005404668824
0.0005340699023
0.0005282702629
0.0005237067593
0.0005210612322
0.0005403090032
0.0005369962325
0.0005323206503
0.0005266723865
0.0005205095877
0.0005143514321
0.0005087685236
0.0005043757385
0.0005018292953
0.0005203830049
0.0005171933994
0.0005126917235
0.0005072536658
0.0005013203865
0.0004953917701
0.0004900171571
0.0004857884376
0.0004833372117
0.0005012226176
0.0004981514193
0.0004938169288
0.000488580949
0.0004828683079
0.0004771603414
0.0004719859495
0.0004679149289
0.0004655552201
0.0004827970469
0.0004798397004
0.0004756659611
0.0004706242784
0.0004651237755
0.0004596279527
0.0004546460573
0.0004507266454
0.0004484549156
0.0004650768866
0.0004622290327
0.0004582098882
0.0004533550596
0.000448058565
0.0004427667522
0.0004379699684
0.0004341963449
0.0004320092131
0.0004480340774
0.0004452915481
0.0004414211134
0.0004367460247
0.0004316457702
0.0004265501976
0.0004219314733
0.0004182980817
0.0004161923212
0.0004316418742
0.0004290006894
0.0004252733451
0.0004207712056
0.0004158597785
0.0004109530343
0.0004065056453
0.0004030071893
0.0004009797257
0.0004158748231
0.0004133311876
0.0004097415775
0.0004054059164
0.0004006762559
0.0003959512842
0.0003916688318
0.0003883002744
0.0003863481852
0.0004007087472
0.0003982590509
0.000394802081
0.0003906267472
0.0003860721452
0.0003815222461
0.000377398659
0.0003741552236
0.000372275739
0.000386120745
0.0003837615636
0.0003804324045
0.0003764115696
0.0003720256744
0.0003676445092
0.0003636740479
0.0003605512231
0.0003587417287
0.0003720891994
0.000369817298
0.00036661139
0.0003627395553
0.0003585163797
0.0003542979798
0.0003504752459
0.0003474687928
0.0003457268347
0.0003585937992
0.0003564061382
0.0003533191994
0.0003495912063
0.0003455251404
0.0003414639208
0.0003377838702
0.0003348898337
0.000333213125
0.0003456155725
0.0003435093151
0.0003405373535
0.0003369483985
0.0003330342267
0.0003291250042
0.0003255829645
0.0003227976876
0.0003211841174
0.0003331369311
0.0003311094539
0.000328248782
0.0003247944356
0.0003210273582
0.0003172653739
0.0003138570658
0.0003111772077
0.0003096248515
0.0003211417246
0.0003191906298
0.0003164378825
0.0003131141115
0.0003094897699
0.0003058707159
0.0003025922786
0.0003000148347
0.0002985219668
0.000309615301
0.0003077384304
0.0003050905857
0.0003018937782
0.0002984082835
0.000294928332
0.0002917763502
0.0002892986749
0.0002878637818
0.0002985445704
0.0002967400208
0.0002941944211
0.0002911214136
0.0002877713765
0.0002844272105
0.0002813987434
0.0002790185727
0.0002776403667
0.0002879180666
0.0002861842052
0.0002837385794
0.0002807866837
0.000277569244
0.0002743580877
0.0002714506962
0.0002691661697
0.0002678436015
0.0002777260006
0.0002760614796
0.0002737139638
0.0002708809914
0.0002677938451
0.0002647134898
0.0002619252605
0.0002597349403
0.0002584672098
0.0002679602985
0.000266364067
0.0002641132211
0.0002613975032
0.0002584389231
0.000255487748
0.0002528173108
0.0002507201936
0.000249506757
0.0002586146147
0.0002570859268
0.0002549307456
0.0002523311451
0.0002494999926
0.000246676974
0.0002441235088
0.0002421190301
0.0002409596016
0.0002496843132
0.0002482227304
0.000246162645
0.0002436785567
0.0002409742796
0.0002382789861
0.0002358422153
0.0002339302422
0.0002328247882
0.0002411664058
0.0002397717909
0.0002378066593
0.0002354379958
0.000232860609
0.0002302931781
0.0002279733409
0.0002261541488
0.0002251028735
0.00023305944
0.0002317319414
0.0002298620242
0.0002276091831
0.0002251592283
0.0002227203208
0.0002205181259
0.0002187923573
0.0002177956762
0.0002253633298
0.0002241033523
0.0002223292698
0.000220193079
0.0002178715602
0.000215562287
0.0002134788408
0.0002118474431
0.0002109059453
0.0002180791252
0.0002168872893
0.0002152099596
0.0002131915949
0.0002109998804
0.000208821698
0.0002068584071
0.0002053225505
0.0002044369464
0.0002112087072
0.0002100857925
0.0002085063478
0.000206607227
0.0002045469227
0.000202501503
0.0002006599442
0.0001992209142
0.0001983919714
0.0002047544185
0.0002037012915
0.0002022209717
0.0002004426167
0.0001985154162
0.0001966044853
0.0001948862511
0.000193545319
0.0001927737833
0.0001987186287
0.0001977361524
0.0001963561758
0.0001947000586
0.0001929075648
0.0001911327147
0.0001895392335
0.0001882975083
0.0001875840134
0.0001931032328
0.0001921921705
0.000190913596
0.000189380963
0.0001877244864
0.0001860869644
0.0001846193015
0.0001834775665
0.0001828225367
0.0001879091343
0.0001870700433
0.0001858936156
0.0001844852938
0.0001829656348
0.0001814661192
0.0001801247664
0.0001790833085
0.0001784868566
0.0001831357062
0.0001823688243
0.0001812948105
0.0001800110071
0.0001786282331
0.0001772666052
0.0001760512704
0.000175109712
0.00017457154
0.0001787802563
0.0001780853877
0.0001771134163
0.0001759535225
0.000174706752
0.0001734818803
0.0001723912907
0.0001715484346
0.0001710677438
0.0001748375283
0.0001742139375
0.0001733428488
0.0001723052612
0.0001711924722
0.0001701020231
0.0001691337586
0.0001683874596
0.0001679628786
0.0001712992744
0.0001707455957
0.0001699733166
0.000169055291
0.0001680731674
0.0001671134621
0.0001662638333
0.0001656109108
0.0001652404486
0.0001681539335
0.0001676681039
0.0001669915591
0.0001661891106
0.0001653329469
0.0001644988784
0.0001637628671
0.0001631990698
0.0001628801019
0.0001653864493
0.0001649656738
0.0001643807432
0.0001636886081
0.0001629522826
0.0001622373106
0.0001616085836
0.0001611286163
0.0001608579093
0.0001629782559
0.0001626190109
0.0001621205439
0.0001615322116
0.0001609082429
0.0001603044724
0.0001597754773
0.0001593730952
0.0001591468718
0.0001609074505
0.0001606055302
0.0001601874211
0.0001596952425
0.0001591749305
0.0001586732801
0.0001582354227
0.0001579035912
0.0001577176337
0.0001591491595
0.0001588997651
0.0001585550906
0.0001581504614
0.0001577241112
0.0001573145621
0.0001569584579
0.0001566895697
0.0001565393562
0.0001576760875
0.0001574739569
0.0001571951684
0.000156868779
0.000156525994
0.0001561979069
0.0001559136888
0.0001556998226
0.000155580685
0.0001564592216
0.000156298791
0.0001560779519
0.0001558200858
0.00015555011
0.0001552925837
0.0001550702428
0.0001549034417
0.0001548107327
0.000155468647
0.0001553442333
0.0001551732808
0.00015497414
0.000154766222
0.0001545684657
0.000154398195
0.0001542707405
0.0001541999936
0.0001546744142
0.0001545804029
0.0001544514161
0.0001543014455
0.0001541451933
0.0001539968797
0.0001538693908
0.000153774048
0.0001537211163
0.0001540473931
0.0001539784174