/*--------------------------------*- C++ -*----------------------------------*\
| =========                 |                                                 |
| \\      /  F ield         | OpenFOAM: The Open Source CFD Toolbox           |
|  \\    /   O peration     | Version:  2212                                  |
|   \\  /    A nd           | Website:  www.openfoam.com                      |
|    \\/     M anipulation  |                                                 |
\*---------------------------------------------------------------------------*/
FoamFile
{
    version     2.0;
    format      ascii;
    arch        "LSB;label=32;scalar=64";
    class       volScalarField;
    location    "30.00000000";
    object      CH4;
}
// * * * * * * * * * * * * * * * * * * * * * * * * * * * * * * * * * * * * * //

dimensions      [0 0 0 0 0 0 0];

internalField   nonuniform List<scalar> 
3000
(
0.0004199879352
0.0004199879352
0.0004199879352
0.0004199879352
0.0004199879352
0.0004199879352
0.0004199879352
0.0004199879352
0.0004199879352
0.0004199879352
0.0004199879352
0.0004199879352
0.0004199879352
0.0004199879352
0.0004199879352
0.0004199879352
0.0004199879352
0.0004199879352
0.0004199879352
0.0004199879352
0.0004199879352
0.0004199879352
0.0004199879352
0.0004199879352
0.0004199879352
0.0004199879352
0.0004199879352
0.0004199879352
0.0004199879352
0.0004199879352
0.0004199879352
0.0004199879352
0.0004199879352
0.0004199879352
0.0004199879352
0.0004199879352
0.0004199879352
0.0004199879352
0.0004199879352
0.0004199879352
0.0004199879352
0.0004199879352
0.0004199879352
0.0004199879352
0.0004199879352
0.0004199879352
0.0004199879352
0.0004199879352
0.0004199879352
0.0004199879352
0.0004199879352
0.0004199879352
0.0004199879352
0.0004199879352
0.0004199879352
0.0004199879352
0.0004199879352
0.0004199879352
0.0004199879352
0.0004199879352
0.0004199879352
0.0004199879352
0.0004199879352
0.0004199879352
0.0004199879352
0.0004199879352
0.0004199879352
0.0004199879352
0.0004199879352
0.0004199879352
0.0004199879352
0.0004199879352
0.0004199879352
0.0004199879352
0.0004199879352
0.0004199879352
0.0004199879352
0.0004199879352
0.0004199879352
0.0004199879352
0.0004199879352
0.0004199879352
0.0004199879352
0.0004199879352
0.0004199879352
0.0004199879352
0.0004199879352
0.0004199879352
0.0004199879352
0.0004199879352
0.0004199879352
0.0004199879352
0.0004199879352
0.0004199879352
0.0004199879352
0.0004199879352
0.0004199879352
0.0004199879352
0.0004199879352
0.0004199879352
0.0004199879352
0.0004199879352
0.0004199879352
0.0004199879352
0.0004199879352
0.0004199879352
0.0004199879352
0.0004199879352
0.0004199879352
0.0004199879352
0.0004199879352
0.0004199879352
0.0004199879352
0.0004199879352
0.0004199879352
0.0004199879352
0.0004199879352
0.0004199879352
0.0004199879352
0.0004199879352
0.0004199879352
0.0004199879352
0.0004199879352
0.0004199879352
0.0004199879352
0.0004199879352
0.0004199879352
0.0004199879352
0.0004199879352
0.0004199879352
0.0004199879352
0.0004199879352
0.0004199879352
0.0004199879352
0.0004199879352
0.0004199879352
0.0004199879352
0.0004199879352
0.0004199879352
0.0004199879352
0.0004199879352
0.0004199879352
0.0004199879352
0.0004199879352
0.0004199879352
0.0004199879352
0.0004199879352
0.0004199879352
0.0004199879352
0.0004199879352
0.0004199879352
0.0004199879352
0.0004199879352
0.0004199879352
0.0004199879352
0.0004199879352
0.0004199879352
0.0004199879352
0.0004199879352
0.0004199879352
0.0004199879352
0.0004199879352
0.0004199879352
0.0004199879352
0.0004199879352
0.0004199879352
0.0004199879352
0.0004199879352
0.0004199879352
0.0004199879352
0.0004199879352
0.0004199879352
0.0004199879352
0.0004199879352
0.0004199879352
0.0004199879352
0.0004199879352
0.0004199879352
0.0004199879352
0.0004199879352
0.0004199879352
0.0004199879352
0.0004199879352
0.0004199879352
0.0004199879352
0.0004199879352
0.0004199879352
0.0004199879352
0.0004199879352
0.0004199879352
0.0004199879352
0.0004199879352
0.0004199879352
0.0004199879352
0.0004199879352
0.0004199879352
0.0004199879352
0.0004199879352
0.0004199879352
0.0004199879352
0.0004199879352
0.0004199879352
0.0004199879352
0.0004199879352
0.0004199879352
0.0004199879352
0.0004199879352
0.0004199879352
0.0004199879352
0.0004199879352
0.0004199879352
0.0004199879352
0.0004199879352
0.0004199879352
0.0004199879352
0.0004199879352
0.0004199879352
0.0004199879352
0.0004199879352
0.0004199879352
0.0004199879352
0.0004199879352
0.0004199879352
0.0004199879352
0.0004199879352
0.0004199879352
0.0004199879352
0.0004199879352
0.0004199879352
0.0004199879352
0.0004199879352
0.0004199879352
0.0004199879352
0.0004199879352
0.0004199879352
0.0004199879352
0.0004199879352
0.0004199879352
0.0004199879352
0.0004199879352
0.0004199879352
0.0004199879352
0.0004199879352
0.0004199879352
0.0004199879352
0.0004199879352
0.0004199879352
0.0004199879352
0.0004199879352
0.0004199879352
0.0004199879352
0.0004199879352
0.0004199879352
0.0004199879352
0.0004199879352
0.0004199879352
0.0004199879352
0.0004199879352
0.0004199879352
0.0004199879352
0.0004199879352
0.0004199879352
0.0004199879352
0.0004199879352
0.0004199879352
0.0004199879352
0.0004199879352
0.0004199879352
0.0004199879352
0.0004199879352
0.0004199879352
0.0004199879352
0.0004199879352
0.0004199879352
0.0004199879352
0.0004199879352
0.0004199879352
0.0004199879352
0.0004199879352
0.0004199879352
0.0004199879352
0.0004199879352
0.0004199879352
0.0004199879352
0.0004199879352
0.0004199879352
0.0004199879352
0.0004199879352
0.0004199879352
0.0004199879352
0.0004199879352
0.0004199879352
0.0004199879352
0.0004199879352
0.0004199879353
0.0004199879353
0.0004199879353
0.0004199879352
0.0004199879352
0.0004199879352
0.0004199879352
0.0004199879353
0.0004199879353
0.0004199879353
0.0004199879353
0.0004199879353
0.0004199879352
0.0004199879352
0.0004199879353
0.0004199879353
0.0004199879353
0.0004199879353
0.0004199879354
0.0004199879354
0.0004199879354
0.0004199879353
0.0004199879353
0.0004199879353
0.0004199879353
0.0004199879354
0.0004199879354
0.0004199879355
0.0004199879356
0.0004199879356
0.0004199879353
0.0004199879353
0.0004199879354
0.0004199879354
0.0004199879355
0.0004199879356
0.0004199879357
0.0004199879358
0.0004199879359
0.0004199879354
0.0004199879354
0.0004199879355
0.0004199879356
0.0004199879357
0.0004199879359
0.000419987936
0.0004199879362
0.0004199879363
0.0004199879355
0.0004199879355
0.0004199879357
0.0004199879358
0.000419987936
0.0004199879363
0.0004199879366
0.0004199879369
0.000419987937
0.0004199879357
0.0004199879358
0.000419987936
0.0004199879363
0.0004199879366
0.000419987937
0.0004199879375
0.0004199879379
0.0004199879382
0.000419987936
0.0004199879362
0.0004199879365
0.000419987937
0.0004199879375
0.0004199879382
0.000419987939
0.0004199879397
0.0004199879401
0.0004199879365
0.0004199879369
0.0004199879374
0.0004199879381
0.0004199879391
0.0004199879402
0.0004199879414
0.0004199879425
0.0004199879431
0.0004199879375
0.000419987938
0.0004199879388
0.00041998794
0.0004199879415
0.0004199879433
0.0004199879452
0.0004199879469
0.0004199879479
0.0004199879389
0.0004199879398
0.0004199879411
0.000419987943
0.0004199879454
0.0004199879483
0.0004199879512
0.0004199879538
0.0004199879554
0.0004199879414
0.0004199879427
0.0004199879449
0.0004199879479
0.0004199879517
0.0004199879561
0.0004199879606
0.0004199879646
0.0004199879671
0.0004199879453
0.0004199879475
0.0004199879509
0.0004199879556
0.0004199879615
0.0004199879682
0.0004199879752
0.0004199879812
0.000419987985
0.0004199879517
0.0004199879551
0.0004199879605
0.0004199879677
0.0004199879768
0.0004199879871
0.0004199879976
0.0004199880067
0.0004199880123
0.0004199879619
0.0004199879672
0.0004199879755
0.0004199879866
0.0004199880005
0.000419988016
0.0004199880318
0.0004199880453
0.0004199880537
0.0004199879782
0.0004199879863
0.0004199879989
0.0004199880159
0.0004199880368
0.0004199880601
0.0004199880836
0.0004199881036
0.000419988116
0.0004199880037
0.0004199880161
0.0004199880353
0.0004199880609
0.0004199880921
0.0004199881268
0.0004199881614
0.0004199881909
0.000419988209
0.0004199880436
0.0004199880624
0.0004199880911
0.0004199881293
0.0004199881757
0.0004199882269
0.0004199882777
0.0004199883208
0.000419988347
0.0004199881053
0.0004199881334
0.0004199881762
0.0004199882329
0.0004199883011
0.0004199883762
0.0004199884503
0.0004199885128
0.0004199885509
0.0004199882002
0.0004199882419
0.0004199883051
0.0004199883884
0.0004199884882
0.0004199885975
0.000419988705
0.0004199887954
0.0004199888502
0.0004199883449
0.0004199884062
0.0004199884989
0.0004199886204
0.0004199887654
0.0004199889235
0.0004199890786
0.0004199892087
0.0004199892874
0.0004199885635
0.0004199886532
0.000419988788
0.0004199889642
0.0004199891736
0.0004199894012
0.0004199896239
0.0004199898103
0.0004199899229
0.0004199888916
0.0004199890215
0.0004199892164
0.0004199894703
0.000419989771
0.000419990097
0.0004199904152
0.0004199906811
0.0004199908417
0.0004199893799
0.000419989567
0.0004199898469
0.0004199902105
0.00041999064
0.0004199911044
0.0004199915569
0.0004199919344
0.0004199921621
0.0004199901015
0.0004199903692
0.0004199907687
0.0004199912864
0.0004199918964
0.0004199925545
0.0004199931943
0.0004199937273
0.0004199940484
0.0004199911603
0.0004199915408
0.0004199921076
0.0004199928404
0.0004199937019
0.0004199946291
0.0004199955284
0.0004199962761
0.000419996726
0.0004199927026
0.0004199932403
0.0004199940398
0.000419995071
0.0004199962801
0.0004199975784
0.0004199988348
0.0004199998774
0.0004200005038
0.000419994934
0.0004199956891
0.0004199968097
0.0004199982518
0.0004199999386
0.0004200017452
0.00042000349
0.0004200049355
0.0004200058031
0.0004199981394
0.0004199991931
0.0004200007538
0.000420002758
0.0004200050968
0.0004200075962
0.0004200100057
0.0004200119994
0.0004200131953
0.0004200027101
0.000420004171
0.0004200063313
0.0004200090997
0.0004200123237
0.000420015763
0.0004200190738
0.0004200218108
0.0004200234516
0.0004200091784
0.0004200111914
0.0004200141637
0.0004200179661
0.0004200223868
0.000420027096
0.0004200316244
0.0004200353651
0.0004200376071
0.0004200182626
0.0004200210202
0.000420025087
0.0004200302823
0.0004200363143
0.0004200427325
0.0004200488992
0.0004200539907
0.0004200570416
0.0004200309251
0.0004200346822
0.0004200402177
0.0004200472811
0.0004200554732
0.0004200641822
0.0004200725446
0.0004200794466
0.0004200835822
0.0004200484447
0.0004200535373
0.0004200610341
0.0004200705914
0.0004200816665
0.0004200934322
0.0004201047248
0.0004201140435
0.0004201196272
0.0004200725057
0.0004200793731
0.000420089476
0.0004201023459
0.0004201172494
0.0004201330743
0.0004201482585
0.000420160788
0.0004201682966
0.000420105304
0.000420114517
0.0004201280629
0.0004201453081
0.0004201652677
0.0004201864535
0.0004202067786
0.0004202235514
0.0004202336051
0.0004201496735
0.0004201619669
0.0004201800331
0.0004202030214
0.0004202296166
0.0004202578388
0.0004202849135
0.0004203072596
0.0004203206576
0.0004202092325
0.0004202255433
0.0004202495032
0.0004202799774
0.0004203152209
0.0004203526137
0.0004203884872
0.0004204181015
0.0004204358623
0.0004202885513
0.0004203100618
0.0004203416478
0.000420381805
0.0004204282321
0.000420477483
0.0004205247344
0.0004205637492
0.0004205871539
0.0004203933419
0.0004204215281
0.0004204629003
0.0004205154775
0.000420576243
0.0004206406921
0.000420702524
0.0004207535849
0.0004207842221
0.0004205306703
0.0004205673521
0.0004206211717
0.0004206895356
0.0004207685141
0.0004208522567
0.0004209325892
0.0004209989299
0.000421038739
0.0004207091893
0.0004207565837
0.0004208260875
0.0004209143258
0.0004210162115
0.0004211241977
0.0004212277583
0.0004213132708
0.0004213645827
0.0004209393904
0.0004210001638
0.0004210892387
0.0004212022487
0.0004213326504
0.0004214707784
0.0004216031847
0.0004217124819
0.0004217780542
0.0004212338686
0.0004213111876
0.0004214244401
0.0004215680114
0.0004217335402
0.0004219087397
0.0004220765705
0.0004222150403
0.0004222980871
0.0004216075915
0.000421705168
0.0004218479874
0.0004220288743
0.0004222372185
0.0004224575212
0.000422668377
0.0004228422265
0.0004229464443
0.0004220781584
0.0004222002882
0.0004223788971
0.0004226048767
0.00042286486
0.0004231394527
0.0004234020016
0.0004236182962
0.000423747893
0.0004226660332
0.0004228176223
0.0004230391117
0.0004233190204
0.0004236406344
0.0004239798866
0.0004243038865
0.0004245705731
0.0004247302927
0.0004233947331
0.0004235813093
0.0004238536501
0.0004241973892
0.0004245917909
0.0004250072368
0.0004254035007
0.0004257293378
0.0004259243126
0.0004242909543
0.0004245186595
0.0004248506853
0.0004252691912
0.0004257486526
0.0004262529182
0.0004267331921
0.0004271275522
0.0004273632835
0.0004253846215
0.0004256601804
0.0004260615362
0.0004265667023
0.0004271445018
0.0004277511215
0.0004283278382
0.000428800636
0.0004290829238
0.0004267088461
0.0004270395065
0.0004275205517
0.0004281250865
0.0004288152538
0.0004295383945
0.0004302245451
0.0004307860925
0.0004311209451
0.0004282997674
0.0004286931982
0.0004292648144
0.0004299819227
0.0004307989788
0.0004316532647
0.000432462186
0.000433123012
0.0004335165378
0.000430196097
0.0004306601682
0.0004313334998
0.0004321767036
0.0004331354508
0.0004341356998
0.0004350808207
0.0004358514634
0.0004363097457
0.0004324384363
0.0004329811232
0.0004337674272
0.0004347503157
0.0004358655429
0.0004370264599
0.0004381210128
0.0004390117876
0.0004395407495
0.0004350687987
0.0004356980197
0.0004366084282
0.0004377443636
0.0004390305142
0.0004403663518
0.000441623062
0.0004426438158
0.0004432490778
0.0004381299096
0.0004388533422
0.0004398985977
0.0004412003926
0.0004426712094
0.0004441954123
0.0004456261764
0.0004467860376
0.0004474727748
0.0004416643928
0.0004424892764
0.0004436794544
0.0004451590372
0.0004468271995
0.000448552046
0.000450167614
0.0004514747482
0.0004522475524
0.0004457138735
0.0004466468108
0.0004479910406
0.0004496591235
0.0004515358926
0.0004534721511
0.0004552818248
0.000456743207
0.0004576059596
0.0004503180333
0.0004513647975
0.000452870996
0.0004547367611
0.00045683165
0.0004589882629
0.0004609996249
0.0004626208382
0.0004635766
0.000455513653
0.0004566790111
0.0004583536396
0.0004604244574
0.0004627449396
0.0004651287513
0.0004673474363
0.0004691325056
0.0004701834274
0.0004613336808
0.0004626212403
0.0004644690971
0.0004667502903
0.0004693015611
0.0004719171008
0.0004743466186
0.0004762978867
0.0004774451449
0.0004678063635
0.00046921845
0.0004712425076
0.0004737371703
0.000476521971
0.0004793713001
0.0004820129187
0.0004841309697
0.000485374729
0.0004749544758
0.0004764920469
0.0004786933409
0.0004814022219
0.0004844207341
0.0004875033642
0.0004903560564
0.0004926396884
0.0004939790927
0.0004827946776
0.0004844572767
0.0004868348515
0.0004897563054
0.0004930061192
0.0004963190026
0.0004993794575
0.0005018257053
0.0005032588966
0.0004913370248
0.0004931227762
0.0004956736885
0.0004988036959
0.0005022798518
0.0005058174444
0.000509080141
0.0005116843452
0.0005132085084
0.0005005846494
0.0005024902945
0.0005052096731
0.0005085419277
0.0005122370288
0.000515991419
0.0005194487576
0.0005222046766
0.0005238161076
0.0005105336192
0.0005125545907
0.0005154357496
0.0005189618059
0.0005228661929
0.0005268272896
0.0005304697725
0.0005333697309
0.0005350639237
0.0005211729769
0.0005233035072
0.0005263381041
0.0005300475777
0.0005341495576
0.0005383053282
0.0005421217813
0.0005451568461
0.0005469285959
0.0005324849516
0.0005347182094
0.0005378964426
0.0005417772535
0.0005460633705
0.0005504001152
0.0005543779391
0.0005575381179
0.0005593816338
0.0005444453293
0.000546773578
0.0005500844115
0.0005541230585
0.0005585783944
0.0005630810471
0.0005672064874
0.0005704809374
0.0005723899614
0.0005570239624
0.0005594387327
0.0005628701399
0.0005670519937
0.0005716604862
0.0005763129278
0.000580571354
0.0005839485964
0.0005859165242
0.000570185394
0.0005726776642
0.0005762168802
0.0005805264845
0.0005852712497
0.0005900566228
0.0005944328061
0.0005979009371
0.0005999209361
0.0005838895708
0.0005864499471
0.0005900837201
0.0005945050897
0.0005993687383
0.0006042697538
0.000608748134
0.0006122950271
0.0006143601489
0.0005980926159
0.0006007115078
0.0006044263417
0.0006089432472
0.0006139081853
0.0006189074107
0.0006234723464
0.0006270858399
0.0006291891243
0.0006127476356
0.0006154154198
0.0006191978
0.0006237940324
0.0006288427386
0.0006339228618
0.0006385588575
0.0006422269243
0.0006443614933
0.0006278055323
0.0006305127018
0.0006343493002
0.0006390089086
0.0006441241811
0.0006492682444
0.0006539601506
0.0006576710469
0.0006598301865
0.0006432158013
0.0006459530963
0.0006498309503
0.0006545384487
0.0006597036192
0.0006648952202
0.0006696284045
0.0006733707963
0.0006755480263
0.0006589272898
0.0006616858093
0.0006655924727
0.000670333014
0.0006755321257
0.000680755584
0.0006855160716
0.0006892791383
0.0006914682694
0.0006748889037
0.0006776601955
0.0006815838611
0.0006863433764
0.0006915613267
0.0006968018151
0.0007015763997
0.0007053499159
0.0007075450944
0.0006910502461
0.0006938263771
0.0006977559706
0.0007025212757
0.0007077439232
0.0007129875669
0.0007177638927
0.0007215382877
0.000723734029
0.0007073621822
0.000710135788
0.000714061035
0.0007188199052
0.0007240341441
0.0007292680879
0.0007340347054
0.0007378011046
0.0007399923155
0.0007237773226
0.0007265416398
0.0007304531074
0.0007351943231
0.0007403881282
0.0007456005758
0.0007503469738
0.0007540972212
0.0007562792132
0.0007402504243
0.000742999306
0.0007468884226
0.00075160179
0.0007567642345
0.0007619444633
0.0007666610796
0.0007703877458
0.0007725562395
0.0007567387106
0.0007594666277
0.0007633256834
0.0007680020324
0.0007731232839
0.0007782616388
0.0007829398538
0.0007866362308
0.0007887873536
0.0007732021123
0.0007759041433
0.0007797262744
0.0007843574389
0.0007894287361
0.0007945166059
0.000799148721
0.000802808806
0.0008049390839
0.000789603436
0.0007922752471
0.0007960544076
0.0008006331905
0.0008056468057
0.0008106765856
0.0008152557907
0.0008188742619
0.0008209806062
0.0008059084659
0.0008085462838
0.0008122772073
0.0008167973351
0.0008217465246
0.0008267115685
0.0008312319001
0.0008348040857
0.0008368837765
0.000822086005
0.0008246865848
0.0008283647396
0.0008328208085
0.0008376997561
0.0008425943213
0.0008470506148
0.0008505724571
0.0008526231241
0.0008381078646
0.0008406684543
0.0008442899938
0.0008486774117
0.0008534811666
0.0008583003545
0.0008626881924
0.0008661562094
0.0008681758107
0.0008539488112
0.0008564671142
0.0008600288249
0.0008643437495
0.0008690681609
0.0008738078548
0.0008781235136
0.0008815347599
0.0008835215603
0.000869586477
0.0008720606177
0.0008755598692
0.0008797991472
0.0008844407992
0.0008890975999
0.0008933379938
0.0008966900176
0.0008986425661
0.0008850012346
0.0008874297248
0.0008908644224
0.0008950255316
0.0008995816803
0.0009041528456
0.000908315473
0.000911606276
0.0009135233824
0.0009001761164
0.0009025577957
0.0009059263181
0.0009100073066
0.0009144758161
0.000918959199
0.00092304209
0.000926270088
0.0009281508015
0.0009150966726
0.0009174306737
0.0009207318048
0.0009247312175
0.0009291104945
0.0009335044839
0.0009375061482
0.0009406701323
0.00094251372
0.0009297507821
0.0009320365023
0.0009352693918
0.0009391862036
0.0009434751359
0.0009477785974
0.0009516979747
0.0009547970731
0.0009566029986
0.0009441284792
0.0009463655501
0.0009495296762
0.0009533632521
0.0009575611423
0.0009617733621
0.0009656097737
0.0009686434166
0.00097041132
0.0009582217809
0.0009604100403
0.0009635051697
0.0009672552196
0.0009713617377
0.0009754823739
0.0009792354794
0.000982203365
0.000983933044
0.0009720245174
0.0009741639829
0.000977190135
0.000980856672
0.0009848718162
0.0009889008523
0.0009925706088
0.0009954726722
0.0009971640649
0.0009855321664
0.0009876230122
0.0009905804265
0.0009941637288
0.0009980877865
0.00100202549
0.001005612116
0.001008448502
0.00101010167
0.0009987416946
0.00100078423
0.001003673336
0.001007173911
0.00101100742
0.001014854306
0.001018358251
0.001021129289
0.001022744405
0.001011651406
0.001013646056
0.001016467447
0.001019886001
0.001023629714
0.001027386518
0.001030808432
0.001033514612
0.001035091944
0.001024260801
0.001026208089
0.001028962499
0.001032299906
0.001035954765
0.001039622411
0.001042963116
0.00104560507
0.00104714497
0.001036570433
0.001038470968
0.001041159249
0.001044416531
0.001047983639
0.001051563216
0.001054823685
0.001057402163
0.001058905056
0.001048581795
0.001050436255
0.00105305936
0.001056237662
0.001059718259
0.001063210993
0.001066392328
0.001068908184
0.001070374557
0.001060297195
0.001062106318
0.001064665284
0.001067765854
0.001071161294
0.00107456853
0.001077671939
0.001080126118
0.00108155651
0.001071719653
0.001073484225
0.00107598016
0.00107900433
0.001082316062
0.001085639242
0.001088666026
0.001091059545
0.001092454543
0.001082852804
0.001084573651
0.001087007718
0.001089956892
0.001093186442
0.001096427089
0.001099378624
0.001101712565
0.001103072792
0.00109370081
0.001095378787
0.001097752196
0.001100627832
0.001103776792
0.001106936492
0.001109814217
0.001112089712
0.001113415823
0.001104268275
0.001105904265
0.001108218258
0.00111102186
0.00111409187
0.001117172265
0.001119977667
0.001122195889
0.001123488565
0.001114560177
0.00111615508
0.001118410929
0.001121144032
0.001124136772
0.001127139543
0.00112987415
0.001132036303
0.001133296245
0.001124581801
0.00112613653
0.001128335525
0.001130999691
0.001133916868
0.001136843725
0.001139509095
0.001141616409
0.00114284433
0.00113433868
0.001135854156
0.001137997599
0.001140594407
0.001143437746
0.001146290422
0.00114888813
0.001150941852
0.001152138479
0.001143836541
0.001145313691
0.001147402892
0.001149933928
0.001152705169
0.001155485408
0.001158017044
0.001160018431
0.001161184498
0.001153081263
0.001154521013
0.001156557285
0.001159024138
0.001161725022
0.001164434574
0.001166901735
0.00116885205
0.001169988294
0.001162078831
0.001163482108
0.001165466759
0.001167871017
0.001170503285
0.001173143899
0.001175548179
0.001177448687
0.001178555846
0.001170835305
0.001172203028
0.001174137362
0.001176480605
0.00117904599
0.001181619408
0.001183962398
0.00118581436
0.001186893171
0.001179356782
0.001180689864
0.001182575174
0.001184858972
0.001187359196
0.00118986715
0.001192150431
0.001193955101
0.001195006297
0.001187649372
0.001188948719
0.001190786285
0.001193012193
0.001195448961
0.001197893167
0.001200118308
0.001201876929
0.001202901238
0.001195719175
0.00119698568
0.001198776769
0.001200946323
0.001203321322
0.001205703478
0.00120787203
0.001209585833
0.001210583975
0.001203572255
0.0012048068
0.001206552661
0.001208667378
0.001210982274
0.001213304056
0.00121541755
0.001217087752
0.001218060438
0.001211214627
0.001212418082
0.001214119945
0.001216181319
0.001218437753
0.001220700812
0.001222760758
0.001224388557
0.001225336488
0.00121865224
0.001219825458
0.001221484535
0.001223494036
0.001225693621
0.001227899583
0.001229907466
0.001231494042
0.00123241791
0.001225890961
0.001227034782
0.001228652262
0.001230611334
0.001232755657
0.001234906118
0.0012368634
0.001238409912
0.001239310395
0.001232936568
0.001234051816
0.001235628866
0.001237538927
0.001239629545
0.001241726072
0.001243634185
0.00124514177
0.001246019535
0.00123979474
0.001240882223
0.001242419986
0.001244282425
0.001246320863
0.001248364993
0.001250225341
0.001251695116
0.001252550814
0.001246471048
0.001247531555
0.001249031152
0.00125084733
0.001252835081
0.001254828319
0.001256642278
0.001258075333
0.001258909606
0.001252970948
0.001254005253
0.001255467779
0.001257239027
0.001259177555
0.001261121371
0.001262890286
0.001264287691
0.001265101163
0.001259299779
0.001260308639
0.001261735166
0.001263462784
0.001265353516
0.00126724935
0.001268974536
0.001270337335
0.001271130617
0.001265462758
0.001266446911
0.001267838486
0.001269523745
0.001271368077
0.001273217333
0.001274900074
0.001276229286
0.001277002976
0.001271464978
0.001272425145
0.001273782789
0.00127542693
0.001277226224
0.001279030273
0.001280671822
0.001281968442
0.00128272312
0.001277311404
0.001278248288
0.001279572998
0.001281177229
0.001282932814
0.001284692993
0.001286294572
0.00128755957
0.001288295806
0.001283006872
0.00128392116
0.001285213906
0.001286779409
0.001288492578
0.00129021019
0.001291772991
0.001293007312
0.001293725658
0.001288556093
0.001289448452
0.001290710182
0.001292238105
0.001293910121
0.001295586435
0.001297111617
0.001298316181
0.001299017175
0.001293963648
0.001294834729
0.001296066364
0.001297557825
0.001299189916
0.001300826168
0.00130231486
0.001303490564
0.00130417473
0.001299233989
0.001300084426
0.001301286863
0.001302742951
0.001304336312
0.001305933705
0.001307387005
0.001308534719
0.001309202568
0.001304371442
0.001305201851
0.001306375963
0.001307797739
0.001309353531
0.001310913235
0.001312332211
0.001313452783
0.00131410481
0.001309380208
0.001310191188
0.001311337824
0.001312726317
0.001314245672
0.001315768822
0.001317154512
0.001318248765
0.001318885451
0.001314264362
0.001315056496
0.001316176481
0.001317532691
0.001319016707
0.001320504408
0.001321857822
0.001322926555
0.001323548368
0.001319027857
0.001319801711
0.001320895846
0.001322220747
0.00132367049
0.001325123815
0.00132644593
0.00132748992
0.001328097313
0.001323674524
0.001324430648
0.001325499711
0.001326794247
0.001328210753
0.001329630742
0.001330922509
0.001331942509
0.001332535923
0.001328208075
0.001328947002
0.001329991749
0.001331256836
0.001332641109
0.001334028772
0.001335291112
0.001336287852
0.001336867713
0.001332632104
0.001333354351
0.001334375514
0.00133561204
0.001336965055
0.00133832137
0.001339555175
0.001340529363
0.001341096084
0.001336950085
0.001337656155
0.001338654444
0.001339863269
0.001341185968
0.001342511884
0.001343718019
0.001344670338
0.001345224319
0.00134116538
0.001341855757
0.001342831859
0.001344013816
0.001345307112
0.001346603545
0.001347782846
0.001348713958
0.001349255586
0.00134528123
0.001345956385
0.001346910964
0.001348066859
0.001349331634
0.001350599469
0.001351752742
0.001352663287
0.001353192934
0.001349300764
0.001349961149
0.001350894847
0.001352025456
0.001353262561
0.001354502652
0.001355630676
0.001356521268
0.001357039292
0.001353226991
0.001353873043
0.001354786477
0.001355892548
0.001357102802
0.001358315969
0.001359419491
0.001360290721
0.001360797468
0.001357062797
0.001357694936
0.0013585887
0.001359670951
0.001360855139
0.00136204217
0.001363121905
0.001363974339
0.001364470138
0.001360810947
0.001361429575
0.001362304235
0.001363363354
0.001364522225
0.001365683871
0.001366740502
0.001367574678
0.001368059842
0.001364474072
0.001365079571
0.001365935668
0.001366972306
0.001368106574
0.001369243547
0.00137027772
0.001371094148
0.001371568974
0.001368054663
0.001368647396
0.001369485441
0.001370500214
0.001371610549
0.001372723519
0.001373735841
0.001374534998
0.001374999763
0.001371555062
0.001372135367
0.001372955837
0.001373949321
0.001375036349
0.001376125939
0.001377116973
0.001377899301
0.001378354261
0.001374977443
0.001375545635
0.00137634897
0.001377321695
0.001378385991
0.001379452771
0.001380423031
0.001381188932
0.001381634318
0.001378323799
0.00137888016
0.001379666761
0.001380619206
0.001381661287
0.001382705768
0.00138365571
0.00138440554
0.001384841558
0.001381595915
0.0013821407
0.001382910918
0.001383843502
0.001384863819
0.001385886443
0.001386816461
0.001387550522
0.001387977345
0.00138479535
0.001385328772
0.001386082906
0.001386995982
0.001387994909
0.001388996039
0.001389906452
0.001390624989
0.001391042753
0.001387923402
0.001388445633
0.001389183919
0.001390077762
0.001391055588
0.001392035497
0.001392926538
0.001393629724
0.001394038527
0.001390981081
0.001391492242
0.001392214845
0.001393089643
0.001394046555
0.001395005414
0.001395877221
0.00139656515
0.00139696504
0.001393969072
0.00139446923
0.001395176234
0.001396032073
0.001396968146
0.001397906007
0.001398758605
0.001399431284
0.001399822256
0.0013968877
0.001397376857
0.001398068254
0.001398905108
0.001399820289
0.001400737073
0.001401570367
0.0014022277
0.001402609691
0.001399736896
0.001400214983
0.001400890664
0.00140170838
0.001402602475
0.001403497956
0.001404311713
0.001404953495
0.001405326374
0.001402516163
0.001402983033
0.001403642777
0.001404441062
0.00140531372
0.001406187514
0.001406981351
0.001407607257
0.001407970824
0.001405224545
0.001405679968
0.001406323431
0.001407101844
0.001407952549
0.001408804099
0.001409577474
0.001410187051
0.00141054103
0.001407860612
0.001408304266
0.001408930975
0.001409688918
0.001410516977
0.001411345547
0.001412097754
0.001412690416
0.001413034453
0.001410422441
0.001410853911
0.001411463263
0.001412199972
0.001413004512
0.001413809185
0.001414539349
0.001415114378
0.001415448042
0.001412907626
0.001413326402
0.001413917658
0.001414632207
0.001415412176
0.001416191854
0.001416898939
0.001417455488
0.001417778272
0.001415313288
0.001415718771
0.001416291061
0.00141698237
0.001417736544
0.001418489961
0.001419172781
0.001419709883
0.001420021214
0.001417636121
0.001418027623
0.001418579962
0.001419246807
0.001419973813
0.001420699557
0.00142135679
0.001421873381
0.001422172625
0.001419872444
0.001420249209
0.001420780507
0.001421421547
0.001422119891
0.00142281643
0.001423446656
0.001423941591
0.001424228075
0.001422018295
0.001422379507
0.001422888603
0.001423502415
0.001424170516
0.001424836243
0.001425437975
0.001425910066
0.001426183095
0.001424069536
0.001424414352
0.001424900047
0.001425485165
0.001426121405
0.00142675468
0.001427326416
0.001427774473
0.001428033352
0.00142602201
0.00142634958
0.00142681067
0.001427365633
0.001427968409
0.001428567625
0.001429107905
0.001429530778
0.001429774844
0.001427871681
0.001428181182
0.001428616505
0.001429139913
0.001429707703
0.001430271349
0.001430778818
0.001431175456
0.001431404107
0.001429614808
0.001429905476
0.001430313962
0.001430804537
0.001431335972
0.001431862711
0.001432336188
0.00143270569
0.001432918422
0.001431248118
0.001431519286
0.001431900011
0.001432356669
0.001432850608
0.001433339351
0.001433777902
0.001434119575
0.00143431601