/*--------------------------------*- C++ -*----------------------------------*\
| =========                 |                                                 |
| \\      /  F ield         | OpenFOAM: The Open Source CFD Toolbox           |
|  \\    /   O peration     | Version:  2212                                  |
|   \\  /    A nd           | Website:  www.openfoam.com                      |
|    \\/     M anipulation  |                                                 |
\*---------------------------------------------------------------------------*/
FoamFile
{
    version     2.0;
    format      ascii;
    arch        "LSB;label=32;scalar=64";
    class       volScalarField;
    location    "30.00000000";
    object      H;
}
// * * * * * * * * * * * * * * * * * * * * * * * * * * * * * * * * * * * * * //

dimensions      [0 0 0 0 0 0 0];

internalField   nonuniform List<scalar> 
3000
(
1.35238346e-29
1.517811945e-29
1.766724274e-29
2.096816308e-29
2.502620407e-29
2.96895195e-29
3.459007159e-29
3.894976169e-29
4.141291867e-29
5.05826186e-29
5.696020959e-29
6.652915121e-29
7.919841887e-29
9.482181907e-29
1.130844809e-28
1.33289918e-28
1.538401737e-28
1.70353877e-28
1.127811479e-28
1.279133362e-28
1.507984437e-28
1.81541059e-28
2.203264132e-28
2.671488726e-28
3.210071606e-28
3.77878212e-28
4.236094154e-28
2.137800638e-28
2.448882538e-28
2.926017591e-28
3.580463545e-28
4.427766832e-28
5.478167309e-28
6.710706618e-28
8.010008601e-28
9.010945257e-28
3.777986031e-28
4.379710204e-28
5.317424924e-28
6.629795216e-28
8.365002162e-28
1.055243866e-27
1.313062834e-27
1.579800211e-27
1.77690611e-27
6.466341426e-28
7.591411087e-28
9.370840716e-28
1.190310532e-27
1.530194231e-27
1.962585777e-27
2.471648752e-27
2.990593242e-27
3.36487043e-27
1.092815888e-27
1.298773405e-27
1.628449817e-27
2.10324617e-27
2.745981889e-27
3.564915298e-27
4.521247715e-27
5.478343918e-27
6.155312618e-27
1.84144385e-27
2.212967917e-27
2.813146916e-27
3.684657796e-27
4.869932296e-27
6.378423476e-27
8.126303299e-27
9.852548826e-27
1.10602854e-26
3.108803201e-27
3.772063956e-27
4.850794257e-27
6.425909468e-27
8.573399716e-27
1.130154183e-26
1.444347896e-26
1.751946884e-26
1.965936333e-26
5.268827348e-27
6.443957322e-27
8.364546873e-27
1.117932609e-26
1.502186597e-26
1.989476571e-26
2.54817537e-26
3.091984027e-26
3.469220083e-26
8.968950625e-27
1.103952263e-26
1.443533457e-26
1.942438638e-26
2.623925071e-26
3.486849416e-26
4.473074669e-26
5.429399314e-26
6.092078831e-26
1.533150969e-26
1.896544883e-26
2.493971213e-26
3.37309158e-26
4.574190359e-26
6.093160417e-26
7.82521975e-26
9.500789731e-26
1.066205998e-25
2.630498226e-26
3.266582463e-26
4.314068446e-26
5.856949492e-26
7.96466262e-26
1.062696523e-25
1.365722061e-25
1.65846142e-25
1.861719877e-25
4.527625746e-26
5.639347314e-26
7.472270684e-26
1.017354661e-25
1.386208209e-25
1.851391091e-25
2.379665954e-25
2.889411232e-25
3.245848289e-25
7.813539527e-26
9.755490102e-26
1.296049731e-25
1.76862475e-25
2.41357279e-25
3.225128943e-25
4.142281252e-25
5.021815014e-25
5.655797196e-25
1.351157899e-25
1.690357329e-25
2.250863652e-25
3.078265335e-25
4.208166895e-25
5.628165753e-25
7.218148217e-25
8.669049696e-25
9.874309192e-25
2.339537073e-25
2.931705327e-25
3.911649978e-25
5.361280816e-25
7.348361406e-25
9.867275861e-25
1.275801963e-24
1.563688064e-24
1.745325842e-24
4.053305968e-25
5.085275172e-25
6.794219903e-25
9.3237312e-25
1.279136332e-24
1.718056668e-24
2.218219024e-24
2.701668634e-24
3.032594217e-24
7.024043188e-25
8.819485426e-25
1.179362716e-24
1.619615005e-24
2.22292455e-24
2.985769296e-24
3.853317981e-24
4.689417331e-24
5.266039618e-24
1.217418243e-24
1.529505657e-24
2.046606809e-24
2.812175276e-24
3.861305367e-24
5.187715526e-24
6.695974281e-24
8.149090521e-24
9.146724832e-24
2.11060495e-24
2.652941187e-24
3.551836199e-24
4.883103752e-24
6.70808646e-24
9.016235038e-24
1.164185741e-23
1.417153642e-23
1.589405794e-23
3.66055214e-24
4.603201267e-24
6.166248722e-24
8.482301429e-24
1.165913028e-23
1.567967275e-23
2.025664139e-23
2.467010323e-23
2.767822843e-23
6.352155662e-24
7.99151118e-24
1.071123143e-23
1.474393895e-23
2.027999744e-23
2.729315346e-23
3.528592196e-23
4.300340935e-23
4.827278321e-23
1.103059047e-23
1.38841105e-23
1.862134675e-23
2.565198421e-23
3.531471099e-23
4.757277467e-23
6.156647876e-23
7.510562386e-23
8.437564507e-23
1.917177617e-23
2.414501552e-23
3.240859596e-23
4.468797052e-23
6.159158903e-23
8.307838972e-23
1.0766752e-22
1.315300523e-22
1.479383492e-22
3.335934261e-23
4.204201364e-23
5.648629194e-23
7.798617308e-23
1.076484922e-22
1.454594871e-22
1.888805702e-22
2.312040538e-22
2.604917855e-22
5.812981429e-23
7.332386771e-23
9.864040258e-23
1.364093946e-22
1.886757193e-22
2.555581826e-22
3.327349845e-22
4.084248923e-22
4.6127692e-22
1.014793829e-22
1.281482535e-22
1.726780966e-22
2.39313644e-22
3.319019171e-22
4.509969411e-22
5.893140465e-22
7.260958992e-22
8.227836557e-22
1.775693616e-22
2.245596152e-22
3.032383383e-22
4.214468218e-22
5.865691735e-22
8.004012868e-22
1.050840954e-21
1.301179726e-21
1.480964475e-21
3.116251465e-22
3.948211741e-22
5.346202625e-22
7.457386357e-22
1.042650388e-21
1.430446655e-21
1.88945024e-21
2.354465108e-21
2.695007676e-21
5.488942818e-22
6.970653418e-22
9.471733437e-22
1.327317253e-21
1.866465214e-21
2.578072827e-21
3.43119757e-21
4.309490143e-21
4.967594106e-21
9.712104651e-22
1.236984207e-21
1.688115394e-21
2.379229231e-21
3.369448689e-21
4.692840871e-21
6.303375453e-21
7.992320492e-21
9.290684108e-21
1.728005961e-21
2.208740828e-21
3.03027734e-21
4.300736215e-21
6.142928198e-21
8.640652895e-21
1.173220325e-20
1.504099197e-20
1.765504548e-20
3.095178343e-21
3.973226377e-21
5.485712661e-21
7.85037658e-21
1.132621991e-20
1.611516958e-20
2.215284444e-20
2.875568811e-20
3.411935135e-20
5.588502185e-21
7.210007724e-21
1.002872897e-20
1.449023871e-20
2.114764899e-20
3.048000184e-20
4.247493687e-20
5.588337418e-20
6.707464071e-20
1.018560995e-20
1.321699578e-20
1.854044795e-20
2.708087121e-20
4.003117364e-20
5.85135777e-20
8.273496906e-20
1.103948616e-19
1.340712708e-19
1.876774167e-20
2.451099928e-20
3.470847994e-20
5.130362036e-20
7.688775996e-20
1.140608608e-19
1.636980585e-19
2.215200516e-19
2.72138498e-19
3.501404631e-20
4.605096691e-20
6.587488662e-20
9.860991319e-20
1.49910523e-19
2.257358505e-19
3.28746003e-19
4.508738821e-19
5.598333376e-19
6.624402785e-20
8.777029879e-20
1.268867021e-19
1.924094556e-19
2.96698097e-19
4.532561882e-19
6.691535284e-19
9.289056061e-19
1.164158378e-18
1.272810455e-19
1.699039118e-19
2.482293717e-19
3.811924328e-19
5.957762682e-19
9.221896606e-19
1.377784119e-18
1.932131331e-18
2.439685844e-18
2.486980427e-19
3.343722822e-19
4.934313445e-19
7.666201391e-19
1.212600949e-18
1.897952175e-18
2.862817125e-18
4.04568665e-18
5.136005498e-18
4.947245457e-19
6.694858927e-19
9.96773303e-19
1.564186089e-18
2.498340031e-18
3.943429469e-18
5.987654393e-18
8.502810297e-18
1.082735246e-17
1.002791562e-18
1.364357654e-18
2.045980881e-18
3.235343513e-18
5.202990758e-18
8.254957169e-18
1.25753657e-17
1.788904513e-17
2.279407157e-17
2.072226216e-18
2.830437048e-18
4.265712875e-18
6.777929878e-18
1.093801831e-17
1.738073774e-17
2.646950101e-17
3.759897697e-17
4.782221198e-17
4.365844351e-18
5.976361284e-18
9.029319737e-18
1.437095739e-17
2.318956595e-17
3.676902901e-17
5.578009806e-17
7.886688642e-17
9.989472747e-17
9.372549577e-18
1.283551635e-17
1.939196324e-17
3.082132435e-17
4.956424081e-17
7.815226339e-17
1.177202579e-16
1.651963133e-16
2.079254203e-16
2.047302584e-17
2.800586881e-17
4.221919505e-17
6.684108078e-17
1.068385546e-16
1.671004108e-16
2.49329451e-16
3.465283317e-16
4.327052329e-16
4.53854213e-17
6.194638428e-17
9.304717481e-17
1.465167246e-16
2.324715567e-16
3.603088261e-16
5.322067389e-16
7.32248278e-16
9.06681933e-16
1.017044043e-16
1.384415957e-16
2.071030557e-16
3.243265636e-16
5.111099173e-16
7.861239997e-16
1.152009308e-15
1.573024556e-15
1.935073895e-15
2.291609824e-16
3.111632029e-16
4.638999401e-16
7.235786126e-16
1.135729595e-15
1.741071004e-15
2.546289338e-15
3.473931562e-15
4.269662723e-15
5.159353966e-16
6.994088549e-16
1.040884148e-15
1.621864853e-15
2.547713372e-15
3.92045245e-15
5.776038411e-15
7.95850052e-15
9.860383546e-15
1.153342831e-15
1.56305798e-15
2.327741746e-15
3.637705551e-15
5.753686642e-15
8.963221873e-15
1.344591722e-14
1.892443481e-14
2.386416403e-14
2.547192708e-15
3.457282939e-15
5.167055816e-15
8.133985244e-15
1.303233731e-14
2.070708283e-14
3.187875758e-14
4.616307498e-14
5.957004076e-14
5.546497282e-15
7.555462587e-15
1.136710206e-14
1.809569817e-14
2.949382067e-14
4.795827689e-14
7.586334116e-14
1.128365397e-13
1.48553085e-13
1.194213992e-14
1.636210991e-14
2.484530546e-14
4.008330826e-14
6.648013258e-14
1.102823494e-13
1.778186692e-13
2.682752924e-13
3.558330552e-13
2.564999135e-14
3.539826632e-14
5.428934829e-14
8.864272925e-14
1.488332677e-13
2.491770465e-13
4.025745985e-13
6.029705573e-13
7.901532453e-13
5.56684269e-14
7.730535989e-14
1.193993607e-13
1.960436132e-13
3.294017266e-13
5.468544063e-13
8.652132088e-13
1.255178929e-12
1.593397776e-12
1.234362763e-13
1.716227557e-13
2.647599774e-13
4.317652661e-13
7.136471344e-13
1.150028472e-12
1.741969414e-12
2.401711209e-12
2.92197015e-12
2.798389498e-13
3.858818257e-13
5.866677059e-13
9.342030275e-13
1.489282138e-12
2.284037231e-12
3.26301734e-12
4.250994251e-12
4.966464535e-12
6.386592104e-13
8.630452823e-13
1.272946585e-12
1.944614709e-12
2.939843557e-12
4.241302499e-12
5.703929107e-12
7.072823673e-12
8.010597105e-12
1.425050868e-12
1.866754013e-12
2.635697069e-12
3.813877983e-12
5.424937078e-12
7.369847636e-12
9.421845645e-12
1.126515693e-11
1.249162245e-11
3.008668182e-12
3.796363588e-12
5.098436418e-12
6.969104189e-12
9.367418068e-12
1.212089378e-11
1.494027542e-11
1.74321991e-11
1.906704409e-11
5.870882971e-12
7.138462832e-12
9.146902452e-12
1.190510378e-11
1.531630358e-11
1.915245816e-11
2.304772231e-11
2.64784806e-11
2.871577093e-11
1.053288427e-11
1.242204867e-11
1.53429484e-11
1.926939903e-11
2.406570911e-11
2.94416023e-11
3.491116686e-11
3.974144463e-11
4.288946939e-11
1.757451492e-11
2.028511885e-11
2.443755105e-11
2.998865722e-11
3.676927282e-11
4.440413443e-11
5.222423218e-11
5.917728992e-11
6.373022114e-11
2.775627822e-11
3.160265858e-11
3.748822367e-11
4.53701292e-11
5.505027314e-11
6.603580492e-11
7.739790744e-11
8.760780199e-11
9.435777943e-11
4.211881452e-11
4.757099649e-11
5.593399155e-11
6.718923301e-11
8.111354674e-11
9.707556032e-11
1.137888002e-10
1.290132324e-10
1.392136031e-10
6.202502092e-11
6.975254446e-11
8.164832164e-11
9.775532722e-11
1.178596107e-10
1.411750732e-10
1.659306965e-10
1.88831815e-10
2.044134901e-10
8.917634265e-11
1.000910434e-10
1.169678919e-10
1.399791792e-10
1.689810257e-10
2.030322821e-10
2.397148448e-10
2.741891476e-10
2.980154865e-10
1.256127607e-10
1.409291127e-10
1.647258588e-10
1.97408863e-10
2.390057095e-10
2.884403495e-10
3.424408332e-10
3.939482386e-10
4.300698369e-10
1.737464911e-10
1.950346604e-10
2.282666509e-10
2.742279127e-10
3.332629453e-10
4.042008247e-10
4.82655428e-10
5.58463909e-10
6.12309072e-10
2.364154528e-10
2.656407546e-10
3.114578749e-10
3.752156053e-10
4.577575894e-10
5.578681392e-10
6.69724777e-10
7.789651331e-10
8.573855784e-10
3.169866788e-10
3.565214262e-10
4.187135223e-10
5.056796983e-10
6.189595749e-10
7.573320085e-10
9.13150238e-10
1.06658254e-09
1.177679487e-09
4.195170358e-10
4.721106816e-10
5.550373943e-10
6.7137644e-10
8.23537783e-10
1.01029339e-09
1.22172324e-09
1.431162595e-09
1.583853211e-09
5.489489699e-10
6.176452222e-10
7.260750834e-10
8.784237671e-10
1.078077298e-09
1.323726316e-09
1.602684285e-09
1.880113814e-09
2.083457911e-09
7.112769702e-10
7.992729607e-10
9.381307888e-10
1.133191098e-09
1.388809131e-09
1.703422654e-09
2.061071461e-09
2.417566134e-09
2.679945695e-09
9.135845573e-10
1.024037044e-09
1.198077252e-09
1.442124816e-09
1.76135803e-09
2.15369037e-09
2.599414426e-09
3.044105046e-09
3.372465232e-09
1.163847297e-09
1.29964306e-09
1.513085873e-09
1.811463664e-09
2.200498566e-09
2.677244623e-09
3.217889124e-09
3.757313249e-09
4.156665289e-09
1.470443091e-09
1.633962858e-09
1.890146758e-09
2.246832805e-09
2.709933392e-09
3.275357186e-09
3.915175856e-09
4.553824617e-09
5.029348279e-09
1.841403533e-09
2.034318642e-09
2.335432693e-09
2.752778975e-09
3.292169916e-09
3.948317338e-09
4.68998918e-09
5.4338762e-09
5.996022508e-09
2.28355412e-09
2.506706257e-09
2.853675814e-09
3.332418838e-09
3.948481287e-09
4.696179264e-09
5.54324818e-09
6.39860742e-09
7.04086916e-09
2.80180503e-09
3.055263812e-09
3.447913281e-09
3.987604433e-09
4.680407901e-09
5.522217544e-09
6.477107756e-09
7.432111695e-09
8.14682708e-09
3.398980352e-09
3.682221115e-09
4.120050518e-09
4.720853481e-09
5.493631478e-09
6.428607126e-09
7.477001144e-09
8.518746946e-09
9.296573545e-09
4.077031578e-09
4.390178647e-09
4.874699857e-09
5.540746875e-09
6.38816693e-09
7.401703031e-09
8.528848436e-09
9.642869893e-09
1.047283801e-08
4.843494493e-09
5.189456952e-09
5.720682535e-09
6.441618979e-09
7.35043764e-09
8.428225057e-09
9.618418418e-09
1.078881828e-08
1.165868154e-08
5.702877096e-09
6.075349954e-09
6.643911301e-09
7.409549892e-09
8.367291044e-09
9.494603031e-09
1.073122657e-08
1.194110356e-08
1.283782084e-08
6.6396014e-09
7.033308936e-09
7.631305521e-09
8.431453921e-09
9.425340511e-09
1.058687934e-08
1.185271796e-08
1.308470868e-08
1.399495488e-08
7.640398914e-09
8.050176696e-09
8.669762003e-09
9.493917367e-09
1.051076321e-08
1.169088167e-08
1.296857301e-08
1.420540673e-08
1.511605045e-08
8.692069336e-09
9.112598045e-09
9.745695998e-09
1.058306565e-08
1.160947746e-08
1.279254234e-08
1.406504857e-08
1.529005236e-08
1.618856552e-08
9.780922867e-09
1.020673094e-08
1.084509975e-08
1.168479621e-08
1.270747845e-08
1.387825847e-08
1.512929848e-08
1.632682154e-08
1.72016057e-08
1.089286657e-08
1.131843208e-08
1.195383708e-08
1.278513175e-08
1.379120567e-08
1.493523002e-08
1.61496444e-08
1.730539092e-08
1.814601836e-08
1.201371327e-08
1.243359498e-08
1.305800595e-08
1.38705841e-08
1.484788123e-08
1.595174515e-08
1.71157849e-08
1.821705672e-08
1.901443242e-08
1.312954115e-08
1.353850973e-08
1.41442894e-08
1.492848047e-08
1.58657929e-08
1.691740207e-08
1.801894115e-08
1.905479763e-08
1.980125152e-08
1.422703478e-08
1.462019152e-08
1.520026108e-08
1.594723293e-08
1.683451367e-08
1.7823266e-08
1.885194237e-08
1.981328685e-08
2.050260724e-08
1.529378039e-08
1.566665786e-08
1.621463344e-08
1.691654588e-08
1.774505754e-08
1.866196458e-08
1.960925605e-08
2.048885892e-08
2.111627749e-08
1.631850603e-08
1.666714802e-08
1.717744557e-08
1.782756207e-08
1.858997491e-08
1.942772673e-08
2.028696863e-08
2.107943672e-08
2.164157473e-08
1.729126418e-08
1.761228414e-08
1.808019233e-08
1.867295051e-08
1.936339246e-08
2.011637089e-08
2.088272287e-08
2.158442429e-08
2.207920852e-08
1.820355782e-08
1.84941759e-08
1.891589777e-08
1.944694074e-08
2.006100305e-08
2.072524902e-08
2.13956186e-08
2.200457168e-08
2.243112769e-08
1.904841238e-08
1.930647184e-08
1.967913709e-08
2.014530887e-08
2.068001221e-08
2.125315342e-08
2.182608386e-08
2.234181847e-08
2.2700348e-08
1.982039722e-08
2.004436198e-08
2.03660125e-08
2.076532147e-08
2.121904789e-08
2.170019378e-08
2.217572416e-08
2.259912316e-08
2.289077162e-08
2.051560164e-08
2.070453693e-08
2.09740891e-08
2.130564425e-08
2.167804115e-08
2.206765228e-08
2.244715736e-08
2.278028558e-08
2.300700497e-08
2.113157134e-08
2.128511004e-08
2.150229762e-08
2.176622288e-08
2.20580854e-08
2.235782443e-08
2.264384186e-08
2.288976919e-08
2.305418107e-08
2.166721215e-08
2.178550969e-08
2.195081149e-08
2.214814367e-08
2.236128192e-08
2.257385321e-08
2.276990479e-08
2.293252937e-08
2.303779179e-08
2.212266847e-08
2.220634914e-08
2.23209059e-08
2.245348151e-08
2.259057882e-08
2.271956304e-08
2.282997627e-08
2.2913853e-08
2.296353447e-08
2.249918389e-08
2.254928154e-08
2.261480605e-08
2.268514218e-08
2.274961001e-08
2.279929953e-08
2.28290346e-08
2.283921284e-08
2.283717577e-08
2.279895142e-08
2.281684711e-08
2.283553135e-08
2.284670518e-08
2.284253964e-08
2.281777943e-08
2.277226591e-08
2.271413967e-08
2.266443501e-08
2.302495966e-08
2.301231882e-08
2.298674153e-08
2.294227232e-08
2.28739163e-08
2.277995421e-08
2.266494051e-08
2.254411327e-08
2.245088729e-08
2.318084091e-08
2.313955187e-08
2.307258922e-08
2.297632599e-08
2.284854014e-08
2.269088938e-08
2.251230721e-08
2.233447268e-08
2.220188636e-08
2.327072556e-08
2.320284125e-08
2.309758284e-08
2.295360008e-08
2.277134493e-08
2.255566067e-08
2.231950576e-08
2.2090345e-08
2.1922506e-08
2.329910656e-08
2.320679039e-08
2.306646217e-08
2.287896529e-08
2.264729602e-08
2.237926711e-08
2.209149665e-08
2.181659162e-08
2.161749829e-08
2.327071603e-08
2.315619301e-08
2.298408811e-08
2.275732975e-08
2.248130432e-08
2.216656053e-08
2.183300717e-08
2.15177699e-08
2.129126667e-08
2.319041576e-08
2.305592922e-08
2.285534737e-08
2.259355486e-08
2.227815582e-08
2.19221904e-08
2.154849211e-08
2.11981086e-08
2.094785174e-08
2.306310198e-08
2.291087625e-08
2.26850719e-08
2.239238604e-08
2.20424556e-08
2.165056246e-08
2.124210727e-08
2.08614948e-08
2.059092746e-08
2.289362455e-08
2.272583344e-08
2.24779725e-08
2.215839729e-08
2.177858506e-08
2.135580956e-08
2.091769382e-08
2.051147034e-08
2.022380581e-08
2.268671988e-08
2.250546093e-08
2.223858579e-08
2.189594841e-08
2.149067092e-08
2.104177308e-08
2.057877192e-08
2.015123592e-08
1.984944788e-08
2.244695691e-08
2.225423096e-08
2.197123314e-08
2.160915347e-08
2.118256436e-08
2.071199322e-08
2.022854154e-08
1.978366105e-08
1.94704798e-08
2.217869487e-08
2.19763906e-08
2.167999049e-08
2.13018592e-08
2.085782891e-08
2.036970655e-08
1.986988924e-08
1.941129844e-08
1.908921196e-08
2.188605177e-08
2.167593469e-08
2.136866755e-08
2.097763184e-08
2.051973558e-08
2.001784949e-08
1.950539931e-08
1.903640149e-08
1.870766048e-08
2.157288231e-08
2.135658773e-08
2.104079526e-08
2.063975108e-08
2.017126395e-08
1.965906642e-08
1.913736823e-08
1.866094373e-08
1.832756975e-08
2.124276401e-08
2.102179343e-08
2.069962003e-08
2.029121002e-08
1.981510799e-08
1.929572131e-08
1.876782132e-08
1.828663953e-08
1.795043548e-08
2.089899007e-08
2.067471055e-08
2.034810375e-08
1.993471983e-08
1.945368569e-08
1.892991185e-08
1.839853098e-08
1.791496523e-08
1.757752745e-08
2.054456712e-08
2.031821362e-08
1.998892812e-08
1.957271816e-08
1.908915136e-08
1.856348547e-08
1.80310355e-08
1.754718009e-08
1.720991163e-08
2.018221297e-08
1.995489492e-08
1.962450119e-08
1.920737969e-08
1.872340986e-08
1.819805642e-08
1.766665842e-08
1.7184347e-08
1.684847145e-08
1.981434163e-08
1.958706087e-08
1.925696223e-08
1.884062671e-08
1.835813067e-08
1.783502234e-08
1.730652672e-08
1.682735165e-08
1.649392738e-08
1.944299841e-08
1.921671119e-08
1.888818173e-08
1.847413927e-08
1.799476285e-08
1.747558145e-08
1.695158903e-08
1.647692104e-08
1.614685536e-08
1.907012329e-08
1.884555675e-08
1.851976242e-08
1.810936755e-08
1.763455049e-08
1.71207493e-08
1.660263285e-08
1.613364067e-08
1.580770366e-08
1.869756085e-08
1.847533634e-08
1.815312461e-08
1.77475649e-08
1.727855274e-08
1.677137631e-08
1.626030128e-08
1.579797051e-08
1.547680833e-08
1.832686633e-08
1.810751723e-08
1.778962731e-08
1.738976085e-08
1.69276563e-08
1.642816384e-08
1.59251085e-08
1.547025977e-08
1.51544073e-08
1.795935317e-08
1.774333357e-08
1.743039693e-08
1.703697681e-08
1.658262587e-08
1.60916855e-08
1.559745556e-08
1.515076083e-08
1.484065333e-08
1.75961262e-08
1.738381509e-08
1.707635574e-08
1.668999613e-08
1.624403543e-08
1.576238791e-08
1.527764184e-08
1.483964153e-08
1.45356259e-08
1.72381095e-08
1.702981778e-08
1.672826469e-08
1.63494684e-08
1.591242799e-08
1.544063418e-08
1.49658839e-08
1.453699803e-08
1.423934217e-08
1.688606813e-08
1.668204507e-08
1.638674098e-08
1.601590851e-08
1.558821098e-08
1.512668697e-08
1.466231902e-08
1.424286303e-08
1.395176596e-08
1.654062651e-08
1.634106565e-08
1.605227467e-08
1.56897106e-08
1.527166994e-08
1.482071222e-08
1.436701277e-08
1.395721442e-08
1.367281618e-08
1.620228478e-08
1.60073301e-08
1.572524636e-08
1.537116967e-08
1.496300111e-08
1.452278507e-08
1.407997361e-08
1.36799866e-08
1.34023759e-08
1.587143357e-08
1.568118573e-08
1.540594305e-08
1.506050194e-08
1.466234946e-08
1.423300112e-08
1.380118173e-08
1.341108199e-08
1.314030013e-08
1.554836733e-08
1.536288915e-08
1.509456842e-08
1.47578479e-08
1.436978744e-08
1.395136352e-08
1.353056803e-08
1.315037039e-08
1.288641912e-08
1.523329596e-08
1.505261723e-08
1.479125313e-08
1.446328276e-08
1.40853297e-08
1.367782514e-08
1.326802639e-08
1.289769539e-08
1.264054358e-08
1.492635573e-08
1.475047778e-08
1.449606507e-08
1.417682655e-08
1.3808944e-08
1.341230074e-08
1.301342183e-08
1.265288017e-08
1.240246933e-08
1.462761932e-08
1.445651914e-08
1.420901858e-08
1.389845276e-08
1.354055927e-08
1.315467398e-08
1.276659535e-08
1.24157319e-08
1.217198116e-08
1.433710482e-08
1.417073888e-08
1.393008252e-08
1.362809597e-08
1.328007283e-08
1.290480481e-08
1.252737328e-08
1.218604705e-08
1.194885674e-08
1.405478386e-08
1.389309146e-08
1.365918745e-08
1.336565823e-08
1.302735577e-08
1.266253234e-08
1.229555998e-08
1.196361281e-08
1.173286898e-08
1.37805888e-08
1.362349508e-08
1.339623189e-08
1.311101469e-08
1.278225811e-08
1.242768158e-08
1.207095814e-08
1.174821212e-08
1.152378842e-08
1.351441916e-08
1.336183773e-08
1.314108791e-08
1.28640187e-08
1.254461342e-08
1.220006701e-08
1.185336515e-08
1.153962609e-08
1.132138567e-08
1.325614733e-08
1.31079826e-08
1.289360608e-08
1.262450624e-08
1.231424299e-08
1.197949808e-08
1.164258765e-08
1.133763808e-08
1.112543347e-08
1.300562355e-08
1.286177275e-08
1.265361955e-08
1.239229897e-08
1.209095634e-08
1.176577206e-08
1.143840912e-08
1.114202609e-08
1.093570475e-08
1.276268038e-08
1.262303523e-08
1.242094792e-08
1.216720776e-08
1.187455524e-08
1.155868178e-08
1.124061434e-08
1.095256949e-08
1.07519754e-08
1.252713652e-08
1.23915848e-08
1.219540053e-08
1.194903582e-08
1.166483655e-08
1.135801822e-08
1.104898927e-08
1.076905071e-08
1.057402563e-08
1.229880022e-08
1.216722701e-08
1.197677939e-08
1.17375812e-08
1.146159443e-08
1.116357208e-08
1.086332192e-08
1.059125604e-08
1.040164073e-08
1.207747213e-08
1.194976096e-08
1.17648816e-08
1.153263887e-08
1.1264622e-08
1.097513511e-08
1.068340329e-08
1.041897631e-08
1.023461157e-08
1.186294778e-08
1.173898157e-08
1.15595014e-08
1.133400258e-08
1.107371283e-08
1.079250121e-08
1.050902812e-08
1.025200741e-08
1.007273495e-08
1.165501971e-08
1.153468154e-08
1.13604319e-08
1.114146622e-08
1.088866212e-08
1.061546734e-08
1.033999554e-08
1.009015077e-08
9.915813887e-09
1.145347923e-08
1.133665303e-08
1.11674666e-08
1.09548252e-08
1.070926769e-08
1.04438343e-08
1.017610957e-08
9.933213597e-09
9.763657809e-09
1.125811793e-08
1.114468899e-08
1.098040055e-08
1.077387734e-08
1.053533083e-08
1.027740728e-08
1.001717959e-08
9.781009162e-09
9.61608268e-09
1.106872891e-08
1.095858437e-08
1.07990314e-08
1.059842383e-08
1.036665692e-08
1.011599636e-08
9.863020533e-09
9.633356939e-09
9.472911049e-09
1.088510784e-08
1.0778137e-08
1.062316021e-08
1.042826984e-08
1.020305598e-08
9.959416892e-09
9.71345319e-09
9.490082687e-09
9.333972056e-09
1.070705379e-08
1.060314842e-08
1.045259212e-08
1.026322509e-08
1.004434305e-08
9.807489723e-09
9.568304295e-09
9.351018479e-09
9.199101388e-09
1.05343699e-08
1.043342446e-08
1.028713686e-08
1.010310424e-08
9.890338515e-09
9.660041414e-09
9.427406616e-09
9.216002687e-09
9.068141201e-09
1.036686394e-08
1.026877575e-08
1.01266092e-08
9.947727233e-09
9.740868311e-09
9.516904339e-09
9.290598974e-09
9.084879916e-09
8.940940003e-09
1.020434872e-08
1.010901806e-08
9.970829185e-09
9.796919526e-09
9.595764059e-09
9.377916743e-09
9.157726213e-09
8.957500919e-09
8.817352529e-09
1.004664237e-08
9.953972565e-09
9.819622422e-09
9.650512208e-09
9.454863152e-09
9.242922747e-09
9.028639144e-09
8.833722474e-09
8.697239577e-09
9.893568594e-09
9.803466086e-09
9.672820173e-09
9.508342108e-09
9.318008775e-09
9.111772315e-09
8.903194453e-09
8.713407252e-09
8.580467842e-09
9.744956824e-09
9.657331153e-09
9.530259456e-09
9.370251826e-09
9.185049892e-09
8.984321185e-09
8.781254583e-09
8.596423653e-09
8.466909738e-09
9.60064227e-09
9.515406091e-09
9.391783065e-09
9.236089715e-09
9.055841191e-09
8.860430773e-09
8.662687601e-09
8.482645649e-09
8.356443205e-09
9.460465973e-09
9.377535024e-09
9.257239557e-09
9.105709839e-09
8.930243e-09
8.739968055e-09
8.547367049e-09
8.371952601e-09
8.248951522e-09
9.324274778e-09
9.243567845e-09
9.126483196e-09
8.97897189e-09
8.80812118e-09
8.622805436e-09
8.435171784e-09
8.264229082e-09
8.144323105e-09
9.191921289e-09
9.113360148e-09
8.999373871e-09
8.855741085e-09
8.689347e-09
8.508820597e-09
8.325985808e-09
8.159364688e-09
8.042451316e-09
9.063263782e-09
8.98677314e-09
8.875776991e-09
8.735888043e-09
8.573796997e-09
8.39789634e-09
8.219698097e-09
8.057253855e-09
7.943234264e-09
8.938166099e-09
8.863673521e-09
8.755563356e-09
8.61928865e-09
8.461352824e-09
8.289920423e-09
8.11620242e-09
7.95779567e-09
7.846574617e-09
8.816497517e-09
8.743933353e-09
8.638609019e-09
8.505823903e-09
8.351901088e-09
8.184785391e-09
8.015397167e-09
7.860893687e-09
7.752379408e-09
8.698132608e-09
8.627429908e-09
8.524795126e-09
8.395379749e-09
8.245333183e-09
8.082388398e-09
7.917185163e-09
7.766455746e-09
7.660559852e-09
8.58295107e-09
8.514045507e-09
8.414007755e-09
8.287846919e-09
8.141545116e-09
7.982631035e-09
7.821473495e-09
7.674393791e-09
7.571031169e-09
8.47083756e-09
8.403667341e-09
8.306137731e-09
8.183120744e-09
8.040437327e-09
7.885419148e-09
7.728173331e-09
7.584623696e-09
7.483712404e-09
8.361681494e-09
8.296187279e-09
8.201080439e-09
8.081100965e-09
7.941914501e-09
7.790662653e-09
7.63719974e-09
7.497065084e-09
7.398526256e-09
8.255376836e-09
8.191501655e-09
8.09873561e-09
7.981691525e-09
7.845885362e-09
7.698275337e-09
7.548471497e-09
7.411641148e-09
7.315398899e-09
8.151821856e-09
8.089511025e-09
7.999007084e-09
7.884800336e-09
7.752262446e-09
7.60817464e-09
7.461910883e-09
7.328278456e-09
7.234259804e-09
8.05091884e-09
7.990119886e-09
7.901802528e-09
7.790339003e-09
7.66096184e-09
7.520281407e-09
7.377443444e-09
7.246906727e-09
7.155041522e-09
7.952573746e-09
7.893236328e-09
7.807033095e-09
7.69822249e-09
7.571902847e-09
7.434519564e-09
7.294997692e-09
7.167458558e-09
7.077679429e-09
7.85669576e-09
7.798771591e-09
7.714612985e-09
7.608368681e-09
7.48500757e-09
7.350815717e-09
7.214504717e-09
7.089869053e-09
7.002111381e-09
7.763196724e-09
7.706639494e-09
7.624458865e-09
7.52069781e-09
7.400200332e-09
7.269098585e-09
7.135897645e-09
7.014075311e-09
6.928277219e-09
7.671990375e-09
7.616755664e-09
7.536489099e-09
7.435131671e-09
7.317406891e-09
7.189298216e-09
7.059110864e-09
6.940015668e-09
6.856118047e-09
7.582991327e-09
7.529036507e-09
7.450622687e-09
7.351592545e-09
7.236553344e-09
7.111344879e-09
6.984078912e-09
6.867628605e-09
6.785575148e-09
7.496113715e-09
7.443397815e-09
7.366777846e-09
7.270001728e-09
7.157564606e-09
7.035167501e-09
6.91073489e-09
6.796851141e-09
6.716588398e-09
7.41126938e-09
7.359752918e-09
7.284870084e-09
7.190277532e-09
7.080362331e-09
6.960691502e-09
6.839008224e-09
6.727616554e-09
6.649093962e-09
7.328365498e-09
7.278010231e-09
7.20480966e-09
7.112332613e-09
7.004862097e-09
6.887835844e-09
6.768821581e-09
6.659851183e-09
6.583021053e-09
7.247301492e-09
7.198070079e-09
7.126498254e-09
7.036070469e-09
6.930969691e-09
6.816509085e-09
6.700086704e-09
6.593470084e-09
6.518287472e-09
7.167965122e-09
7.119820642e-09
7.049824719e-09
6.961380931e-09
6.858576307e-09
6.746604254e-09
6.63269896e-09
6.528371272e-09
6.454793674e-09
7.090227597e-09
7.043132895e-09
6.974659756e-09
6.8881345e-09
6.78755248e-09
6.677992342e-09
6.566530375e-09
6.464428343e-09
6.392415099e-09
7.013937618e-09
6.967854428e-09
6.900849408e-09
6.816175413e-09
6.717740638e-09
6.610514277e-09
6.501421003e-09
6.401481262e-09
6.330992592e-09
6.938914284e-09
6.893802081e-09
6.82820729e-09
6.745313359e-09
6.648946195e-09
6.543971311e-09
6.437168562e-09
6.33932528e-09
6.2703208e-09
6.864938836e-09
6.820753389e-09
6.756505584e-09
6.675313874e-09
6.580927223e-09
6.478113861e-09
6.373516382e-09
6.277698014e-09
6.210134645e-09
6.791745351e-09
6.748436932e-09
6.685464889e-09
6.605887534e-09
6.513382848e-09
6.412628988e-09
6.310139898e-09
6.216264952e-09
6.150094119e-09
6.719010527e-09
6.676521786e-09
6.614743158e-09
6.536678222e-09
6.445940687e-09
6.347126883e-09
6.246632079e-09
6.154603848e-09
6.089767926e-09
6.646342907e-09
6.604606416e-09
6.543924092e-09
6.467250861e-09
6.37814377e-09
6.281126821e-09
6.182488356e-09
6.092188669e-09
6.028616694e-09
6.573271968e-09
6.532207473e-09
6.472505509e-09
6.397079173e-09
6.309437475e-09
6.214043055e-09
6.117091355e-09
6.028373743e-09
5.96597665e-09
6.499237692e-09
6.458749167e-09
6.399888354e-09
6.325534124e-09
6.239156991e-09
6.145170445e-09
6.04969335e-09
5.962378344e-09
5.901044793e-09
6.42358141e-09
6.383554038e-09
6.325367361e-09
6.251874299e-09
6.166516817e-09
6.073670682e-09
5.979389409e-09
5.893273202e-09
5.83286807e-09
6.345538863e-09
6.30583619e-09
6.248124669e-09
6.175240628e-09
6.090609173e-09
5.998583659e-09
5.905173777e-09
5.819992788e-09
5.760345236e-09
6.264236383e-09
6.224697674e-09
6.167226313e-09
6.09465237e-09
6.010397423e-09
5.918812244e-09
5.825894391e-09
5.74132785e-09
5.682227894e-09
6.178691194e-09
6.139129012e-09
6.081622673e-09
6.009005939e-09
5.924707085e-09
5.833080819e-09
5.740253127e-09
5.655932972e-09
5.597132304e-09
6.087816609e-09
6.048014885e-09
5.990155458e-09
5.917087076e-09
5.832261334e-09
5.7400716e-09
5.646859737e-09
5.562359575e-09
5.503568862e-09
5.990431132e-09
5.950142407e-09
5.891562601e-09
5.817562145e-09
5.731622566e-09
5.638374716e-09
5.544251611e-09
5.459091604e-09
5.39998273e-09
5.885268312e-09
5.844210411e-09
5.784490951e-09
5.709001265e-09
5.621433733e-09
5.526561267e-09
5.43094439e-09
5.344597641e-09
5.284809603e-09
5.770975128e-09
5.72881797e-09
5.667480377e-09
5.590044929e-09
5.500319688e-09
5.403217033e-09
5.305487412e-09
5.217396143e-09
5.156546359e-09
5.646089788e-09
5.602551159e-09
5.539263083e-09
5.459419096e-09
5.366969124e-09