/*--------------------------------*- C++ -*----------------------------------*\
| =========                 |                                                 |
| \\      /  F ield         | OpenFOAM: The Open Source CFD Toolbox           |
|  \\    /   O peration     | Version:  2212                                  |
|   \\  /    A nd           | Website:  www.openfoam.com                      |
|    \\/     M anipulation  |                                                 |
\*---------------------------------------------------------------------------*/
FoamFile
{
    version     2.0;
    format      ascii;
    arch        "LSB;label=32;scalar=64";
    class       volScalarField;
    location    "30.00000000";
    object      H2;
}
// * * * * * * * * * * * * * * * * * * * * * * * * * * * * * * * * * * * * * //

dimensions      [0 0 0 0 0 0 0];

internalField   nonuniform List<scalar> 
3000
(
9.346457281e-22
1.0494842e-21
1.222636515e-21
1.453121789e-21
1.738405885e-21
2.070575598e-21
2.429560293e-21
2.771787537e-21
3.013711236e-21
3.50955531e-21
3.956693851e-21
4.630576455e-21
5.529521911e-21
6.651769062e-21
7.990202786e-21
9.521070035e-21
1.116747605e-20
1.262627237e-20
7.863416217e-21
8.935176986e-21
1.056590773e-20
1.277745812e-20
1.560697139e-20
1.909190834e-20
2.321466732e-20
2.774206956e-20
3.160800016e-20
1.498414918e-20
1.720623963e-20
2.063739469e-20
2.539038616e-20
3.162763153e-20
3.94971894e-20
4.894035021e-20
5.918680062e-20
6.743437562e-20
2.662132325e-20
3.094798204e-20
3.773620418e-20
4.732740929e-20
6.016579344e-20
7.659679112e-20
9.631953051e-20
1.171980059e-19
1.331833209e-19
4.579949634e-20
5.393076731e-20
6.687532905e-20
8.546100055e-20
1.106849064e-19
1.431976148e-19
1.820651146e-19
2.224422133e-19
2.524132379e-19
7.778024672e-20
9.272698341e-20
1.168004314e-19
1.517579307e-19
1.995567329e-19
2.611672071e-19
3.340715416e-19
4.08211843e-19
4.617432188e-19
1.316647055e-19
1.587204071e-19
2.026820311e-19
2.67006785e-19
3.552887681e-19
4.688077321e-19
6.018752898e-19
7.351175383e-19
8.296489832e-19
2.232309989e-19
2.716774059e-19
3.508994871e-19
4.673928132e-19
6.275356338e-19
8.328643099e-19
1.071775129e-18
1.308476609e-18
1.474553926e-18
3.798281298e-19
4.658919536e-19
6.072629623e-19
8.157992766e-19
1.102624886e-18
1.469390747e-18
1.893761619e-18
2.311130204e-18
2.601811672e-18
6.489204346e-19
8.009269452e-19
1.051390384e-18
1.421559395e-18
1.930662738e-18
2.58014595e-18
3.328517259e-18
4.060799511e-18
4.568301166e-18
1.112964503e-18
1.38031571e-18
1.821744387e-18
2.474859399e-18
3.372738619e-18
4.51593331e-18
5.829081469e-18
7.109492848e-18
7.994104424e-18
1.915388964e-18
2.384263954e-18
3.159460505e-18
4.30697804e-18
5.883470186e-18
7.886972974e-18
1.018244339e-17
1.241538132e-17
1.395654662e-17
3.305935779e-18
4.126831421e-18
5.485189781e-18
7.496200211e-18
1.025633565e-17
1.375662621e-17
1.775535629e-17
2.163724184e-17
2.432892246e-17
5.719591383e-18
7.155725669e-18
9.533814962e-18
1.305484206e-17
1.788265333e-17
2.39882321e-17
3.092565439e-17
3.761438575e-17
4.238533361e-17
9.913112437e-18
1.242496821e-17
1.658821763e-17
2.275701355e-17
3.121677041e-17
4.189698873e-17
5.391516962e-17
6.494119479e-17
7.398615546e-17
1.719955966e-17
2.1589775e-17
2.88747726e-17
3.968800157e-17
5.456633014e-17
7.350264316e-17
9.532469283e-17
1.171216873e-16
1.307469969e-16
2.985227303e-17
3.751041091e-17
5.02234906e-17
6.909797195e-17
9.505978193e-17
1.280391842e-16
1.657609908e-16
2.023205334e-16
2.271333042e-16
5.181185239e-17
6.514531903e-17
8.728020716e-17
1.201332454e-16
1.652871412e-16
2.225602006e-16
2.879122275e-16
3.510940294e-16
3.943275294e-16
8.991643448e-17
1.131029695e-16
1.515929581e-16
2.087069491e-16
2.871699233e-16
3.866292959e-16
5.000445159e-16
6.096591369e-16
6.847200921e-16
1.560373477e-16
1.963320583e-16
2.632204177e-16
3.62461528e-16
4.987679925e-16
6.714999953e-16
8.684139362e-16
1.058690971e-15
1.188983017e-15
2.70785572e-16
3.407891869e-16
4.569931391e-16
6.293902908e-16
8.661411862e-16
1.166099136e-15
1.507972376e-15
1.838250176e-15
2.064370273e-15
4.699445806e-16
5.915402521e-16
7.933819444e-16
1.092805124e-15
1.503937273e-15
2.024720539e-15
2.618124355e-15
3.191247795e-15
3.583533315e-15
8.156311746e-16
1.026815435e-15
1.377350618e-15
1.897292578e-15
2.611076533e-15
3.514990505e-15
4.544623234e-15
5.538733829e-15
6.218964155e-15
1.415653966e-15
1.782387317e-15
2.39104964e-15
3.293705646e-15
4.532557633e-15
6.100857139e-15
7.886547387e-15
9.609886573e-15
1.078863117e-14
2.457062103e-15
3.093813737e-15
4.150448699e-15
5.717048942e-15
7.866349491e-15
1.058595266e-14
1.368086608e-14
1.666601682e-14
1.870674579e-14
4.264214534e-15
5.369537381e-15
7.203285318e-15
9.921073148e-15
1.364790872e-14
1.836072125e-14
2.372007513e-14
2.888544372e-14
3.241410597e-14
7.39914857e-15
9.317192195e-15
1.249819258e-14
1.721042103e-14
2.366793203e-14
3.182717292e-14
4.109698797e-14
5.00222873e-14
5.611365454e-14
1.283471415e-14
1.616136809e-14
2.16760144e-14
2.983990977e-14
4.101781713e-14
5.512628775e-14
7.113525101e-14
8.652885173e-14
9.702136483e-14
2.225249941e-14
2.80180566e-14
3.75700754e-14
5.169891593e-14
7.102228551e-14
9.537803028e-14
1.229704575e-13
1.494568534e-13
1.674804811e-13
3.855395687e-14
4.853637736e-14
6.506207269e-14
8.947943259e-14
1.228261887e-13
1.647834579e-13
2.122199472e-13
2.576558408e-13
2.885089896e-13
6.67341758e-14
8.399401372e-14
1.125397988e-13
1.54659372e-13
2.12078532e-13
2.841646259e-13
3.654575857e-13
4.431105894e-13
4.957015514e-13
1.153693859e-13
1.451584187e-13
1.943666871e-13
2.668496689e-13
3.654410869e-13
4.888795303e-13
6.276497052e-13
7.597659087e-13
8.489541849e-13
1.991372124e-13
2.504321148e-13
3.350397673e-13
4.594033107e-13
6.281017611e-13
8.386180642e-13
1.074392214e-12
1.297967121e-12
1.448316851e-12
3.430637808e-13
4.311356344e-13
5.761414331e-13
7.887399231e-13
1.076182945e-12
1.433464764e-12
1.831833408e-12
2.207823541e-12
2.45953681e-12
5.896381532e-13
7.403205516e-13
9.878714328e-13
1.349709481e-12
1.837030592e-12
2.43995183e-12
3.108734599e-12
3.736554306e-12
4.154714271e-12
1.010651647e-12
1.267361321e-12
1.688012444e-12
2.30066046e-12
3.122032467e-12
4.132825472e-12
5.247434042e-12
6.287438081e-12
6.976197214e-12
1.726758922e-12
2.161918369e-12
2.872830923e-12
3.90391546e-12
5.279096843e-12
6.961189881e-12
8.803842518e-12
1.05116839e-11
1.163573039e-11
2.93954672e-12
3.672946241e-12
4.866925138e-12
6.590405456e-12
8.875574649e-12
1.165195834e-11
1.467142587e-11
1.744981315e-11
1.926640631e-11
4.983669514e-12
6.211601047e-12
8.202801011e-12
1.106170843e-11
1.482770688e-11
1.936965331e-11
2.427099099e-11
2.874660505e-11
3.165278362e-11
8.410852459e-12
1.045169412e-11
1.374653666e-11
1.844927969e-11
2.460028096e-11
3.196027731e-11
3.983777665e-11
4.697416102e-11
5.157552966e-11
1.412395382e-11
1.748845979e-11
2.289405146e-11
3.056007441e-11
4.051098847e-11
5.231922288e-11
6.485095769e-11
7.611237131e-11
8.332234494e-11
2.358876765e-11
2.908683951e-11
3.787427057e-11
5.025118039e-11
6.618924051e-11
8.49403879e-11
1.046697248e-10
1.222566593e-10
1.334384449e-10
3.91651188e-11
4.806556922e-11
6.221229521e-11
8.19950545e-11
1.072606407e-10
1.367277315e-10
1.67466708e-10
1.946515929e-10
2.118198561e-10
6.461877877e-11
7.888489361e-11
1.01429488e-10
1.327236193e-10
1.723583126e-10
2.181840807e-10
2.655865575e-10
3.071888774e-10
3.332944358e-10
1.05904101e-10
1.285361323e-10
1.640907798e-10
2.130767298e-10
2.746040659e-10
3.451386736e-10
4.175089013e-10
4.805635747e-10
5.198932199e-10
1.723470653e-10
2.078738169e-10
2.633560328e-10
3.392322899e-10
4.337603468e-10
5.412395497e-10
6.506659875e-10
7.453588406e-10
8.040943777e-10
2.784136474e-10
3.335900025e-10
4.192566728e-10
5.355668296e-10
6.793338832e-10
8.415259613e-10
1.005463201e-09
1.146434711e-09
1.233431802e-09
4.463244056e-10
5.311113398e-10
6.620072791e-10
8.3849355e-10
1.0550216e-09
1.297518052e-09
1.540984913e-09
1.749141028e-09
1.877011039e-09
7.098799256e-10
8.388100997e-10
1.036782591e-09
1.301958701e-09
1.625038597e-09
1.984427065e-09
2.343050929e-09
2.648072491e-09
2.834681763e-09
1.120002342e-09
1.314070264e-09
1.610553875e-09
2.005257821e-09
2.483068548e-09
3.011311975e-09
3.535534555e-09
3.979349071e-09
4.249899013e-09
1.752687046e-09
2.041951808e-09
2.481798809e-09
3.064076345e-09
3.764843654e-09
4.535302104e-09
5.296179822e-09
5.937764082e-09
6.327682335e-09
2.720309298e-09
3.147466212e-09
3.794169317e-09
4.645918246e-09
5.665659724e-09
6.781376391e-09
7.878588965e-09
8.800629628e-09
9.359585666e-09
4.187265038e-09
4.812466761e-09
5.755315829e-09
6.991479311e-09
8.464685676e-09
1.006978217e-08
1.164263954e-08
1.296070619e-08
1.375817545e-08
6.391968736e-09
7.299414575e-09
8.66320327e-09
1.044416567e-08
1.255824939e-08
1.485340624e-08
1.709588769e-08
1.897103254e-08
2.01039917e-08
9.677065341e-09
1.09838584e-08
1.294194706e-08
1.549025215e-08
1.850504509e-08
2.176841439e-08
2.49494953e-08
2.760528104e-08
2.920858516e-08
1.45305541e-08
1.639853811e-08
1.919031297e-08
2.281300649e-08
2.708680834e-08
3.170191457e-08
3.619259327e-08
3.993759011e-08
4.219756027e-08
2.164118345e-08
2.429261916e-08
2.824659948e-08
3.336476142e-08
3.938868896e-08
4.588106754e-08
5.218963682e-08
5.744660122e-08
6.061862069e-08
3.197218846e-08
3.571027178e-08
4.127429831e-08
4.84615073e-08
5.69040291e-08
6.598846994e-08
7.480586292e-08
8.214946655e-08
8.658109497e-08
4.685806266e-08
5.209334995e-08
5.987333463e-08
6.990480452e-08
8.166833874e-08
9.430880612e-08
1.065664729e-07
1.16772111e-07
1.2293329e-07
6.812923883e-08
7.541295909e-08
8.622153646e-08
1.001355557e-07
1.164271738e-07
1.339120934e-07
1.508553844e-07
1.649611106e-07
1.734821024e-07
9.826892672e-08
1.083340053e-07
1.232503526e-07
1.42423925e-07
1.648429108e-07
1.888789546e-07
2.121581721e-07
2.315404718e-07
2.432575976e-07
1.406053088e-07
1.544161022e-07
1.748587088e-07
2.011000643e-07
2.317452633e-07
2.645714832e-07
2.963510043e-07
3.22814319e-07
3.38823407e-07
1.995424927e-07
2.183547844e-07
2.461694164e-07
2.818295718e-07
3.234274892e-07
3.679494171e-07
4.110342059e-07
4.469136492e-07
4.68630765e-07
2.808345091e-07
3.062667941e-07
3.438302906e-07
3.919330954e-07
4.479851117e-07
5.07927099e-07
5.659050998e-07
6.141811195e-07
6.434098307e-07
3.919028357e-07
4.260177617e-07
4.763554474e-07
5.407430912e-07
6.15688696e-07
6.957614419e-07
7.731591163e-07
8.37581932e-07
8.765857041e-07
5.421893662e-07
5.875825078e-07
6.544953604e-07
7.399849173e-07
8.393759213e-07
9.454542914e-07
1.047900731e-06
1.133120751e-06
1.184698347e-06
7.435299996e-07
8.034222624e-07
8.916184549e-07
1.004162593e-06
1.134841169e-06
1.274144511e-06
1.408536598e-06
1.520234871e-06
1.587795316e-06
1.010529255e-06
1.088857633e-06
1.204081105e-06
1.350924153e-06
1.521193586e-06
1.702456746e-06
1.87711419e-06
2.022123719e-06
2.109755383e-06
1.3609123e-06
1.462412856e-06
1.611559381e-06
1.801375713e-06
2.021149024e-06
2.254768073e-06
2.479562641e-06
2.665967339e-06
2.778493192e-06
1.815830201e-06
1.94610482e-06
2.137313237e-06
2.380312521e-06
2.661220587e-06
2.959353152e-06
3.245792095e-06
3.482986375e-06
3.625995015e-06
2.400093791e-06
2.565651787e-06
2.808357176e-06
3.116339285e-06
3.471778073e-06
3.848375958e-06
4.209617462e-06
4.50830754e-06
4.68814852e-06
3.142316954e-06
3.350582678e-06
3.655518487e-06
4.041861533e-06
4.486959213e-06
4.957712635e-06
5.408493176e-06
5.780623355e-06
6.00435686e-06
4.074956186e-06
4.334235337e-06
4.713374078e-06
5.192942966e-06
5.744433116e-06
6.326612929e-06
6.883074489e-06
7.34166933e-06
7.616965241e-06
5.234239019e-06
5.553639392e-06
6.020066584e-06
6.609036917e-06
7.285034203e-06
7.997231112e-06
8.676650182e-06
9.23557637e-06
9.570565981e-06
6.659976844e-06
7.049283615e-06
7.617006671e-06
8.33260898e-06
9.152297105e-06
1.001407327e-05
1.08345115e-05
1.150817971e-05
1.191127398e-05
8.395257496e-06
8.864767983e-06
9.548469415e-06
1.040866935e-05
1.139192477e-05
1.242340956e-05
1.340332403e-05
1.420636899e-05
1.468607065e-05
1.048601149e-05
1.104633862e-05
1.18610892e-05
1.288422724e-05
1.405121148e-05
1.527268372e-05
1.643054705e-05
1.737753606e-05
1.794227345e-05
1.298044706e-05
1.364230318e-05
1.460325327e-05
1.580766924e-05
1.717842254e-05
1.860992023e-05
1.996390519e-05
2.106915417e-05
2.172730045e-05
1.592835737e-05
1.670232984e-05
1.782439452e-05
1.922805444e-05
2.082210519e-05
2.248306712e-05
2.405078768e-05
2.532833542e-05
2.608836643e-05
1.938032084e-05
2.027664983e-05
2.157419885e-05
2.319432786e-05
2.503029692e-05
2.693919865e-05
2.87373999e-05
3.020045374e-05
3.106935661e-05
2.338683835e-05
2.441520722e-05
2.590177206e-05
2.775450757e-05
2.984977436e-05
3.202378339e-05
3.406765192e-05
3.572702626e-05
3.671082937e-05
2.799746473e-05
2.916679529e-05
3.085481336e-05
3.29549209e-05
3.532529977e-05
3.777938472e-05
4.008106999e-05
4.194575053e-05
4.304939498e-05
3.326001251e-05
3.45783262e-05
3.64789206e-05
3.883947634e-05
4.14979558e-05
4.424370121e-05
4.681286912e-05
4.888984163e-05
5.011708473e-05
3.921995331e-05
4.069418307e-05
4.281649239e-05
4.544725177e-05
4.840349031e-05
5.144960862e-05
5.429327279e-05
5.658739703e-05
5.794074602e-05
4.591844384e-05
4.75533693e-05
4.990367648e-05
5.281161358e-05
5.607230815e-05
5.94244964e-05
6.254689532e-05
6.506082317e-05
6.654149696e-05
5.338979268e-05
5.518856097e-05
5.777086658e-05
6.09601229e-05
6.452886595e-05
6.818969331e-05
7.159221359e-05
7.432634906e-05
7.593426585e-05
6.166215345e-05
6.362622163e-05
6.64421367e-05
6.99139417e-05
7.379113954e-05
7.775999107e-05
8.144114319e-05
8.439364443e-05
8.612743378e-05
7.075693981e-05
7.288603255e-05
7.593472321e-05
7.968735373e-05
8.387020442e-05
8.814328575e-05
9.20987342e-05
9.52655571e-05
9.712259529e-05
8.068833412e-05
8.298043319e-05
8.625861641e-05
9.028741221e-05
9.476994654e-05
9.934035081e-05
0.0001035629987
0.0001069379811
0.0001089144488
9.146292651e-05
9.391429672e-05
9.741628807e-05
0.0001017137278
0.0001064869147
0.0001113447515
0.0001158248786
0.0001193998639
0.0001214908248
0.0001030795033
0.0001056847556
0.0001094025685
0.0001139584059
0.000119010321
0.0001241429056
0.0001288683575
0.0001326333554
0.0001348328554
0.0001155289952
0.0001182811858
0.0001222046807
0.0001270061387
0.0001323221933
0.0001377142921
0.0001426707164
0.0001466140982
0.0001489152816
0.0001287945891
0.0001316853525
0.0001358024321
0.0001408344505
0.0001463976748
0.0001520318015
0.0001572029267
0.0001613116494
0.0001637068907
0.0001428520045
0.0001458717169
0.0001501685625
0.0001554140917
0.0001612054657
0.0001670622201
0.0001724301676
0.0001766900219
0.0001791710691
0.0001576699269
0.0001608078947
0.0001652692367
0.0001707095701
0.0001767083908
0.0001827668298
0.0001883124514
0.0001927083253
0.0001952664507
0.0001732105854
0.0001764552541
0.0001810646679
0.0001866798011
0.0001928640758
0.0001991021048
0.0002048053342
0.0002093214848
0.0002119476384
0.0001894304582
0.000192769633
0.0001975098505
0.0002032788563
0.0002096257084
0.0002160204807
0.0002218606875
0.0002264810117
0.0002291659731
0.0002062810792
0.0002097021515
0.0002145553783
0.0002204567849
0.0002269428583
0.0002334711697
0.0002394275054
0.0002441358017
0.0002468703253
0.0002237099209
0.0002272000923
0.0002321483192
0.000238160479
0.0002447623296
0.0002514009949
0.0002574527202
0.0002622329341
0.000265007884
0.0002416613215
0.0002452078182
0.0002502331182
0.0002563345558
0.0002630290172
0.0002697552196
0.0002758820042
0.00028071845
0.0002835249218
0.0002600774263
0.0002636676982
0.0002687524995
0.0002749222302
0.0002816867446
0.0002884783475
0.0002946605351
0.000299538091
0.0003023675165
0.0002788991152
0.0002825210133
0.0002876483424
0.0002938661519
0.0003006790587
0.0003075148747
0.0003137337085
0.0003186379799
0.0003214822155
0.0002980668885
0.0003017088178
0.0003068625066
0.0003131091884
0.0003199499647
0.0003268099773
0.0003330477835
0.0003379652344
0.0003408166301
0.0003175216899
0.0003211727347
0.0003263375894
0.0003325951352
0.0003394445872
0.0003463101237
0.000352550452
0.0003574685037
0.0003603199553
0.0003372056484
0.00034085567
0.0003460176004
0.0003522693439
0.0003591097484
0.0003659636046
0.0003721913267
0.0003770984252
0.0003799434086
0.0003570627278
0.0003607024332
0.0003658485434
0.0003720792588
0.0003788944564
0.0003857209759
0.0003919223452
0.0003968080001
0.0003996405903
0.0003770392756
0.0003806602604
0.0003857789026
0.0003919748602
0.0003987503046
0.0004055354164
0.0004116980919
0.0004165528893
0.0004193677652
0.0003970844688
0.0004006792355
0.000405760031
0.0004119090145
0.0004186317824
0.0004253630009
0.000431476041
0.0004362916334
0.0004390840712
0.0004171506584
0.0004207126132
0.000425746444
0.0004318377347
0.0004384965012
0.000445162896
0.0004512167254
0.0004559858039
0.0004587516601
0.0004371936168
0.0004407170484
0.0004456960242
0.0004517203572
0.0004583053435
0.0004648974828
0.0004708838388
0.0004756000898
0.0004783357764
0.0004571726955
0.0004606527391
0.0004655701447
0.0004715196426
0.0004780225413
0.0004845324154
0.0004904442779
0.0004951023285
0.0004978047826
0.0004770509021
0.0004804834916
0.0004853337192
0.0004912018089
0.0004976156927
0.0005040366228
0.0005098681328
0.0005144634882
0.000517130137
0.0004967949066
0.0005001767189
0.0005049551888
0.000510736507
0.0005170557259
0.000523382263
0.0005291286329
0.0005336576087
0.0005362863321
0.0005163749871
0.000519703381
0.0005244064561
0.0005300967466
0.0005363168182
0.0005425446362
0.0005482020566
0.0005526617081
0.0005552508001
0.0005357649263
0.0005390378782
0.0005436627749
0.0005492587827
0.0005553762795
0.0005615020667
0.0005670676114
0.0005714556628
0.0005740037924
0.0005549418679
0.0005581579072
0.0005627026049
0.0005682019701
0.0005742144075
0.0005802357583
0.000585707291
0.0005900220654
0.0005925282382
0.0005738861427
0.0005770442878
0.000581507441
0.0005869085952
0.000592814322
0.0005987296324
0.0006041057161
0.000608346068
0.0006108095894
0.0005925810727
0.0005956807699
0.0006000616233
0.00060536369
0.0006111617843
0.000616970152
0.0006222499632
0.0006264152146
0.0006288356548
0.000611012761
0.0006140538262
0.0006183521349
0.0006235548365
0.0006292450074
0.000634946139
0.0006401293872
0.0006442192677
0.0006465964284
0.0006291698722
0.0006321524377
0.0006363683937
0.0006414719647
0.0006470544625
0.0006526485867
0.0006577354405
0.0006617500318
0.0006640839161
0.0006470434101
0.0006499678759
0.0006541020402
0.0006591071494
0.0006645826833
0.0006700704733
0.0006750614928
0.0006790011782
0.0006812919625
0.0006646264988
0.0006674934879
0.0006715467302
0.0006764544088
0.0006818240721
0.0006872065747
0.0006921026514
0.0006959680717
0.0006982160809
0.0006819141691
0.0006847244915
0.0006886979379
0.0006935095177
0.000698774722
0.0007040532935
0.0007088555939
0.0007126476042
0.0007148532887
0.0006989031464
0.0007016577666
0.0007055527556
0.0007102698162
0.0007154322349
0.0007206084866
0.0007253184046
0.0007290380382
0.0007312019529
0.0007155916933
0.0007182916864
0.0007221097203
0.0007267340393
0.0007317955558
0.0007368713045
0.0007414904191
0.0007451388562
0.0007472616431
0.0007319794446
0.0007346259656
0.0007383686585
0.0007429021583
0.0007478648177
0.0007528420423
0.0007573720799
0.0007609506187
0.0007630329908
0.0007480672146
0.0007506614811
0.0007543305305
0.0007587752318
0.0007636411994
0.0007685220011
0.0007729648017
0.000776474833
0.0007785175597
0.0007638568352
0.0007664001094
0.0007699972761
0.0007743552721
0.0007791267922
0.0007839133587
0.0007882708461
0.0007917138307
0.0007937177252
0.0007793510107
0.0007818445836
0.0007853716692
0.000789645103
0.0007943244703
0.0007990190489
0.0008032932054
0.0008066706551
0.0008086365634
0.0007945531877
0.0007969983656
0.0008004571941
0.0008046482371
0.000809237778
0.0008138426515
0.0008180354968
0.0008213489575
0.0008232777489
0.0008094674372
0.0008118655307
0.0008152579336
0.000819368768
0.0008238708245
0.00082838829
0.0008325018632
0.0008357529017
0.0008376454609
0.0008240983497
0.0008264506649
0.0008297784679
0.0008338112715
0.000838228183
0.0008426605378
0.0008466968849
0.0008498870779
0.0008517442984
0.0008384509423
0.0008407587731
0.0008440237866
0.0008479807205
0.0008523148111
0.0008566643405
0.000860625502
0.0008637564268
0.0008655792059
0.0008525305758
0.0008547951984
0.0008579992082
0.0008618824062
0.000866135975
0.0008704049441
0.0008742929468
0.0008773661729
0.0008791554053
0.0008663428769
0.0008685655446
0.000871710307
0.0008755218709
0.0008796971854
0.000883887832
0.0008877046783
0.0008907217601
0.0008924783346
0.0008798936772
0.0008820756178
0.0008851628547
0.0008889048471
0.0008930041355
0.0008971186614
0.0009008663244
0.0009038287966
0.0009055535927
0.0008931889568
0.0008953313698
0.0008983627646
0.000902037204
0.0009060626492
0.0009101032148
0.0009137836333
0.0009166930069
0.0009183868924
0.0009062347953
0.0009083388498
0.0009113160446
0.0009149249017
0.0009188786375
0.0009228473569
0.0009264624313
0.0009293201903
0.0009309840192
0.0009190373291
0.0009211041628
0.0009240287562
0.0009275739514
0.0009314580592
0.0009353569975
0.000938908587
0.0009417161857
0.0009433507963
0.0009316027148
0.0009336334329
0.0009365069792
0.000939990381
0.0009438068881
0.0009476380593
0.0009511279793
0.00095388684
0.0009554930536
0.0009439370984
0.0009459327734
0.0009487567816
0.0009521802057
0.0009559310842
0.0009596964496
0.00096312647
0.0009658379816
0.0009674166012
0.0009560465883
0.0009580082599
0.0009607841939
0.0009641494028
0.000967836569
0.0009715380367
0.0009749098821
0.0009775753978
0.0009791272068
0.0009679372332
0.0009698659087
0.0009725951869
0.0009759038902
0.0009795292043
0.0009831686279
0.000986483975
0.0009891048132
0.0009906305757
0.0009796150036
0.0009815116576
0.000984195654
0.0009874495083
0.0009910147744
0.0009945939538
0.0009978544321
0.001000431875
0.001001932334
0.0009910857756
0.0009929513513
0.0009955913957
0.0009987920054
0.001002298972
0.001005819653
0.001009026844
0.001011562137
0.001013038017
0.001002355319
0.001004190728
0.001006788107
0.001009937025
0.001013387386
0.00101685126
0.0010200067
0.001022501051
0.001023953054
0.001013429286
0.001015235411
0.001017791368
0.001020890097
0.001024285491
0.001027694198
0.001030799374
0.001033253957
0.001034682765
0.001024313206
0.001026090898
0.001028606635
0.001031656628
0.001034998642
0.001038353769
0.001041410122
0.001043826074
0.001045232351
0.001035012475
0.001036762557
0.001039239237
0.001042241898
0.001045532067
0.00104883515
0.001051844076
0.0010542225
0.001055606886
0.001045532355
0.001047255622
0.001049694367
0.001052651055
0.001055890862
0.001059143387
0.001062106238
0.0010644482
0.001065811318
0.00105587797
0.001057575189
0.001059977084
0.00106288911
0.00106607999
0.001069283394
0.001072201478
0.001074508012
0.001075850463
0.0010660543
0.001067726213
0.001070092305
0.001072960938
0.001076104278
0.001079259951
0.001082134532
0.001084406638
0.001085729007
0.001076066187
0.00107771351
0.001080044812
0.001082871275
0.001085968415
0.001089077701
0.001091910002
0.001094148649
0.001095451499
0.001085918331
0.001087541755
0.001089839243
0.001092624721
0.001095676955
0.001098741152
0.001101532357
0.001103738478
0.001105022356
0.001095615289
0.001097215482
0.001099480099
0.001102225734
0.001105234313
0.001108254677
0.001111005929
0.001113180431
0.001114445864
0.001105161481
0.001106739086
0.001108971745
0.00111167864
0.001114644773
0.001117622516
0.001120334919
0.001122478676
0.001123726177
0.001114561185
0.001116116825
0.001118318405
0.001120987627
0.001123912481
0.001126848775
0.001129523398
0.001131637256
0.001132867316
0.001123818548
0.001125352823
0.001127524174
0.001130156751
0.001133041455
0.001135937432
0.001138575306
0.001140660081
0.00114187318
0.00113293758
0.001134451071
0.001136593012
0.00113918994
0.001142035581
0.001144892335
0.001147494458
0.00114955094
0.001150747538
0.001141922161
0.001143415427
0.001145528752
0.00114809099
0.001150898621
0.001153717208
0.001156284543
0.001158313496
0.001159494038
0.001150776044
0.001152249627
0.0011543351
0.001156863576
0.001159634213
0.001162415654
0.001164949131
0.001166951291
0.001168116208
0.001159502858
0.001160957279
0.001163015639
0.001165511249
0.001168245874
0.001170991153
0.001173491672
0.001175467751
0.00117661746
0.001168106109
0.001169541873
0.001171573834
0.001174037442
0.001176737001
0.001179447072
0.001181915501
0.001183866187
0.001185001089
0.001176589185
0.00117800678
0.00118001303
0.001182445472
0.001185110882
0.001187786663
0.00119022384
0.001192149799
0.001193270282
0.001184955361
0.001186355256
0.001188336461
0.001190738543
0.001193370688
0.001196013068
0.001198419804
0.001200321676
0.001201428115
0.001193207799
0.001194590447
0.001196547251
0.001198919752
0.001201519485
0.001204129322
0.001206506398
0.001208384804
0.001209477562
0.001201349551
0.001202715392
0.001204648414
0.001206992087
0.001209560234
0.001212138355
0.001214486528
0.001216342065
0.001217421492
0.001209383567
0.001210733025
0.001212642864
0.001214958435
0.001217495791
0.001220042997
0.001222362995
0.001224196242
0.001225262675
0.001217312692
0.001218646175
0.00122053341
0.001222821582
0.001225328915
0.001227845978
0.001230138506
0.00123195002
0.001233003784
0.001225139673
0.001226457576
0.001228322766
0.001230584214
0.001233062267
0.001235549931
0.001237815669
0.001239605989
0.001240647399
0.001232867161
0.001234169864
0.001236013548
0.001238248925
0.001240698413
0.001243157398
0.001245397
0.001247166644
0.001248196003
0.001240497708
0.00124178558
0.001243608276
0.001245818213
0.001248239827
0.001250670824
0.001252884922
0.001254634392
0.001255651992
0.001248033778
0.001249307172
0.001251109382
0.001253294485
0.001255688889
0.001258092567
0.001260281769
0.001262011545
0.001263017667
0.00125547774
0.001256736997
0.001258519204
0.001260680057
0.00126304789
0.00126542489
0.001267589782
0.001269300326
0.001270295241
0.001262831874
0.001264077321
0.001265839987
0.001267977152
0.001270319029
0.001272669968
0.001274811109
0.001276502866
0.001277486832
0.001270098366
0.001271330318
0.001273073888
0.001275187902
0.001277504411
0.001279829878
0.001281947807
0.001283621201
0.001284594465
0.001277279311
0.001278498068
0.001280222966
0.001282314344
0.001284606047
0.001286906605
0.001289001832
0.001290657268
0.001291620066
0.001284376705
0.001285582554
0.001287289184
0.001289358414
0.001291625844
0.001293902027
0.001295975039
0.001297612899
0.001298565454
0.001291392443
0.001292585655
0.0012942744
0.001296321943
0.001298565605
0.001300817916
0.001302869167
0.00130448981
0.001305432331
0.001298328313
0.001299509142
0.001301180359
0.001303206647
0.00130542701
0.001307655918
0.001309685833
0.001311289592
0.001312222272
0.001305185979
0.00130635466
0.001308008681
0.001310014113
0.00131221161
0.001314417543
0.00131642651
0.001318013689
0.001318936703
0.001311966972
0.001313123719
0.001314760845
0.001316745781
0.0013189208
0.001321104145
0.001323092508
0.001324663377
0.00132557688
0.001318672669
0.001319817671
0.001321438166
0.001323402922
0.001325555803
0.001327716891
0.001329684946
0.001331239733
0.001332143857
0.001325304266
0.001326437684
0.00132804177
0.001329986608
0.00133211763
0.001334256733
0.001336204717
0.001337743602
0.001338638448
0.00133186275
0.001332984709
0.001334572559
0.001336497678
0.001338607049
0.001340724362
0.001342652442
0.001344175547
0.001345061183
0.001338348859
0.001339459441
0.001341031166
0.001342936692
0.001345024533
0.001347120161
0.001349028418
0.001350535798
0.001351412248
0.001344763035
0.001345862274
0.001347417912
0.001349303877
0.001351370205
0.001353444146
0.001355332559
0.00135682418
0.001357691421
0.001351105369
0.001352193238
0.001353732739
0.001355599065
0.001357643774
0.001359695894
0.001361564317
0.001363040049
0.001363897993
0.001357375539
0.001358451936
0.001359975145
0.001361821624
0.001363844456
0.001365874467
0.001367722608
0.001369182196
0.001370030687
0.001363572735
0.001364637473
0.001366144109
0.001367970374
0.001369970894
0.001371978323
0.001373805714
0.001375248762
0.001376087555
0.001369695579
0.001370748368
0.001372238002
0.001374043503
0.001376021068
0.001378005222
0.00137981119
0.001381237135
0.001382065886
0.00137574204
0.00137678247
0.001378254502
0.001380038472
0.001381992196
0.001383952131
0.001385735766
0.001387143849
0.001387962099
0.001381709342
0.001382736867
0.001384190494
0.001385951923
0.001387880639
0.001389815123
0.001391575243
0.001392964485
0.001393771642
0.001387593875
0.00138860779
0.001390041988
0.001391779581
0.00139368181
0.001395589284
0.001397324402
0.001398693578
0.001399488905
0.001393391104
0.001394390531
0.001395804022
0.001397516177
0.001399390088
0.001401268634
0.001402976926
0.001404324542
0.00140510714
0.001399095497
0.001400079365
0.001401470598
0.001403155372
0.001404998755
0.001406846066
0.001408525347
0.001409849614
0.001410618414
0.00140470046
0.001405667492
0.001407034619
0.001408689707
0.00141049995
0.001412313307
0.001413961013
0.001415259838
0.001416013589
0.001410198293
0.001411146999
0.001412487865
0.001414110583
0.001415884656
0.001417660915
0.001419274095
0.001420545079
0.001421282349
0.00141558019
0.001416508857
0.001417820996
0.001419408281
0.001421142733
0.001422878333
0.001424453655
0.001425694093
0.001426413274
0.001420836252
0.001421742954
0.001423023593
0.001424572015
0.001426262996
0.001427953984
0.001429487754
0.001430694659
0.00143139398
0.00142595557
0.001426838177
0.001428084262
0.001429590051
0.001431233359
0.001432875424
0.00143436363
0.001435533767
0.001436211315
0.001430926344
0.001431782549
0.001432990783
0.001434449896
0.001436041026
0.001437629563
0.001439067935
0.001440197877
0.001440851631
0.001435736068
0.001436563436
0.001437730348
0.001439138524
0.001440672747
0.001442202942
0.001443587038
0.001444673232
0.001445301107
0.001440371817
0.001441167826
0.001442289821
0.001443642672
0.001445115133
0.001446582073
0.001447907384
0.001448946245
0.001449546144
0.001444820517
0.00144558261
0.001446656061
0.001447949171
0.001449355021
0.001450753827
0.001452015903
0.001453003917
0.0014535738
0.001449069276
0.001449794934
0.00145081628
0.001452045343
0.001453379881
0.001454705859
0.001455900459
0.0014568343
0.00145737225
0.001453105773
0.001453792593