/*--------------------------------*- C++ -*----------------------------------*\
| =========                 |                                                 |
| \\      /  F ield         | OpenFOAM: The Open Source CFD Toolbox           |
|  \\    /   O peration     | Version:  2212                                  |
|   \\  /    A nd           | Website:  www.openfoam.com                      |
|    \\/     M anipulation  |                                                 |
\*---------------------------------------------------------------------------*/
FoamFile
{
    version     2.0;
    format      ascii;
    arch        "LSB;label=32;scalar=64";
    class       volScalarField;
    location    "30.00000000";
    object      H2_0;
}
// * * * * * * * * * * * * * * * * * * * * * * * * * * * * * * * * * * * * * //

dimensions      [0 0 0 0 0 0 0];

internalField   nonuniform List<scalar> 
3000
(
9.346520126e-22
1.049492589e-21
1.222648515e-21
1.453139207e-21
1.738430586e-21
2.070608915e-21
2.429601867e-21
2.771833942e-21
3.013756953e-21
3.509578621e-21
3.956724936e-21
4.630620767e-21
5.529585874e-21
6.651858901e-21
7.990320884e-21
9.521206052e-21
1.116759536e-20
1.262633234e-20
7.863465724e-21
8.935242563e-21
1.056600048e-20
1.277759055e-20
1.560715143e-20
1.90921148e-20
2.321477821e-20
2.774175647e-20
3.160691545e-20
1.498423329e-20
1.7206349e-20
2.063754597e-20
2.53905939e-20
3.162787735e-20
3.949728474e-20
4.893950043e-20
5.918291383e-20
6.742540865e-20
2.662144778e-20
3.094813843e-20
3.773641102e-20
4.732767229e-20
6.016602101e-20
7.659640552e-20
9.631616916e-20
1.171854058e-19
1.331557976e-19
4.579966557e-20
5.39309701e-20
6.687558558e-20
8.546133893e-20
1.106854099e-19
1.431986992e-19
1.82068654e-19
2.224538917e-19
2.524393901e-19
7.778046878e-20
9.272723609e-20
1.168007293e-19
1.517582902e-19
1.995572074e-19
2.611680695e-19
3.340738664e-19
4.082182012e-19
4.617552851e-19
1.316649982e-19
1.587207281e-19
2.026823908e-19
2.670071884e-19
3.552892237e-19
4.688083033e-19
6.018762294e-19
7.351193531e-19
8.296518172e-19
2.232313904e-19
2.716778289e-19
3.508999536e-19
4.673933297e-19
6.275362032e-19
8.328649438e-19
1.071775871e-18
1.308477529e-18
1.474555011e-18
3.798286544e-19
4.658925213e-19
6.072635941e-19
8.157999917e-19
1.102625705e-18
1.469391693e-18
1.89376272e-18
2.311131477e-18
2.601813077e-18
6.489211302e-19
8.009277087e-19
1.051391257e-18
1.421560426e-18
1.930663988e-18
2.580147491e-18
3.328519152e-18
4.060801773e-18
4.568303702e-18
1.112965419e-18
1.380316746e-18
1.821745631e-18
2.474860969e-18
3.372740673e-18
4.515936025e-18
5.829084992e-18
7.109497204e-18
7.994109381e-18
1.915390182e-18
2.384265399e-18
3.159462362e-18
4.306980572e-18
5.883473732e-18
7.886977906e-18
1.018244998e-17
1.241538958e-17
1.395655603e-17
3.305937426e-18
4.12683348e-18
5.485192598e-18
7.496204266e-18
1.025634153e-17
1.375663451e-17
1.775536735e-17
2.163725554e-17
2.432893788e-17
5.719593592e-18
7.155728528e-18
9.533818992e-18
1.305484795e-17
1.788266183e-17
2.398824383e-17
3.092566958e-17
3.761440392e-17
4.238535354e-17
9.913115254e-18
1.242497186e-17
1.658822271e-17
2.275702077e-17
3.12167804e-17
4.18970018e-17
5.391518549e-17
6.494121254e-17
7.398617415e-17
1.7199563e-17
2.158977915e-17
2.887477806e-17
3.96880088e-17
5.456633935e-17
7.350265406e-17
9.532470467e-17
1.171216992e-16
1.307470081e-16
2.985227682e-17
3.751041529e-17
5.022349579e-17
6.909797799e-17
9.505978856e-17
1.280391907e-16
1.657609962e-16
2.023205371e-16
2.271333066e-16
5.181185683e-17
6.514532377e-17
8.728021213e-17
1.201332503e-16
1.652871458e-16
2.22560204e-16
2.879122293e-16
3.510940294e-16
3.943275286e-16
8.991644016e-17
1.131029753e-16
1.51592964e-16
2.087069547e-16
2.871699285e-16
3.866293003e-16
5.000445194e-16
6.0965914e-16
6.847200955e-16
1.560373554e-16
1.963320662e-16
2.63220426e-16
3.624615365e-16
4.987680013e-16
6.715000043e-16
8.684139456e-16
1.058690981e-15
1.188983028e-15
2.707855824e-16
3.407891978e-16
4.569931509e-16
6.293903037e-16
8.661412002e-16
1.166099152e-15
1.507972393e-15
1.838250194e-15
2.064370293e-15
4.699445938e-16
5.915402665e-16
7.933819604e-16
1.092805142e-15
1.503937292e-15
2.024720561e-15
2.618124379e-15
3.19124782e-15
3.583533342e-15
8.156311907e-16
1.026815454e-15
1.377350638e-15
1.897292601e-15
2.611076559e-15
3.514990533e-15
4.544623263e-15
5.53873386e-15
6.218964189e-15
1.415653986e-15
1.78238734e-15
2.391049665e-15
3.293705675e-15
4.532557666e-15
6.100857176e-15
7.886547424e-15
9.609886612e-15
1.078863122e-14
2.457062127e-15
3.093813765e-15
4.150448731e-15
5.717048981e-15
7.866349536e-15
1.058595272e-14
1.368086613e-14
1.666601687e-14
1.870674586e-14
4.264214564e-15
5.369537418e-15
7.203285363e-15
9.921073203e-15
1.364790878e-14
1.836072133e-14
2.37200752e-14
2.88854438e-14
3.241410607e-14
7.39914861e-15
9.317192249e-15
1.249819265e-14
1.721042112e-14
2.366793213e-14
3.182717304e-14
4.109698809e-14
5.002228744e-14
5.611365472e-14
1.283471421e-14
1.616136818e-14
2.16760145e-14
2.983990991e-14
4.101781732e-14
5.512628797e-14
7.113525123e-14
8.652885196e-14
9.702136512e-14
2.22524995e-14
2.801805672e-14
3.757007556e-14
5.169891615e-14
7.102228582e-14
9.537803064e-14
1.229704578e-13
1.494568538e-13
1.674804816e-13
3.855395703e-14
4.853637756e-14
6.506207296e-14
8.947943297e-14
1.228261892e-13
1.647834585e-13
2.122199477e-13
2.576558415e-13
2.885089905e-13
6.673417606e-14
8.399401403e-14
1.125397992e-13
1.546593726e-13
2.120785329e-13
2.84164627e-13
3.654575868e-13
4.431105906e-13
4.957015531e-13
1.153693863e-13
1.451584192e-13
1.943666879e-13
2.668496701e-13
3.654410884e-13
4.888795322e-13
6.276497072e-13
7.597659109e-13
8.489541878e-13
1.991372131e-13
2.504321158e-13
3.350397688e-13
4.594033129e-13
6.28101764e-13
8.386180675e-13
1.074392217e-12
1.297967125e-12
1.448316856e-12
3.430637821e-13
4.311356363e-13
5.761414358e-13
7.887399271e-13
1.07618295e-12
1.43346477e-12
1.831833414e-12
2.207823548e-12
2.459536819e-12
5.896381556e-13
7.403205549e-13
9.878714378e-13
1.349709488e-12
1.8370306e-12
2.439951839e-12
3.108734609e-12
3.736554318e-12
4.154714287e-12
1.010651651e-12
1.267361327e-12
1.688012453e-12
2.300660472e-12
3.122032482e-12
4.132825488e-12
5.247434059e-12
6.2874381e-12
6.976197242e-12
1.72675893e-12
2.16191838e-12
2.872830938e-12
3.903915479e-12
5.279096868e-12
6.961189908e-12
8.803842545e-12
1.051168393e-11
1.163573043e-11
2.939546734e-12
3.67294626e-12
4.866925163e-12
6.590405489e-12
8.87557469e-12
1.165195839e-11
1.467142592e-11
1.74498132e-11
1.926640638e-11
4.983669539e-12
6.21160108e-12
8.202801054e-12
1.106170849e-11
1.482770695e-11
1.936965338e-11
2.427099107e-11
2.874660514e-11
3.165278374e-11
8.410852503e-12
1.045169417e-11
1.374653673e-11
1.844927978e-11
2.460028107e-11
3.196027744e-11
3.983777677e-11
4.697416118e-11
5.157552987e-11
1.412395389e-11
1.748845988e-11
2.289405159e-11
3.056007457e-11
4.051098867e-11
5.231922309e-11
6.485095789e-11
7.611237156e-11
8.332234528e-11
2.358876777e-11
2.908683966e-11
3.787427079e-11
5.025118068e-11
6.618924084e-11
8.494038822e-11
1.046697251e-10
1.222566597e-10
1.334384455e-10
3.916511901e-11
4.80655695e-11
6.221229557e-11
8.199505496e-11
1.072606412e-10
1.367277319e-10
1.674667085e-10
1.946515936e-10
2.118198569e-10
6.461877915e-11
7.888489409e-11
1.014294886e-10
1.3272362e-10
1.723583134e-10
2.181840815e-10
2.655865583e-10
3.071888785e-10
3.332944373e-10
1.059041016e-10
1.285361331e-10
1.640907807e-10
2.130767309e-10
2.746040672e-10
3.451386748e-10
4.175089026e-10
4.805635765e-10
5.198932222e-10
1.723470664e-10
2.078738182e-10
2.633560343e-10
3.392322917e-10
4.337603488e-10
5.412395516e-10
6.506659895e-10
7.453588433e-10
8.040943811e-10
2.784136492e-10
3.335900046e-10
4.192566753e-10
5.355668324e-10
6.793338861e-10
8.41525964e-10
1.005463204e-09
1.146434715e-09
1.233431808e-09
4.463244086e-10
5.311113432e-10
6.620072831e-10
8.384935544e-10
1.055021604e-09
1.297518056e-09
1.540984918e-09
1.749141035e-09
1.877011048e-09
7.098799305e-10
8.388101052e-10
1.036782597e-09
1.301958708e-09
1.625038605e-09
1.984427072e-09
2.343050937e-09
2.648072502e-09
2.834681777e-09
1.12000235e-09
1.314070273e-09
1.610553886e-09
2.005257833e-09
2.48306856e-09
3.011311986e-09
3.535534568e-09
3.979349089e-09
4.249899033e-09
1.752687059e-09
2.041951823e-09
2.481798826e-09
3.064076364e-09
3.764843673e-09
4.535302121e-09
5.296179842e-09
5.93776411e-09
6.327682367e-09
2.72030932e-09
3.147466236e-09
3.794169345e-09
4.645918274e-09
5.665659752e-09
6.781376418e-09
7.878588996e-09
8.800629671e-09
9.359585713e-09
4.187265073e-09
4.812466801e-09
5.755315871e-09
6.991479354e-09
8.464685716e-09
1.006978221e-08
1.164263959e-08
1.296070625e-08
1.375817552e-08
6.391968791e-09
7.299414636e-09
8.663203334e-09
1.044416574e-08
1.255824945e-08
1.48534063e-08
1.709588777e-08
1.897103263e-08
2.01039918e-08
9.677065425e-09
1.098385849e-08
1.294194716e-08
1.549025225e-08
1.850504519e-08
2.176841448e-08
2.494949541e-08
2.760528118e-08
2.920858531e-08
1.453055423e-08
1.639853825e-08
1.919031311e-08
2.281300664e-08
2.708680847e-08
3.17019147e-08
3.619259344e-08
3.993759033e-08
4.21975605e-08
2.164118364e-08
2.429261937e-08
2.82465997e-08
3.336476163e-08
3.938868916e-08
4.588106774e-08
5.218963707e-08
5.744660155e-08
6.061862104e-08
3.197218874e-08
3.571027209e-08
4.127429863e-08
4.84615076e-08
5.690402939e-08
6.598847025e-08
7.480586331e-08
8.214946705e-08
8.658109548e-08
4.685806308e-08
5.20933504e-08
5.987333509e-08
6.990480497e-08
8.166833918e-08
9.430880658e-08
1.065664734e-07
1.167721117e-07
1.229332907e-07
6.812923944e-08
7.541295975e-08
8.622153712e-08
1.001355563e-07
1.164271744e-07
1.33912094e-07
1.508553852e-07
1.649611116e-07
1.734821034e-07
9.82689276e-08
1.083340062e-07
1.232503535e-07
1.424239259e-07
1.648429117e-07
1.888789555e-07
2.121581732e-07
2.315404732e-07
2.43257599e-07
1.4060531e-07
1.544161035e-07
1.748587101e-07
2.011000655e-07
2.317452645e-07
2.645714845e-07
2.963510058e-07
3.22814321e-07
3.388234089e-07
1.995424944e-07
2.183547863e-07
2.461694182e-07
2.818295735e-07
3.234274909e-07
3.679494188e-07
4.11034208e-07
4.469136519e-07
4.686307677e-07
2.808345116e-07
3.062667967e-07
3.438302931e-07
3.919330978e-07
4.479851139e-07
5.079271013e-07
5.659051027e-07
6.141811232e-07
6.434098343e-07
3.91902839e-07
4.260177652e-07
4.763554509e-07
5.407430943e-07
6.156886989e-07
6.95761445e-07
7.731591204e-07
8.37581937e-07
8.76585709e-07
5.421893706e-07
5.875825125e-07
6.544953649e-07
7.399849214e-07
8.393759252e-07
9.454542957e-07
1.047900737e-06
1.133120757e-06
1.184698354e-06
7.435300055e-07
8.034222687e-07
8.916184607e-07
1.004162599e-06
1.134841174e-06
1.274144517e-06
1.408536605e-06
1.52023488e-06
1.587795324e-06
1.010529263e-06
1.088857641e-06
1.204081113e-06
1.350924161e-06
1.521193593e-06
1.702456753e-06
1.8771142e-06
2.02212373e-06
2.109755394e-06
1.36091231e-06
1.462412867e-06
1.611559391e-06
1.801375722e-06
2.021149034e-06
2.254768083e-06
2.479562653e-06
2.665967353e-06
2.778493207e-06
1.815830213e-06
1.946104834e-06
2.13731325e-06
2.380312533e-06
2.661220598e-06
2.959353164e-06
3.245792111e-06
3.482986394e-06
3.625995033e-06
2.400093807e-06
2.565651805e-06
2.808357193e-06
3.1163393e-06
3.471778087e-06
3.848375974e-06
4.209617482e-06
4.508307564e-06
4.688148542e-06
3.142316975e-06
3.350582701e-06
3.655518508e-06
4.041861552e-06
4.48695923e-06
4.957712654e-06
5.4084932e-06
5.780623385e-06
6.004356888e-06
4.074956213e-06
4.334235364e-06
4.713374103e-06
5.192942989e-06
5.744433137e-06
6.326612951e-06
6.883074518e-06
7.341669365e-06
7.616965275e-06
5.234239051e-06
5.553639425e-06
6.020066615e-06
6.609036944e-06
7.285034229e-06
7.99723114e-06
8.676650218e-06
9.235576413e-06
9.570566022e-06
6.659976883e-06
7.049283656e-06
7.617006708e-06
8.332609013e-06
9.152297136e-06
1.00140733e-05
1.083451154e-05
1.150817976e-05
1.191127402e-05
8.395257543e-06
8.864768031e-06
9.548469459e-06
1.040866938e-05
1.13919248e-05
1.242340959e-05
1.340332408e-05
1.420636905e-05
1.46860707e-05
1.048601154e-05
1.104633868e-05
1.186108925e-05
1.288422728e-05
1.405121152e-05
1.527268376e-05
1.64305471e-05
1.737753613e-05
1.794227351e-05
1.298044712e-05
1.364230325e-05
1.460325333e-05
1.580766929e-05
1.717842259e-05
1.860992028e-05
1.996390526e-05
2.106915424e-05
2.172730053e-05
1.592835745e-05
1.670232992e-05
1.782439459e-05
1.92280545e-05
2.082210525e-05
2.248306718e-05
2.405078775e-05
2.532833551e-05
2.608836651e-05
1.938032093e-05
2.027664992e-05
2.157419893e-05
2.319432792e-05
2.503029698e-05
2.693919872e-05
2.873739998e-05
3.020045384e-05
3.106935671e-05
2.338683845e-05
2.441520733e-05
2.590177215e-05
2.775450765e-05
2.984977443e-05
3.202378346e-05
3.406765201e-05
3.572702638e-05
3.671082948e-05
2.799746485e-05
2.91667954e-05
3.085481347e-05
3.295492099e-05
3.532529985e-05
3.777938481e-05
4.008107011e-05
4.194575067e-05
4.30493951e-05
3.326001264e-05
3.457832634e-05
3.647892072e-05
3.883947645e-05
4.14979559e-05
4.424370131e-05
4.681286925e-05
4.888984178e-05
5.011708488e-05
3.921995346e-05
4.069418322e-05
4.281649253e-05
4.544725189e-05
4.840349042e-05
5.144960874e-05
5.429327294e-05
5.65873972e-05
5.794074618e-05
4.591844401e-05
4.755336947e-05
4.990367664e-05
5.281161372e-05
5.607230828e-05
5.942449653e-05
6.254689549e-05
6.506082337e-05
6.654149714e-05
5.338979287e-05
5.518856116e-05
5.777086676e-05
6.096012305e-05
6.452886609e-05
6.818969345e-05
7.159221377e-05
7.432634928e-05
7.593426605e-05
6.166215366e-05
6.362622185e-05
6.64421369e-05
6.991394187e-05
7.379113969e-05
7.775999124e-05
8.144114339e-05
8.439364467e-05
8.612743401e-05
7.075694005e-05
7.28860328e-05
7.593472343e-05
7.968735392e-05
8.387020459e-05
8.814328593e-05
9.209873442e-05
9.526555736e-05
9.712259553e-05
8.068833439e-05
8.298043346e-05
8.625861666e-05
9.028741242e-05
9.476994673e-05
9.934035101e-05
0.000103562999
0.0001069379814
0.000108914449
9.14629268e-05
9.391429702e-05
9.741628834e-05
0.000101713728
0.0001064869149
0.0001113447517
0.0001158248789
0.0001193998642
0.0001214908251
0.0001030795036
0.000105684756
0.0001094025688
0.0001139584062
0.0001190103213
0.0001241429059
0.0001288683578
0.0001326333557
0.0001348328557
0.0001155289955
0.0001182811861
0.000122204681
0.000127006139
0.0001323221935
0.0001377142923
0.0001426707167
0.0001466140985
0.0001489152819
0.0001287945894
0.0001316853529
0.0001358024324
0.0001408344507
0.0001463976751
0.0001520318018
0.000157202927
0.0001613116498
0.0001637068911
0.0001428520049
0.0001458717173
0.0001501685628
0.000155414092
0.0001612054659
0.0001670622204
0.000172430168
0.0001766900223
0.0001791710695
0.0001576699273
0.0001608078951
0.0001652692371
0.0001707095704
0.000176708391
0.0001827668301
0.0001883124518
0.0001927083257
0.0001952664511
0.0001732105858
0.0001764552545
0.0001810646683
0.0001866798014
0.0001928640761
0.0001991021051
0.0002048053346
0.0002093214852
0.0002119476388
0.0001894304586
0.0001927696334
0.0001975098509
0.0002032788566
0.0002096257087
0.0002160204811
0.0002218606879
0.0002264810121
0.0002291659735
0.0002062810796
0.0002097021519
0.0002145553787
0.0002204567853
0.0002269428586
0.0002334711701
0.0002394275058
0.0002441358022
0.0002468703257
0.0002237099214
0.0002272000927
0.0002321483196
0.0002381604793
0.0002447623299
0.0002514009952
0.0002574527206
0.0002622329345
0.0002650078844
0.0002416613219
0.0002452078187
0.0002502331186
0.0002563345561
0.0002630290175
0.0002697552199
0.0002758820046
0.0002807184505
0.0002835249222
0.0002600774267
0.0002636676987
0.0002687524999
0.0002749222305
0.000281686745
0.0002884783479
0.0002946605355
0.0002995380915
0.000302367517
0.0002788991156
0.0002825210138
0.0002876483428
0.0002938661523
0.000300679059
0.0003075148751
0.0003137337089
0.0003186379804
0.0003214822159
0.000298066889
0.0003017088183
0.000306862507
0.0003131091888
0.000319949965
0.0003268099776
0.0003330477839
0.0003379652349
0.0003408166306
0.0003175216904
0.0003211727352
0.0003263375898
0.0003325951356
0.0003394445876
0.0003463101241
0.0003525504525
0.0003574685042
0.0003603199557
0.0003372056489
0.0003408556705
0.0003460176008
0.0003522693443
0.0003591097487
0.000365963605
0.0003721913271
0.0003770984257
0.0003799434091
0.0003570627283
0.0003607024337
0.0003658485438
0.0003720792592
0.0003788944567
0.0003857209763
0.0003919223456
0.0003968080007
0.0003996405907
0.0003770392761
0.0003806602609
0.0003857789031
0.0003919748606
0.000398750305
0.0004055354167
0.0004116980923
0.0004165528898
0.0004193677656
0.0003970844693
0.000400679236
0.0004057600314
0.0004119090149
0.0004186317828
0.0004253630012
0.0004314760414
0.0004362916339
0.0004390840717
0.0004171506589
0.0004207126137
0.0004257464444
0.0004318377351
0.0004384965016
0.0004451628964
0.0004512167258
0.0004559858044
0.0004587516606
0.0004371936173
0.0004407170489
0.0004456960247
0.0004517203576
0.0004583053439
0.0004648974832
0.0004708838392
0.0004756000903
0.0004783357769
0.000457172696
0.0004606527396
0.0004655701452
0.0004715196429
0.0004780225416
0.0004845324157
0.0004904442783
0.000495102329
0.0004978047831
0.0004770509026
0.0004804834921
0.0004853337196
0.0004912018092
0.0004976156931
0.0005040366231
0.0005098681332
0.0005144634887
0.0005171301374
0.0004967949071
0.0005001767194
0.0005049551892
0.0005107365074
0.0005170557262
0.0005233822633
0.0005291286333
0.0005336576092
0.0005362863325
0.0005163749876
0.0005197033815
0.0005244064566
0.000530096747
0.0005363168185
0.0005425446366
0.000548202057
0.0005526617086
0.0005552508006
0.0005357649268
0.0005390378787
0.0005436627753
0.000549258783
0.0005553762798
0.000561502067
0.0005670676118
0.0005714556633
0.0005740037928
0.0005549418684
0.0005581579077
0.0005627026053
0.0005682019705
0.0005742144078
0.0005802357587
0.0005857072914
0.0005900220659
0.0005925282386
0.0005738861432
0.0005770442883
0.0005815074414
0.0005869085955
0.0005928143223
0.0005987296327
0.0006041057165
0.0006083460684
0.0006108095899
0.0005925810732
0.0005956807703
0.0006000616237
0.0006053636903
0.0006111617846
0.0006169701524
0.0006222499636
0.0006264152151
0.0006288356552
0.0006110127614
0.0006140538266
0.0006183521353
0.0006235548368
0.0006292450077
0.0006349461393
0.0006401293876
0.0006442192681
0.0006465964288
0.0006291698726
0.0006321524382
0.0006363683941
0.000641471965
0.0006470544628
0.000652648587
0.0006577354409
0.0006617500322
0.0006640839165
0.0006470434106
0.0006499678763
0.0006541020406
0.0006591071497
0.0006645826836
0.0006700704736
0.0006750614932
0.0006790011787
0.0006812919629
0.0006646264992
0.0006674934883
0.0006715467306
0.0006764544091
0.0006818240724
0.000687206575
0.0006921026518
0.0006959680722
0.0006982160813
0.0006819141696
0.0006847244919
0.0006886979383
0.0006935095181
0.0006987747223
0.0007040532938
0.0007088555943
0.0007126476046
0.0007148532891
0.0006989031468
0.000701657767
0.000705552756
0.0007102698165
0.0007154322352
0.0007206084869
0.000725318405
0.0007290380387
0.0007312019533
0.0007155916937
0.0007182916868
0.0007221097207
0.0007267340396
0.0007317955561
0.0007368713048
0.0007414904194
0.0007451388566
0.0007472616435
0.000731979445
0.0007346259661
0.0007383686588
0.0007429021586
0.000747864818
0.0007528420426
0.0007573720803
0.0007609506191
0.0007630329912
0.000748067215
0.0007506614815
0.0007543305309
0.0007587752321
0.0007636411997
0.0007685220014
0.0007729648021
0.0007764748334
0.00077851756
0.0007638568356
0.0007664001098
0.0007699972765
0.0007743552724
0.0007791267925
0.000783913359
0.0007882708464
0.0007917138311
0.0007937177255
0.0007793510111
0.000781844584
0.0007853716696
0.0007896451033
0.0007943244706
0.0007990190492
0.0008032932057
0.0008066706555
0.0008086365638
0.0007945531881
0.000796998366
0.0008004571945
0.0008046482374
0.0008092377783
0.0008138426518
0.0008180354971
0.0008213489579
0.0008232777493
0.0008094674376
0.0008118655311
0.000815257934
0.0008193687683
0.0008238708247
0.0008283882903
0.0008325018635
0.0008357529021
0.0008376454612
0.0008240983501
0.0008264506653
0.0008297784683
0.0008338112718
0.0008382281832
0.0008426605381
0.0008466968852
0.0008498870783
0.0008517442988
0.0008384509427
0.0008407587735
0.0008440237869
0.0008479807208
0.0008523148114
0.0008566643407
0.0008606255023
0.0008637564272
0.0008655792062
0.0008525305762
0.0008547951988
0.0008579992085
0.0008618824065
0.0008661359753
0.0008704049444
0.0008742929471
0.0008773661733
0.0008791554057
0.0008663428773
0.000868565545
0.0008717103074
0.0008755218712
0.0008796971857
0.0008838878322
0.0008877046786
0.0008907217605
0.000892478335
0.0008798936776
0.0008820756182
0.000885162855
0.0008889048474
0.0008930041357
0.0008971186616
0.0009008663247
0.0009038287969
0.0009055535931
0.0008931889572
0.0008953313702
0.0008983627649
0.0009020372043
0.0009060626495
0.000910103215
0.0009137836336
0.0009166930072
0.0009183868927
0.0009062347957
0.0009083388502
0.0009113160449
0.000914924902
0.0009188786377
0.0009228473571
0.0009264624316
0.0009293201907
0.0009309840196
0.0009190373294
0.0009211041631
0.0009240287565
0.0009275739517
0.0009314580594
0.0009353569977
0.0009389085874
0.000941716186
0.0009433507966
0.0009316027152
0.0009336334333
0.0009365069795
0.0009399903813
0.0009438068883
0.0009476380596
0.0009511279796
0.0009538868403
0.0009554930539
0.0009439370987
0.0009459327738
0.000948756782
0.000952180206
0.0009559310845
0.0009596964499
0.0009631264703
0.000965837982
0.0009674166015
0.0009560465886
0.0009580082603
0.0009607841942
0.0009641494031
0.0009678365693
0.0009715380369
0.0009749098824
0.0009775753982
0.0009791272072
0.0009679372336
0.000969865909
0.0009725951872
0.0009759038905
0.0009795292045
0.0009831686282
0.0009864839753
0.0009891048135
0.000990630576
0.0009796150039
0.000981511658
0.0009841956544
0.0009874495086
0.0009910147746
0.0009945939541
0.0009978544324
0.001000431875
0.001001932335
0.0009910857759
0.0009929513517
0.000995591396
0.0009987920056
0.001002298972
0.001005819653
0.001009026845
0.001011562137
0.001013038017
0.001002355319
0.001004190729
0.001006788107
0.001009937025
0.001013387386
0.00101685126
0.0010200067
0.001022501051
0.001023953054
0.001013429287
0.001015235411
0.001017791368
0.001020890097
0.001024285491
0.001027694198
0.001030799374
0.001033253957
0.001034682766
0.001024313207
0.001026090898
0.001028606636
0.001031656628
0.001034998642
0.001038353769
0.001041410122
0.001043826075
0.001045232351
0.001035012476
0.001036762557
0.001039239237
0.001042241898
0.001045532067
0.00104883515
0.001051844076
0.0010542225
0.001055606886
0.001045532356
0.001047255623
0.001049694368
0.001052651055
0.001055890862
0.001059143387
0.001062106238
0.001064448201
0.001065811318
0.00105587797
0.001057575189
0.001059977084
0.00106288911
0.00106607999
0.001069283394
0.001072201478
0.001074508012
0.001075850464
0.0010660543
0.001067726213
0.001070092306
0.001072960938
0.001076104278
0.001079259951
0.001082134532
0.001084406639
0.001085729007
0.001076066188
0.001077713511
0.001080044812
0.001082871276
0.001085968415
0.001089077701
0.001091910002
0.001094148649
0.001095451499
0.001085918331
0.001087541755
0.001089839243
0.001092624721
0.001095676955
0.001098741152
0.001101532357
0.001103738479
0.001105022357
0.00109561529
0.001097215482
0.0010994801
0.001102225734
0.001105234314
0.001108254678
0.001111005929
0.001113180431
0.001114445865
0.001105161481
0.001106739086
0.001108971745
0.00111167864
0.001114644773
0.001117622516
0.001120334919
0.001122478676
0.001123726177
0.001114561186
0.001116116826
0.001118318405
0.001120987627
0.001123912481
0.001126848776
0.001129523398
0.001131637256
0.001132867317
0.001123818548
0.001125352824
0.001127524174
0.001130156752
0.001133041455
0.001135937432
0.001138575307
0.001140660082
0.00114187318
0.00113293758
0.001134451071
0.001136593012
0.00113918994
0.001142035581
0.001144892335
0.001147494458
0.001149550941
0.001150747538
0.001141922161
0.001143415428
0.001145528752
0.001148090991
0.001150898622
0.001153717209
0.001156284544
0.001158313496
0.001159494038
0.001150776044
0.001152249627
0.0011543351
0.001156863577
0.001159634214
0.001162415654
0.001164949132
0.001166951291
0.001168116209
0.001159502858
0.00116095728
0.00116301564
0.00116551125
0.001168245874
0.001170991153
0.001173491672
0.001175467752
0.00117661746
0.001168106109
0.001169541874
0.001171573834
0.001174037442
0.001176737002
0.001179447072
0.001181915501
0.001183866188
0.001185001089
0.001176589186
0.00117800678
0.00118001303
0.001182445472
0.001185110882
0.001187786663
0.00119022384
0.001192149799
0.001193270282
0.001184955362
0.001186355256
0.001188336461
0.001190738544
0.001193370688
0.001196013068
0.001198419804
0.001200321676
0.001201428116
0.001193207799
0.001194590447
0.001196547251
0.001198919752
0.001201519485
0.001204129322
0.001206506399
0.001208384804
0.001209477562
0.001201349551
0.001202715393
0.001204648414
0.001206992088
0.001209560234
0.001212138355
0.001214486528
0.001216342065
0.001217421492
0.001209383567
0.001210733025
0.001212642864
0.001214958436
0.001217495791
0.001220042997
0.001222362995
0.001224196242
0.001225262675
0.001217312692
0.001218646175
0.001220533411
0.001222821582
0.001225328915
0.001227845978
0.001230138506
0.00123195002
0.001233003785
0.001225139674
0.001226457577
0.001228322767
0.001230584214
0.001233062267
0.001235549931
0.001237815669
0.001239605989
0.001240647399
0.001232867161
0.001234169864
0.001236013548
0.001238248925
0.001240698413
0.001243157398
0.001245397
0.001247166644
0.001248196004
0.001240497708
0.00124178558
0.001243608277
0.001245818213
0.001248239827
0.001250670825
0.001252884923
0.001254634392
0.001255651992
0.001248033778
0.001249307172
0.001251109382
0.001253294486
0.001255688889
0.001258092567
0.00126028177
0.001262011545
0.001263017668
0.001255477741
0.001256736997
0.001258519204
0.001260680057
0.00126304789
0.001265424891
0.001267589782
0.001269300326
0.001270295241
0.001262831874
0.001264077322
0.001265839987
0.001267977152
0.001270319029
0.001272669968
0.001274811109
0.001276502867
0.001277486832
0.001270098367
0.001271330319
0.001273073888
0.001275187903
0.001277504411
0.001279829878
0.001281947807
0.001283621201
0.001284594466
0.001277279311
0.001278498069
0.001280222966
0.001282314344
0.001284606047
0.001286906605
0.001289001832
0.001290657268
0.001291620067
0.001284376705
0.001285582554
0.001287289184
0.001289358414
0.001291625844
0.001293902028
0.001295975039
0.001297612899
0.001298565454
0.001291392444
0.001292585656
0.0012942744
0.001296321943
0.001298565605
0.001300817916
0.001302869167
0.001304489811
0.001305432331
0.001298328313
0.001299509142
0.001301180359
0.001303206648
0.00130542701
0.001307655918
0.001309685833
0.001311289593
0.001312222272
0.00130518598
0.00130635466
0.001308008682
0.001310014113
0.00131221161
0.001314417543
0.00131642651
0.001318013689
0.001318936704
0.001311966973
0.001313123719
0.001314760845
0.001316745781
0.0013189208
0.001321104145
0.001323092508
0.001324663377
0.00132557688
0.001318672669
0.001319817671
0.001321438167
0.001323402922
0.001325555803
0.001327716892
0.001329684947
0.001331239733
0.001332143857
0.001325304266
0.001326437684
0.001328041771
0.001329986608
0.00133211763
0.001334256733
0.001336204718
0.001337743602
0.001338638449
0.00133186275
0.001332984709
0.001334572559
0.001336497679
0.001338607049
0.001340724362
0.001342652442
0.001344175548
0.001345061184
0.001338348859
0.001339459442
0.001341031167
0.001342936693
0.001345024533
0.001347120161
0.001349028418
0.001350535798
0.001351412248
0.001344763035
0.001345862274
0.001347417912
0.001349303877
0.001351370205
0.001353444146
0.001355332559
0.001356824181
0.001357691421
0.001351105369
0.001352193238
0.001353732739
0.001355599065
0.001357643774
0.001359695895
0.001361564317
0.001363040049
0.001363897994
0.001357375539
0.001358451936
0.001359975145
0.001361821624
0.001363844456
0.001365874467
0.001367722608
0.001369182196
0.001370030687
0.001363572735
0.001364637473
0.001366144109
0.001367970374
0.001369970895
0.001371978323
0.001373805714
0.001375248762
0.001376087555
0.001369695579
0.001370748368
0.001372238003
0.001374043503
0.001376021069
0.001378005222
0.001379811191
0.001381237135
0.001382065886
0.00137574204
0.001376782471
0.001378254502
0.001380038472
0.001381992196
0.001383952131
0.001385735767
0.001387143849
0.001387962099
0.001381709342
0.001382736867
0.001384190494
0.001385951923
0.001387880639
0.001389815123
0.001391575243
0.001392964485
0.001393771643
0.001387593875
0.00138860779
0.001390041988
0.001391779581
0.00139368181
0.001395589284
0.001397324402
0.001398693579
0.001399488906
0.001393391104
0.001394390531
0.001395804022
0.001397516178
0.001399390088
0.001401268634
0.001402976926
0.001404324542
0.001405107141
0.001399095498
0.001400079366
0.001401470598
0.001403155372
0.001404998755
0.001406846066
0.001408525347
0.001409849614
0.001410618414
0.00140470046
0.001405667492
0.001407034619
0.001408689707
0.00141049995
0.001412313307
0.001413961013
0.001415259839
0.001416013589
0.001410198294
0.001411146999
0.001412487865
0.001414110583
0.001415884656
0.001417660915
0.001419274095
0.001420545079
0.001421282349
0.00141558019
0.001416508857
0.001417820996
0.001419408281
0.001421142733
0.001422878334
0.001424453655
0.001425694093
0.001426413274
0.001420836253
0.001421742954
0.001423023593
0.001424572015
0.001426262996
0.001427953984
0.001429487754
0.001430694659
0.00143139398
0.001425955571
0.001426838177
0.001428084262
0.001429590051
0.001431233359
0.001432875424
0.00143436363
0.001435533767
0.001436211315
0.001430926344
0.001431782549
0.001432990783
0.001434449896
0.001436041026
0.001437629563
0.001439067935
0.001440197877
0.001440851631
0.001435736069
0.001436563437
0.001437730348
0.001439138525
0.001440672747
0.001442202942
0.001443587038
0.001444673233
0.001445301107
0.001440371818
0.001441167826
0.001442289822
0.001443642672
0.001445115133
0.001446582073
0.001447907384
0.001448946245
0.001449546144
0.001444820517
0.00144558261
0.001446656061
0.001447949171
0.001449355021
0.001450753827
0.001452015903
0.001453003917
0.0014535738
0.001449069276
0.001449794934
0.00145081628
0.001452045343
0.001453379881
0.001454705859
0.001455900459
0.001456834301
0.00145737225
0.001453105773
0.001453792594