/*--------------------------------*- C++ -*----------------------------------*\
| =========                 |                                                 |
| \\      /  F ield         | OpenFOAM: The Open Source CFD Toolbox           |
|  \\    /   O peration     | Version:  2212                                  |
|   \\  /    A nd           | Website:  www.openfoam.com                      |
|    \\/     M anipulation  |                                                 |
\*---------------------------------------------------------------------------*/
FoamFile
{
    version     2.0;
    format      ascii;
    arch        "LSB;label=32;scalar=64";
    class       volScalarField;
    location    "30.00000000";
    object      H_0;
}
// * * * * * * * * * * * * * * * * * * * * * * * * * * * * * * * * * * * * * //

dimensions      [0 0 0 0 0 0 0];

internalField   nonuniform List<scalar> 
3000
(
1.352392512e-29
1.517824046e-29
1.766741592e-29
2.096841419e-29
2.502655931e-29
2.968999661e-29
3.459066257e-29
3.895041268e-29
4.14135453e-29
5.058295297e-29
5.696065574e-29
6.652978666e-29
7.919933362e-29
9.482309763e-29
1.13086149e-28
1.332918173e-28
1.538418096e-28
1.703546697e-28
1.127818541e-28
1.279142714e-28
1.507997638e-28
1.815429359e-28
2.20328948e-28
2.671517508e-28
3.210086763e-28
3.778739091e-28
4.235947868e-28
2.137812562e-28
2.448898027e-28
2.926038954e-28
3.580492729e-28
4.427801079e-28
5.478180262e-28
6.71058961e-28
8.00948148e-28
9.009744867e-28
3.778003566e-28
4.379732191e-28
5.317453904e-28
6.629831846e-28
8.365033496e-28
1.05523851e-27
1.313016966e-27
1.579630424e-27
1.776539378e-27
6.466365085e-28
7.591439378e-28
9.370876374e-28
1.19031521e-27
1.530201146e-27
1.96260057e-27
2.471696665e-27
2.990749908e-27
3.36521824e-27
1.092818969e-27
1.298776902e-27
1.628453922e-27
2.103251095e-27
2.74598835e-27
3.564927003e-27
4.521279144e-27
5.478429296e-27
6.155473534e-27
1.841447883e-27
2.212972324e-27
2.813151828e-27
3.684663264e-27
4.86993842e-27
6.378431109e-27
8.126315843e-27
9.852573028e-27
1.106032307e-26
3.10880856e-27
3.772069722e-27
4.850800579e-27
6.425916411e-27
8.5734073e-27
1.13015502e-26
1.444348867e-26
1.751948083e-26
1.965937745e-26
5.268834488e-27
6.443965017e-27
8.364555387e-27
1.117933566e-26
1.502187684e-26
1.989477817e-26
2.548176811e-26
3.091985683e-26
3.469221905e-26
8.968960047e-27
1.103953294e-26
1.443534629e-26
1.942440015e-26
2.623926733e-26
3.486851453e-26
4.473077162e-26
5.429402281e-26
6.092082151e-26
1.533152204e-26
1.896546276e-26
2.493972881e-26
3.37309368e-26
4.574193096e-26
6.093164025e-26
7.825224419e-26
9.500795485e-26
1.066206653e-25
2.630499864e-26
3.266584405e-26
4.314070938e-26
5.856952885e-26
7.964667363e-26
1.062697181e-25
1.365722937e-25
1.658462515e-25
1.861721123e-25
4.527627956e-26
5.639350079e-26
7.472274466e-26
1.017355205e-25
1.386208996e-25
1.851392198e-25
2.379667426e-25
2.889413049e-25
3.245850332e-25
7.813542486e-26
9.755493936e-26
1.296050272e-25
1.768625539e-25
2.413573927e-25
3.225130508e-25
4.14228327e-25
5.021817421e-25
5.655799834e-25
1.351158275e-25
1.690357816e-25
2.250864331e-25
3.0782663e-25
4.208168229e-25
5.628167493e-25
7.218150321e-25
8.669052043e-25
9.874311661e-25
2.339537517e-25
2.93170588e-25
3.911650706e-25
5.361281779e-25
7.34836263e-25
9.867277306e-25
1.27580212e-24
1.56368822e-24
1.745325989e-24
4.053306469e-25
5.085275751e-25
6.794220589e-25
9.323731997e-25
1.279136419e-24
1.718056753e-24
2.218219094e-24
2.701668682e-24
3.032594247e-24
7.024043772e-25
8.819486048e-25
1.179362782e-24
1.61961507e-24
2.222924609e-24
2.98576934e-24
3.853318001e-24
4.689417328e-24
5.266039604e-24
1.217418318e-24
1.529505733e-24
2.046606885e-24
2.812175349e-24
3.861305434e-24
5.187715581e-24
6.695974324e-24
8.149090558e-24
9.146724874e-24
2.110605052e-24
2.652941291e-24
3.551836307e-24
4.883103864e-24
6.708086574e-24
9.016235155e-24
1.164185753e-23
1.417153656e-23
1.589405809e-23
3.660552279e-24
4.603201411e-24
6.166248879e-24
8.482301601e-24
1.165913046e-23
1.567967295e-23
2.025664161e-23
2.467010347e-23
2.76782287e-23
6.352155838e-24
7.991511371e-24
1.071123164e-23
1.474393919e-23
2.02799977e-23
2.729315376e-23
3.528592227e-23
4.300340968e-23
4.827278359e-23
1.103059069e-23
1.388411075e-23
1.862134703e-23
2.565198452e-23
3.531471134e-23
4.757277505e-23
6.156647916e-23
7.510562428e-23
8.437564554e-23
1.917177644e-23
2.414501583e-23
3.240859629e-23
4.468797091e-23
6.159158949e-23
8.307839023e-23
1.076675205e-22
1.315300528e-22
1.479383499e-22
3.335934294e-23
4.204201403e-23
5.648629237e-23
7.798617362e-23
1.076484928e-22
1.454594878e-22
1.888805709e-22
2.312040546e-22
2.604917864e-22
5.812981471e-23
7.332386822e-23
9.864040321e-23
1.364093954e-22
1.886757202e-22
2.555581837e-22
3.327349857e-22
4.084248936e-22
4.612769216e-22
1.014793835e-22
1.281482543e-22
1.726780975e-22
2.393136452e-22
3.319019187e-22
4.50996943e-22
5.893140485e-22
7.260959014e-22
8.227836586e-22
1.775693625e-22
2.245596164e-22
3.032383398e-22
4.214468238e-22
5.865691763e-22
8.004012902e-22
1.050840958e-21
1.30117973e-21
1.48096448e-21
3.116251479e-22
3.948211761e-22
5.34620265e-22
7.457386392e-22
1.042650393e-21
1.430446661e-21
1.889450246e-21
2.354465115e-21
2.695007686e-21
5.488942842e-22
6.970653448e-22
9.471733479e-22
1.327317259e-21
1.866465222e-21
2.578072837e-21
3.431197581e-21
4.309490156e-21
4.967594124e-21
9.712104692e-22
1.236984212e-21
1.688115401e-21
2.379229242e-21
3.369448704e-21
4.69284089e-21
6.303375474e-21
7.992320518e-21
9.290684144e-21
1.728005968e-21
2.208740837e-21
3.030277354e-21
4.300736236e-21
6.142928228e-21
8.640652933e-21
1.173220329e-20
1.504099202e-20
1.765504556e-20
3.095178356e-21
3.973226395e-21
5.485712687e-21
7.850376622e-21
1.132621997e-20
1.611516965e-20
2.215284453e-20
2.875568822e-20
3.41193515e-20
5.588502209e-21
7.210007758e-21
1.002872902e-20
1.44902388e-20
2.11476491e-20
3.048000199e-20
4.247493704e-20
5.588337439e-20
6.707464102e-20
1.018560999e-20
1.321699585e-20
1.854044806e-20
2.708087137e-20
4.003117386e-20
5.851357797e-20
8.273496939e-20
1.103948621e-19
1.340712715e-19
1.876774176e-20
2.451099941e-20
3.470848015e-20
5.130362065e-20
7.688776038e-20
1.140608613e-19
1.636980592e-19
2.215200526e-19
2.721384994e-19
3.501404649e-20
4.605096718e-20
6.587488702e-20
9.860991375e-20
1.499105238e-19
2.257358516e-19
3.287460043e-19
4.508738841e-19
5.598333405e-19
6.624402821e-20
8.777029932e-20
1.268867029e-19
1.924094567e-19
2.966980987e-19
4.532561904e-19
6.691535311e-19
9.289056103e-19
1.164158384e-18
1.272810462e-19
1.699039128e-19
2.482293732e-19
3.81192435e-19
5.957762715e-19
9.221896653e-19
1.377784125e-18
1.93213134e-18
2.439685857e-18
2.486980442e-19
3.343722842e-19
4.934313475e-19
7.666201436e-19
1.212600956e-18
1.897952186e-18
2.862817138e-18
4.045686669e-18
5.136005526e-18
4.947245488e-19
6.694858966e-19
9.967733094e-19
1.5641861e-18
2.498340046e-18
3.943429491e-18
5.98765442e-18
8.502810339e-18
1.082735252e-17
1.002791568e-18
1.364357662e-18
2.045980895e-18
3.235343537e-18
5.202990791e-18
8.254957209e-18
1.257536576e-17
1.788904522e-17
2.27940717e-17
2.07222623e-18
2.830437067e-18
4.265712905e-18
6.777929925e-18
1.093801838e-17
1.738073782e-17
2.646950112e-17
3.759897716e-17
4.782221225e-17
4.365844383e-18
5.97636133e-18
9.029319801e-18
1.437095748e-17
2.318956609e-17
3.676902919e-17
5.578009833e-17
7.886688686e-17
9.989472808e-17
9.37254965e-18
1.283551645e-17
1.939196338e-17
3.082132456e-17
4.956424112e-17
7.81522638e-17
1.177202585e-16
1.651963143e-16
2.079254216e-16
2.047302601e-17
2.800586904e-17
4.221919538e-17
6.684108125e-17
1.068385553e-16
1.671004117e-16
2.493294523e-16
3.465283338e-16
4.327052357e-16
4.538542168e-17
6.194638481e-17
9.304717557e-17
1.465167257e-16
2.324715582e-16
3.603088281e-16
5.322067418e-16
7.322482827e-16
9.066819391e-16
1.017044053e-16
1.38441597e-16
2.071030575e-16
3.243265661e-16
5.111099208e-16
7.861240042e-16
1.152009315e-15
1.573024568e-15
1.935073909e-15
2.291609847e-16
3.111632058e-16
4.638999444e-16
7.235786187e-16
1.135729603e-15
1.741071015e-15
2.546289354e-15
3.473931588e-15
4.269662755e-15
5.15935402e-16
6.994088621e-16
1.040884159e-15
1.621864868e-15
2.547713391e-15
3.920452475e-15
5.776038447e-15
7.95850058e-15
9.860383621e-15
1.153342844e-15
1.563057998e-15
2.327741771e-15
3.637705586e-15
5.753686686e-15
8.963221927e-15
1.34459173e-14
1.892443496e-14
2.386416423e-14
2.547192739e-15
3.457282981e-15
5.167055873e-15
8.133985317e-15
1.303233741e-14
2.070708295e-14
3.187875779e-14
4.616307539e-14
5.957004129e-14
5.546497353e-15
7.555462681e-15
1.136710218e-14
1.809569832e-14
2.949382086e-14
4.795827719e-14
7.586334175e-14
1.128365409e-13
1.485530864e-13
1.194214007e-14
1.636211011e-14
2.484530572e-14
4.008330859e-14
6.648013302e-14
1.102823502e-13
1.778186707e-13
2.682752952e-13
3.558330586e-13
2.564999168e-14
3.539826673e-14
5.428934884e-14
8.864273002e-14
1.488332688e-13
2.491770484e-13
4.025746021e-13
6.029705637e-13
7.90153253e-13
5.566842758e-14
7.730536079e-14
1.193993619e-13
1.96043615e-13
3.294017293e-13
5.46854411e-13
8.652132172e-13
1.255178942e-12
1.593397791e-12
1.234362778e-13
1.716227578e-13
2.647599804e-13
4.317652704e-13
7.136471412e-13
1.150028483e-12
1.741969431e-12
2.401711235e-12
2.921970178e-12
2.798389533e-13
3.858818307e-13
5.86667713e-13
9.34203038e-13
1.489282154e-12
2.284037254e-12
3.263017373e-12
4.250994295e-12
4.96646458e-12
6.386592192e-13
8.630452945e-13
1.272946602e-12
1.944614732e-12
2.939843589e-12
4.241302541e-12
5.703929162e-12
7.072823742e-12
8.010597174e-12
1.425050889e-12
1.866754042e-12
2.635697105e-12
3.813878029e-12
5.424937135e-12
7.369847704e-12
9.421845731e-12
1.126515704e-11
1.249162255e-11
3.008668228e-12
3.796363646e-12
5.098436487e-12
6.96910427e-12
9.36741816e-12
1.212089388e-11
1.494027555e-11
1.743219926e-11
1.906704425e-11
5.870883059e-12
7.138462936e-12
9.14690257e-12
1.190510391e-11
1.531630372e-11
1.915245832e-11
2.304772251e-11
2.647848084e-11
2.871577117e-11
1.053288442e-11
1.242204884e-11
1.534294858e-11
1.926939923e-11
2.406570932e-11
2.944160253e-11
3.491116715e-11
3.974144499e-11
4.288946975e-11
1.757451516e-11
2.028511911e-11
2.443755134e-11
2.998865751e-11
3.676927312e-11
4.440413476e-11
5.222423261e-11
5.917729046e-11
6.373022168e-11
2.775627857e-11
3.160265897e-11
3.748822408e-11
4.537012961e-11
5.505027356e-11
6.603580541e-11
7.739790807e-11
8.760780277e-11
9.435778022e-11
4.211881502e-11
4.757099704e-11
5.593399211e-11
6.718923357e-11
8.111354732e-11
9.707556102e-11
1.137888011e-10
1.290132336e-10
1.392136043e-10
6.20250216e-11
6.975254521e-11
8.16483224e-11
9.775532799e-11
1.178596115e-10
1.411750741e-10
1.659306977e-10
1.888318166e-10
2.044134917e-10
8.917634357e-11
1.000910444e-10
1.16967893e-10
1.399791802e-10
1.689810268e-10
2.030322833e-10
2.397148465e-10
2.741891497e-10
2.980154887e-10
1.256127619e-10
1.40929114e-10
1.647258601e-10
1.974088643e-10
2.390057109e-10
2.884403511e-10
3.424408354e-10
3.939482414e-10
4.300698398e-10
1.737464926e-10
1.950346621e-10
2.282666526e-10
2.742279143e-10
3.332629469e-10
4.042008267e-10
4.826554307e-10
5.584639127e-10
6.123090756e-10
2.364154546e-10
2.656407566e-10
3.114578768e-10
3.752156071e-10
4.577575912e-10
5.578681416e-10
6.697247804e-10
7.789651377e-10
8.57385583e-10
3.169866809e-10
3.565214285e-10
4.187135245e-10
5.056797003e-10
6.189595769e-10
7.573320111e-10
9.131502421e-10
1.066582546e-09
1.177679493e-09
4.195170381e-10
4.721106841e-10
5.550373966e-10
6.713764421e-10
8.235377851e-10
1.010293392e-09
1.221723245e-09
1.431162602e-09
1.583853218e-09
5.489489723e-10
6.176452247e-10
7.260750857e-10
8.784237692e-10
1.0780773e-09
1.323726319e-09
1.602684291e-09
1.880113822e-09
2.083457919e-09
7.112769725e-10
7.992729632e-10
9.38130791e-10
1.1331911e-09
1.388809133e-09
1.703422657e-09
2.061071467e-09
2.417566144e-09
2.679945705e-09
9.135845594e-10
1.024037047e-09
1.198077254e-09
1.442124818e-09
1.761358032e-09
2.153690375e-09
2.599414434e-09
3.044105057e-09
3.372465243e-09
1.163847298e-09
1.299643063e-09
1.513085875e-09
1.811463666e-09
2.200498568e-09
2.677244628e-09
3.217889133e-09
3.757313261e-09
4.156665301e-09
1.470443092e-09
1.63396286e-09
1.890146759e-09
2.246832807e-09
2.709933395e-09
3.275357191e-09
3.915175866e-09
4.553824631e-09
5.029348293e-09
1.841403534e-09
2.034318644e-09
2.335432695e-09
2.752778977e-09
3.29216992e-09
3.948317345e-09
4.689989192e-09
5.433876216e-09
5.996022524e-09
2.28355412e-09
2.506706258e-09
2.853675816e-09
3.332418841e-09
3.948481292e-09
4.696179273e-09
5.543248194e-09
6.398607438e-09
7.040869178e-09
2.801805031e-09
3.055263814e-09
3.447913284e-09
3.987604437e-09
4.680407908e-09
5.522217554e-09
6.477107772e-09
7.432111716e-09
8.146827101e-09
3.398980353e-09
3.682221118e-09
4.120050522e-09
4.720853487e-09
5.493631487e-09
6.428607139e-09
7.477001163e-09
8.518746971e-09
9.296573568e-09
4.077031579e-09
4.390178651e-09
4.874699863e-09
5.540746884e-09
6.388166942e-09
7.401703048e-09
8.528848458e-09
9.642869921e-09
1.047283804e-08
4.843494496e-09
5.189456959e-09
5.720682544e-09
6.44161899e-09
7.350437655e-09
8.428225076e-09
9.618418444e-09
1.078881831e-08
1.165868156e-08
5.7028771e-09
6.075349963e-09
6.643911313e-09
7.409549906e-09
8.367291061e-09
9.494603054e-09
1.07312266e-08
1.19411036e-08
1.283782086e-08
6.639601406e-09
7.033308946e-09
7.631305535e-09
8.431453937e-09
9.425340531e-09
1.058687936e-08
1.185271799e-08
1.308470872e-08
1.39949549e-08
7.640398922e-09
8.050176709e-09
8.66976202e-09
9.493917386e-09
1.051076323e-08
1.16908817e-08
1.296857304e-08
1.420540676e-08
1.511605048e-08
8.692069346e-09
9.112598061e-09
9.745696017e-09
1.058306567e-08
1.160947749e-08
1.279254237e-08
1.40650486e-08
1.529005239e-08
1.618856555e-08
9.780922878e-09
1.020673096e-08
1.084509977e-08
1.168479623e-08
1.270747847e-08
1.38782585e-08
1.512929851e-08
1.632682158e-08
1.720160573e-08
1.089286659e-08
1.13184321e-08
1.19538371e-08
1.278513177e-08
1.37912057e-08
1.493523005e-08
1.614964443e-08
1.730539095e-08
1.814601839e-08
1.201371328e-08
1.2433595e-08
1.305800597e-08
1.387058413e-08
1.484788126e-08
1.595174519e-08
1.711578493e-08
1.821705675e-08
1.901443245e-08
1.312954116e-08
1.353850975e-08
1.414428942e-08
1.492848049e-08
1.586579293e-08
1.69174021e-08
1.801894118e-08
1.905479766e-08
1.980125155e-08
1.422703479e-08
1.462019154e-08
1.520026111e-08
1.594723296e-08
1.68345137e-08
1.782326603e-08
1.88519424e-08
1.981328688e-08
2.050260726e-08
1.529378041e-08
1.566665788e-08
1.621463346e-08
1.691654591e-08
1.774505757e-08
1.866196461e-08
1.960925608e-08
2.048885895e-08
2.111627751e-08
1.631850604e-08
1.666714804e-08
1.717744559e-08
1.78275621e-08
1.858997494e-08
1.942772676e-08
2.028696865e-08
2.107943675e-08
2.164157475e-08
1.729126419e-08
1.761228416e-08
1.808019236e-08
1.867295054e-08
1.936339248e-08
2.011637092e-08
2.08827229e-08
2.158442431e-08
2.207920854e-08
1.820355783e-08
1.849417592e-08
1.89158978e-08
1.944694077e-08
2.006100308e-08
2.072524905e-08
2.139561862e-08
2.20045717e-08
2.243112771e-08
1.904841239e-08
1.930647186e-08
1.967913711e-08
2.01453089e-08
2.068001224e-08
2.125315344e-08
2.182608388e-08
2.234181848e-08
2.270034801e-08
1.982039723e-08
2.004436199e-08
2.036601252e-08
2.076532149e-08
2.121904791e-08
2.17001938e-08
2.217572417e-08
2.259912318e-08
2.289077163e-08
2.051560165e-08
2.070453694e-08
2.097408912e-08
2.130564427e-08
2.167804117e-08
2.20676523e-08
2.244715738e-08
2.27802856e-08
2.300700498e-08
2.113157135e-08
2.128511005e-08
2.150229763e-08
2.17662229e-08
2.205808542e-08
2.235782445e-08
2.264384188e-08
2.28897692e-08
2.305418107e-08
2.166721216e-08
2.17855097e-08
2.19508115e-08
2.214814369e-08
2.236128194e-08
2.257385323e-08
2.27699048e-08
2.293252938e-08
2.30377918e-08
2.212266847e-08
2.220634915e-08
2.232090591e-08
2.245348153e-08
2.259057883e-08
2.271956306e-08
2.282997628e-08
2.291385301e-08
2.296353447e-08
2.24991839e-08
2.254928154e-08
2.261480606e-08
2.268514219e-08
2.274961002e-08
2.279929954e-08
2.282903461e-08
2.283921284e-08
2.283717577e-08
2.279895142e-08
2.281684711e-08
2.283553136e-08
2.284670519e-08
2.284253965e-08
2.281777944e-08
2.277226592e-08
2.271413967e-08
2.266443501e-08
2.302495966e-08
2.301231882e-08
2.298674153e-08
2.294227233e-08
2.287391631e-08
2.277995422e-08
2.266494051e-08
2.254411327e-08
2.245088729e-08
2.31808409e-08
2.313955188e-08
2.307258922e-08
2.2976326e-08
2.284854014e-08
2.269088939e-08
2.251230721e-08
2.233447268e-08
2.220188636e-08
2.327072556e-08
2.320284126e-08
2.309758285e-08
2.295360008e-08
2.277134493e-08
2.255566068e-08
2.231950576e-08
2.2090345e-08
2.1922506e-08
2.329910656e-08
2.320679039e-08
2.306646217e-08
2.28789653e-08
2.264729602e-08
2.237926711e-08
2.209149665e-08
2.181659162e-08
2.161749829e-08
2.327071603e-08
2.315619301e-08
2.298408811e-08
2.275732975e-08
2.248130433e-08
2.216656053e-08
2.183300717e-08
2.15177699e-08
2.129126667e-08
2.319041576e-08
2.305592922e-08
2.285534737e-08
2.259355486e-08
2.227815583e-08
2.192219041e-08
2.154849211e-08
2.11981086e-08
2.094785173e-08
2.306310198e-08
2.291087624e-08
2.26850719e-08
2.239238604e-08
2.20424556e-08
2.165056246e-08
2.124210727e-08
2.08614948e-08
2.059092745e-08
2.289362454e-08
2.272583343e-08
2.24779725e-08
2.215839729e-08
2.177858506e-08
2.135580956e-08
2.091769382e-08
2.051147034e-08
2.02238058e-08
2.268671987e-08
2.250546092e-08
2.223858579e-08
2.189594841e-08
2.149067092e-08
2.104177308e-08
2.057877192e-08
2.015123591e-08
1.984944788e-08
2.24469569e-08
2.225423096e-08
2.197123314e-08
2.160915347e-08
2.118256436e-08
2.071199322e-08
2.022854154e-08
1.978366104e-08
1.947047979e-08
2.217869486e-08
2.197639059e-08
2.167999048e-08
2.13018592e-08
2.085782891e-08
2.036970654e-08
1.986988923e-08
1.941129844e-08
1.908921196e-08
2.188605176e-08
2.167593468e-08
2.136866755e-08
2.097763184e-08
2.051973558e-08
2.001784948e-08
1.950539931e-08
1.903640148e-08
1.870766047e-08
2.15728823e-08
2.135658773e-08
2.104079526e-08
2.063975107e-08
2.017126395e-08
1.965906642e-08
1.913736822e-08
1.866094372e-08
1.832756975e-08
2.1242764e-08
2.102179342e-08
2.069962002e-08
2.029121001e-08
1.981510799e-08
1.929572131e-08
1.876782132e-08
1.828663952e-08
1.795043548e-08
2.089899006e-08
2.067471054e-08
2.034810375e-08
1.993471983e-08
1.945368569e-08
1.892991185e-08
1.839853097e-08
1.791496522e-08
1.757752744e-08
2.054456711e-08
2.031821361e-08
1.998892811e-08
1.957271815e-08
1.908915136e-08
1.856348547e-08
1.80310355e-08
1.754718008e-08
1.720991163e-08
2.018221296e-08
1.995489491e-08
1.962450118e-08
1.920737969e-08
1.872340986e-08
1.819805642e-08
1.766665842e-08
1.718434699e-08
1.684847144e-08
1.981434162e-08
1.958706086e-08
1.925696222e-08
1.884062671e-08
1.835813067e-08
1.783502234e-08
1.730652672e-08
1.682735164e-08
1.649392737e-08
1.94429984e-08
1.921671118e-08
1.888818172e-08
1.847413926e-08
1.799476285e-08
1.747558144e-08
1.695158902e-08
1.647692104e-08
1.614685536e-08
1.907012328e-08
1.884555674e-08
1.851976241e-08
1.810936755e-08
1.763455048e-08
1.712074929e-08
1.660263285e-08
1.613364066e-08
1.580770366e-08
1.869756084e-08
1.847533633e-08
1.815312461e-08
1.774756489e-08
1.727855274e-08
1.677137631e-08
1.626030127e-08
1.57979705e-08
1.547680832e-08
1.832686632e-08
1.810751722e-08
1.77896273e-08
1.738976085e-08
1.692765629e-08
1.642816383e-08
1.592510849e-08
1.547025977e-08
1.515440729e-08
1.795935316e-08
1.774333357e-08
1.743039692e-08
1.703697681e-08
1.658262586e-08
1.609168549e-08
1.559745555e-08
1.515076083e-08
1.484065333e-08
1.759612619e-08
1.738381508e-08
1.707635573e-08
1.668999612e-08
1.624403542e-08
1.576238791e-08
1.527764183e-08
1.483964152e-08
1.453562589e-08
1.723810949e-08
1.702981777e-08
1.672826468e-08
1.634946839e-08
1.591242798e-08
1.544063417e-08
1.496588389e-08
1.453699803e-08
1.423934217e-08
1.688606813e-08
1.668204506e-08
1.638674098e-08
1.601590851e-08
1.558821097e-08
1.512668697e-08
1.466231901e-08
1.424286302e-08
1.395176595e-08
1.65406265e-08
1.634106564e-08
1.605227466e-08
1.568971059e-08
1.527166993e-08
1.482071221e-08
1.436701276e-08
1.395721442e-08
1.367281617e-08
1.620228477e-08
1.600733009e-08
1.572524635e-08
1.537116967e-08
1.496300111e-08
1.452278507e-08
1.40799736e-08
1.367998659e-08
1.34023759e-08
1.587143356e-08
1.568118572e-08
1.540594305e-08
1.506050194e-08
1.466234945e-08
1.423300112e-08
1.380118172e-08
1.341108199e-08
1.314030012e-08
1.554836732e-08
1.536288914e-08
1.509456842e-08
1.47578479e-08
1.436978743e-08
1.395136351e-08
1.353056802e-08
1.315037038e-08
1.288641911e-08
1.523329595e-08
1.505261722e-08
1.479125312e-08
1.446328275e-08
1.408532969e-08
1.367782514e-08
1.326802638e-08
1.289769538e-08
1.264054357e-08
1.492635572e-08
1.475047777e-08
1.449606506e-08
1.417682654e-08
1.380894399e-08
1.341230074e-08
1.301342182e-08
1.265288017e-08
1.240246932e-08
1.462761931e-08
1.445651913e-08
1.420901857e-08
1.389845276e-08
1.354055926e-08
1.315467398e-08
1.276659535e-08
1.241573189e-08
1.217198115e-08
1.433710481e-08
1.417073887e-08
1.393008251e-08
1.362809596e-08
1.328007282e-08
1.29048048e-08
1.252737328e-08
1.218604704e-08
1.194885674e-08
1.405478385e-08
1.389309145e-08
1.365918745e-08
1.336565822e-08
1.302735577e-08
1.266253234e-08
1.229555997e-08
1.19636128e-08
1.173286897e-08
1.378058879e-08
1.362349507e-08
1.339623189e-08
1.311101468e-08
1.278225811e-08
1.242768158e-08
1.207095813e-08
1.174821212e-08
1.152378841e-08
1.351441915e-08
1.336183772e-08
1.31410879e-08
1.286401869e-08
1.254461341e-08
1.220006701e-08
1.185336514e-08
1.153962608e-08
1.132138566e-08
1.325614732e-08
1.310798259e-08
1.289360607e-08
1.262450623e-08
1.231424299e-08
1.197949808e-08
1.164258764e-08
1.133763807e-08
1.112543346e-08
1.300562354e-08
1.286177274e-08
1.265361954e-08
1.239229896e-08
1.209095634e-08
1.176577205e-08
1.143840912e-08
1.114202608e-08
1.093570475e-08
1.276268037e-08
1.262303523e-08
1.242094791e-08
1.216720776e-08
1.187455523e-08
1.155868178e-08
1.124061434e-08
1.095256949e-08
1.075197539e-08
1.252713651e-08
1.239158479e-08
1.219540052e-08
1.194903582e-08
1.166483655e-08
1.135801822e-08
1.104898926e-08
1.076905071e-08
1.057402562e-08
1.229880021e-08
1.2167227e-08
1.197677939e-08
1.173758119e-08
1.146159442e-08
1.116357208e-08
1.086332192e-08
1.059125604e-08
1.040164073e-08
1.207747212e-08
1.194976095e-08
1.17648816e-08
1.153263887e-08
1.1264622e-08
1.09751351e-08
1.068340329e-08
1.04189763e-08
1.023461157e-08
1.186294777e-08
1.173898156e-08
1.155950139e-08
1.133400257e-08
1.107371283e-08
1.07925012e-08
1.050902812e-08
1.025200741e-08
1.007273495e-08
1.16550197e-08
1.153468154e-08
1.13604319e-08
1.114146622e-08
1.088866211e-08
1.061546734e-08
1.033999553e-08
1.009015077e-08
9.915813883e-09
1.145347923e-08
1.133665302e-08
1.11674666e-08
1.095482519e-08
1.070926769e-08
1.04438343e-08
1.017610957e-08
9.933213593e-09
9.763657805e-09
1.125811792e-08
1.114468899e-08
1.098040055e-08
1.077387734e-08
1.053533083e-08
1.027740728e-08
1.001717958e-08
9.781009158e-09
9.616082676e-09
1.10687289e-08
1.095858436e-08
1.07990314e-08
1.059842383e-08
1.036665692e-08
1.011599636e-08
9.86302053e-09
9.633356935e-09
9.472911045e-09
1.088510783e-08
1.077813699e-08
1.062316021e-08
1.042826984e-08
1.020305597e-08
9.959416889e-09
9.713453186e-09
9.490082683e-09
9.333972052e-09
1.070705378e-08
1.060314841e-08
1.045259211e-08
1.026322508e-08
1.004434305e-08
9.80748972e-09
9.568304291e-09
9.351018475e-09
9.199101384e-09
1.053436989e-08
1.043342446e-08
1.028713686e-08
1.010310423e-08
9.890338512e-09
9.660041411e-09
9.427406613e-09
9.216002683e-09
9.068141197e-09
1.036686394e-08
1.026877575e-08
1.012660919e-08
9.947727229e-09
9.740868308e-09
9.516904336e-09
9.29059897e-09
9.084879912e-09
8.94094e-09
1.020434871e-08
1.010901805e-08
9.97082918e-09
9.796919522e-09
9.595764056e-09
9.37791674e-09
9.157726209e-09
8.957500915e-09
8.817352526e-09
1.004664236e-08
9.95397256e-09
9.819622417e-09
9.650512204e-09
9.454863148e-09
9.242922744e-09
9.028639141e-09
8.833722471e-09
8.697239573e-09
9.893568589e-09
9.803466081e-09
9.672820168e-09
9.508342104e-09
9.318008771e-09
9.111772312e-09
8.90319445e-09
8.713407248e-09
8.580467838e-09
9.744956819e-09
9.657331148e-09
9.530259451e-09
9.370251822e-09
9.185049889e-09
8.984321182e-09
8.781254579e-09
8.596423649e-09
8.466909734e-09
9.600642266e-09
9.515406086e-09
9.391783061e-09
9.236089712e-09
9.055841188e-09
8.86043077e-09
8.662687597e-09
8.482645645e-09
8.356443202e-09
9.460465968e-09
9.377535019e-09
9.257239553e-09
9.105709836e-09
8.930242997e-09
8.739968053e-09
8.547367046e-09
8.371952598e-09
8.248951519e-09
9.324274773e-09
9.24356784e-09
9.126483192e-09
8.978971887e-09
8.808121177e-09
8.622805433e-09
8.435171781e-09
8.264229079e-09
8.144323102e-09
9.191921284e-09
9.113360144e-09
8.999373867e-09
8.855741082e-09
8.689346997e-09
8.508820594e-09
8.325985805e-09
8.159364685e-09
8.042451313e-09
9.063263778e-09
8.986773136e-09
8.875776987e-09
8.73588804e-09
8.573796995e-09
8.397896338e-09
8.219698094e-09
8.057253852e-09
7.943234261e-09
8.938166094e-09
8.863673517e-09
8.755563353e-09
8.619288647e-09
8.461352822e-09
8.289920421e-09
8.116202418e-09
7.957795666e-09
7.846574614e-09
8.816497513e-09
8.743933348e-09
8.638609015e-09
8.5058239e-09
8.351901086e-09
8.184785389e-09
8.015397164e-09
7.860893684e-09
7.752379405e-09
8.698132604e-09
8.627429904e-09
8.524795123e-09
8.395379746e-09
8.245333181e-09
8.082388395e-09
7.91718516e-09
7.766455743e-09
7.66055985e-09
8.582951067e-09
8.514045503e-09
8.414007751e-09
8.287846916e-09
8.141545114e-09
7.982631032e-09
7.821473492e-09
7.674393789e-09
7.571031167e-09
8.470837557e-09
8.403667337e-09
8.306137728e-09
8.183120742e-09
8.040437325e-09
7.885419146e-09
7.728173329e-09
7.584623694e-09
7.483712402e-09
8.361681491e-09
8.296187275e-09
8.201080436e-09
8.081100963e-09
7.941914499e-09
7.790662651e-09
7.637199737e-09
7.497065082e-09
7.398526253e-09
8.255376833e-09
8.191501651e-09
8.098735607e-09
7.981691523e-09
7.84588536e-09
7.698275334e-09
7.548471495e-09
7.411641146e-09
7.315398897e-09
8.151821852e-09
8.089511021e-09
7.999007081e-09
7.884800334e-09
7.752262444e-09
7.608174639e-09
7.461910881e-09
7.328278454e-09
7.234259802e-09
8.050918837e-09
7.990119883e-09
7.901802525e-09
7.790339001e-09
7.660961838e-09
7.520281405e-09
7.377443442e-09
7.246906725e-09
7.155041519e-09
7.952573743e-09
7.893236324e-09
7.807033092e-09
7.698222487e-09
7.571902846e-09
7.434519562e-09
7.29499769e-09
7.167458556e-09
7.077679426e-09
7.856695757e-09
7.798771588e-09
7.714612982e-09
7.608368679e-09
7.485007569e-09
7.350815715e-09
7.214504715e-09
7.089869051e-09
7.002111378e-09
7.763196721e-09
7.706639491e-09
7.624458863e-09
7.520697808e-09
7.40020033e-09
7.269098583e-09
7.135897643e-09
7.014075308e-09
6.928277217e-09
7.671990372e-09
7.616755661e-09
7.536489096e-09
7.435131669e-09
7.317406889e-09
7.189298215e-09
7.059110862e-09
6.940015666e-09
6.856118045e-09
7.582991324e-09
7.529036504e-09
7.450622684e-09
7.351592543e-09
7.236553342e-09
7.111344877e-09
6.98407891e-09
6.867628602e-09
6.785575146e-09
7.496113712e-09
7.443397812e-09
7.366777843e-09
7.270001726e-09
7.157564605e-09
7.035167499e-09
6.910734888e-09
6.796851139e-09
6.716588396e-09
7.411269377e-09
7.359752915e-09
7.284870082e-09
7.19027753e-09
7.08036233e-09
6.9606915e-09
6.839008222e-09
6.727616552e-09
6.64909396e-09
7.328365495e-09
7.278010228e-09
7.204809657e-09
7.112332611e-09
7.004862095e-09
6.887835842e-09
6.768821579e-09
6.659851181e-09
6.583021051e-09
7.24730149e-09
7.198070076e-09
7.126498251e-09
7.036070467e-09
6.93096969e-09
6.816509083e-09
6.700086702e-09
6.593470081e-09
6.51828747e-09
7.167965119e-09
7.119820639e-09
7.049824716e-09
6.961380929e-09
6.858576306e-09
6.746604252e-09
6.632698958e-09
6.52837127e-09
6.454793672e-09
7.090227594e-09
7.043132892e-09
6.974659754e-09
6.888134498e-09
6.787552478e-09
6.67799234e-09
6.566530373e-09
6.464428341e-09
6.392415097e-09
7.013937616e-09
6.967854426e-09
6.900849406e-09
6.816175411e-09
6.717740636e-09
6.610514275e-09
6.501421002e-09
6.40148126e-09
6.33099259e-09
6.938914281e-09
6.893802079e-09
6.828207287e-09
6.745313357e-09
6.648946194e-09
6.54397131e-09
6.43716856e-09
6.339325278e-09
6.270320798e-09
6.864938834e-09
6.820753386e-09
6.756505582e-09
6.675313872e-09
6.580927222e-09
6.478113859e-09
6.373516381e-09
6.277698012e-09
6.210134643e-09
6.791745348e-09
6.748436929e-09
6.685464887e-09
6.605887532e-09
6.513382847e-09
6.412628987e-09
6.310139896e-09
6.21626495e-09
6.150094117e-09
6.719010524e-09
6.676521784e-09
6.614743156e-09
6.53667822e-09
6.445940686e-09
6.347126881e-09
6.246632077e-09
6.154603846e-09
6.089767925e-09
6.646342905e-09
6.604606413e-09
6.54392409e-09
6.46725086e-09
6.378143769e-09
6.28112682e-09
6.182488354e-09
6.092188667e-09
6.028616692e-09
6.573271966e-09
6.532207471e-09
6.472505506e-09
6.397079171e-09
6.309437474e-09
6.214043053e-09
6.117091353e-09
6.028373741e-09
5.965976649e-09
6.499237689e-09
6.458749165e-09
6.399888352e-09
6.325534122e-09
6.239156989e-09
6.145170444e-09
6.049693348e-09
5.962378342e-09
5.901044791e-09
6.423581408e-09
6.383554036e-09
6.325367359e-09
6.251874297e-09
6.166516815e-09
6.07367068e-09
5.979389407e-09
5.8932732e-09
5.832868068e-09
6.34553886e-09
6.305836188e-09
6.248124667e-09
6.175240626e-09
6.090609171e-09
5.998583657e-09
5.905173774e-09
5.819992786e-09
5.760345234e-09
6.264236381e-09
6.224697671e-09
6.16722631e-09
6.094652367e-09
6.010397421e-09
5.918812242e-09
5.825894388e-09
5.741327847e-09
5.682227892e-09
6.178691192e-09
6.139129009e-09
6.081622671e-09
6.009005937e-09
5.924707083e-09
5.833080817e-09
5.740253124e-09
5.655932969e-09
5.597132301e-09
6.087816607e-09
6.048014882e-09
5.990155455e-09
5.917087074e-09
5.832261331e-09
5.740071597e-09
5.646859733e-09
5.562359572e-09
5.503568858e-09
5.990431129e-09
5.950142404e-09
5.891562598e-09
5.817562142e-09
5.731622563e-09
5.638374713e-09
5.544251608e-09
5.4590916e-09
5.399982726e-09
5.885268308e-09
5.844210408e-09
5.784490948e-09
5.709001262e-09
5.62143373e-09
5.526561264e-09
5.430944386e-09
5.344597637e-09
5.284809599e-09
5.770975125e-09
5.728817966e-09
5.667480373e-09
5.590044925e-09
5.500319685e-09
5.403217029e-09
5.305487408e-09
5.217396138e-09
5.156546355e-09
5.646089784e-09
5.602551154e-09
5.539263079e-09