/*--------------------------------*- C++ -*----------------------------------*\
| =========                 |                                                 |
| \\      /  F ield         | OpenFOAM: The Open Source CFD Toolbox           |
|  \\    /   O peration     | Version:  2212                                  |
|   \\  /    A nd           | Website:  www.openfoam.com                      |
|    \\/     M anipulation  |                                                 |
\*---------------------------------------------------------------------------*/
FoamFile
{
    version     2.0;
    format      ascii;
    arch        "LSB;label=32;scalar=64";
    class       volScalarField;
    location    "30.00000000";
    object      I-C4H3_0;
}
// * * * * * * * * * * * * * * * * * * * * * * * * * * * * * * * * * * * * * //

dimensions      [0 0 0 0 0 0 0];

internalField   nonuniform List<scalar> 
3000
(
3.13112719e-23
3.51584976e-23
4.095931238e-23
4.868085984e-23
5.823824435e-23
6.936635448e-23
8.139276577e-23
9.285769011e-23
1.009622313e-22
1.175726192e-22
1.325522921e-22
1.551281819e-22
1.852439797e-22
2.228406718e-22
2.676797804e-22
3.189651756e-22
3.741200903e-22
4.229886583e-22
2.634303688e-22
2.993356091e-22
3.539670378e-22
4.280566485e-22
5.228486053e-22
6.395969461e-22
7.77708813e-22
9.293660437e-22
1.058852604e-21
5.019809164e-22
5.764234829e-22
6.91371136e-22
8.506017259e-22
1.059555309e-21
1.32318655e-21
1.639509358e-21
1.982676485e-21
2.258815208e-21
8.918367784e-22
1.03678468e-21
1.264197711e-21
1.585513354e-21
2.015609553e-21
2.566043303e-21
3.226678484e-21
3.925833402e-21
4.460883836e-21
1.534324287e-21
1.806730942e-21
2.240388337e-21
2.863029684e-21
3.70806175e-21
4.797290273e-21
6.099471771e-21
7.452408194e-21
8.456930725e-21
2.605713098e-21
3.106445822e-21
3.91293397e-21
5.084050845e-21
6.685368332e-21
8.749402615e-21
1.119183026e-20
1.367574772e-20
1.546929545e-20
4.410903438e-21
5.317301514e-21
6.790068419e-21
8.945025239e-21
1.190257963e-20
1.570560756e-20
2.016354786e-20
2.462735884e-20
2.779431505e-20
7.478484618e-21
9.101499338e-21
1.175553814e-20
1.565821176e-20
2.102320092e-20
2.790197745e-20
3.590580408e-20
4.383562053e-20
4.939943639e-20
1.272468748e-20
1.560793711e-20
2.034405069e-20
2.733029258e-20
3.693933345e-20
4.922648493e-20
6.344348823e-20
7.742591117e-20
8.716414478e-20
2.173963682e-20
2.683205981e-20
3.522292529e-20
4.762409487e-20
6.467976212e-20
8.643835834e-20
1.115098536e-19
1.360423512e-19
1.530443841e-19
3.728575113e-20
4.624238911e-20
6.103086925e-20
8.291114633e-20
1.129913818e-19
1.51290049e-19
1.95282416e-19
2.381780651e-19
2.678138505e-19
6.41681052e-20
7.987608851e-20
1.058462892e-19
1.442897904e-19
1.971045791e-19
2.642248665e-19
3.411265171e-19
4.15933252e-19
4.675645857e-19
1.107534323e-19
1.382546354e-19
1.837616339e-19
2.511334504e-19
3.436020811e-19
4.608670295e-19
5.948304659e-19
7.248794526e-19
8.150547986e-19
1.916144367e-19
2.397270627e-19
3.19396589e-19
4.373562507e-19
5.990951562e-19
8.036412121e-19
1.036055297e-18
1.260137876e-18
1.419971828e-18
3.321036138e-19
4.162545376e-19
5.557296314e-19
7.62393561e-19
1.04580815e-18
1.403611567e-18
1.806238766e-18
2.175627257e-18
2.478647121e-18
5.762104937e-19
7.2328931e-19
9.673477013e-19
1.329607183e-18
1.828053664e-18
2.462448784e-18
3.193520474e-18
3.9237528e-18
4.380221307e-18
1.000095433e-18
1.256654617e-18
1.682562004e-18
2.314885691e-18
3.184645651e-18
4.289505624e-18
5.553243373e-18
6.778043547e-18
7.609309057e-18
1.735774549e-18
2.182465885e-18
2.924018198e-18
4.024644831e-18
5.537368917e-18
7.45610345e-18
9.645495735e-18
1.176218224e-17
1.321057031e-17
3.012335884e-18
3.789120034e-18
5.07859316e-18
6.991998731e-18
9.62062779e-18
1.295266824e-17
1.675225091e-17
2.042450781e-17
2.293916428e-17
5.227487095e-18
6.577421242e-18
8.818283158e-18
1.214301157e-17
1.670948593e-17
2.249627145e-17
2.909318889e-17
3.546775993e-17
3.983274237e-17
9.071727522e-18
1.141695535e-17
1.530996498e-17
2.108553257e-17
2.901704886e-17
3.906609808e-17
5.051937359e-17
6.158418426e-17
6.915955292e-17
1.574385822e-17
1.98174988e-17
2.657950361e-17
3.661063729e-17
5.038419211e-17
6.783122698e-17
8.771116128e-17
1.069116721e-16
1.200538364e-16
2.732488702e-17
3.439988231e-17
4.614334632e-17
6.356219625e-17
8.747504928e-17
1.177575485e-16
1.522518183e-16
1.855560424e-16
2.08344798e-16
4.742656733e-17
5.971269496e-17
8.010381281e-17
1.103441684e-16
1.518476034e-16
2.043880339e-16
2.642113866e-16
3.219458837e-16
3.614356298e-16
8.231533175e-17
1.036474848e-16
1.390463711e-16
1.91529874e-16
2.635347282e-16
3.546455923e-16
4.583299235e-16
5.583370376e-16
6.267045789e-16
1.428577016e-16
1.79887707e-16
2.413210667e-16
3.323711147e-16
4.572258052e-16
6.151122321e-16
7.946587828e-16
9.677065305e-16
1.085922113e-15
2.478827874e-16
3.121401825e-16
4.187085606e-16
5.765754211e-16
7.929119167e-16
1.066258967e-15
1.376811951e-15
1.675823133e-15
1.879893255e-15
4.299825536e-16
5.414305503e-16
7.261796381e-16
9.996826237e-16
1.374159623e-15
1.846814975e-15
2.383139739e-15
2.898848918e-15
3.250364165e-15
7.454927828e-16
9.386477723e-16
1.25865502e-15
1.731992801e-15
2.379355257e-15
3.195309982e-15
4.119698523e-15
5.007033327e-15
5.610852445e-15
1.291616594e-15
1.626042963e-15
2.179679056e-15
2.997697994e-15
4.114865376e-15
5.520498126e-15
7.109693134e-15
8.631865135e-15
9.665492864e-15
2.235697173e-15
2.813928178e-15
3.770255697e-15
5.181325905e-15
7.104955696e-15
9.519950229e-15
1.224338886e-14
1.484488339e-14
1.660676117e-14
3.865051477e-15
4.863029723e-15
6.511582116e-15
8.939873056e-15
1.224283658e-14
1.637821351e-14
2.102722689e-14
2.545332205e-14
2.844126592e-14
6.671402781e-15
8.389860669e-15
1.122434674e-14
1.539071606e-14
2.104237263e-14
2.809499127e-14
3.59937864e-14
4.348388821e-14
4.852083445e-14
1.149316559e-14
1.444370785e-14
1.930162456e-14
2.642399996e-14
3.605378172e-14
4.802326996e-14
6.136922958e-14
7.396547473e-14
8.239825471e-14
1.975379119e-14
2.480188306e-14
3.309521767e-14
4.521734736e-14
6.154335146e-14
8.174213628e-14
1.041473826e-13
1.251803034e-13
1.391893021e-13
3.385840594e-14
4.245857511e-14
5.655103428e-14
7.707568306e-14
1.04592904e-13
1.384560164e-13
1.757971073e-13
2.106388313e-13
2.337133145e-13
5.784914574e-14
7.242765851e-14
9.624432337e-14
1.307872384e-13
1.768579207e-13
2.332106073e-13
2.949422803e-13
3.521575676e-13
3.898148366e-13
9.847952986e-14
1.230495492e-13
1.63049684e-13
2.207889216e-13
2.973455838e-13
3.903586655e-13
4.915154105e-13
5.845955922e-13
6.454542127e-13
1.669611455e-13
2.080987633e-13
2.748070426e-13
3.705848321e-13
4.967515206e-13
6.489136009e-13
8.131157893e-13
9.630555701e-13
1.060416904e-12
2.817780385e-13
3.501494373e-13
4.605317817e-13
6.180808907e-13
8.241487529e-13
1.070719648e-12
1.33462755e-12
1.573706931e-12
1.727859536e-12
4.73178448e-13
5.858947474e-13
7.669905188e-13
1.023814026e-12
1.357184553e-12
1.752777727e-12
2.172608905e-12
2.549882296e-12
2.791426632e-12
7.902716896e-13
9.744660125e-13
1.268858808e-12
1.683504133e-12
2.217452517e-12
2.845642459e-12
3.506602266e-12
4.095788134e-12
4.470392804e-12
1.312123415e-12
1.610303375e-12
2.084241265e-12
2.74699346e-12
3.593426193e-12
4.580612598e-12
5.610406555e-12
6.521132625e-12
7.096289565e-12
2.164913553e-12
2.642853327e-12
3.39813378e-12
4.446533102e-12
5.774347076e-12
7.309563127e-12
8.89759466e-12
1.029131132e-11
1.116587104e-11
3.54817619e-12
4.306391486e-12
5.497531031e-12
7.138628802e-12
9.199863653e-12
1.156283377e-11
1.39872828e-11
1.609964514e-11
1.741720499e-11
5.774484655e-12
6.964703851e-12
8.82345259e-12
1.136540354e-11
1.453216946e-11
1.813276101e-11
2.179854381e-11
2.497072646e-11
2.693834288e-11
9.328821111e-12
1.117735919e-11
1.40473448e-11
1.79438571e-11
2.276009067e-11
2.819344213e-11
3.368514578e-11
3.840745626e-11
4.132169409e-11
1.49564747e-11
1.779707979e-11
2.218234288e-11
2.809475496e-11
3.534830439e-11
4.347145477e-11
5.162682197e-11
5.859920353e-11
6.288226683e-11
2.379192014e-11
2.811156128e-11
3.474406733e-11
4.362750799e-11
5.445000429e-11
6.648793e-11
7.849947728e-11
8.871517351e-11
9.496484135e-11
3.754612219e-11
4.404841401e-11
5.398142171e-11
6.720378342e-11
8.320836805e-11
1.009001187e-10
1.184551783e-10
1.333160662e-10
1.423746412e-10
5.877662421e-11
6.846928886e-11
8.320590568e-11
1.027114378e-10
1.261818454e-10
1.51981118e-10
1.774542942e-10
1.989295411e-10
2.1197893e-10
9.127432929e-11
1.055895326e-10
1.272583683e-10
1.557905282e-10
1.899398662e-10
2.272904772e-10
2.640082274e-10
2.948526862e-10
3.135449614e-10
1.406042048e-10
1.615617503e-10
1.931585616e-10
2.345692535e-10
2.838973929e-10
3.376118317e-10
3.902147169e-10
4.342673417e-10
4.609033262e-10
2.148759742e-10
2.453080011e-10
2.910256886e-10
3.506947002e-10
4.21473864e-10
4.982487846e-10
5.73186311e-10
6.357786648e-10
6.735531859e-10
3.258218848e-10
3.696784083e-10
4.353560792e-10
5.207627093e-10
6.216990575e-10
7.308177357e-10
8.370226645e-10
9.255357784e-10
9.788717633e-10
4.902975841e-10
5.530617881e-10
6.467951624e-10
7.682952055e-10
9.114281629e-10
1.065715316e-09
1.215519849e-09
1.340140032e-09
1.415141013e-09
7.323615007e-10
8.216131041e-10
9.545825992e-10
1.126462422e-09
1.32838469e-09
1.545501423e-09
1.755878859e-09
1.930620857e-09
2.035683174e-09
1.086139548e-09
1.21231751e-09
1.399909396e-09
1.64181315e-09
1.925322593e-09
2.229519627e-09
2.523765939e-09
2.767861242e-09
2.914508345e-09
1.599748e-09
1.777180706e-09
2.040501644e-09
2.379359603e-09
2.775691977e-09
3.200181848e-09
3.610197347e-09
3.949987716e-09
4.154015339e-09
2.340628877e-09
2.588921698e-09
2.956839303e-09
3.429467678e-09
3.981311296e-09
4.571481167e-09
5.140875585e-09
5.612402704e-09
5.89545084e-09
3.402749403e-09
3.748647579e-09
4.260532424e-09
4.917132903e-09
5.682699046e-09
6.500467311e-09
7.288788059e-09
7.941331364e-09
8.333038147e-09
4.916230796e-09
5.396112982e-09
6.105515165e-09
7.014380271e-09
8.072895784e-09
9.202611514e-09
1.029108661e-08
1.119198355e-08
1.173292996e-08
7.060104622e-09
7.723310686e-09
8.702876509e-09
9.956698638e-09
1.14157906e-08
1.29721866e-08
1.447149047e-08
1.571267645e-08
1.645839353e-08
1.007903652e-08
1.099228597e-08
1.23402961e-08
1.40645732e-08
1.607013003e-08
1.820897322e-08
2.026965969e-08
2.197648115e-08
2.300286258e-08
1.430496347e-08
1.555816846e-08
1.740714995e-08
1.977127687e-08
2.252049195e-08
2.545271179e-08
2.827909691e-08
3.062207029e-08
3.203260511e-08
2.018461197e-08
2.189842577e-08
2.442634816e-08
2.765806166e-08
3.141645907e-08
3.542664106e-08
3.929502776e-08
4.250531417e-08
4.444061904e-08
2.831375187e-08
3.06492024e-08
3.409377859e-08
3.849763243e-08
4.362088731e-08
4.909103104e-08
5.437318468e-08
5.87625769e-08
6.141273123e-08
3.947870458e-08
4.264920436e-08
4.732572565e-08
5.330614832e-08
6.026734854e-08
6.770660278e-08
7.489920472e-08
8.088527542e-08
8.450538132e-08
5.470495331e-08
5.899081449e-08
6.53136894e-08
7.340281019e-08
8.28253479e-08
9.290590362e-08
1.026661559e-07
1.108027305e-07
1.157318207e-07
7.531163039e-08
8.107689024e-08
8.958455241e-08
1.004742882e-07
1.131696807e-07
1.267679512e-07
1.399543808e-07
1.509664757e-07
1.57649236e-07
1.029691703e-07
1.10680031e-07
1.220620945e-07
1.366388958e-07
1.536474286e-07
1.718879659e-07
1.896036542e-07
2.044243325e-07
2.134339988e-07
1.397556775e-07
1.499991864e-07
1.651236708e-07
1.845028681e-07
2.071330913e-07
2.314304681e-07
2.550635251e-07
2.748678895e-07
2.86927206e-07
1.882058205e-07
2.017066369e-07
2.216438885e-07
2.471989633e-07
2.7706005e-07
3.091516018e-07
3.404052435e-07
3.666345526e-07
3.826302167e-07
2.513446698e-07
2.689770245e-07
2.95015865e-07
3.283965736e-07
3.674159471e-07
4.093765837e-07
4.502795895e-07
4.846471973e-07
5.056324286e-07
3.326981203e-07
3.55489563e-07
3.891405332e-07
4.322731378e-07
4.826912768e-07
5.369214658e-07
5.898101795e-07
6.342817373e-07
6.614622261e-07
4.362715069e-07
4.653949551e-07
5.08375596e-07
5.634389334e-07
6.277744417e-07
6.96954592e-07
7.644207224e-07
8.211646369e-07
8.558657381e-07
5.66488751e-07
6.032398467e-07
6.574379638e-07
7.268108872e-07
8.077918293e-07
8.948005578e-07
9.79604625e-07
1.050915096e-06
1.094534724e-06
7.280860092e-07
7.738439165e-07
8.412566997e-07
9.274353389e-07
1.02789689e-06
1.135695931e-06
1.24065287e-06
1.328857563e-06
1.382818501e-06
9.259567699e-07
9.821283065e-07
1.064777868e-06
1.170264655e-06
1.293016851e-06
1.424508803e-06
1.552355084e-06
1.659720411e-06
1.725441546e-06
1.164950366e-06
1.232899744e-06
1.332729095e-06
1.459899543e-06
1.607573495e-06
1.765439416e-06
1.918679126e-06
2.047258781e-06
2.125909375e-06
1.44963315e-06
1.530602319e-06
1.649360064e-06
1.800319642e-06
1.975206954e-06
2.161744268e-06
2.342463138e-06
2.49381451e-06
2.586303773e-06
1.784030597e-06
1.879058379e-06
2.018184359e-06
2.194630634e-06
2.398538279e-06
2.615455217e-06
2.825036944e-06
3.000187085e-06
3.107095721e-06
2.171379452e-06
2.281229145e-06
2.441756537e-06
2.644864183e-06
2.87888738e-06
3.12706384e-06
3.366158773e-06
3.565519156e-06
3.687050855e-06
2.613933219e-06
2.739038203e-06
2.921472813e-06
3.151646944e-06
3.416029235e-06
3.695504788e-06
3.963959905e-06
4.187277166e-06
4.323232262e-06
3.112694097e-06
3.253010508e-06
3.457186909e-06
3.71407372e-06
4.008213167e-06
4.318148115e-06
4.614981706e-06
4.861325181e-06
5.01109631e-06
3.667088044e-06
3.822138926e-06
4.047275186e-06
4.329754969e-06
4.652196809e-06
4.990878901e-06
5.314298273e-06
5.582081677e-06
5.74466929e-06
4.275079598e-06
4.443961049e-06
4.688669285e-06
4.994882828e-06
5.343358063e-06
5.708253009e-06
6.055710615e-06
6.34274294e-06
6.516787322e-06
4.933222666e-06
5.114631715e-06
5.376961933e-06
5.704372524e-06
6.075875211e-06
6.463713763e-06
6.8319943e-06
7.135553466e-06
7.319379313e-06
5.636786967e-06
5.829068582e-06
6.106579031e-06
6.452063904e-06
6.84295833e-06
7.249850574e-06
7.635180318e-06
7.952102701e-06
8.14377232e-06
6.379947526e-06
6.581155826e-06
6.871002201e-06
7.230964552e-06
7.637112328e-06
8.058679277e-06
8.456848996e-06
8.783628373e-06
8.980999954e-06
7.156018683e-06
7.363986702e-06
7.663022222e-06
8.033514485e-06
8.450411746e-06
8.88192501e-06
9.288418672e-06
9.621308971e-06
9.822096973e-06
7.957711821e-06
8.170124412e-06
8.475003383e-06
8.85185331e-06
9.274769437e-06
9.711291072e-06
1.012141392e-05
1.045653126e-05
1.065836655e-05
8.777396903e-06
8.991862206e-06
9.299140918e-06
9.678073565e-06
1.010218455e-05
1.053870094e-05
1.094770195e-05
1.12811225e-05
1.148161043e-05
9.607350957e-06
9.821466962e-06
1.012769734e-05
1.050444788e-05
1.092495936e-05
1.135650467e-05
1.17596898e-05
1.208754084e-05
1.228431581e-05
1.043998097e-05
1.065139486e-05
1.095320781e-05
1.132362184e-05
1.173587854e-05
1.215764484e-05
1.255047862e-05
1.286902092e-05
1.305979642e-05
1.126801326e-05
1.147447222e-05
1.176864904e-05
1.212876858e-05
1.252834834e-05
1.293578065e-05
1.33139745e-05
1.361967481e-05
1.380228791e-05
1.208464553e-05
1.228403864e-05
1.256756984e-05
1.291370433e-05
1.3296496e-05
1.368537149e-05
1.404495796e-05
1.433455053e-05
1.450700031e-05
1.288366145e-05
1.307405265e-05
1.334418442e-05
1.367296683e-05
1.403523209e-05
1.44017233e-05
1.473911581e-05
1.500965251e-05
1.517013176e-05
1.365950979e-05
1.383916249e-05
1.409343132e-05
1.440186013e-05
1.47402798e-05
1.508100216e-05
1.539304027e-05
1.564192903e-05
1.578884897e-05
1.44073519e-05
1.457474593e-05
1.481100241e-05
1.509647031e-05
1.5408176e-05
1.572022039e-05
1.600420098e-05
1.622923257e-05
1.636124037e-05
1.512308186e-05
1.52769235e-05
1.549334629e-05
1.575365684e-05
1.60362491e-05
1.631720036e-05
1.657089538e-05
1.677025888e-05
1.68862482e-05
1.580332412e-05
1.594255004e-05
1.613765108e-05
1.637102457e-05
1.662257877e-05
1.68705213e-05
1.709218301e-05
1.726447064e-05
1.736358534e-05
1.644541297e-05
1.656918887e-05
1.674181102e-05
1.694688077e-05
1.716594208e-05
1.737945385e-05
1.756780874e-05
1.771201093e-05
1.779364252e-05
1.704735796e-05
1.715507274e-05
1.730438081e-05
1.748018125e-05
1.766575022e-05
1.784388674e-05
1.799811949e-05
1.811361134e-05
1.817739088e-05
1.760779908e-05
1.769905517e-05
1.782452153e-05
1.797046944e-05
1.812197955e-05
1.826424928e-05
1.838397836e-05
1.847049877e-05
1.851628396e-05
1.812595463e-05
1.820055534e-05
1.830194103e-05
1.841781114e-05
1.853510003e-05
1.86414329e-05
1.872667936e-05
1.878430421e-05
1.881216266e-05
1.86015648e-05
1.865949917e-05
1.873683163e-05
1.882272792e-05
1.890600357e-05
1.897671429e-05
1.902786534e-05
1.905697627e-05
1.906716581e-05
1.903483289e-05
1.907625893e-05
1.912980712e-05
1.918613099e-05
1.923593444e-05
1.927168209e-05
1.92894512e-05
1.929070122e-05
1.92836482e-05
1.942636638e-05
1.945159298e-05
1.948184095e-05
1.950925739e-05
1.952642325e-05
1.952816866e-05
1.95135535e-05
1.948783091e-05
1.946410737e-05
1.977711903e-05
1.978658739e-05
1.979420688e-05
1.979360968e-05
1.977922566e-05
1.97481879e-05
1.970242759e-05
1.965081931e-05
1.961111976e-05
2.008833545e-05
2.008260018e-05
2.006842314e-05
2.004089999e-05
1.99962665e-05
1.99338796e-05
1.985841237e-05
1.978216774e-05
1.972728632e-05
2.036149865e-05
2.034120924e-05
2.03062007e-05
2.025299901e-05
2.017958976e-05
2.008746075e-05
1.998388301e-05
1.988437894e-05
1.981518736e-05
2.059828144e-05
2.056416424e-05
2.050939619e-05
2.04318902e-05
2.033131451e-05
2.021118349e-05
2.008121109e-05
1.995991915e-05
1.987734605e-05
2.08005019e-05
2.075334297e-05
2.067996956e-05
2.057962932e-05
2.045359674e-05
2.03072996e-05
2.015273189e-05
2.001118801e-05
1.991619989e-05
2.097008304e-05
2.091071215e-05
2.081994654e-05
2.069830913e-05
2.054859681e-05
2.037803107e-05
2.020071818e-05
2.004049512e-05
1.993407913e-05
2.110901682e-05
2.103829263e-05
2.093138579e-05
2.079002905e-05
2.061845217e-05
2.042554623e-05
2.02273598e-05
2.005004275e-05
1.993319152e-05
2.121933242e-05
2.113812909e-05
2.101635061e-05
2.085686954e-05
2.066525492e-05
2.045194087e-05
2.023474837e-05
2.004191365e-05
1.991561209e-05
2.130306867e-05
2.121226385e-05
2.107688489e-05
2.090087083e-05
2.069103382e-05
2.045922384e-05
2.02248665e-05
2.001806338e-05
1.988327751e-05
2.136225068e-05
2.126271492e-05
2.111499324e-05
2.092401571e-05
2.069774034e-05
2.044930654e-05
2.01995807e-05
1.99803163e-05
1.983798397e-05
2.139887095e-05
2.129145831e-05
2.113262517e-05
2.092821625e-05
2.068723825e-05
2.042399589e-05
2.016063762e-05
1.99303645e-05
1.978138795e-05
2.141487617e-05
2.130041545e-05
2.113166376e-05
2.091530441e-05
2.066129688e-05
2.038499032e-05
2.0109663e-05
1.986976937e-05
1.971500934e-05
2.141216278e-05
2.12914475e-05
2.111391961e-05
2.088702676e-05
2.062158748e-05
2.03338786e-05
2.004816293e-05
1.979996499e-05
1.964023628e-05
2.139258926e-05
2.126636098e-05
2.108113141e-05
2.084504315e-05
2.056968234e-05
2.027214042e-05
1.997752643e-05
1.972226269e-05
1.9558331e-05
2.13580173e-05
2.122693118e-05
2.103497286e-05
2.079092846e-05
2.050705582e-05
2.02011486e-05
1.989902941e-05
1.963785656e-05
1.947043632e-05
2.131008655e-05
2.117482277e-05
2.097704818e-05
2.072616859e-05
2.043508307e-05
2.012217048e-05
1.981383838e-05
1.9547829e-05
1.937758233e-05
2.125025335e-05
2.111145889e-05
2.090878989e-05
2.065213926e-05
2.03550334e-05
2.003636763e-05
1.97230136e-05
1.945315595e-05
1.928069264e-05
2.117988317e-05
2.103816398e-05
2.083146483e-05
2.057010229e-05
2.026806644e-05
1.994479593e-05
1.962751222e-05
1.935471207e-05
1.918059067e-05
2.110025052e-05
2.095616819e-05
2.074623692e-05
2.04811347e-05
2.017522676e-05
1.984840673e-05
1.952819226e-05
1.925327625e-05
1.907800597e-05
2.101254103e-05
2.086661361e-05
2.065418616e-05
2.038624312e-05
2.007746279e-05
1.974805351e-05
1.942581813e-05
1.914953793e-05
1.897358108e-05
2.09178522e-05
2.077055456e-05
2.055630447e-05
2.028634117e-05
1.997559551e-05
1.964448965e-05
1.932106569e-05
1.904410399e-05
1.8867879e-05
2.081719507e-05
2.066896007e-05
2.045350028e-05
2.018226132e-05
1.987036947e-05
1.953839277e-05
1.921453582e-05
1.893750859e-05
1.876139191e-05
2.071149673e-05
2.056271727e-05
2.034660383e-05
2.007476483e-05
1.976247228e-05
1.9430385e-05
1.910676496e-05
1.883022086e-05
1.865454811e-05
2.06016026e-05
2.045263339e-05
2.023636779e-05
1.996453753e-05
1.965251578e-05
1.932100375e-05
1.899821783e-05
1.872264568e-05
1.854771538e-05
2.048827926e-05
2.033943833e-05
2.012346939e-05
1.98521909e-05
1.954103518e-05
1.921069839e-05
1.888929053e-05
1.861512871e-05
1.84412067e-05
2.037221868e-05
2.022378947e-05
2.000851633e-05
1.973827109e-05
1.942850727e-05
1.909987419e-05
1.878032984e-05
1.850796763e-05
1.833528898e-05
2.025404249e-05
2.010627619e-05
1.989205202e-05
1.962326515e-05
1.931535664e-05
1.898889248e-05
1.867163966e-05
1.840141922e-05
1.823018995e-05
2.013430662e-05
1.998742469e-05
1.977456043e-05
1.950760565e-05
1.92019592e-05
1.887807179e-05
1.856348525e-05
1.829570434e-05
1.812610316e-05
2.001350581e-05
1.986770241e-05
1.965647036e-05
1.939167453e-05
1.90886455e-05
1.876769114e-05
1.845609909e-05
1.819101184e-05
1.802319145e-05
1.989207799e-05
1.974752224e-05
1.953815924e-05
1.927580615e-05
1.897570252e-05
1.865798943e-05
1.834967513e-05
1.808749786e-05
1.792158782e-05
1.97704085e-05
1.962724649e-05
1.941995678e-05
1.916029055e-05
1.886337636e-05
1.854916771e-05
1.82443719e-05
1.798528784e-05
1.782139741e-05
1.964883423e-05
1.950719099e-05
1.930214895e-05
1.904537734e-05
1.875187652e-05
1.844139485e-05
1.814032164e-05
1.788448199e-05
1.772270155e-05
1.952764772e-05
1.9387629e-05
1.91849817e-05
1.89312791e-05
1.864137831e-05
1.833480709e-05
1.803762087e-05
1.778515461e-05
1.762555939e-05
1.940710117e-05
1.926879527e-05
1.906866497e-05
1.881817562e-05
1.853202813e-05
1.822951695e-05
1.793635157e-05
1.768736256e-05
1.753001309e-05
1.928741034e-05
1.915088978e-05
1.895337651e-05
1.870621759e-05
1.842394698e-05
1.812561522e-05
1.78365762e-05
1.759114695e-05
1.74360906e-05
1.916875816e-05
1.903408137e-05
1.883926525e-05
1.859552992e-05
1.831723338e-05
1.802317383e-05
1.773834218e-05
1.749653549e-05
1.734380773e-05
1.905129816e-05
1.891851101e-05
1.872645444e-05
1.848621448e-05
1.821196587e-05
1.792224781e-05
1.764168285e-05
1.740354393e-05
1.725316959e-05
1.893515756e-05
1.880429472e-05
1.861504443e-05
1.837835269e-05
1.810820519e-05
1.782287712e-05
1.754661899e-05
1.731217745e-05
1.716417194e-05
1.88204401e-05
1.869152639e-05
1.850511516e-05
1.827200776e-05
1.80059963e-05
1.772508837e-05
1.74531603e-05
1.722243199e-05
1.707680241e-05
1.87072287e-05
1.858028016e-05
1.839672854e-05
1.816722685e-05
1.790537029e-05
1.762889651e-05
1.736130685e-05
1.713429554e-05
1.699104169e-05
1.859558779e-05
1.84706128e-05
1.828993053e-05
1.806404296e-05
1.780634607e-05
1.75343063e-05
1.727105038e-05
1.704774923e-05
1.690686453e-05
1.848556552e-05
1.836256574e-05
1.818475312e-05
1.796247675e-05
1.770893197e-05
1.744131372e-05
1.718237554e-05
1.696276848e-05
1.682424079e-05
1.837719576e-05
1.825616693e-05
1.808121605e-05
1.786253809e-05
1.761312714e-05
1.734990723e-05
1.70952609e-05
1.687932388e-05
1.674313625e-05
1.827049985e-05
1.815143264e-05
1.797932843e-05
1.776422753e-05
1.751892288e-05
1.726006883e-05
1.700967999e-05
1.679738206e-05
1.666351341e-05
1.816548827e-05
1.804836893e-05
1.787909015e-05
1.766753761e-05
1.742630376e-05
1.717177515e-05
1.692560217e-05
1.671690646e-05
1.658533214e-05
1.806216208e-05
1.794697308e-05
1.778049322e-05
1.757245402e-05
1.733524865e-05
1.70849983e-05
1.684299333e-05
1.663785796e-05
1.650855033e-05
1.796051426e-05
1.784723485e-05
1.768352289e-05
1.747895668e-05
1.724573169e-05
1.699970668e-05
1.676181665e-05
1.656019549e-05
1.64331244e-05
1.786053088e-05
1.774913757e-05
1.758815872e-05
1.738702061e-05
1.715772309e-05
1.69158657e-05
1.668203317e-05
1.648387658e-05
1.635900975e-05
1.776219215e-05
1.765265919e-05
1.749437548e-05
1.729661684e-05
1.707118983e-05
1.683343837e-05
1.660360231e-05
1.640885773e-05
1.628616117e-05
1.766547339e-05
1.755777313e-05
1.740214397e-05
1.72077131e-05
1.698609635e-05
1.675238591e-05
1.652648235e-05
1.633509487e-05
1.62145332e-05
1.757034584e-05
1.746444908e-05
1.731143178e-05
1.712027446e-05
1.69024051e-05
1.667266818e-05
1.645063083e-05
1.626254368e-05
1.614408041e-05
1.747677739e-05
1.737265375e-05
1.722220391e-05
1.703426397e-05
1.682007703e-05
1.659424411e-05
1.63760049e-05
1.619115986e-05
1.607475768e-05
1.73847333e-05
1.72823514e-05
1.713442334e-05
1.69496431e-05
1.673907204e-05
1.65170721e-05
1.630256163e-05
1.612089943e-05
1.600652042e-05
1.729417669e-05
1.719350447e-05
1.704805153e-05
1.686637219e-05
1.665934935e-05
1.644111031e-05
1.623025824e-05
1.605171889e-05
1.593932474e-05
1.720506911e-05
1.7106074e-05
1.696304885e-05
1.678441088e-05
1.658086785e-05
1.636631695e-05
1.615905239e-05
1.598357546e-05
1.587312761e-05
1.711737098e-05
1.702002008e-05
1.687937499e-05
1.670371839e-05
1.650358634e-05
1.629265049e-05
1.608890229e-05
1.59164272e-05
1.580788702e-05
1.703104193e-05
1.693530219e-05
1.679698923e-05
1.662425386e-05
1.642746385e-05
1.62200699e-05
1.601976694e-05
1.585023311e-05
1.574356204e-05
1.694604118e-05
1.685187954e-05
1.671585079e-05
1.654597656e-05
1.635245978e-05
1.61485348e-05
1.595160621e-05
1.578495332e-05
1.568011296e-05
1.686232782e-05
1.67697113e-05
1.663591903e-05
1.646884612e-05
1.627853413e-05
1.607800561e-05
1.588438097e-05
1.572054909e-05
1.561750132e-05
1.677986103e-05
1.668875688e-05
1.655715366e-05
1.639282268e-05
1.620564758e-05
1.600844366e-05
1.581805317e-05
1.565698293e-05
1.555569e-05
1.66986003e-05
1.660897606e-05
1.647951493e-05
1.63178671e-05
1.61337617e-05
1.593981127e-05
1.575258595e-05
1.559421863e-05
1.549464322e-05
1.661850558e-05
1.653032916e-05
1.640296371e-05
1.624394097e-05
1.606283895e-05
1.587207186e-05
1.568794363e-05
1.553222131e-05
1.54343266e-05
1.653953739e-05
1.645277716e-05
1.632746163e-05
1.617100674e-05
1.599284277e-05
1.580518992e-05
1.562409174e-05
1.547095737e-05
1.537470711e-05
1.646165686e-05
1.637628167e-05
1.625297106e-05
1.609902775e-05
1.592373756e-05
1.573913103e-05
1.5560997e-05
1.541039452e-05
1.531575308e-05
1.638482574e-05
1.6300805e-05
1.61794551e-05
1.60279681e-05
1.585548864e-05
1.567386177e-05
1.549862726e-05
1.535050164e-05
1.525743407e-05
1.630900623e-05
1.622630995e-05
1.610687742e-05
1.595779258e-05
1.578806206e-05
1.560934958e-05
1.543695127e-05
1.529124863e-05
1.519972069e-05
1.623416078e-05
1.615275958e-05
1.6035202e-05
1.588846633e-05
1.572142431e-05
1.554556239e-05
1.53759384e-05
1.523260606e-05
1.51425843e-05
1.616025161e-05
1.608011677e-05
1.596439265e-05
1.581995435e-05
1.565554181e-05
1.548246813e-05
1.531555806e-05
1.517454465e-05
1.508599645e-05
1.608724002e-05
1.600834345e-05
1.589441224e-05
1.575222074e-05
1.559038006e-05
1.542003385e-05
1.525577887e-05
1.511703437e-05
1.502992798e-05
1.601508524e-05
1.593739946e-05
1.582522155e-05
1.568522742e-05
1.552590239e-05
1.535822441e-05
1.519656725e-05
1.506004302e-05
1.497434762e-05
1.594374289e-05
1.586724095e-05
1.575677748e-05
1.561893236e-05
1.5462068e-05
1.529700046e-05
1.513788534e-05
1.500353413e-05
1.491921983e-05
1.587316263e-05
1.579781795e-05
1.568903065e-05
1.555328692e-05
1.539882928e-05
1.523631554e-05
1.507968797e-05
1.494746377e-05
1.486450156e-05
1.580328493e-05
1.572907103e-05
1.562192181e-05
1.54882322e-05
1.533612776e-05
1.51761119e-05
1.502191826e-05
1.489177603e-05
1.481013762e-05
1.573403668e-05
1.566092674e-05
1.555537708e-05
1.542369386e-05
1.527388879e-05
1.511631469e-05
1.496450151e-05
1.483639658e-05
1.475605413e-05
1.566532531e-05
1.559329155e-05
1.548930157e-05
1.535957539e-05
1.521201417e-05
1.505682423e-05
1.490733689e-05
1.478122406e-05
1.470214959e-05
1.559703116e-05
1.552604386e-05
1.542357093e-05
1.52957491e-05
1.515037258e-05
1.499750566e-05
1.485028655e-05
1.472611854e-05
1.464828304e-05
1.552899773e-05
1.54590239e-05
1.535802068e-05
1.523204475e-05
1.508878737e-05
1.493817587e-05
1.479316159e-05
1.467088678e-05
1.459425886e-05
1.546101954e-05
1.539202111e-05
1.529243295e-05
1.516823532e-05
1.502702126e-05
1.487858707e-05
1.473570457e-05
1.461526386e-05
1.453980776e-05
1.539282741e-05
1.532475887e-05
1.522652028e-05
1.510401984e-05
1.496475794e-05
1.481840702e-05
1.467756839e-05
1.455889084e-05
1.448456375e-05
1.532407109e-05
1.525687641e-05
1.515990666e-05
1.503900313e-05
1.490158035e-05
1.475719582e-05
1.461829155e-05
1.450128877e-05
1.44280373e-05
1.525429908e-05
1.518790803e-05
1.509210565e-05
1.497267262e-05
1.483694604e-05
1.469437954e-05
1.455727017e-05
1.444182927e-05
1.436958496e-05
1.518293629e-05
1.511725993e-05
1.502249618e-05
1.490437288e-05
1.477016006e-05
1.462922151e-05
1.449372759e-05
1.437970271e-05
1.430837658e-05
1.510925972e-05
1.504418529e-05
1.495029673e-05
1.483327851e-05
1.470034659e-05
1.456079247e-05
1.442668308e-05
1.431388545e-05
1.424336167e-05
1.503237325e-05
1.496775855e-05
1.487453877e-05
1.475836684e-05
1.462642069e-05
1.448794151e-05
1.435492183e-05
1.424310839e-05
1.417323684e-05
1.495118265e-05
1.488685003e-05
1.479404104e-05
1.46783917e-05
1.454706193e-05
1.440927001e-05
1.427697047e-05
1.416582906e-05
1.409641637e-05
1.486437242e-05
1.48001027e-05
1.470738613e-05
1.459185981e-05
1.446069049e-05
1.432310803e-05
1.419107603e-05
1.408020676e-05
1.401100641e-05
1.477038667e-05
1.470591326e-05
1.461290177e-05
1.449701192e-05
1.436544669e-05
1.422748773e-05
1.40951616e-05
1.398407581e-05
1.391478377e-05
1.466741694e-05
1.46024211e-05
1.450865155e-05
1.439181616e-05
1.425918843e-05
1.412014784e-05
1.398683969e-05
1.387494802e-05
1.380519626e-05
1.455340016e-05
1.448750805e-05
1.439243764e-05
1.427397533e-05
1.413950661e-05
1.399856719e-05
1.386343751e-05
1.375003273e-05
1.367938179e-05
1.442602998e-05
1.435881185e-05
1.426181669e-05
1.41409435e-05
1.400373362e-05
1.385993008e-05
1.372200317e-05
1.360626249e-05
1.353420148e-05
1.428278569e-05
1.421375851e-05
1.41141381e-05
1.398997551e-05
1.384901987e-05
1.370119427e-05
1.355935796e-05
1.344034853e-05
1.336629946e-05
1.412098013e-05
1.404961205e-05
1.394659421e-05
1.381817178e-05
1.367226732e-05
1.351913985e-05
1.337216728e-05
1.32488634e-05
1.317219211e-05
1.393782898e-05
1.386354721e-05
1.375628863e-05
1.362245587e-05
1.34702751e-05
1.331046714e-05
1.315704619e-05
1.302835608e-05
1.294838985e-05
1.373052962e-05
1.365267031e-05
1.35401598e-05
1.339967471e-05