/*--------------------------------*- C++ -*----------------------------------*\
| =========                 |                                                 |
| \\      /  F ield         | OpenFOAM: The Open Source CFD Toolbox           |
|  \\    /   O peration     | Version:  2212                                  |
|   \\  /    A nd           | Website:  www.openfoam.com                      |
|    \\/     M anipulation  |                                                 |
\*---------------------------------------------------------------------------*/
FoamFile
{
    version     2.0;
    format      ascii;
    arch        "LSB;label=32;scalar=64";
    class       volScalarField;
    location    "30.00000000";
    object      I-C4H3;
}
// * * * * * * * * * * * * * * * * * * * * * * * * * * * * * * * * * * * * * //

dimensions      [0 0 0 0 0 0 0];

internalField   nonuniform List<scalar> 
3000
(
3.131106239e-23
3.515821742e-23
4.095891113e-23
4.868027723e-23
5.823741827e-23
6.936524073e-23
8.139137698e-23
9.28561417e-23
1.009607081e-22
1.175718422e-22
1.325512544e-22
1.55126701e-22
1.852418414e-22
2.228376692e-22
2.676758363e-22
3.189606411e-22
3.741161319e-22
4.229867054e-22
2.634287196e-22
2.993334214e-22
3.539639408e-22
4.280522256e-22
5.228425961e-22
6.395900727e-22
7.777051891e-22
9.293767069e-22
1.058889195e-21
5.019781171e-22
5.764198383e-22
6.913660906e-22
8.505947979e-22
1.05954713e-21
1.323183482e-21
1.639538114e-21
1.982807215e-21
2.259116148e-21
8.918326395e-22
1.036779477e-21
1.264190824e-21
1.585504602e-21
2.015602033e-21
2.566056441e-21
3.226791512e-21
3.926255797e-21
4.461804771e-21
1.534318673e-21
1.80672421e-21
2.240379813e-21
2.863018433e-21
3.708044979e-21
4.797254024e-21
6.099353231e-21
7.452017267e-21
8.456056308e-21
2.605705748e-21
3.106437456e-21
3.912924105e-21
5.084038938e-21
6.685352591e-21
8.749373851e-21
1.119175237e-20
1.367553451e-20
1.546889107e-20
4.410893771e-21
5.317290919e-21
6.790056556e-21
8.945011954e-21
1.190256464e-20
1.570558875e-20
2.016351671e-20
2.462729832e-20
2.779422037e-20
7.478471714e-21
9.101485412e-21
1.17555228e-20
1.565819482e-20
2.10231823e-20
2.790195676e-20
3.590577989e-20
4.383559045e-20
4.939940084e-20
1.272467021e-20
1.560791845e-20
2.034402995e-20
2.733026916e-20
3.693930667e-20
4.922645402e-20
6.344345228e-20
7.742586961e-20
8.716409888e-20
2.173961394e-20
2.683203472e-20
3.522289665e-20
4.762406104e-20
6.467972109e-20
8.643830775e-20
1.115097914e-19
1.360422767e-19
1.530443006e-19
3.728572102e-20
4.624235507e-20
6.103082836e-20
8.291109462e-20
1.12991314e-19
1.512899593e-19
1.952822994e-19
2.381779207e-19
2.678136861e-19
6.416806516e-20
7.987604094e-20
1.058462279e-19
1.442897067e-19
1.971044616e-19
2.642247029e-19
3.41126298e-19
4.159329774e-19
4.675642726e-19
1.107533781e-19
1.382545674e-19
1.837615407e-19
2.51133316e-19
3.436018858e-19
4.608667539e-19
5.948300978e-19
7.248789967e-19
8.150542856e-19
1.91614364e-19
2.397269684e-19
3.193964556e-19
4.373560553e-19
5.990948739e-19
8.03640822e-19
1.036054792e-18
1.260137272e-18
1.419971165e-18
3.321035212e-19
4.162544173e-19
5.557294634e-19
7.623933215e-19
1.045807818e-18
1.403611132e-18
1.806238239e-18
2.175626668e-18
2.478646501e-18
5.76210384e-19
7.232891732e-19
9.673475207e-19
1.329606944e-18
1.828053359e-18
2.462448423e-18
3.193520081e-18
3.923752408e-18
4.380220935e-18
1.000095309e-18
1.256654474e-18
1.682561834e-18
2.314885492e-18
3.184645433e-18
4.28950541e-18
5.553243196e-18
6.778043426e-18
7.609308981e-18
1.735774404e-18
2.18246573e-18
2.924018036e-18
4.024644668e-18
5.537368769e-18
7.456103338e-18
9.645495682e-18
1.176218224e-17
1.321057034e-17
3.012335698e-18
3.789119845e-18
5.078592969e-18
6.991998547e-18
9.620627622e-18
1.29526681e-17
1.67522508e-17
2.042450771e-17
2.293916417e-17
5.22748684e-18
6.577420983e-18
8.818282889e-18
1.214301129e-17
1.670948564e-17
2.249627116e-17
2.909318858e-17
3.546775959e-17
3.983274198e-17
9.071727178e-18
1.141695499e-17
1.530996459e-17
2.108553214e-17
2.90170484e-17
3.906609757e-17
5.051937304e-17
6.158418365e-17
6.915955224e-17
1.574385778e-17
1.981749833e-17
2.657950308e-17
3.66106367e-17
5.038419145e-17
6.783122625e-17
8.771116051e-17
1.069116713e-16
1.200538355e-16
2.732488649e-17
3.43998817e-17
4.614334564e-17
6.35621955e-17
8.747504842e-17
1.177575475e-16
1.522518173e-16
1.855560414e-16
2.083447969e-16
4.742656667e-17
5.97126942e-17
8.010381198e-17
1.103441675e-16
1.518476023e-16
2.043880327e-16
2.642113853e-16
3.219458824e-16
3.614356283e-16
8.231533094e-17
1.036474838e-16
1.3904637e-16
1.915298728e-16
2.635347267e-16
3.546455906e-16
4.583299218e-16
5.583370358e-16
6.267045767e-16
1.428577006e-16
1.798877057e-16
2.413210652e-16
3.323711129e-16
4.57225803e-16
6.151122296e-16
7.946587802e-16
9.677065277e-16
1.08592211e-15
2.478827861e-16
3.121401807e-16
4.187085584e-16
5.765754183e-16
7.929119132e-16
1.066258963e-15
1.376811947e-15
1.675823128e-15
1.879893249e-15
4.299825516e-16
5.414305475e-16
7.261796347e-16
9.996826192e-16
1.374159617e-15
1.846814968e-15
2.383139732e-15
2.898848911e-15
3.250364155e-15
7.454927795e-16
9.38647768e-16
1.258655015e-15
1.731992794e-15
2.379355246e-15
3.19530997e-15
4.119698511e-15
5.007033314e-15
5.610852428e-15
1.291616589e-15
1.626042956e-15
2.179679047e-15
2.997697982e-15
4.114865359e-15
5.520498107e-15
7.109693115e-15
8.631865114e-15
9.665492834e-15
2.235697165e-15
2.813928167e-15
3.770255682e-15
5.181325883e-15
7.104955668e-15
9.519950195e-15
1.224338883e-14
1.484488336e-14
1.660676112e-14
3.865051463e-15
4.863029705e-15
6.51158209e-15
8.939873016e-15
1.224283653e-14
1.637821344e-14
2.102722683e-14
2.545332198e-14
2.844126582e-14
6.671402756e-15
8.389860635e-15
1.122434669e-14
1.539071598e-14
2.104237254e-14
2.809499116e-14
3.599378628e-14
4.348388808e-14
4.852083428e-14
1.149316554e-14
1.444370779e-14
1.930162447e-14
2.642399983e-14
3.605378155e-14
4.802326977e-14
6.136922939e-14
7.396547451e-14
8.239825441e-14
1.975379111e-14
2.480188295e-14
3.30952175e-14
4.521734713e-14
6.154335117e-14
8.174213596e-14
1.041473823e-13
1.25180303e-13
1.391893015e-13
3.38584058e-14
4.245857491e-14
5.655103398e-14
7.707568267e-14
1.045929035e-13
1.384560159e-13
1.757971067e-13
2.106388307e-13
2.337133136e-13
5.784914548e-14
7.242765814e-14
9.624432286e-14
1.307872378e-13
1.768579199e-13
2.332106064e-13
2.949422794e-13
3.521575665e-13
3.898148351e-13
9.847952941e-14
1.230495486e-13
1.630496831e-13
2.207889206e-13
2.973455824e-13
3.90358664e-13
4.91515409e-13
5.845955904e-13
6.454542102e-13
1.669611447e-13
2.080987622e-13
2.748070411e-13
3.705848303e-13
4.967515183e-13
6.489135984e-13
8.131157868e-13
9.630555669e-13
1.060416899e-12
2.81778037e-13
3.501494355e-13
4.605317793e-13
6.180808877e-13
8.241487491e-13
1.070719644e-12
1.334627546e-12
1.573706925e-12
1.727859529e-12
4.731784455e-13
5.858947445e-13
7.669905147e-13
1.02381402e-12
1.357184546e-12
1.75277772e-12
2.172608898e-12
2.549882288e-12
2.79142662e-12
7.902716854e-13
9.744660074e-13
1.268858801e-12
1.683504124e-12
2.217452506e-12
2.845642448e-12
3.506602255e-12
4.09578812e-12
4.470392786e-12
1.312123407e-12
1.610303366e-12
2.084241253e-12
2.746993445e-12
3.593426176e-12
4.580612582e-12
5.610406538e-12
6.521132602e-12
7.096289535e-12
2.16491354e-12
2.642853311e-12
3.39813376e-12
4.446533078e-12
5.77434705e-12
7.309563101e-12
8.897594632e-12
1.029131129e-11
1.116587099e-11
3.548176168e-12
4.306391459e-12
5.497531e-12
7.138628764e-12
9.199863611e-12
1.156283373e-11
1.398728275e-11
1.609964508e-11
1.741720492e-11
5.774484618e-12
6.964703807e-12
8.823452538e-12
1.136540348e-11
1.45321694e-11
1.813276095e-11
2.179854374e-11
2.497072636e-11
2.693834276e-11
9.32882105e-12
1.117735912e-11
1.404734472e-11
1.794385701e-11
2.276009057e-11
2.819344204e-11
3.368514568e-11
3.840745611e-11
4.13216939e-11
1.49564746e-11
1.779707968e-11
2.218234274e-11
2.809475481e-11
3.534830423e-11
4.347145462e-11
5.16268218e-11
5.859920328e-11
6.288226654e-11
2.379191998e-11
2.811156109e-11
3.47440671e-11
4.362750775e-11
5.445000404e-11
6.648792975e-11
7.849947699e-11
8.871517311e-11
9.496484089e-11
3.754612191e-11
4.404841371e-11
5.398142134e-11
6.720378301e-11
8.320836764e-11
1.009001183e-10
1.184551778e-10
1.333160656e-10
1.423746405e-10
5.877662376e-11
6.846928835e-11
8.320590509e-11
1.027114371e-10
1.261818447e-10
1.519811174e-10
1.774542935e-10
1.989295402e-10
2.119789289e-10
9.127432855e-11
1.055895317e-10
1.272583673e-10
1.557905272e-10
1.899398653e-10
2.272904763e-10
2.640082263e-10
2.948526847e-10
3.135449598e-10
1.406042036e-10
1.61561749e-10
1.931585601e-10
2.345692521e-10
2.838973915e-10
3.376118303e-10
3.902147152e-10
4.342673394e-10
4.609033239e-10
2.148759723e-10
2.45307999e-10
2.910256864e-10
3.50694698e-10
4.214738619e-10
4.982487825e-10
5.731863085e-10
6.357786615e-10
6.735531825e-10
3.258218819e-10
3.696784051e-10
4.353560758e-10
5.207627059e-10
6.216990544e-10
7.308177326e-10
8.370226609e-10
9.255357735e-10
9.788717582e-10
4.902975797e-10
5.530617833e-10
6.467951575e-10
7.682952006e-10
9.114281584e-10
1.065715312e-09
1.215519843e-09
1.340140024e-09
1.415141005e-09
7.323614942e-10
8.21613097e-10
9.545825919e-10
1.126462415e-09
1.328384683e-09
1.545501416e-09
1.75587885e-09
1.930620846e-09
2.035683162e-09
1.086139539e-09
1.212317499e-09
1.399909386e-09
1.64181314e-09
1.925322582e-09
2.229519616e-09
2.523765926e-09
2.767861225e-09
2.914508328e-09
1.599747985e-09
1.777180691e-09
2.040501629e-09
2.379359588e-09
2.775691963e-09
3.200181832e-09
3.610197327e-09
3.949987692e-09
4.154015315e-09
2.340628855e-09
2.588921675e-09
2.956839281e-09
3.429467656e-09
3.981311275e-09
4.571481145e-09
5.140875558e-09
5.61240267e-09
5.895450806e-09
3.402749372e-09
3.748647546e-09
4.260532391e-09
4.917132872e-09
5.682699016e-09
6.50046728e-09
7.288788021e-09
7.941331315e-09
8.333038099e-09
4.916230751e-09
5.396112935e-09
6.105515118e-09
7.014380226e-09
8.072895742e-09
9.20261147e-09
1.029108656e-08
1.119198348e-08
1.17329299e-08
7.060104558e-09
7.723310618e-09
8.702876443e-09
9.956698576e-09
1.141579054e-08
1.297218654e-08
1.447149039e-08
1.571267635e-08
1.645839344e-08
1.007903643e-08
1.099228587e-08
1.234029601e-08
1.406457311e-08
1.607012995e-08
1.820897314e-08
2.026965959e-08
2.197648102e-08
2.300286245e-08
1.430496335e-08
1.555816833e-08
1.740714982e-08
1.977127675e-08
2.252049185e-08
2.545271167e-08
2.827909676e-08
3.06220701e-08
3.203260492e-08
2.01846118e-08
2.189842559e-08
2.442634799e-08
2.76580615e-08
3.141645892e-08
3.542664089e-08
3.929502754e-08
4.25053139e-08
4.444061878e-08
2.831375163e-08
3.064920215e-08
3.409377836e-08
3.849763221e-08
4.362088709e-08
4.90910308e-08
5.437318438e-08
5.876257653e-08
6.141273087e-08
3.947870426e-08
4.264920402e-08
4.732572532e-08
5.330614801e-08
6.026734824e-08
6.770660245e-08
7.489920432e-08
8.088527492e-08
8.450538082e-08
5.470495289e-08
5.899081403e-08
6.531368895e-08
7.340280977e-08
8.282534749e-08
9.290590318e-08
1.026661553e-07
1.108027298e-07
1.1573182e-07
7.531162982e-08
8.107688962e-08
8.958455181e-08
1.004742877e-07
1.131696801e-07
1.267679506e-07
1.399543801e-07
1.509664748e-07
1.576492351e-07
1.029691695e-07
1.106800302e-07
1.220620937e-07
1.36638895e-07
1.536474279e-07
1.718879651e-07
1.896036532e-07
2.044243312e-07
2.134339976e-07
1.397556764e-07
1.499991852e-07
1.651236697e-07
1.845028672e-07
2.071330904e-07
2.314304671e-07
2.550635238e-07
2.748678878e-07
2.869272044e-07
1.882058191e-07
2.017066354e-07
2.216438872e-07
2.471989621e-07
2.770600488e-07
3.091516005e-07
3.404052418e-07
3.666345504e-07
3.826302146e-07
2.51344668e-07
2.689770226e-07
2.950158633e-07
3.28396572e-07
3.674159456e-07
4.09376582e-07
4.502795874e-07
4.846471946e-07
5.05632426e-07
3.326981181e-07
3.554895606e-07
3.89140531e-07
4.322731358e-07
4.826912748e-07
5.369214637e-07
5.898101768e-07
6.34281734e-07
6.61462223e-07
4.36271504e-07
4.653949522e-07
5.083755933e-07
5.634389309e-07
6.277744393e-07
6.969545894e-07
7.644207191e-07
8.211646328e-07
8.558657342e-07
5.664887475e-07
6.03239843e-07
6.574379605e-07
7.268108843e-07
8.077918265e-07
8.948005548e-07
9.79604621e-07
1.050915092e-06
1.09453472e-06
7.280860049e-07
7.73843912e-07
8.412566957e-07
9.274353353e-07
1.027896887e-06
1.135695927e-06
1.240652865e-06
1.328857557e-06
1.382818496e-06
9.259567647e-07
9.821283011e-07
1.064777864e-06
1.170264651e-06
1.293016847e-06
1.424508799e-06
1.552355079e-06
1.659720404e-06
1.72544154e-06
1.16495036e-06
1.232899738e-06
1.332729089e-06
1.459899538e-06
1.60757349e-06
1.765439411e-06
1.91867912e-06
2.047258773e-06
2.125909367e-06
1.449633143e-06
1.530602312e-06
1.649360057e-06
1.800319636e-06
1.975206949e-06
2.161744263e-06
2.342463131e-06
2.4938145e-06
2.586303764e-06
1.784030589e-06
1.87905837e-06
2.018184352e-06
2.194630627e-06
2.398538273e-06
2.61545521e-06
2.825036935e-06
3.000187074e-06
3.107095711e-06
2.171379442e-06
2.281229136e-06
2.441756528e-06
2.644864176e-06
2.878887373e-06
3.127063833e-06
3.366158764e-06
3.565519144e-06
3.687050843e-06
2.613933209e-06
2.739038192e-06
2.921472803e-06
3.151646935e-06
3.416029227e-06
3.69550478e-06
3.963959893e-06
4.187277153e-06
4.32323225e-06
3.112694086e-06
3.253010496e-06
3.457186898e-06
3.71407371e-06
4.008213158e-06
4.318148106e-06
4.614981694e-06
4.861325166e-06
5.011096297e-06
3.667088031e-06
3.822138913e-06
4.047275174e-06
4.329754958e-06
4.6521968e-06
4.990878891e-06
5.31429826e-06
5.582081661e-06
5.744669276e-06
4.275079584e-06
4.443961035e-06
4.688669272e-06
4.994882817e-06
5.343358053e-06
5.708252998e-06
6.055710601e-06
6.342742924e-06
6.516787307e-06
4.933222652e-06
5.1146317e-06
5.376961919e-06
5.704372512e-06
6.0758752e-06
6.463713752e-06
6.831994286e-06
7.135553449e-06
7.319379297e-06
5.636786951e-06
5.829068565e-06
6.106579016e-06
6.452063891e-06
6.842958319e-06
7.249850562e-06
7.635180303e-06
7.952102683e-06
8.143772304e-06
6.37994751e-06
6.58115581e-06
6.871002186e-06
7.230964539e-06
7.637112317e-06
8.058679265e-06
8.456848981e-06
8.783628354e-06
8.980999938e-06
7.156018667e-06
7.363986685e-06
7.663022207e-06
8.033514472e-06
8.450411734e-06
8.881924998e-06
9.288418656e-06
9.621308952e-06
9.822096956e-06
7.957711805e-06
8.170124395e-06
8.475003367e-06
8.851853297e-06
9.274769425e-06
9.711291059e-06
1.01214139e-05
1.045653124e-05
1.065836654e-05
8.777396887e-06
8.991862188e-06
9.299140903e-06
9.678073552e-06
1.010218454e-05
1.053870093e-05
1.094770193e-05
1.128112248e-05
1.148161041e-05
9.607350942e-06
9.821466945e-06
1.012769732e-05
1.050444786e-05
1.092495935e-05
1.135650466e-05
1.175968979e-05
1.208754082e-05
1.228431579e-05
1.043998096e-05
1.065139484e-05
1.095320779e-05
1.132362182e-05
1.173587853e-05
1.215764483e-05
1.25504786e-05
1.28690209e-05
1.30597964e-05
1.126801325e-05
1.147447221e-05
1.176864902e-05
1.212876857e-05
1.252834833e-05
1.293578064e-05
1.331397449e-05
1.361967479e-05
1.380228789e-05
1.208464552e-05
1.228403863e-05
1.256756983e-05
1.291370432e-05
1.329649599e-05
1.368537148e-05
1.404495795e-05
1.433455051e-05
1.45070003e-05
1.288366144e-05
1.307405263e-05
1.334418441e-05
1.367296682e-05
1.403523208e-05
1.440172329e-05
1.473911579e-05
1.500965249e-05
1.517013175e-05
1.365950978e-05
1.383916248e-05
1.409343131e-05
1.440186012e-05
1.474027979e-05
1.508100215e-05
1.539304025e-05
1.564192902e-05
1.578884895e-05
1.440735189e-05
1.457474592e-05
1.48110024e-05
1.50964703e-05
1.540817599e-05
1.572022038e-05
1.600420097e-05
1.622923256e-05
1.636124036e-05
1.512308185e-05
1.527692349e-05
1.549334628e-05
1.575365683e-05
1.603624909e-05
1.631720035e-05
1.657089537e-05
1.677025887e-05
1.688624819e-05
1.580332412e-05
1.594255003e-05
1.613765107e-05
1.637102457e-05
1.662257877e-05
1.687052129e-05
1.709218301e-05
1.726447063e-05
1.736358533e-05
1.644541296e-05
1.656918886e-05
1.674181101e-05
1.694688076e-05
1.716594208e-05
1.737945385e-05
1.756780873e-05
1.771201092e-05
1.779364251e-05
1.704735795e-05
1.715507273e-05
1.730438081e-05
1.748018125e-05
1.766575021e-05
1.784388673e-05
1.799811949e-05
1.811361134e-05
1.817739087e-05
1.760779907e-05
1.769905517e-05
1.782452152e-05
1.797046944e-05
1.812197955e-05
1.826424927e-05
1.838397836e-05
1.847049876e-05
1.851628395e-05
1.812595463e-05
1.820055533e-05
1.830194102e-05
1.841781114e-05
1.853510003e-05
1.864143289e-05
1.872667935e-05
1.87843042e-05
1.881216265e-05
1.86015648e-05
1.865949917e-05
1.873683162e-05
1.882272792e-05
1.890600357e-05
1.897671429e-05
1.902786533e-05
1.905697626e-05
1.90671658e-05
1.903483289e-05
1.907625892e-05
1.912980711e-05
1.918613098e-05
1.923593443e-05
1.927168209e-05
1.928945119e-05
1.929070121e-05
1.928364819e-05
1.942636637e-05
1.945159298e-05
1.948184094e-05
1.950925739e-05
1.952642324e-05
1.952816866e-05
1.95135535e-05
1.948783091e-05
1.946410736e-05
1.977711903e-05
1.978658739e-05
1.979420688e-05
1.979360968e-05
1.977922566e-05
1.974818789e-05
1.970242758e-05
1.96508193e-05
1.961111976e-05
2.008833545e-05
2.008260018e-05
2.006842314e-05
2.004089999e-05
1.99962665e-05
1.99338796e-05
1.985841237e-05
1.978216774e-05
1.972728632e-05
2.036149865e-05
2.034120924e-05
2.03062007e-05
2.025299901e-05
2.017958976e-05
2.008746075e-05
1.998388301e-05
1.988437893e-05
1.981518736e-05
2.059828145e-05
2.056416424e-05
2.050939619e-05
2.04318902e-05
2.033131451e-05
2.021118349e-05
2.008121108e-05
1.995991915e-05
1.987734605e-05
2.080050191e-05
2.075334297e-05
2.067996956e-05
2.057962932e-05
2.045359674e-05
2.03072996e-05
2.015273189e-05
2.001118801e-05
1.991619989e-05
2.097008304e-05
2.091071215e-05
2.081994654e-05
2.069830913e-05
2.054859681e-05
2.037803107e-05
2.020071818e-05
2.004049512e-05
1.993407913e-05
2.110901682e-05
2.103829263e-05
2.09313858e-05
2.079002905e-05
2.061845217e-05
2.042554623e-05
2.02273598e-05
2.005004275e-05
1.993319152e-05
2.121933242e-05
2.113812909e-05
2.101635061e-05
2.085686955e-05
2.066525492e-05
2.045194087e-05
2.023474838e-05
2.004191365e-05
1.991561209e-05
2.130306867e-05
2.121226385e-05
2.107688489e-05
2.090087083e-05
2.069103382e-05
2.045922384e-05
2.02248665e-05
2.001806339e-05
1.988327751e-05
2.136225068e-05
2.126271492e-05
2.111499324e-05
2.092401571e-05
2.069774034e-05
2.044930654e-05
2.01995807e-05
1.99803163e-05
1.983798397e-05
2.139887095e-05
2.129145832e-05
2.113262517e-05
2.092821625e-05
2.068723826e-05
2.042399589e-05
2.016063762e-05
1.99303645e-05
1.978138795e-05
2.141487617e-05
2.130041545e-05
2.113166376e-05
2.091530441e-05
2.066129688e-05
2.038499032e-05
2.0109663e-05
1.986976937e-05
1.971500934e-05
2.141216278e-05
2.12914475e-05
2.111391962e-05
2.088702676e-05
2.062158748e-05
2.03338786e-05
2.004816293e-05
1.979996499e-05
1.964023628e-05
2.139258927e-05
2.126636098e-05
2.108113141e-05
2.084504315e-05
2.056968234e-05
2.027214042e-05
1.997752643e-05
1.972226269e-05
1.9558331e-05
2.13580173e-05
2.122693118e-05
2.103497286e-05
2.079092847e-05
2.050705582e-05
2.02011486e-05
1.989902941e-05
1.963785656e-05
1.947043633e-05
2.131008656e-05
2.117482278e-05
2.097704818e-05
2.072616859e-05
2.043508308e-05
2.012217048e-05
1.981383838e-05
1.9547829e-05
1.937758233e-05
2.125025335e-05
2.11114589e-05
2.09087899e-05
2.065213926e-05
2.03550334e-05
2.003636764e-05
1.97230136e-05
1.945315595e-05
1.928069265e-05
2.117988317e-05
2.103816398e-05
2.083146484e-05
2.057010229e-05
2.026806644e-05
1.994479593e-05
1.962751222e-05
1.935471207e-05
1.918059068e-05
2.110025052e-05
2.09561682e-05
2.074623693e-05
2.04811347e-05
2.017522676e-05
1.984840673e-05
1.952819226e-05
1.925327625e-05
1.907800597e-05
2.101254104e-05
2.086661362e-05
2.065418616e-05
2.038624313e-05
2.00774628e-05
1.974805351e-05
1.942581814e-05
1.914953793e-05
1.897358108e-05
2.09178522e-05
2.077055456e-05
2.055630447e-05
2.028634117e-05
1.997559551e-05
1.964448965e-05
1.932106569e-05
1.904410399e-05
1.8867879e-05
2.081719508e-05
2.066896007e-05
2.045350029e-05
2.018226133e-05
1.987036948e-05
1.953839277e-05
1.921453582e-05
1.893750859e-05
1.876139192e-05
2.071149673e-05
2.056271728e-05
2.034660384e-05
2.007476484e-05
1.976247228e-05
1.9430385e-05
1.910676496e-05
1.883022086e-05
1.865454811e-05
2.06016026e-05
2.04526334e-05
2.023636779e-05
1.996453753e-05
1.965251578e-05
1.932100376e-05
1.899821783e-05
1.872264569e-05
1.854771539e-05
2.048827927e-05
2.033943834e-05
2.012346939e-05
1.98521909e-05
1.954103518e-05
1.921069839e-05
1.888929053e-05
1.861512871e-05
1.844120671e-05
2.037221868e-05
2.022378947e-05
2.000851633e-05
1.973827109e-05
1.942850727e-05
1.909987419e-05
1.878032984e-05
1.850796763e-05
1.833528899e-05
2.025404249e-05
2.010627619e-05
1.989205202e-05
1.962326515e-05
1.931535664e-05
1.898889248e-05
1.867163966e-05
1.840141922e-05
1.823018995e-05
2.013430662e-05
1.998742469e-05
1.977456043e-05
1.950760566e-05
1.920195921e-05
1.88780718e-05
1.856348525e-05
1.829570434e-05
1.812610316e-05
2.001350581e-05
1.986770242e-05
1.965647037e-05
1.939167454e-05
1.90886455e-05
1.876769114e-05
1.845609909e-05
1.819101185e-05
1.802319145e-05
1.9892078e-05
1.974752224e-05
1.953815924e-05
1.927580615e-05
1.897570252e-05
1.865798943e-05
1.834967514e-05
1.808749786e-05
1.792158782e-05
1.977040851e-05
1.96272465e-05
1.941995679e-05
1.916029055e-05
1.886337636e-05
1.854916771e-05
1.824437191e-05
1.798528784e-05
1.782139741e-05
1.964883424e-05
1.950719099e-05
1.930214895e-05
1.904537735e-05
1.875187652e-05
1.844139485e-05
1.814032164e-05
1.788448199e-05
1.772270155e-05
1.952764772e-05
1.938762901e-05
1.91849817e-05
1.893127911e-05
1.864137831e-05
1.83348071e-05
1.803762087e-05
1.778515461e-05
1.762555939e-05
1.940710118e-05
1.926879527e-05
1.906866497e-05
1.881817562e-05
1.853202814e-05
1.822951696e-05
1.793635157e-05
1.768736256e-05
1.753001309e-05
1.928741034e-05
1.915088978e-05
1.895337651e-05
1.870621759e-05
1.842394699e-05
1.812561522e-05
1.783657621e-05
1.759114695e-05
1.74360906e-05
1.916875816e-05
1.903408138e-05
1.883926525e-05
1.859552992e-05
1.831723339e-05
1.802317383e-05
1.773834218e-05
1.749653549e-05
1.734380773e-05
1.905129817e-05
1.891851101e-05
1.872645445e-05
1.848621449e-05
1.821196587e-05
1.792224782e-05
1.764168286e-05
1.740354393e-05
1.725316959e-05
1.893515756e-05
1.880429473e-05
1.861504443e-05
1.837835269e-05
1.810820519e-05
1.782287712e-05
1.754661899e-05
1.731217745e-05
1.716417194e-05
1.882044011e-05
1.869152639e-05
1.850511516e-05
1.827200777e-05
1.80059963e-05
1.772508837e-05
1.74531603e-05
1.7222432e-05
1.707680241e-05
1.87072287e-05
1.858028016e-05
1.839672854e-05
1.816722685e-05
1.790537029e-05
1.762889651e-05
1.736130685e-05
1.713429554e-05
1.699104169e-05
1.859558779e-05
1.847061281e-05
1.828993053e-05
1.806404297e-05
1.780634607e-05
1.75343063e-05
1.727105039e-05
1.704774923e-05
1.690686453e-05
1.848556553e-05
1.836256574e-05
1.818475313e-05
1.796247676e-05
1.770893197e-05
1.744131373e-05
1.718237554e-05
1.696276848e-05
1.682424079e-05
1.837719577e-05
1.825616694e-05
1.808121606e-05
1.786253809e-05
1.761312714e-05
1.734990723e-05
1.70952609e-05
1.687932388e-05
1.674313625e-05
1.827049986e-05
1.815143265e-05
1.797932843e-05
1.776422753e-05
1.751892289e-05
1.726006883e-05
1.700968e-05
1.679738207e-05
1.666351341e-05
1.816548827e-05
1.804836894e-05
1.787909015e-05
1.766753761e-05
1.742630376e-05
1.717177515e-05
1.692560217e-05
1.671690646e-05
1.658533214e-05
1.806216209e-05
1.794697309e-05
1.778049322e-05
1.757245403e-05
1.733524865e-05
1.70849983e-05
1.684299333e-05
1.663785796e-05
1.650855034e-05
1.796051427e-05
1.784723485e-05
1.76835229e-05
1.747895668e-05
1.72457317e-05
1.699970668e-05
1.676181665e-05
1.65601955e-05
1.643312441e-05
1.786053088e-05
1.774913757e-05
1.758815873e-05
1.738702061e-05
1.715772309e-05
1.69158657e-05
1.668203317e-05
1.648387658e-05
1.635900975e-05
1.776219216e-05
1.765265919e-05
1.749437548e-05
1.729661684e-05
1.707118983e-05
1.683343837e-05
1.660360231e-05
1.640885773e-05
1.628616117e-05
1.76654734e-05
1.755777313e-05
1.740214397e-05
1.72077131e-05
1.698609636e-05
1.675238591e-05
1.652648235e-05
1.633509487e-05
1.62145332e-05
1.757034584e-05
1.746444909e-05
1.731143178e-05
1.712027447e-05
1.690240511e-05
1.667266818e-05
1.645063083e-05
1.626254368e-05
1.614408041e-05
1.74767774e-05
1.737265375e-05
1.722220391e-05
1.703426398e-05
1.682007704e-05
1.659424411e-05
1.63760049e-05
1.619115986e-05
1.607475768e-05
1.73847333e-05
1.728235141e-05
1.713442334e-05
1.69496431e-05
1.673907205e-05
1.65170721e-05
1.630256163e-05
1.612089943e-05
1.600652042e-05
1.729417669e-05
1.719350448e-05
1.704805153e-05
1.686637219e-05
1.665934936e-05
1.644111031e-05
1.623025824e-05
1.605171889e-05
1.593932474e-05
1.720506911e-05
1.710607401e-05
1.696304885e-05
1.678441088e-05
1.658086785e-05
1.636631695e-05
1.615905239e-05
1.598357547e-05
1.587312762e-05
1.711737098e-05
1.702002008e-05
1.687937499e-05
1.67037184e-05
1.650358634e-05
1.629265049e-05
1.60889023e-05
1.59164272e-05
1.580788702e-05
1.703104193e-05
1.693530219e-05
1.679698923e-05
1.662425387e-05
1.642746385e-05
1.62200699e-05
1.601976695e-05
1.585023311e-05
1.574356204e-05
1.694604118e-05
1.685187954e-05
1.671585079e-05
1.654597657e-05
1.635245979e-05
1.61485348e-05
1.595160621e-05
1.578495332e-05
1.568011296e-05
1.686232782e-05
1.676971131e-05
1.663591903e-05
1.646884612e-05
1.627853413e-05
1.607800561e-05
1.588438097e-05
1.572054909e-05
1.561750132e-05
1.677986103e-05
1.668875688e-05
1.655715366e-05
1.639282269e-05
1.620564759e-05
1.600844366e-05
1.581805318e-05
1.565698293e-05
1.555569e-05
1.66986003e-05
1.660897606e-05
1.647951493e-05
1.63178671e-05
1.61337617e-05
1.593981127e-05
1.575258596e-05
1.559421864e-05
1.549464322e-05
1.661850558e-05
1.653032917e-05
1.640296372e-05
1.624394097e-05
1.606283895e-05
1.587207186e-05
1.568794363e-05
1.553222131e-05
1.54343266e-05
1.653953739e-05
1.645277716e-05
1.632746164e-05
1.617100675e-05
1.599284277e-05
1.580518992e-05
1.562409174e-05
1.547095737e-05
1.537470712e-05
1.646165686e-05
1.637628167e-05
1.625297107e-05
1.609902775e-05
1.592373756e-05
1.573913103e-05
1.5560997e-05
1.541039452e-05
1.531575309e-05
1.638482574e-05
1.6300805e-05
1.61794551e-05
1.60279681e-05
1.585548864e-05
1.567386178e-05
1.549862726e-05
1.535050164e-05
1.525743407e-05
1.630900623e-05
1.622630995e-05
1.610687742e-05
1.595779258e-05
1.578806206e-05
1.560934958e-05
1.543695128e-05
1.529124863e-05
1.519972069e-05
1.623416078e-05
1.615275959e-05
1.6035202e-05
1.588846633e-05
1.572142431e-05
1.554556239e-05
1.53759384e-05
1.523260606e-05
1.51425843e-05
1.616025162e-05
1.608011678e-05
1.596439265e-05
1.581995436e-05
1.565554181e-05
1.548246813e-05
1.531555807e-05
1.517454465e-05
1.508599645e-05
1.608724002e-05
1.600834345e-05
1.589441225e-05
1.575222074e-05
1.559038007e-05
1.542003385e-05
1.525577888e-05
1.511703437e-05
1.502992798e-05
1.601508524e-05
1.593739946e-05
1.582522155e-05
1.568522742e-05
1.552590239e-05
1.535822441e-05
1.519656725e-05
1.506004302e-05
1.497434762e-05
1.59437429e-05
1.586724096e-05
1.575677749e-05
1.561893236e-05
1.546206801e-05
1.529700046e-05
1.513788534e-05
1.500353413e-05
1.491921983e-05
1.587316264e-05
1.579781795e-05
1.568903065e-05
1.555328693e-05
1.539882928e-05
1.523631554e-05
1.507968797e-05
1.494746378e-05
1.486450156e-05
1.580328494e-05
1.572907103e-05
1.562192181e-05
1.54882322e-05
1.533612777e-05
1.51761119e-05
1.502191827e-05
1.489177603e-05
1.481013763e-05
1.573403668e-05
1.566092674e-05
1.555537709e-05
1.542369386e-05
1.52738888e-05
1.511631469e-05
1.496450151e-05
1.483639658e-05
1.475605414e-05
1.566532531e-05
1.559329155e-05
1.548930157e-05
1.535957539e-05
1.521201417e-05
1.505682423e-05
1.490733689e-05
1.478122406e-05
1.470214959e-05
1.559703117e-05
1.552604386e-05
1.542357093e-05
1.52957491e-05
1.515037259e-05
1.499750567e-05
1.485028655e-05
1.472611854e-05
1.464828304e-05
1.552899773e-05
1.54590239e-05
1.535802068e-05
1.523204475e-05
1.508878737e-05
1.493817587e-05
1.47931616e-05
1.467088679e-05
1.459425886e-05
1.546101954e-05
1.539202111e-05
1.529243295e-05
1.516823532e-05
1.502702126e-05
1.487858707e-05
1.473570457e-05
1.461526386e-05
1.453980776e-05
1.539282742e-05
1.532475887e-05
1.522652029e-05
1.510401985e-05
1.496475794e-05
1.481840702e-05
1.467756839e-05
1.455889084e-05
1.448456375e-05
1.532407109e-05
1.525687641e-05
1.515990667e-05
1.503900313e-05
1.490158035e-05
1.475719582e-05
1.461829155e-05
1.450128877e-05
1.442803731e-05
1.525429908e-05
1.518790803e-05
1.509210565e-05
1.497267262e-05
1.483694604e-05
1.469437954e-05
1.455727017e-05
1.444182928e-05
1.436958496e-05
1.518293629e-05
1.511725993e-05
1.502249618e-05
1.490437288e-05
1.477016006e-05
1.462922151e-05
1.449372759e-05
1.437970271e-05
1.430837658e-05
1.510925972e-05
1.504418529e-05
1.495029673e-05
1.483327851e-05
1.470034659e-05
1.456079247e-05
1.442668308e-05
1.431388545e-05
1.424336167e-05
1.503237325e-05
1.496775855e-05
1.487453877e-05
1.475836684e-05
1.462642069e-05
1.448794151e-05
1.435492183e-05
1.424310839e-05
1.417323684e-05
1.495118265e-05
1.488685004e-05
1.479404104e-05
1.46783917e-05
1.454706193e-05
1.440927001e-05
1.427697047e-05
1.416582907e-05
1.409641637e-05
1.486437243e-05
1.48001027e-05
1.470738613e-05
1.459185981e-05
1.446069049e-05
1.432310804e-05
1.419107604e-05
1.408020677e-05
1.401100641e-05
1.477038667e-05
1.470591326e-05
1.461290177e-05
1.449701192e-05
1.436544669e-05
1.422748773e-05
1.40951616e-05
1.398407582e-05
1.391478377e-05
1.466741694e-05
1.46024211e-05
1.450865155e-05
1.439181616e-05
1.425918843e-05
1.412014784e-05
1.398683969e-05
1.387494802e-05
1.380519626e-05
1.455340016e-05
1.448750805e-05
1.439243765e-05
1.427397533e-05
1.413950661e-05
1.39985672e-05
1.386343751e-05
1.375003274e-05
1.367938179e-05
1.442602998e-05
1.435881186e-05
1.42618167e-05
1.41409435e-05
1.400373362e-05
1.385993008e-05
1.372200317e-05
1.360626249e-05
1.353420149e-05
1.428278569e-05
1.421375851e-05
1.41141381e-05
1.398997551e-05
1.384901987e-05
1.370119428e-05
1.355935796e-05
1.344034854e-05
1.336629946e-05
1.412098014e-05
1.404961205e-05
1.394659421e-05
1.381817178e-05
1.367226732e-05
1.351913985e-05
1.337216729e-05
1.32488634e-05
1.317219212e-05
1.393782898e-05
1.386354721e-05
1.375628864e-05
1.362245587e-05
1.34702751e-05
1.331046715e-05
1.315704619e-05
1.302835609e-05
1.294838985e-05
1.373052962e-05
1.365267032e-05
1.354015981e-05
1.339967471e-05