/*--------------------------------*- C++ -*----------------------------------*\
| =========                 |                                                 |
| \\      /  F ield         | OpenFOAM: The Open Source CFD Toolbox           |
|  \\    /   O peration     | Version:  2212                                  |
|   \\  /    A nd           | Website:  www.openfoam.com                      |
|    \\/     M anipulation  |                                                 |
\*---------------------------------------------------------------------------*/
FoamFile
{
    version     2.0;
    format      ascii;
    arch        "LSB;label=32;scalar=64";
    class       surfaceScalarField;
    location    "30.00000000";
    object      phi_0;
}
// * * * * * * * * * * * * * * * * * * * * * * * * * * * * * * * * * * * * * //

dimensions      [1 0 -1 0 0 0 0];

oriented        oriented;

internalField   nonuniform List<scalar> 
5690
(
-5.459710029e-11
8.582407433e-10
1.326148382e-11
-1.340120061e-10
1.421023937e-09
-2.672348442e-10
1.983684203e-09
-4.772527608e-10
2.553851108e-09
-7.876122465e-10
3.132443116e-09
-1.196097564e-09
3.694054336e-09
-1.607583463e-09
4.146120602e-09
-1.625232809e-09
4.187267736e-09
2.965621643e-09
-1.155879938e-10
9.453568545e-10
2.847187116e-11
-2.665041881e-10
1.571940027e-09
-4.850494062e-10
2.202229441e-09
-7.654846851e-10
2.834286202e-09
-1.075076495e-09
3.442034474e-09
-1.325421388e-09
3.944400555e-09
-1.355780181e-09
4.176479156e-09
-9.126492212e-10
3.744137089e-09
2.052972237e-09
-1.516092614e-10
1.058753387e-09
3.821279533e-11
-3.350054883e-10
1.75533605e-09
-5.764814287e-10
2.4437058e-09
-8.44847529e-10
3.1026525e-09
-1.077659594e-09
3.674846741e-09
-1.17844622e-09
4.0451877e-09
-1.023920031e-09
4.021953012e-09
-5.505508224e-10
3.270767742e-09
1.502421347e-09
-1.483067311e-10
1.168999371e-09
3.806067865e-11
-3.174720482e-10
1.924500664e-09
-5.214405085e-10
2.647675155e-09
-7.180716227e-10
3.299282739e-09
-8.46012634e-10
3.80278786e-09
-8.314617102e-10
4.030637159e-09
-6.201626297e-10
3.810653512e-09
-2.731042709e-10
2.92370936e-09
1.22931732e-09
-1.315325003e-10
1.266284099e-09
3.42478593e-11
-2.742696362e-10
2.06723786e-09
-4.334640472e-10
2.806869275e-09
-5.673070754e-10
3.433126237e-09
-6.262283608e-10
3.861708725e-09
-5.679267042e-10
3.972335297e-09
-3.841469434e-10
3.626873846e-09
-1.472450793e-10
2.686807893e-09
1.082072493e-09
-1.070173868e-10
1.345023154e-09
2.827780896e-11
-2.1807848e-10
2.178299012e-09
-3.335150341e-10
2.922305929e-09
-4.1826261e-10
3.517873587e-09
-4.378666392e-10
3.881312985e-09
-3.729698189e-10
3.907438538e-09
-2.348678662e-10
3.488771943e-09
-8.196641997e-11
2.533906637e-09
1.000106028e-09
-8.367101707e-11
1.406345417e-09
2.234877525e-11
-1.673858017e-10
2.262013947e-09
-2.493051906e-10
3.004225239e-09
-3.023233435e-10
3.570891628e-09
-3.040586086e-10
3.883048655e-09
-2.47335428e-10
3.850715526e-09
-1.479348868e-10
3.389371822e-09
-4.783779794e-11
2.433809474e-09
9.522680067e-10
-6.330567919e-11
1.452562352e-09
1.708895427e-11
-1.246527592e-10
2.323360867e-09
-1.816324655e-10
3.061205339e-09
-2.143886427e-10
3.603647601e-09
-2.090479582e-10
3.87770802e-09
-1.644766316e-10
3.806144646e-09
-9.523792226e-11
3.320133344e-09
-2.981234933e-11
2.36838388e-09
9.224558589e-10
-4.711509864e-11
1.486862951e-09
1.281466461e-11
-9.162620405e-11
2.367871773e-09
-1.312294108e-10
3.100808751e-09
-1.517178672e-10
3.624136063e-09
-1.445797301e-10
3.87057004e-09
-1.110589822e-10
3.772624199e-09
-6.279506704e-11
3.271869216e-09
-1.90134678e-11
2.324602634e-09
9.034426889e-10
-3.466592308e-11
1.512034062e-09
9.494849235e-12
-6.672817225e-11
2.399934009e-09
-9.427527417e-11
3.12835601e-09
-1.07284372e-10
3.637145175e-09
-1.005497252e-10
3.863835493e-09
-7.602361213e-11
3.748098132e-09
-4.245850059e-11
3.23830419e-09
-1.279063025e-11
2.294935392e-09
8.906521313e-10
-2.538258586e-11
1.530431134e-09
6.985606012e-12
-4.848296404e-11
2.423034385e-09
-6.779928651e-11
3.147672263e-09
-7.626702304e-11
3.645612903e-09
-7.06440401e-11
3.858212356e-09
-5.283531227e-11
3.730289479e-09
-2.923942982e-11
3.21470854e-09
-8.710430376e-12
2.27440667e-09
8.819418384e-10
-1.855382946e-11
1.543857392e-09
5.127615856e-12
-3.522713046e-11
2.439707686e-09
-4.888827873e-11
3.161333248e-09
-5.454470552e-11
3.651269116e-09
-5.013223561e-11
3.853800021e-09
-3.726359612e-11
3.717421021e-09
-2.056186911e-11
3.198006689e-09
-6.151137856e-12
2.259995671e-09
8.757908836e-10
-1.357624763e-11
1.553671686e-09
3.76198877e-12
-2.56674223e-11
2.451798895e-09
-3.543195967e-11
3.171097596e-09
-3.931318818e-11
3.655150304e-09
-3.595408931e-11
3.850441127e-09
-2.662626012e-11
3.708093513e-09
-1.466319168e-11
3.186043183e-09
-4.379616664e-12
2.249712117e-09
8.714112014e-10
-9.961347584e-12
1.560866908e-09
2.766182081e-12
-1.877612091e-11
2.460613611e-09
-2.582605246e-11
3.178147563e-09
-2.855592826e-11
3.657880182e-09
-2.604572778e-11
3.847930975e-09
-1.926437117e-11
3.701311899e-09
-1.061949291e-11
3.177398544e-09
-3.18967008e-12
2.242282554e-09
8.682214781e-10
-7.336848995e-12
1.566164011e-09
2.039775312e-12
-1.380286799e-11
2.467079531e-09
-1.894388762e-11
3.183288491e-09
-2.090513578e-11
3.659841683e-09
-1.904326763e-11
3.846068875e-09
-1.40812489e-11
3.696349629e-09
-7.768696897e-12
3.17108631e-09
-2.335398075e-12
2.236849369e-09
8.658861896e-10
-5.429442176e-12
1.570082672e-09
1.510772032e-12
-1.020242468e-11
2.47185251e-09
-1.398593556e-11
3.187071833e-09
-1.542093644e-11
3.661276973e-09
-1.404531645e-11
3.84469319e-09
-1.039509165e-11
3.692699415e-09
-5.750112532e-12
3.166441133e-09
-1.727161984e-12
2.232826602e-09
8.641589764e-10
-4.03953587e-12
1.572997794e-09
1.124391415e-12
-7.586363793e-12
2.475399474e-09
-1.039461187e-11
3.189880128e-09
-1.145910829e-11
3.662341233e-09
-1.043866839e-11
3.84367301e-09
-7.730564997e-12
3.689991167e-09
-4.278929576e-12
3.162989612e-09
-1.277287112e-12
2.22982501e-09
8.628817907e-10
-3.024774936e-12
1.575180487e-09
8.420220662e-13
-5.679233535e-12
2.478054138e-09
-7.780347487e-12
3.191981127e-09
-8.575789868e-12
3.663136437e-09
-7.808870341e-12
3.842906208e-09
-5.772559433e-12
3.687955147e-09
-3.176403569e-12
3.160393514e-09
-9.47625596e-13
2.227596392e-09
8.619343372e-10
-2.284674935e-12
1.576829265e-09
6.358893194e-13
-4.290194056e-12
2.480059756e-09
-5.878098846e-12
3.193568964e-09
-6.478238431e-12
3.663736532e-09
-5.89360991e-12
3.842321759e-09
-4.34221449e-12
3.686404155e-09
-2.365471837e-12
3.158416578e-09
-6.858976083e-13
2.225916989e-09
8.61248304e-10
-1.748869439e-12
1.578091593e-09
4.866401528e-13
-3.285962291e-12
2.481596858e-09
-4.504887252e-12
3.194788076e-09
-4.966666425e-12
3.664198381e-09
-4.515930159e-12
3.84187125e-09
-3.316268385e-12
3.685204387e-09
-1.785612304e-12
3.156886031e-09
-4.804540114e-13
2.224611714e-09
8.607680117e-10
-1.369165262e-12
1.579080139e-09
3.806520894e-13
-2.576089513e-12
2.482803707e-09
-3.537422417e-12
3.195749542e-09
-3.905573852e-12
3.664566861e-09
-3.555123855e-12
3.841520682e-09
-2.611960063e-12
3.684261187e-09
-1.40439208e-12
3.155678643e-09
-3.74381838e-13
2.223581922e-09
8.603939819e-10
-1.111706504e-12
1.579883229e-09
3.085694172e-13
-2.09744719e-12
2.483789352e-09
-2.890490931e-12
3.196542668e-09
-3.204025592e-12
3.664880549e-09
-2.928264935e-12
3.841244733e-09
-2.16048646e-12
3.683493712e-09
-1.172854375e-12
3.154691026e-09
-3.247789587e-13
2.222734157e-09
8.600693706e-10
-9.615798985e-13
1.580578927e-09
2.658816557e-13
-1.826528707e-12
2.484654463e-09
-2.542409658e-12
3.197258607e-09
-2.853633309e-12
3.665191525e-09
-2.6385963e-12
3.841029749e-09
-1.957661317e-12
3.682812858e-09
-1.056585878e-12
3.153790073e-09
-2.792816486e-13
2.221957038e-09
8.597901344e-10
-9.001272552e-13
1.581231426e-09
2.476669884e-13
-1.724506084e-12
2.485479168e-09
-2.429207183e-12
3.197963144e-09
-2.765000223e-12
3.665527222e-09
-2.595667423e-12
3.840860403e-09
-1.952698389e-12
3.682169891e-09
-1.06239245e-12
3.152899906e-09
-2.753526575e-13
2.221170289e-09
8.59514838e-10
-9.201976439e-13
1.58189983e-09
2.51846934e-13
-1.779015409e-12
2.486338181e-09
-2.536197165e-12
3.198720083e-09
-2.928369167e-12
3.665919614e-09
-2.801173634e-12
3.840733151e-09
-2.159842602e-12
3.68152854e-09
-1.211596104e-12
3.151951692e-09
-3.252610714e-13
2.220284144e-09
8.591896938e-10
-1.026616903e-12
1.582647147e-09
2.793983864e-13
-2.004132584e-12
2.48731586e-09
-2.895313048e-12
3.199611222e-09
-3.398209216e-12
3.6664226e-09
-3.310606341e-12
3.840645604e-09
-2.606776748e-12
3.680824783e-09
-1.497573916e-12
3.150842563e-09
-4.141669787e-13
2.21920065e-09
8.587756474e-10
-1.221899098e-12
1.583538242e-09
3.308924276e-13
-2.405030529e-12
2.488499288e-09
-3.514272178e-12
3.200720443e-09
-4.183145092e-12
3.667091397e-09
-4.142563772e-12
3.840605063e-09
-3.322262266e-12
3.680004777e-09
-1.950971926e-12
3.149471463e-09
-5.618152754e-13
2.217811432e-09
8.58213919e-10
-1.512152998e-12
1.584642582e-09
4.078207979e-13
-2.994788875e-12
2.489982208e-09
-4.413286027e-12
3.20213892e-09
-5.30834532e-12
3.667986297e-09
-5.321616036e-12
3.8406184e-09
-4.330909222e-12
3.67901428e-09
-2.591727408e-12
3.147732432e-09
-7.752085797e-13
2.215995155e-09
8.574385741e-10
-1.902678417e-12
1.586033596e-09
5.116891592e-13
-3.784040661e-12
2.49186372e-09
-5.608315787e-12
3.203963115e-09
-6.793523776e-12
3.669171476e-09
-6.868846705e-12
3.840693851e-09
-5.650377674e-12
3.677795757e-09
-3.430928243e-12
3.145512778e-09
-1.059749684e-12
2.213624106e-09
8.563787923e-10
-2.397678476e-12
1.587787674e-09
6.436637481e-13
-4.780445306e-12
2.494246536e-09
-7.10955971e-12
3.206292089e-09
-8.649330053e-12
3.670711334e-09
-8.792533963e-12
3.840837148e-09
-7.284824234e-12
3.676287811e-09
-4.469085737e-12
3.142696764e-09
-1.415015959e-12
2.210570028e-09
8.54964026e-10
-2.997856358e-12
1.589981612e-09
8.039548356e-13
-5.984166113e-12
2.497232788e-09
-8.914642064e-12
3.209222442e-09
-1.086892669e-11
3.672665664e-09
-1.108059567e-11
3.841048825e-09
-9.218980392e-12
3.674426246e-09
-5.69336984e-12
3.139171177e-09
-1.835825977e-12
2.206712562e-09
8.531284857e-10
-3.69891504e-12
1.592689007e-09
9.91503409e-13
-7.384710993e-12
2.500918496e-09
-1.1004023e-11
3.21284167e-09
-1.34219924e-11
3.67508376e-09
-1.369411531e-11
3.841320991e-09
-1.141310745e-11
3.672145541e-09
-7.074084967e-12
3.134832391e-09
-2.310544358e-12
2.201949287e-09
8.50817899e-10
-4.490036438e-12
1.595975374e-09
1.203642837e-12
-8.957938062e-12
2.505386354e-09
-1.333633852e-11
3.217220133e-09
-1.625001647e-11
3.677997523e-09
-1.656354596e-11
3.841634641e-09
-1.380017347e-11
3.669382296e-09
-8.563420339e-12
3.129595893e-09
-2.821320963e-12
2.196207386e-09
8.479964744e-10
-5.352757391e-12
1.599892423e-09
1.435699209e-12
-1.066391853e-11
2.510697542e-09
-1.58460906e-11
3.222402296e-09
-1.926370963e-11
3.681415301e-09
-1.958733284e-11
3.84195824e-09
-1.628557515e-11
3.666080395e-09
-1.009613983e-11
3.123406661e-09
-3.343731157e-12
2.189454962e-09
8.446529204e-10
-6.260304871e-12
1.60447198e-09
1.680720294e-12
-1.244607829e-11
2.516883381e-09
-1.844249982e-11
3.228398766e-09
-2.234372064e-11
3.685316669e-09
-2.263391864e-11
3.842248223e-09
-1.875096394e-11
3.662197401e-09
-1.159349717e-11
3.116249112e-09
-3.848808654e-12
2.181710268e-09
8.408043754e-10
-7.177581033e-12
1.60972004e-09
1.929515383e-12
-1.423162213e-11
2.523937496e-09
-2.101196583e-11
3.235179261e-09
-2.534474998e-11
3.689649375e-09
-2.554812972e-11
3.842451546e-09
-2.106233601e-11
3.657711449e-09
-1.296910471e-11
3.108155833e-09
-4.30613035e-12
2.173047353e-09
8.364983172e-10
-8.062301084e-12
1.615611439e-09
2.170906659e-12
-1.593426575e-11
2.531809543e-09
-2.342318735e-11
3.242668224e-09
-2.810356577e-11
3.694329515e-09
-2.816241003e-11
3.842510422e-09
-2.30800431e-11
3.652628888e-09
-1.413711792e-11
3.099213102e-09
-4.686807483e-12
2.163597068e-09
8.318114282e-10
-8.866976915e-12
1.622086156e-09
2.392285192e-12
-1.745901382e-11
2.540401714e-09
-2.553517772e-11
3.250744316e-09
-3.045114921e-11
3.699245295e-09
-3.031023181e-11
3.842369429e-09
-2.467195079e-11
3.646990585e-09
-1.502082298e-11
3.089562025e-09
-4.966194572e-12
2.153542608e-09
8.268451066e-10
-9.541845027e-12
1.629047804e-09
2.580244942e-12
-1.870867112e-11
2.549568698e-09
-2.720826398e-11
3.259243965e-09
-3.22273702e-11
3.704264267e-09
-3.184172745e-11
3.841983743e-09
-2.572698222e-11
3.64087577e-09
-1.555989327e-11
3.079394918e-09
-5.126570346e-12
2.143109462e-09
8.217185744e-10
-1.003868258e-11
1.636364989e-09
2.721563857e-12
-1.959177346e-11
2.559121837e-09
-2.83169216e-11
3.267969173e-09
-3.329623378e-11
3.709243501e-09
-3.263923651e-11
3.841326816e-09
-2.616585299e-11
3.63440254e-09
-1.571662407e-11
3.068945771e-09
-5.158405972e-12
2.132551117e-09
8.165603517e-10
-1.031532838e-11
1.643875949e-09
2.804379483e-12
-2.003150468e-11
2.568837885e-09
-2.876203517e-11
3.276699694e-09
-3.355990365e-11
3.714041426e-09
-3.262911891e-11
3.84039624e-09
-2.594923458e-11
3.627723154e-09
-1.547938676e-11
3.058475818e-09
-5.060861606e-12
2.122132376e-09
8.114995216e-10
-1.034004758e-11
1.651396468e-09
2.819481081e-12
-1.99739647e-11
2.578471603e-09
-2.848188921e-11
3.285207754e-09
-3.296956548e-11
3.718529251e-09
-3.178936719e-11
3.839216192e-09
-2.508098626e-11
3.621014897e-09
-1.48618841e-11
3.048256573e-09
-4.84153715e-12
2.112112053e-09
8.066578355e-10
-1.009535178e-11
1.658730368e-09
2.761412936e-12
-1.939474448e-11
2.587770865e-09
-2.746005992e-11
3.293273248e-09
-3.153115934e-11
3.722600462e-09
-3.015140272e-11
3.837836218e-09
-2.360507522e-11
3.614468236e-09
-1.389999247e-11
3.038551666e-09
-4.514805295e-12
2.102727007e-09
8.021430767e-10
-9.580595156e-12
1.665681763e-09
2.629194123e-12
-1.830270248e-11
2.59649296e-09
-2.572771332e-11
3.300698219e-09
-2.930434656e-11
3.726177103e-09
-2.77947307e-11
3.836326304e-09
-2.159916039e-11
3.60827255e-09
-1.264696404e-11
3.029599642e-09
-4.099353517e-12
2.094179606e-09
7.980439233e-10
-8.812679906e-12
1.672067848e-09
2.426624858e-12
-1.673980425e-11
2.604420172e-09
-2.336032017e-11
3.307318564e-09
-2.639514991e-11
3.729211872e-09
-2.48372201e-11
3.834768475e-09
-1.916607063e-11
3.6026015e-09
-1.116697059e-11
3.021600559e-09
-3.616767682e-12
2.086629437e-09
7.944272673e-10
-7.824688284e-12
1.677730517e-09
2.162070066e-12
-1.477692249e-11
2.611372467e-09
-2.046973444e-11
3.313011249e-09
-2.294415685e-11
3.731686217e-09
-2.142245344e-11
3.833247033e-09
-1.642216369e-11
3.59760129e-09
-9.528765876e-12
3.014707203e-09
-3.09004186e-12
2.080190482e-09
7.913372656e-10
-6.662678786e-12
1.682545526e-09
1.847678446e-12
-1.250650874e-11
2.617216277e-09
-1.719253136e-11
3.317697189e-09
-1.911226621e-11
3.733605915e-09
-1.770522092e-11
3.831840023e-09
-1.348675582e-11
3.593382896e-09
-7.801034973e-12
3.009021582e-09
-2.544472183e-12
2.074933916e-09
7.887928881e-10
-5.380984423e-12
1.68642828e-09
1.498207368e-12
-1.00333928e-11
2.621868678e-09
-1.3676485e-11
3.321340246e-09
-1.506573161e-11
3.734995157e-09
-1.383811609e-11
3.830612392e-09
-1.047273092e-11
3.590017517e-09
-6.045879418e-12
3.004594907e-09
-1.998397417e-12
2.070886874e-09
7.867945677e-10
-4.036793417e-12
1.689335545e-09
1.129546832e-12
-7.464617336e-12
2.625296526e-09
-1.006683438e-11
3.32394247e-09
-1.096145676e-11
3.73588982e-09
-9.95980391e-12
3.829610885e-09
-7.477946571e-12
3.587535733e-09
-4.316469391e-12
3.001433684e-09
-1.440601744e-12
2.068011326e-09
7.853540503e-10
-2.685185035e-12
1.691263602e-09
7.571408495e-13
-4.900734301e-12
2.627512068e-09
-6.495985427e-12
3.325537827e-09
-6.938271823e-12
3.736332223e-09
-6.189641569e-12
3.828862479e-09
-4.585704608e-12
3.585932056e-09
-2.650361948e-12
2.99949846e-09
-9.10798703e-13
2.066271793e-09
7.844433324e-10
-1.37475467e-12
1.692243506e-09
3.948130392e-13
-2.428265481e-12
2.628565612e-09
-3.074349857e-12
3.326184162e-09
-3.107479356e-12
3.736365491e-09
-2.618439763e-12
3.828373502e-09
-1.858741942e-12
3.585172536e-09
-1.048619494e-12
2.998688359e-09
-4.140791533e-13
2.065637261e-09
7.840293446e-10
-1.453284454e-13
1.692334728e-09
5.411257545e-14
-1.168445279e-13
2.628537251e-09
1.100129493e-13
3.325957559e-09
4.405811566e-13
3.736034968e-09
6.742985589e-13
3.828139649e-09
6.397811778e-13
3.58520698e-09
3.91730553e-13
2.998936629e-09
4.117009311e-14
2.065987987e-09
7.840705297e-10
9.732988734e-13
1.691617821e-09
-2.562966149e-13
1.981351213e-12
2.627529342e-09
2.992826456e-12
3.324946126e-09
3.645786195e-12
3.735382081e-09
3.642340749e-12
3.828142963e-09
2.905069178e-12
3.585944301e-09
1.659978766e-12
3.000181967e-09
4.537965582e-13
2.067194331e-09
7.845242837e-10
1.960719241e-12
1.690187807e-09
-5.306194333e-13
3.830925258e-12
2.62565924e-09
5.531691975e-12
3.323245323e-09
6.468468462e-12
3.734445469e-09
6.260277481e-12
3.828351234e-09
4.900285966e-12
3.58730443e-09
2.80337871e-12
3.00227892e-09
8.217758212e-13
2.06917594e-09
7.853460854e-10
2.807704532e-12
1.688146128e-09
-7.659861984e-13
5.418079509e-12
2.623048945e-09
7.712778379e-12
3.320950689e-09
8.89791183e-12
3.733260438e-09
8.520490528e-12
3.828728781e-09
6.629745496e-12
3.589195196e-09
3.809033298e-12
3.005099655e-09
1.144594635e-12
2.071840292e-09
7.86490882e-10
3.513487849e-12
1.685594628e-09
-9.619821275e-13
6.743078673e-12
2.619819441e-09
9.538544679e-12
3.318155288e-09
1.093901743e-11
3.731859908e-09
1.042814663e-11
3.82923967e-09
8.097708941e-12
3.591525657e-09
4.667960521e-12
3.008529599e-09
1.421795924e-12
2.075086515e-09
7.879129569e-10
4.083643074e-12
1.682631022e-09
-1.120053512e-12
7.816920987e-12
2.616086217e-09
1.102478634e-11
3.31494747e-09
1.260970953e-11
3.730274855e-09
1.199954695e-11
3.829849843e-09
9.31567263e-12
3.594209664e-09
5.38562684e-12
3.01245997e-09
1.654292237e-12
2.078818153e-09
7.895673897e-10
4.527915483e-12
1.679345972e-09
-1.242887201e-12
8.65775659e-12
2.611956415e-09
1.219599981e-11
3.311409259e-09
1.393653679e-11
3.728534296e-09
1.325845588e-11
3.830528014e-09
1.030097008e-11
3.59716726e-09
5.972318542e-12
3.016788914e-09
1.852964351e-12
2.082937799e-09
7.914203321e-10
4.858549728e-12
1.675821361e-09
-1.333931846e-12
9.28793123e-12
2.607527101e-09
1.308173906e-11
3.307615463e-09
1.495070549e-11
3.726665447e-09
1.423200004e-11
3.831246813e-09
1.107259868e-11
3.600326715e-09
6.437959018e-12
3.021423613e-09
2.013509716e-12
2.08736231e-09
7.934337656e-10
5.08896705e-12
1.672129422e-09
-1.396988311e-12
9.731743507e-12
2.602884383e-09
1.371403785e-11
3.303633196e-09
1.568592185e-11
3.724693699e-09
1.494962908e-11
3.831983129e-09
1.16514383e-11
3.60362491e-09
6.793686413e-12
3.02628122e-09
2.137179984e-12
2.092018753e-09
7.955708806e-10
5.232755693e-12
1.668332618e-09
-1.435927261e-12
1.001382572e-11
2.598103322e-09
1.412526604e-11
3.299521851e-09
1.617637578e-11
3.722642651e-09
1.544134056e-11
3.832718111e-09
1.20590161e-11
3.607007201e-09
7.05143184e-12
3.031288698e-09
2.229433673e-12
2.096840687e-09
7.978002663e-10
5.303033583e-12
1.664484035e-09
-1.4544624e-12
1.015802602e-11
2.593248347e-09
1.434670736e-11
3.295333268e-09
1.645530126e-11
3.720534113e-09
1.573636233e-11
3.833436971e-09
1.231640004e-11
3.610427136e-09
7.222609204e-12
3.036382514e-09
2.294133354e-12
2.101769072e-09
8.000943612e-10
5.312029478e-12
1.660628019e-09
-1.456018306e-12
1.018658229e-11
2.588373847e-09
1.44078211e-11
3.291112076e-09
1.655406804e-11
3.718387938e-09
1.586244884e-11
3.834128495e-09
1.24436901e-11
3.613845867e-09
7.318031536e-12
3.041508188e-09
2.334573203e-12
2.106752452e-09
8.024289022e-10
5.270813621e-12
1.656800928e-09
-1.443710828e-12
1.011973345e-11
2.583524971e-09
1.433567095e-11
3.286896161e-09
1.650163907e-11
3.716221944e-09
1.584543814e-11
3.834784595e-09
1.245968291e-11
3.617231528e-09
7.348048095e-12
3.046619832e-09
2.353848496e-12
2.11174669e-09
8.047827404e-10
5.189224451e-12
1.653032032e-09
-1.420334508e-12
9.975621613e-12
2.578738576e-09
1.41545573e-11
3.282717175e-09
1.632436374e-11
3.714051971e-09
1.570901684e-11
3.835399891e-09
1.238191021e-11
3.620558605e-09
7.322429727e-12
3.051679378e-09
2.354857853e-12
2.116714375e-09
8.071376229e-10
5.075876348e-12
1.649344421e-09
-1.388287794e-12
9.770210097e-12
2.574044203e-09
1.388605986e-11
3.278601169e-09
1.604592047e-11
3.711891958e-09
1.547468058e-11
3.83597122e-09
1.22263709e-11
3.623807051e-09
7.250105157e-12
3.056655646e-09
2.34029806e-12
2.1216242e-09
8.094779714e-10
4.938192515e-12
1.645755834e-09
-1.349612377e-12
9.517334603e-12
2.569464968e-09
1.354917958e-11
3.274569197e-09
1.568721758e-11
3.709753885e-09
1.516153767e-11
3.836497072e-09
1.200726555e-11
3.626961474e-09
7.139123233e-12
3.061523689e-09
2.312692914e-12
2.126450496e-09
8.117907388e-10
4.782482801e-12
1.642279424e-09
-1.306090876e-12
9.228912343e-12
2.565018435e-09
1.316028744e-11
3.27063781e-09
1.526637566e-11
3.707647812e-09
1.478628156e-11
3.836977213e-09
1.173721485e-11
3.630010567e-09
6.996727422e-12
3.066264139e-09
2.274396552e-12
2.131172715e-09
8.140651837e-10
4.614076941e-12
1.638924519e-09
-1.259224298e-12
8.915037077e-12
2.560717448e-09
1.27332457e-11
3.266819626e-09
1.479892836e-11
3.705582088e-09
1.436350772e-11
3.837412488e-09
1.142750347e-11
3.632946527e-09
6.829371691e-12
3.070862362e-09
2.227450703e-12
2.135774711e-09
8.162925733e-10
4.437405223e-12
1.635697267e-09
-1.210194123e-12
8.584056875e-12
2.556570858e-09
1.227971565e-11
3.26312394e-09
1.429815409e-11
3.703563558e-09
1.390589685e-11
3.837804558e-09
1.108795875e-11
3.635764363e-09
6.642716412e-12
3.075307689e-09
2.173522601e-12
2.14024408e-09
8.184659734e-10
4.256058092e-12
1.632601176e-09
-1.159954396e-12
8.242826251e-12
2.55258418e-09
1.180946826e-11
3.259557205e-09
1.377527615e-11
3.701597664e-09
1.342413104e-11
3.838155584e-09
1.072692438e-11
3.638461408e-09
6.441669785e-12
3.07959288e-09
2.114104373e-12
2.14457171e-09
8.205800581e-10
4.072928999e-12
1.629637606e-09
-1.109312943e-12
7.896981546e-12
2.5487602e-09
1.133059489e-11
3.256123464e-09
1.323961962e-11
3.699688554e-09
1.292708373e-11
3.838468054e-09
1.03514262e-11
3.641036972e-09
6.230457668e-12
3.083713674e-09
2.050681127e-12
2.148751399e-09
8.226308585e-10
3.890354552e-12
1.626806215e-09
-1.058920873e-12
7.551092447e-12
2.545099495e-09
1.084968877e-11
3.252824763e-09
1.269886372e-11
3.69783925e-09
1.242221156e-11
3.838744651e-09
9.967343452e-12
3.643491895e-09
6.01266247e-12
3.08766825e-09
1.984573518e-12
2.152779367e-09
8.246154977e-10
3.710185173e-12
1.624105338e-09
-1.00927551e-12
7.208785003e-12
2.541600872e-09
1.037199531e-11
3.249661505e-09
1.215927901e-11
3.696051838e-09
1.191572776e-11
3.838988137e-09
9.579599034e-12
3.645828125e-09
5.791232744e-12
3.091456677e-09
1.916719084e-12
2.156653785e-09
8.265321124e-10
3.533836717e-12
1.621532277e-09
-9.607635827e-13
6.872897206e-12
2.538261752e-09
9.90164618e-12
3.246632756e-09
1.162585277e-11
3.694327567e-09
1.141267092e-11
3.839201228e-09
9.19235604e-12
3.64804843e-09
5.56862802e-12
3.095080445e-09
1.847884193e-12
2.160374461e-09
8.283798593e-10
3.362357648e-12
1.619083574e-09
-9.136570003e-13
6.545550489e-12
2.535078518e-09
9.441754951e-12
3.243736563e-09
1.110226456e-11
3.692667042e-09
1.09166966e-11
3.839386707e-09
8.808526357e-12
3.650156424e-09
5.346422578e-12
3.098542418e-09
1.778305804e-12
2.163942567e-09
8.301581714e-10
3.196511224e-12
1.616755206e-09
-8.681403788e-13
6.228283392e-12
2.532046748e-09
8.994683802e-12
3.240970152e-09
1.059142376e-11
3.691070282e-09
1.043082934e-11
3.839547245e-09
8.430723153e-12
3.65215634e-09
5.126319826e-12
3.101846657e-09
1.709573627e-12
2.167359339e-09
8.318678362e-10
3.036863703e-12
1.614542717e-09
-8.243657672e-13
5.922252364e-12
2.529161355e-09
8.562335303e-12
3.238330043e-09
1.00958476e-11
3.689536747e-09
9.957771399e-12
3.839685316e-09
8.061374475e-12
3.654052727e-09
4.912101282e-12
3.104995856e-09
1.642206686e-12
2.170629208e-09
8.335100808e-10
2.883727666e-12
1.612441418e-09
-7.824293126e-13
5.628129398e-12
2.526416884e-09
8.145679231e-12
3.235812487e-09
9.616497507e-12
3.688065936e-09
9.50057045e-12
3.839801269e-09
7.705424497e-12
3.655847979e-09
4.703966061e-12
3.107997259e-09
1.575758575e-12
2.173757363e-09
8.350858271e-10
2.737426473e-12
1.610446395e-09
-7.424265591e-13
5.346673752e-12
2.523807525e-09
7.746041554e-12
3.233413155e-09
9.158501303e-12
3.686653521e-09
9.060601369e-12
3.839899149e-09
7.360532059e-12
3.65754808e-09
4.499987269e-12
3.110857741e-09
1.510683845e-12
2.176746706e-09
8.365965379e-10
2.597579812e-12
1.608553001e-09
-7.042277702e-13
5.079221542e-12
2.521325824e-09
7.367591134e-12
3.231124831e-09
8.721085425e-12
3.685300071e-09
8.637488812e-12
3.839982685e-09
7.025679869e-12
3.659159856e-09
4.302506636e-12
3.113580953e-09
1.447409005e-12
2.179601949e-09
8.380440351e-10
2.4667153e-12
1.606754678e-09
-6.684275224e-13
4.825416691e-12
2.518967147e-09
7.005968271e-12
3.228944313e-09
8.299927749e-12
3.684006139e-09
8.231366721e-12
3.840051255e-09
6.70496197e-12
3.6606863e-09
4.11272187e-12
3.116173349e-09
1.386354072e-12
2.182328448e-09
8.39430479e-10
2.342187846e-12
1.605046869e-09
-6.343857861e-13
4.583052872e-12
2.51672633e-09
6.658703242e-12
3.226868691e-09
7.898087251e-12
3.682766787e-09
7.843072834e-12
3.840106383e-09
6.397597546e-12
3.662131881e-09
3.930261955e-12
3.11864087e-09
1.327414493e-12
2.184931352e-09
8.407579299e-10
2.222358615e-12
1.603426261e-09
-6.017425585e-13
4.352779164e-12
2.514595928e-09
6.330145589e-12
3.224891374e-09
7.516519334e-12
3.681580439e-09
7.473226762e-12
3.84014978e-09
6.104028917e-12
3.66350116e-09
3.75547049e-12
3.120989564e-09
1.270775197e-12
2.18741607e-09
8.420287031e-10
2.1100848e-12
1.601887335e-09
-5.711608457e-13
4.135465956e-12
2.512570556e-09
6.019112662e-12
3.223007775e-09
7.154406157e-12
3.680445149e-09
7.121371054e-12
3.840182837e-09
5.824086678e-12
3.664798489e-09
3.588339462e-12
3.123225373e-09
1.216455969e-12
2.189788015e-09
8.432451577e-10
2.004061838e-12
1.600425545e-09
-5.422780913e-13
3.930076525e-12
2.510644577e-09
5.724720878e-12
3.221213153e-09
6.811082129e-12
3.679358781e-09
6.7871551e-12
3.84020677e-09
5.5576387e-12
3.666028052e-09
3.428922056e-12
3.125354107e-09
1.164496637e-12
2.192052519e-09
8.44409654e-10
1.904096159e-12
1.599036523e-09
-5.150683933e-13
3.736177121e-12
2.50881257e-09
5.446392986e-12
3.219502942e-09
6.48596571e-12
3.678319227e-09
6.47011665e-12
3.840222678e-09
5.304398983e-12
3.66719386e-09
3.277116517e-12
3.127381409e-09
1.114869305e-12
2.194214795e-09
8.455245236e-10
1.809862102e-12
1.597716112e-09
-4.894233605e-13
3.553200159e-12
2.507069323e-09
5.183441995e-12
3.217872711e-09
6.17834893e-12
3.677324364e-09
6.169617808e-12
3.840231503e-09
5.06389377e-12
3.668299691e-09
3.132649997e-12
3.129312699e-09
1.067517114e-12
2.196279927e-09
8.465920549e-10
1.721057707e-12
1.596460351e-09
-4.652639004e-13
3.380598135e-12
2.505409856e-09
4.935129012e-12
3.21631821e-09
5.88742303e-12
3.676372118e-09
5.884903723e-12
3.840234082e-09
4.835558692e-12
3.669349112e-09
2.995184805e-12
3.131153153e-09
1.022352353e-12
2.198252805e-09
8.476144471e-10
1.637360395e-12
1.595265525e-09
-4.425098272e-13
3.217794569e-12
2.503829485e-09
4.700619007e-12
3.214835417e-09
5.612243281e-12
3.675460519e-09
5.615121148e-12
3.840231215e-09
4.618770156e-12
3.670345514e-09
2.864367729e-12
3.132907664e-09
9.792408914e-13
2.200138025e-09
8.485937668e-10
1.558442041e-12
1.59412817e-09
-4.210684068e-13
3.06415826e-12
2.502323847e-09
4.478997209e-12
3.213420577e-09
5.351777206e-12
3.674587738e-09
5.359319205e-12
3.840223683e-09
4.412806701e-12
3.671292088e-09
2.739764486e-12
3.134580797e-09
9.380374073e-13
2.201939847e-09
8.495319162e-10
1.483954887e-12
1.593045074e-09
-4.008306508e-13
2.918978529e-12
2.500888884e-09
4.2692946e-12
3.212070216e-09
5.104929159e-12
3.673752112e-09
5.116430491e-12
3.840212222e-09
4.216795084e-12
3.672191794e-09
2.620868031e-12
3.136176781e-09
8.986035177e-13
2.203662196e-09
8.504306081e-10
1.413521493e-12
1.592013282e-09
-3.816994562e-13
2.781524065e-12
2.499520871e-09
4.070523356e-12
3.210781177e-09
4.870532103e-12
3.672952123e-09
4.885289715e-12
3.840197515e-09
4.029785018e-12
3.673047352e-09
2.507127628e-12
3.137699498e-09
8.607579168e-13
2.205308636e-09
8.512913759e-10
1.34675398e-12
1.591030127e-09
-3.635916674e-13
2.651109467e-12
2.498216465e-09
3.881653815e-12
3.209550618e-09
4.6473739e-12
3.672186421e-09
4.664705548e-12
3.840180202e-09
3.850841852e-12
3.67386124e-09
2.397948539e-12
3.139152436e-09
8.242773587e-13
2.20688237e-09
8.521156055e-10
1.283283405e-12
1.590093236e-09
-3.464026148e-13
2.527032808e-12
2.496972704e-09
3.701630775e-12
3.208376011e-09
4.434227734e-12
3.671453824e-09
4.453506854e-12
3.840160899e-09
3.679034552e-12
3.674635693e-09
2.292764003e-12
3.140538702e-09
7.889525174e-13
2.208386225e-09
8.529045173e-10
1.222747959e-12
1.589200497e-09
-3.300092807e-13
2.408543571e-12
2.495786936e-09
3.529400536e-12
3.207255122e-09
4.229884329e-12
3.670753324e-09
4.250536667e-12
3.840140193e-09
3.513458429e-12
3.675372734e-09
2.191058165e-12
3.141861064e-09
7.546302797e-13
2.209822669e-09
8.536591291e-10
1.164780843e-12
1.588350034e-09
-3.143113533e-13
2.294910809e-12
2.494656812e-09
3.36397453e-12
3.206186002e-09
4.033202489e-12
3.670084067e-09
4.054713002e-12
3.840118649e-09
3.353264948e-12
3.676074169e-09
2.092345392e-12
3.143121941e-09
7.211617425e-13
2.211193802e-09
8.543802696e-10
1.10904362e-12
1.587540215e-09
-2.992292354e-13
2.185504313e-12
2.493580309e-09
3.204472525e-12
3.205166985e-09
3.843172181e-12
3.669445339e-09
3.865058566e-12
3.840096771e-09
3.197665042e-12
3.676741557e-09
1.996135133e-12
3.144323416e-09
6.884096156e-13
2.21250144e-09
8.550686472e-10
1.055244852e-12
1.586769641e-09
-2.846833685e-13
2.079789843e-12
2.492555695e-09
3.050118156e-12
3.204196642e-09
3.658910648e-12
3.668836533e-09
3.680699996e-12
3.840074989e-09
3.045977002e-12
3.677376241e-09
1.90203358e-12
3.145467289e-09
6.562493557e-13
2.213747161e-09
8.557248974e-10
1.003132237e-12
1.586037101e-09
-2.706018881e-13
1.977299113e-12
2.491581468e-09
2.900230371e-12
3.203273731e-09
3.479622353e-12
3.668257111e-09
3.500895566e-12
3.840053684e-09
2.897672717e-12
3.677979417e-09
1.80978251e-12
3.14655515e-09
6.246106492e-13
2.214932334e-09
8.563495629e-10