/*--------------------------------*- C++ -*----------------------------------*\
| =========                 |                                                 |
| \\      /  F ield         | OpenFOAM: The Open Source CFD Toolbox           |
|  \\    /   O peration     | Version:  2212                                  |
|   \\  /    A nd           | Website:  www.openfoam.com                      |
|    \\/     M anipulation  |                                                 |
\*---------------------------------------------------------------------------*/
FoamFile
{
    version     2.0;
    format      ascii;
    arch        "LSB;label=32;scalar=64";
    class       volScalarField;
    location    "30.00000000";
    object      Qdot;
}
// * * * * * * * * * * * * * * * * * * * * * * * * * * * * * * * * * * * * * //

dimensions      [1 -1 -3 0 0 0 0];

internalField   nonuniform List<scalar> 
3000
(
-4.589932482e-15
-4.584269554e-15
-4.573294407e-15
-4.552909321e-15
-4.514806266e-15
-4.44167187e-15
-4.296208171e-15
-3.996514613e-15
-3.363886278e-15
-4.571878651e-15
-4.558867968e-15
-4.533993718e-15
-4.489683549e-15
-4.413465757e-15
-4.28588878e-15
-4.078668607e-15
-3.756595476e-15
-3.292639169e-15
-4.604527504e-15
-4.597610293e-15
-4.582449106e-15
-4.553250395e-15
-4.502185967e-15
-4.419836481e-15
-4.296290281e-15
-4.12253504e-15
-3.883527642e-15
-4.742520225e-15
-4.767683981e-15
-4.80508207e-15
-4.854993946e-15
-4.91877515e-15
-4.998174289e-15
-5.091106079e-15
-5.17764667e-15
-5.178310967e-15
-5.064094653e-15
-5.164102339e-15
-5.323210229e-15
-5.552633352e-15
-5.867174735e-15
-6.27883694e-15
-6.778196302e-15
-7.293254444e-15
-7.617218537e-15
-5.692714802e-15
-5.938153799e-15
-6.333551067e-15
-6.90937754e-15
-7.70147385e-15
-8.732035321e-15
-9.964650819e-15
-1.122137164e-14
-1.207543377e-14
-6.835930931e-15
-7.346633122e-15
-8.173992897e-15
-9.382400988e-15
-1.104087706e-14
-1.317818211e-14
-1.569119732e-14
-1.820060747e-14
-1.993496009e-14
-8.848888159e-15
-9.831356763e-15
-1.142952071e-14
-1.376800525e-14
-1.697051448e-14
-2.106722806e-14
-2.582474225e-14
-3.050762681e-14
-3.37517403e-14
-1.234432164e-14
-1.415716593e-14
-1.711619354e-14
-2.145292704e-14
-2.738352327e-14
-3.493122062e-14
-4.36238736e-14
-5.210208168e-14
-5.797675323e-14
-1.838097976e-14
-2.164794238e-14
-2.69958347e-14
-3.484510067e-14
-4.55702217e-14
-5.917273431e-14
-7.475270796e-14
-8.985904291e-14
-1.00329548e-13
-2.87913768e-14
-3.459780918e-14
-4.412490183e-14
-5.812528572e-14
-7.724599836e-14
-1.014403465e-13
-1.290514679e-13
-1.557236073e-13
-1.742288006e-13
-4.675115457e-14
-5.698566018e-14
-7.380883499e-14
-9.855476759e-14
-1.32340178e-13
-1.750215867e-13
-2.236126663e-13
-2.704451087e-13
-3.02994547e-13
-7.777159423e-14
-9.572265415e-14
-1.252705529e-13
-1.687629372e-13
-2.281221341e-13
-3.030112978e-13
-3.881141508e-13
-4.70034472e-13
-5.27151179e-13
-1.31429162e-13
-1.628306402e-13
-2.145726436e-13
-2.907662518e-13
-3.94702749e-13
-5.256266086e-13
-6.740781645e-13
-8.168295885e-13
-9.17178579e-13
-2.243723903e-13
-2.792396405e-13
-3.697359057e-13
-5.030611625e-13
-6.848361954e-13
-9.13305596e-13
-1.171124618e-12
-1.41754332e-12
-1.59628507e-12
-3.855172003e-13
-4.813522394e-13
-6.396151937e-13
-8.730503142e-13
-1.191528481e-12
-1.591341782e-12
-2.038389703e-12
-2.444912762e-12
-2.785046194e-12
-6.649654645e-13
-8.322477417e-13
-1.108909849e-12
-1.517868138e-12
-2.077959984e-12
-2.787264708e-12
-3.60023734e-12
-4.408091765e-12
-4.92071317e-12
-1.14936579e-12
-1.440829411e-12
-1.923229571e-12
-2.636764968e-12
-3.614152833e-12
-4.850194387e-12
-6.257028115e-12
-7.614351553e-12
-8.548069846e-12
-1.988816118e-12
-2.495806695e-12
-3.335215179e-12
-4.576987544e-12
-6.277469882e-12
-8.425931654e-12
-1.086686882e-11
-1.321424689e-11
-1.484148041e-11
-3.443749902e-12
-4.324853051e-12
-5.784115127e-12
-7.943366281e-12
-1.090056817e-11
-1.463685293e-11
-1.888198818e-11
-2.29649954e-11
-2.577449543e-11
-5.966553517e-12
-7.497509662e-12
-1.003402644e-11
-1.378888042e-11
-1.893366125e-11
-2.543708928e-11
-3.283066931e-11
-3.994751399e-11
-4.477594527e-11
-1.034386682e-11
-1.300471543e-11
-1.741543358e-11
-2.394869436e-11
-3.290677609e-11
-4.423991719e-11
-5.713662991e-11
-6.95648047e-11
-7.801151053e-11
-1.794530173e-11
-2.257300038e-11
-3.024879813e-11
-4.162764601e-11
-5.724542354e-11
-7.702766805e-11
-9.957102252e-11
-1.213323845e-10
-1.361609423e-10
-3.115943659e-11
-3.92161638e-11
-5.259019742e-11
-7.243792736e-11
-9.971748458e-11
-1.343305281e-10
-1.738567028e-10
-2.121099045e-10
-2.382824877e-10
-5.416116711e-11
-6.820841679e-11
-9.155102639e-11
-1.262438299e-10
-1.740195669e-10
-2.347868692e-10
-3.043890678e-10
-3.720072043e-10
-4.185609128e-10
-9.426856764e-11
-1.188100155e-10
-1.596481122e-10
-2.204654903e-10
-3.044418217e-10
-4.116190363e-10
-5.349042689e-10
-6.553371674e-10
-7.390239873e-10
-1.64355969e-10
-2.073469756e-10
-2.79020165e-10
-3.860483937e-10
-5.343715612e-10
-7.245608914e-10
-9.446274642e-10
-1.161261515e-09
-1.313786463e-09
-2.871763742e-10
-3.627516653e-10
-4.890628359e-10
-6.783655818e-10
-9.419865151e-10
-1.282136942e-09
-1.678835541e-09
-2.073398255e-09
-2.356169602e-09
-5.031696319e-10
-6.366234361e-10
-8.603994652e-10
-1.197368101e-09
-1.669614951e-09
-2.283922025e-09
-3.007691685e-09
-3.737216244e-09
-4.272100197e-09
-8.847083901e-10
-1.121694737e-09
-1.520752602e-09
-2.125330324e-09
-2.979487454e-09
-4.102018624e-09
-5.362341583e-09
-6.913072089e-09
-7.947856799e-09
-1.562388168e-09
-1.986141054e-09
-2.703493908e-09
-3.798587929e-09
-5.282116353e-09
-7.539780143e-09
-1.00595856e-08
-1.269273854e-08
-1.466383803e-08
-2.774173269e-09
-3.538198045e-09
-4.760907298e-09
-6.944964705e-09
-9.841995953e-09
-1.367540289e-08
-1.850150929e-08
-1.464931902e-07
-1.506544282e-07
-4.879417453e-09
-6.270494723e-09
-8.837715511e-09
-1.255948839e-08
-1.79312416e-08
-1.482531827e-07
1.185605809e-07
1.081469551e-07
9.94058461e-08
-9.033144945e-09
-1.159466715e-08
-1.595546456e-08
-1.457951014e-07
1.200166628e-07
1.053316752e-07
-3.635232253e-08
2.187254843e-07
7.764480966e-08
-1.627068477e-08
-1.439619039e-07
1.239049068e-07
1.104948342e-07
-3.253239326e-08
2.145678601e-07
5.350645299e-08
1.629765924e-07
2.767307774e-07
1.234110915e-07
1.142761803e-07
9.824449329e-08
-5.062800282e-08
6.263896306e-08
3.457431544e-08
-1.348647224e-08
2.00265528e-07
1.441757098e-07
9.749960016e-08
-4.260808551e-08
7.956128763e-08
1.812616864e-07
1.309604008e-07
1.945595297e-07
3.670994575e-07
3.827741737e-07
6.820256646e-07
7.848806224e-08
-7.832256745e-08
1.33353162e-08
9.393138716e-08
2.656307221e-07
3.831794103e-07
5.853681359e-07
1.01411367e-06
1.174141413e-06
1.185277994e-08
2.513078903e-07
3.113691551e-07
3.147030888e-07
5.237802123e-07
7.626916511e-07
1.273845582e-06
1.808289902e-06
2.342550017e-06
3.093644985e-07
2.348162163e-07
3.499643898e-07
7.722332402e-07
1.035785623e-06
1.720412452e-06
2.815063564e-06
3.793381494e-06
4.882558949e-06
3.463201412e-07
5.898960282e-07
8.338446735e-07
1.516962526e-06
2.383265769e-06
3.548244143e-06
5.591527986e-06
8.183678269e-06
1.064645662e-05
8.240808216e-07
1.168801386e-06
1.879493912e-06
3.050192636e-06
4.813099943e-06
7.77809108e-06
1.179519092e-05
1.719157799e-05
2.274120511e-05
1.722363326e-06
2.50170943e-06
3.990883918e-06
6.236894571e-06
1.014930587e-05
1.639137838e-05
2.514827287e-05
3.629739514e-05
4.776862235e-05
4.048086784e-06
5.511025601e-06
8.175682744e-06
1.320719612e-05
2.145825533e-05
3.460663916e-05
5.308438997e-05
7.606797269e-05
9.967306687e-05
8.590669098e-06
1.157216817e-05
1.769850422e-05
2.83675494e-05
4.587732748e-05
7.300785514e-05
0.0001110438042
0.0001576906708
0.0002049349029
1.860444197e-05
2.525267124e-05
3.820184034e-05
6.088095793e-05
9.804695993e-05
0.0001540453628
0.0002309725355
0.0003236032338
0.0004165706999
4.089936893e-05
5.565373305e-05
8.365245393e-05
0.0001318178635
0.0002090884147
0.000324051665
0.0004778319263
0.0006596588452
0.0008413516711
9.099749949e-05
0.0001232367651
0.0001834801516
0.0002856135428
0.0004469217357
0.0006809550405
0.0009879487276
0.001345246487
0.001705761148
0.0002032697796
0.0002737456173
0.0004033005105
0.0006202120283
0.0009563995777
0.001435161702
0.002054678019
0.002776054916
0.003528154095
0.0004535636925
0.0006060586359
0.0008845913744
0.001344772236
0.002049155613
0.003044604598
0.00433786734
0.005884334514
0.007517769061
0.001002207116
0.001330592342
0.001925875519
0.002902535805
0.004394597993
0.006524464971
0.009364322244
0.01281890795
0.01683358282
0.002179039993
0.002878034642
0.004141298095
0.006216983537
0.00942730018
0.0141235442
0.0205324415
0.02901927199
0.03958488592
0.004638002209
0.006106365263
0.008767644472
0.01319263967
0.02016176409
0.0305779764
0.04585075438
0.06747396332
0.09578331289
0.009648456511
0.01270049463
0.01828924301
0.02764815179
0.04266006225
0.06635950584
0.1030434903
0.1575549323
0.2307961597
0.0197075047
0.0260321093
0.03752414749
0.05717729398
0.08988075429
0.1435029288
0.2294274632
0.3594556056
0.5341202698
0.03974358686
0.05257856549
0.0764440352
0.1180242976
0.1888383771
0.3072369541
0.497704598
0.7808485242
1.151098704
0.08031358464
0.1068995493
0.1567907318
0.2447042092
0.3954569724
0.6455079731
1.035219774
1.585127352
2.272902498
0.1657010414
0.2213486151
0.3259425417
0.5095923096
0.819200601
1.312839955
2.034723053
2.984703883
4.13194541
0.3510792279
0.4672938395
0.6832106215
1.053261747
1.650126927
2.539690779
3.742926676
5.243617735
7.058496951
0.7547724916
0.9901968933
1.415590286
2.111707443
3.161761284
4.609128902
6.453790316
8.732596978
11.57512163
1.599176412
2.044948488
2.816867113
4.004755341
5.67253249
7.842569898
10.56771792
14.0216658
18.46538057
3.222363362
3.98642521
5.247530625
7.078997695
9.529361134
12.67049856
16.69734132
21.95406744
28.81699601
6.011434217
7.190073927
9.065392771
11.70294882
15.19722603
19.75208807
25.74688034
33.69527632
44.05937506
10.31866509
12.00923067
14.66226373
18.3857734
23.38924831
30.05491396
38.96029134
50.7729324
65.99364543
16.52132891
18.88765684
22.61459237
27.90748579
35.13839004
44.89664922
57.95607067
75.1068267
96.81295958
25.18938926
28.51331319
33.79182277
41.37129514
51.82776772
65.96684668
84.74792527
109.0255238
139.1022091
37.18281666
41.87898727
49.38309688
60.22179745
75.19242136
95.33106771
121.7459674
155.2533939
195.8113722
53.66613084
60.29046359
70.89723268
86.22044486
107.3071729
135.4102892
171.718608
216.8592154
270.1919665
76.10063162
85.34184635
100.12917
121.4292945
150.5462778
188.9173341
237.7089051
297.1547928
365.6846353
106.2134813
118.8955175
139.1387697
168.1573011
207.506173
258.7516384
322.900303
399.5367262
485.7491341
145.9903258
163.0552152
190.1993246
228.8864957
280.8999879
347.8572184
430.4371278
527.2756164
633.6395368
197.6463329
220.1258468
255.7385737
306.1851273
373.4355424
459.0598323
563.2192642
683.2747929
812.1474344
263.5969516
292.5715542
338.2772743
402.6198959
487.6947908
594.9086635
723.7047585
869.840066
1023.358393
346.4248785
382.9724089
440.3707787
520.6782131
626.033531
757.5517636
913.7617875
1088.513333
1268.480616
448.8375532
493.9762227
564.5538021
662.7063245
790.5152367
948.6695287
1134.606023
1340.016667
1547.797902
573.6056221
628.2377471
713.2835772
830.8626469
982.8837046
1169.477096
1386.840649
1624.328865
1860.764394
723.4743679
788.3383392
888.8757382
1027.081572
1204.569783
1420.790056
1670.593981
1940.900623
2206.339123
901.0492308
976.687018
1093.432539
1253.043772
1456.721152
1703.130732
1985.713084
2288.971589
2583.13344
1108.67077
1195.416447
1328.772977
1510.155504
1740.247505
2016.857821
2332.05373
2667.798134
2990.609587
1348.30708
1446.298511
1596.383412
1799.5458
2055.924085
2362.347507
2709.51421
3077.795185
3431.414829
1621.495659
1730.707986
1897.411609
2122.151211
2404.27569
2739.886673
3119.093258
3521.774771
3902.18531
1929.359949
2049.715733
2232.792035
2478.608853
2785.991587
3151.245598
3563.913217
3996.496127
4401.629142
2272.78421
2403.990909
2603.157396
2869.737687
3203.728587
3599.193289
4040.979684
4501.10983
4928.724255
2652.379917
2794.367773
3009.932657
3299.520085
3659.034907
4081.040856
4549.708452
5034.928465
5482.581793
3070.555074
3224.635214
3457.489776
3767.161155
4149.682692
4596.304434
5089.568554
5597.257747
6062.287091
3530.01909
3694.637283
3942.675943
4271.223883
4675.207082
5144.486496
5659.917422
6187.24042
6666.744477
4028.095607
4202.686256
4465.037377
4811.267686
5235.098534
5724.917208
6259.856541
6803.714242
7294.535443
4564.391367
4748.392687
5024.153215
5386.757289
5828.631537
6336.613616
6888.102084
7445.087541
7943.798399
5138.530202
5331.302269
5619.431425
5996.889561
6454.721646
6978.155401
7542.873842
8109.239318
8612.138816
5749.925169
5950.695262
6249.943368
6640.450039
7111.801756
7647.57991
8221.80926
8793.451824
9296.577519
6397.604818
6605.426495
6914.281799
7315.689433
7797.719521
8342.303377
8921.910342
9494.382227
9993.542235
7080.065731
7293.78899
7610.440702
8020.224242
8509.663437
9059.076284
9639.529769
10208.07718
10698.90376
7795.150064
8013.40389
8335.723912
8750.969983
9244.125754
9793.979109
10370.39951
10930.03025
11408.05405
8539.956158
8761.145482
9086.691527
9504.115025
9996.908038
10542.46127
11109.70131
11655.27846
12116.0198
9310.791427
9533.109807
9859.151214
10275.13988
10763.17135
11299.42194
11852.17452
12378.53037
12817.60234
10103.17403
10324.63201
10648.19754
11058.88256
11537.52867
12059.32747
12592.25341
13094.31625
13507.53266
10911.88537
11130.35308
11448.29794
11849.64606
12314.17331
12816.35692
13324.22388
13797.1489
14180.63023
11731.07069
11944.33185
12253.41948
12641.34049
13087.03393
13564.56519
14042.38831
14481.68413
14831.95475
12554.3806
12760.19427
13057.18724
13427.64939
13849.9451
14298.05236
14741.22768
15142.87063
15456.94152
13375.1431
13571.30896
13853.06285
14202.20845
14596.82175
15011.12821
15415.55103
15776.0809
16051.51382
14186.55379
14370.9765
14634.53065
14958.78482
15321.82654
15698.46252
16060.6244
16377.21729
16612.16768
14981.87111
15152.62006
15395.27989
15691.44611
16019.5207
16355.21342
16672.27406
16942.78972
17136.02752
15754.60458
15909.96552
16129.37203
16394.71003
16684.99141
16977.12896
17246.96075
17469.96405
17620.87309
16498.68545
16637.20176
16831.38531
17063.6682
17313.95086
17560.61913
17781.82464
17956.58238
18065.14012
17208.61175
17329.11387
17496.53056
17694.08
17902.80504
18102.79832
18274.70235
18401.15776
18467.89832
17879.56244
17981.18497
18120.73538
18282.43516
18448.69234
18601.49964
18724.11881
18802.84743
18828.81118
18507.47809
18589.66498
18700.69612
18825.98559
18949.4938
19055.26425
19129.25802
19161.40887
19148.08218
19089.10802
19151.60675
19233.89897
19322.74893
19403.81866
19463.30978
19489.91712
19477.14322
19426.39204
19622.0259
19664.87232
19718.6134
19771.48757
19810.96871
19825.48193
19806.448
19750.83046
19664.83088
20104.61694
20128.11245
20153.86169
20171.66717
20170.8865
20142.19407
20079.69102
19983.66033
19864.82916
20536.04144
20540.72449
20539.36951
20523.39959
20484.09168
20414.35897
20310.90464
20177.16224
20028.08995
20916.17931
20902.79314
20875.50205
20827.37483
20751.60977
20643.31633
20501.69394
20333.1369
20156.52485
21245.56069
21215.01905
21163.19053
21084.78594
20974.8971
20830.75954
20653.94101
20453.59168
20252.19492
21525.28732
21478.63971
21403.85304
21297.25099
21155.76517
20978.66416
20769.73896
20540.68114
20317.25777
21756.94891
21695.34672
21599.31361
21466.73505
21296.30711
21089.22015
20851.33111
20596.65361
20353.92114
21942.53829
21867.20282
21751.72226
21595.47476
21398.82808
21164.76935
20901.0562
20623.80426
20364.4031
22084.36835
21996.56146
21863.47874
21685.90754
21465.78125
21207.7491
20921.30023
20624.43495
20350.89878
22184.99313
22085.99105
21937.16151
21740.60666
21499.71009
21220.64257
20914.45489
20600.82041
20315.5532
22247.13481
22138.20548
21975.46322
21762.22321
21503.19772
21205.93596
20882.88271
20555.18064
20260.43974
22273.61779
22156.00173
21981.13357
21753.43521
21478.82323
21166.08242
20828.88837
20489.65902
20187.54362
22267.31022
22142.20505
21956.9296
21716.90422
21429.12513
21103.47247
20754.69591
20406.30548
20098.74986
22231.07178
22099.62096
21905.57303
21655.23873
21356.57125
21020.41046
20662.43119
20307.06425
19995.83516
22167.70151
22030.99019
21829.71281
21570.9637
21263.53467
20919.09637
20554.10912
20193.76561
19880.46295
22079.85834
21938.93108
21731.88634
21466.49309
21152.27385
20801.61189
20431.62453
20068.12069
19754.18115
21967.40316
21824.90253
21614.46695
21344.10342
21024.91701
20669.91075
20296.74679
19931.71927
19618.4221
21834.79637
21690.1324
21478.27544
21205.91248
20883.45118
20525.81299
20151.11746
19786.02991
19474.50438
21685.49432
21539.31821
21325.64711
21053.38058
20729.72197
20371.00418
19996.25087
19632.40209
19323.63598
21521.77411
21374.75013
21160.12351
20887.26683
20565.44338
20207.03845
19833.53695
19472.06974
19166.91855
21345.71016
21198.43847
20983.69573
20711.12252
20391.68592
20035.33722
19664.24435
19306.15587
19005.3525
21159.19345
21012.20826
20798.09434
20526.68694
20209.52809
19857.2043
19489.52853
19135.67883
18839.84287
20963.94546
20817.71817
20604.89116
20335.43452
20021.02856
19673.843
19310.43924
18961.55837
18671.20522
20761.52764
20616.46971
20405.5033
20138.68057
19827.76312
19486.27015
19127.91389
18784.61841
18500.17048
20553.35005
20409.8164
20201.20378
19937.59762
19630.78313
19294.88872
18942.78035
18605.59327
18327.39144
20340.68044
20198.97416
19993.13546
19733.2408
19431.05069
19100.69716
18755.79972
18425.14362
18153.45185
20124.65317
19985.03023
19782.31993
19526.55474
19229.43383
18904.99387
18567.65834
18243.85891
17978.87094
19906.2781
19768.9517
19569.66411
19318.37373
19026.68641
18708.51089
18378.94962
18062.25654
17804.10647
19686.44956
19551.59412
19355.96891
19109.43253
18823.46989
18511.83358
18190.19316
17880.79015
17629.56056
19465.95533
19333.71052
19141.9384
18900.37587
18620.3634
18315.47342
18001.84163
17699.8556
17455.58491
19245.48572
19115.96027
18928.18837
18691.76672
18417.87112
18119.87236
17814.15848
17519.79441
17282.48526
19025.64219
18898.91755
18715.25462
18484.09453
18216.43149
17925.41603
17627.466
17340.90523
17110.5282
18806.94569
18683.07937
18503.60067
18277.78283
18016.42527
17732.44534
17442.17975
17163.45343
16939.94666
18589.84443
18468.87305
18293.62461
18073.19464
17818.17719
17541.24523
17258.44354
16987.65981
16770.93858
18374.72119
18256.66326
18085.66578
17870.6391
17621.96386
17352.06049
17076.70454
16813.71479
16603.6732
18161.90016
18046.75858
17880.01101
17670.37725
17428.01918
17165.10045
16897.08306
16641.78177
16438.29422
17951.65327
17839.41752
17676.90011
17472.62658
17236.53637
16980.53313
16719.76242
16471.99112
16274.91971
17744.20598
17634.85412
17476.53122
17277.56624
17047.67397
16798.4963
16544.86098
16304.44992
16113.6466
17539.7426
17433.24309
17279.06563
17085.3416
16861.56019
16619.10116
16372.47449
16139.24479
15954.55354
17338.41116
17234.7244
17084.63217
16896.06827
16678.29655
16442.43534
16202.67821
15976.44407
15797.70289
17140.32776
17039.40755
16893.33116
16709.83576
16497.96106
16268.56569
16035.52914
15816.09995
15643.14262
16945.58053
16847.37526
16705.2379
16526.71064
16320.61109
16097.54077
15871.06828
15658.25036
15490.908
16754.23316
16658.68692
16520.40583
16346.73947
16146.28605
15929.39322
15709.32259
15502.92072
15341.02309
16566.32808
16473.38159
16338.86942
16169.95143
15975.00966
15764.14175
15550.30681
15350.12552
15193.50218
16381.88931
16291.48072
16160.64669
15996.36059
15806.79207
15601.79302
15394.02509
15199.86975
15048.35099
16200.92495
16112.99059
15985.74144
15825.96803
15641.6317
15442.34332
15240.47241
15052.15014
14905.56779
16023.42948
15937.90443
15814.14527
15658.76364
15479.51694
15285.77998
15089.63587
14906.95631
14765.1444
15849.3857
15766.20431
15645.8394
15494.72779
15320.42758
15132.08271
14941.49583
14764.27178
14627.06709
15678.7665
15597.86287
15480.79619
15333.83275
15164.33612
14981.22473
14796.02694
14624.07482
14491.31734
15511.53645
15432.84476
15318.98056
15176.04396
15011.2089
14833.17382
14653.19897
14486.33927
14357.87255
15347.6531
15271.10798
15160.35119
15021.32116
14861.00716
14687.89315
14512.97766
14351.03525
14226.70667
15187.06823
15112.60497
15004.86162
14869.61938
14713.68785
14545.34214
14375.32541
14218.12973
14097.79072
15029.72889
14957.28368
14852.46115
14720.88978
14569.20448
14405.47711
14240.20182
14087.58713
13971.09333
14875.57829
14805.0884
14703.09573
14575.08044
14427.50777
14268.25188
14107.56431
13959.36975
13846.5811
14724.55662
14655.96056
14556.70857
14432.13696
14288.54622
14133.61833
13977.36853
13833.4382
13724.21904
14576.60174
14509.83936
14413.24086
14292.00309
14152.26666
14001.52683
13849.56878
13709.75181
13603.97087
14431.64979
14366.66235
14272.63228
14154.62121
14018.6147
13871.92666
13724.1184
13588.26889
13485.79929
14289.63569
14226.36597
14134.82142
14019.93274
13887.53511
13744.76636
13600.97003
13468.94705
13369.66631
14150.49361
14088.88591
13999.74627
13887.87852
13758.97213
13619.99402
13480.0759
13351.74342
13255.53338
14014.15733
13954.15755
13867.34448
13758.39916
13632.86981
13497.55753
13361.38807
13236.6149
13143.36167
13880.56059
13822.11621
13737.55371
13631.43526
13509.17224
13377.40485
13244.85862
13123.51832
13033.1122
13749.63735
13692.69746
13610.31186
13506.92767
13387.82372
13259.48415
13130.43985
13012.41061
12924.746
13621.32205
13565.83733
13485.55729
13384.8177
13268.76902
13143.744
13018.08436
12903.24893
12818.22424
13495.54975
13441.47249
13363.22898
13265.04726
13151.95345
13030.13348
12907.74526
12795.9908
12713.50834
13372.25635
13319.54041
13243.26668
13147.55898
13037.32301
12918.60234
12799.37623
12690.59419
12610.56008
13251.37865
13199.97944
13125.61101
13032.29633
12924.82451
12809.10103
12692.93158
12587.01762
12509.34167
13132.85445
13082.72891
13010.20353
12919.20368
12814.40557
12701.58078
12588.36633
12485.22018
12409.81581
13016.62257
12967.72916
12896.98675
12808.22629
12706.01467
12595.99361
12485.63622
12385.16156
12311.9457
12902.62283
12854.92148
12785.90409
12699.3103
12599.6011
12492.29226
12384.69767
12286.80204
12215.69503
12790.79593
12744.24802
12676.89981
12592.4026
12495.11483
12390.43014
12285.50763
12190.10234
12121.02784
12681.0833
12635.65159
12569.91876
12487.45062
12392.50631
12290.36102
12188.02343
12095.02339
12027.90835
12573.42673
12529.07535
12464.90607
12384.40198
12291.72609
12192.03872
12092.20231
12001.52595
11936.3005
12467.76796
12424.46232
12361.80663
12283.20397
12192.72428
12095.41646
11998.00086
11909.56994
11846.16731
12364.04792
12321.75465
12260.56433
12183.80274
12095.44967
12000.44605
11905.37407
11819.11343
11757.46985
12262.20586
12220.89264
12161.12108
12086.14219
11999.8486
11907.07653
11814.27396
11730.1111
11670.16565
12162.17801
12121.81343
12063.41534
11990.16249
11905.86327
11815.25251
11724.64772
11642.51223
11584.20652
12063.89591
12024.44922
11967.38026
11895.79807
11813.42966
11724.91172
11636.43512
11556.25772
11499.53548
11967.28428
11928.72504
11872.94132
11802.975
11722.4746
11635.98199
11549.56514
11471.27629
11416.0827
11872.25826
11834.55587
11780.0133
11711.60778
11632.91229
11548.37729
11463.95166
11387.47963
11333.76028
11778.72018
11741.84328
11688.49658
11621.59532
11544.63994
11461.99296
11379.48817
11304.75627
11252.45576
11686.55559
11650.47121
11598.27279
11532.81619
11457.53249
11376.69994
11296.04144
11222.96437
11172.02433
11595.62869
11560.30131
11509.1997
11445.12314
11371.43665
11292.33814
11213.4441
11141.92321
11092.27973
11505.77717
11471.16742
11421.10544
11358.33681
11286.16401
11208.70885
11131.48638
11061.40375
11012.98412
11416.80641
11382.86963
11333.78215
11272.23891
11201.48363
11125.56662
11049.90707
10981.11826
10933.837
11328.48331
11295.16778
11246.9791
11186.56482
11117.11394
11042.6104
10968.38383
10900.70951
10854.46363
11240.52961
11207.7746
11160.39547
11100.99585
11032.71432
10959.47421
10886.52299
10819.73939
10774.4031
11152.61508
11120.34858
11073.67279
11015.15095
10947.87579
10875.71623
10803.79788
10737.67647
10693.09597
11064.3504
11032.48668
10986.3872
10928.57831
10862.1107
10790.80231
10719.32318
10653.87901
10609.87159
10975.27999
10943.71695
10898.042
10840.74822
10774.8483
10704.1137
10632.5076
10567.60166
10523.9434
10884.87455
10853.49073
10808.05922
10751.04345
10685.42297
10614.91477
10542.68372
10477.98377
10434.39894
10792.52299
10761.17408
10715.7696
10658.74553
10593.04797
10521.66427
10448.91207
10384.02896
10340.18681
10697.52325
10666.03773
10620.40182
10563.02571
10496.80067
10423.53661
10350.13384
10284.60552
10240.11043
10599.06968
10567.24208
10521.06106
10462.90407
10394.28202
10319.75732
10245.16191
10178.43985
10132.82022
10496.23243
10463.81335
10416.68777
10355.99594
10285.34791
10209.10059
10132.66972
10064.1081
10016.80514
10387.91175
10354.26523
10304.46724
10241.61842
10168.84851
10090.19812
10011.1826
9940.029746
9890.385803
10271.13539
10235.69017
10184.10787
10118.94615
10043.38099
9961.5356
9879.07422
9804.465069
9751.711886
10145.43417
10108.47659
10054.64525
9986.537302
9907.39316
9821.450694
9734.568091
9655.519368
9598.767502
10010.03562
9971.205858
9914.574533
9842.793013
9759.18684
9668.139706
9575.748622
9491.158534
9429.390262
9863.402676
9822.286609
9762.236181
9685.973708
9596.933082
9499.676832
9400.586702
9309.241923
9241.311054
9703.84579
9659.988126
9595.843198
9514.224582
9418.701237
9314.050449
9206.985507
9107.579067
9032.222057
9529.56174
9482.475409
9413.516956
9325.61578
9222.506949
9109.221817
8992.852235
8884.016236
8799.879484
9338.679148
9287.856835
9213.339962
9118.203297
9006.384165
8883.210887
8756.20005
8636.556607
8542.244323
9129.32166
9074.25205
8993.43138
8890.115081
8768.484569
8634.21152
8495.281218
8363.513491
8257.65884
8899.694445
8839.884351
8752.048303
8639.663945
8507.204507
8360.734318
8208.747391
8063.689902
7945.04908
8648.195463
8583.198006
8487.711873
8365.484708
8221.334709
8061.769772
7895.826669
7736.570554
7604.135315
8373.548477
8302.996454
8199.352637
8066.687871
7910.222476
7736.958329
7556.500546
7382.505464
7235.624967
8074.949917
7998.592263
7886.46425
7743.016629
7573.93048
7386.748535
7191.658724
7002.859673
6841.358387
7752.21664
7669.954767
7549.249769
7394.989497
7213.372246
7012.521197
6803.207688
6600.10296
6424.378825
7405.917694
7317.83757
7188.741613
7024.008428
6830.403321
6616.658026
6394.111469
6177.818119
5988.905181
7037.471295
6943.8669
6806.876039
6632.413567
6427.850079
6202.538319
5968.35031
5740.61618
5540.198796
6649.189744
6550.57415
6406.506655
6223.471072
6009.465377
5774.456313
5530.793912
5293.959786
5084.330819
6244.260338
6141.362161
5991.348896
5801.289135
5579.810048
5337.462548
5086.997288
4843.908155
4627.870322
5826.658788
5720.403792
5565.856896
5370.667102
5144.068858
4897.141686
4642.935843
4396.805334
4177.521742
5401.001084
5292.480476
5135.042751
4936.890182
4707.815918
4459.344387
4204.700497
3958.937028
3739.743034
4972.346939
4862.774754
4704.25317
4505.485792
4276.746958
4029.892961
3778.176138
3536.183704
3320.376685
4545.970757
4436.632555
4278.919165
4081.957727
3856.396827
3614.283843
3368.733828
3133.708449
2924.336625
4127.115145
4019.309781
3864.293378
3671.514316
3451.863199
3217.418599
2980.98826
2755.761712
2556.336172
3720.741167
3615.717944
3465.191187
3278.809653
3067.561453
2843.402802
2618.957337
2407.494633
2219.773832
3331.29401
3230.190884
3085.762635
2907.729895
2707.041484
2496.459216
2287.088157
2089.896159
1912.790122
2962.515865
2866.314441
2729.353787
2561.862711
2374.71051
2178.465216
1981.014005
1799.059837
1638.899915
2617.514324
2527.647998
2400.118984
2244.299129
2070.489869
1886.201212
1707.930045
1541.789622
1395.995541
2300.248764
2216.629341
2098.354754
1951.34297
1791.758212
1626.337427
1464.426612
1314.282634
1182.97182
2009.805137
1929.712014
1821.24605
1689.848571
1544.754823
1395.144439
1249.482964
1115.064513
997.9200726
1743.724229
1673.631536
1575.102507
1456.198442
1325.487025
1191.370507
1061.450787
942.1199873
838.4970481
1507.982205
1444.705771
1355.990986
1249.309973
1132.527748
1013.256365
898.2648275
793.1214818
702.1439882
1298.489841
1241.826675
1162.58105
1067.601181
964.0340212
858.7165736
757.6327233
665.5995344
586.2461193
1113.798776
1063.425777
993.1392983
909.1549735
817.9122057
725.50057
637.1733131
557.0782777
488.2562039
952.1217436
907.6297928
845.6827038
771.8728861
691.9535534
611.3117099
534.5331353
465.1742484
405.7769459
811.4761205
772.4043579
718.1106905
653.5881887
583.9413879
513.9065616
447.4670005
387.6615409
336.6110829
689.7974213
655.6579973
608.3035602
552.1618526
491.7338396
431.1615486
373.8903596
322.5097128
278.7896063
585.0295736
555.3306311
514.2031266
465.550088
413.3189094
361.1151465
311.9093939
267.9045588
230.5747326
495.193509
469.4555081
433.8663474
391.8486756
346.8478366
301.99186
259.8343794
222.2455597
190.45343
418.4324473
396.1997818
365.4989945
329.3181444
290.6538844
252.2095842
216.1752962
184.1370702
157.1176497
353.0391759
333.8875675
307.4742504
276.3977833
243.2545365
210.374724
179.6319142
152.3670415
129.4980637
297.4711433
281.0128022
258.3392732
231.7028349
203.3464799
175.2729292
149.0795316
125.9735032
106.6487336
250.352692
236.2368317
216.810019
194.018605
169.7945621
145.8536249
123.6365043
104.0729517
87.72180699
210.4695644
198.3825483
181.7627896
162.2874694
141.6150248
121.3002955
102.4573633
85.88586311
72.08254449
176.7589626
166.4220233
152.2189211
135.5915962
118.0582004
100.7985707
84.81973126
70.81470085
59.18367742
148.2931695
139.4585377
127.366263
113.2555208
98.32973679
83.68102017
70.16100624
58.34575856
48.56080943
124.3136329
116.8071689
106.5123281
94.49874035
81.82398028
69.41724967
57.99716244
48.04324518
39.85362621
104.1439224
97.7470158
88.98680794
78.7828879
68.0405136
57.54963982
47.91574277
39.56372721
32.70326287
87.16753687
81.72862049
74.28927335
65.63786615
56.5471045
47.68711466
39.58832507
32.57231949
26.83268562
72.90699416
68.29045458
61.98281141
54.6579876
46.97389625
39.51606792
32.69980112
26.80710021
22.01943777