/*--------------------------------*- C++ -*----------------------------------*\
| =========                 |                                                 |
| \\      /  F ield         | OpenFOAM: The Open Source CFD Toolbox           |
|  \\    /   O peration     | Version:  2212                                  |
|   \\  /    A nd           | Website:  www.openfoam.com                      |
|    \\/     M anipulation  |                                                 |
\*---------------------------------------------------------------------------*/
FoamFile
{
    version     2.0;
    format      ascii;
    arch        "LSB;label=32;scalar=64";
    class       volScalarField;
    location    "30.00000000";
    object      SC3H5_0;
}
// * * * * * * * * * * * * * * * * * * * * * * * * * * * * * * * * * * * * * //

dimensions      [0 0 0 0 0 0 0];

internalField   nonuniform List<scalar> 
3000
(
4.90249142e-23
5.505336926e-23
6.414327169e-23
7.624333026e-23
9.122062315e-23
1.086596827e-22
1.275066129e-22
1.454735839e-22
1.581743425e-22
1.841025001e-22
2.075777043e-22
2.429583257e-22
2.901569964e-22
3.490817181e-22
4.19358495e-22
4.997383773e-22
5.861807065e-22
6.627668982e-22
4.125593476e-22
4.688379545e-22
5.544714702e-22
6.706099378e-22
8.19205554e-22
1.002224444e-21
1.218735101e-21
1.45647642e-21
1.659455489e-21
7.863264282e-22
9.030376297e-22
1.083260841e-21
1.332926913e-21
1.660572715e-21
2.073971521e-21
2.570006055e-21
3.108129724e-21
3.541125812e-21
1.397407799e-21
1.624726426e-21
1.981393194e-21
2.485366901e-21
3.160005214e-21
4.023453871e-21
5.059812546e-21
6.156594265e-21
6.99589415e-21
2.404931473e-21
2.832294526e-21
3.512680576e-21
4.489652485e-21
5.815688178e-21
7.525069922e-21
9.568829091e-21
1.169245118e-20
1.326936535e-20
4.085860277e-21
4.871752462e-21
6.137623096e-21
7.975994507e-21
1.048993679e-20
1.373064357e-20
1.756584214e-20
2.146655452e-20
2.428335018e-20
6.919527299e-21
8.342746625e-21
1.065548052e-20
1.403984732e-20
1.868524112e-20
2.46593136e-20
3.166295732e-20
3.867653741e-20
4.365290503e-20
1.173738889e-20
1.428706934e-20
1.845684906e-20
2.458909963e-20
3.302016561e-20
4.383154501e-20
5.641271843e-20
6.887893612e-20
7.762642708e-20
1.998147098e-20
2.451323564e-20
3.195803127e-20
4.294125337e-20
5.804991839e-20
7.73721561e-20
9.97321351e-20
1.21725759e-19
1.370449497e-19
3.415586097e-20
4.216415781e-20
5.536100989e-20
7.486774118e-20
1.016997641e-19
1.359354147e-19
1.753891059e-19
2.139993312e-19
2.407604498e-19
5.861327146e-20
7.270609715e-20
9.597769656e-20
1.30413943e-19
1.777627628e-19
2.380571079e-19
3.073249617e-19
3.748745032e-19
4.215479445e-19
1.009294193e-19
1.256589628e-19
1.665494099e-19
2.270878459e-19
3.102699876e-19
4.159990853e-19
5.371534023e-19
6.55022481e-19
7.363839398e-19
1.743030445e-19
2.17623596e-19
2.893158592e-19
3.954695355e-19
5.411892369e-19
7.260133441e-19
9.371867449e-19
1.142216254e-18
1.284399444e-18
3.017363293e-19
3.775680308e-19
5.03152691e-19
6.891220552e-19
9.441513351e-19
1.266728118e-18
1.633305366e-18
1.986785475e-18
2.238954184e-18
5.232699773e-19
6.559793607e-19
8.75964232e-19
1.20197005e-18
1.649118343e-18
2.213718501e-18
2.849135719e-18
3.432147447e-18
3.910518875e-18
9.084198167e-19
1.14050325e-18
1.525663746e-18
2.097449195e-18
2.884317207e-18
3.885959923e-18
5.040418876e-18
6.193708392e-18
6.914694965e-18
1.577611586e-18
1.982683995e-18
2.655218231e-18
3.653847131e-18
5.027680517e-18
6.773145705e-18
8.769903995e-18
1.070539168e-17
1.201914127e-17
2.73971432e-18
3.445388439e-18
4.617024514e-18
6.356252908e-18
8.747071265e-18
1.178006488e-17
1.524141487e-17
1.858826389e-17
2.087866277e-17
4.757393486e-18
5.985255264e-18
8.02377954e-18
1.104913597e-17
1.520603451e-17
2.047615503e-17
2.648667375e-17
3.229655278e-17
3.627541811e-17
8.260626288e-18
1.039571076e-17
1.39403511e-17
1.920027363e-17
2.642589145e-17
3.558391364e-17
4.602561506e-17
5.611673282e-17
6.302736254e-17
1.434382892e-17
1.805526208e-17
2.421690771e-17
3.335955645e-17
4.591709131e-17
6.182977682e-17
7.996880867e-17
9.749495522e-17
1.094952811e-16
2.490819713e-17
3.135870909e-17
4.206752678e-17
5.795599762e-17
7.977569993e-17
1.074193012e-16
1.389224317e-16
1.693529629e-16
1.901839789e-16
4.325603454e-17
5.446571931e-17
7.307449875e-17
1.006807214e-16
1.385851003e-16
1.865937738e-16
2.412878823e-16
2.941020924e-16
3.302446501e-16
7.512228683e-17
9.460005815e-17
1.269310825e-16
1.748857493e-16
2.407118596e-16
3.240564623e-16
4.189682071e-16
5.105780885e-16
5.73244968e-16
1.304634284e-16
1.643024417e-16
2.204623609e-16
3.037393181e-16
4.180096675e-16
5.626239686e-16
7.272199501e-16
8.859994794e-16
9.945571071e-16
2.265560527e-16
2.853317902e-16
3.828536648e-16
5.27411821e-16
7.256724478e-16
9.764248895e-16
1.261619959e-15
1.536528434e-15
1.724349206e-15
3.933566629e-16
4.954112166e-16
6.646853367e-16
9.154793535e-16
1.259214915e-15
1.693602226e-15
2.18718776e-15
2.66249123e-15
2.986912716e-15
6.827549225e-16
8.598684146e-16
1.153507564e-15
1.588274877e-15
2.183645663e-15
2.935223754e-15
3.788167868e-15
4.608432325e-15
5.167596936e-15
1.184511057e-15
1.491669586e-15
2.000611143e-15
2.753518221e-15
3.783392257e-15
5.081673109e-15
6.552695572e-15
7.964933411e-15
8.926044139e-15
2.053626504e-15
2.585788995e-15
3.466875548e-15
4.768897583e-15
6.547333131e-15
8.785313259e-15
1.131590651e-14
1.374007865e-14
1.538638148e-14
3.557189082e-15
4.477947214e-15
6.000947613e-15
8.248455103e-15
1.131279577e-14
1.516043387e-14
1.950008318e-14
2.364592898e-14
2.645402033e-14
6.154230073e-15
7.744546765e-15
1.037186661e-14
1.424237529e-14
1.950777989e-14
2.610108308e-14
3.351427595e-14
4.057284235e-14
4.533838583e-14
1.06312393e-14
1.337182641e-14
1.78927261e-14
2.453876636e-14
3.35552797e-14
4.480832249e-14
5.741305849e-14
6.936694688e-14
7.740649252e-14
1.833095921e-14
2.304051701e-14
3.079534332e-14
4.21663413e-14
5.754236905e-14
7.665655617e-14
9.797125244e-14
1.18090666e-13
1.315612172e-13
3.153648524e-14
3.960177818e-14
5.285323144e-14
7.222465773e-14
9.83169472e-14
1.306022531e-13
1.664179162e-13
2.000429496e-13
2.22440843e-13
5.411210087e-14
6.786732359e-14
9.04090218e-14
1.232427671e-13
1.672672218e-13
2.214495353e-13
2.812018127e-13
3.369589411e-13
3.738877052e-13
9.256521753e-14
1.159110676e-13
1.540540892e-13
2.093808163e-13
2.831781294e-13
3.734526428e-13
4.7235062e-13
5.640183688e-13
6.243546629e-13
1.577931413e-13
1.971956614e-13
2.613488045e-13
3.5396102e-13
4.767662326e-13
6.259792015e-13
7.882640783e-13
9.375972244e-13
1.035239488e-12
2.67933034e-13
3.34015608e-13
4.411847683e-13
5.950707672e-13
7.978001357e-13
1.042314749e-12
1.306185995e-12
1.547141568e-12
1.703605206e-12
4.529701427e-13
5.630181183e-13
7.407074958e-13
9.943575172e-13
1.326158745e-12
1.723206867e-12
2.148188677e-12
2.533190797e-12
2.781429572e-12
7.621142795e-13
9.439618237e-13
1.23618121e-12
1.650679951e-12
2.188820558e-12
2.827494431e-12
3.505359207e-12
4.114529768e-12
4.5045399e-12
1.275473318e-12
1.573449182e-12
2.049837118e-12
2.721049329e-12
3.585681964e-12
4.60323175e-12
5.674116156e-12
6.628854865e-12
7.235908332e-12
2.122288197e-12
2.606173142e-12
3.375655047e-12
4.452344523e-12
5.828337459e-12
7.434190278e-12
9.110348066e-12
1.05934121e-11
1.153029394e-11
3.509004179e-12
4.287303125e-12
5.518225825e-12
7.228641302e-12
9.397537773e-12
1.190852989e-11
1.450943722e-11
1.679502833e-11
1.823072494e-11
5.761807365e-12
7.001052265e-12
8.95034899e-12
1.164062642e-11
1.502685431e-11
1.891855722e-11
2.292293235e-11
2.642261397e-11
2.861209485e-11
9.390085552e-12
1.134232774e-11
1.439689477e-11
1.858540566e-11
2.382180064e-11
2.980203409e-11
3.592409216e-11
4.125699889e-11
4.458987484e-11
1.517992603e-11
1.822103299e-11
2.295505822e-11
2.940730986e-11
3.742511775e-11
4.653502935e-11
5.583011879e-11
6.39216626e-11
6.899241312e-11
2.433111014e-11
2.901308615e-11
3.626571484e-11
4.609458177e-11
5.824161096e-11
7.198357629e-11
8.597061574e-11
9.814235895e-11
1.057764054e-10
3.865886429e-11
4.5780627e-11
5.675979838e-11
7.155659734e-11
8.974425132e-11
1.10219875e-10
1.309524644e-10
1.488091932e-10
1.595511345e-10
6.089553223e-11
7.159887478e-11
8.801965533e-11
1.100215154e-10
1.368897457e-10
1.668799901e-10
1.967317957e-10
2.213964006e-10
2.360585819e-10
9.514939852e-11
1.110487094e-10
1.353114824e-10
1.675871087e-10
2.065835743e-10
2.491938503e-10
2.897997468e-10
3.225313691e-10
3.411615007e-10
1.476006364e-10
1.709455604e-10
2.063162121e-10
2.528040503e-10
3.075981088e-10
3.648073137e-10
4.174370305e-10
4.570671319e-10
4.769293011e-10
2.27458003e-10
2.612530126e-10
3.117837574e-10
3.763328574e-10
4.492570452e-10
5.223795604e-10
5.842867385e-10
6.233524697e-10
6.353241743e-10
3.478245495e-10
3.955005458e-10
4.643560889e-10
5.497322946e-10
6.423186953e-10
7.275512933e-10
7.871431525e-10
8.067503735e-10
7.918894678e-10
5.239853898e-10
5.876788448e-10
6.78327779e-10
7.860448242e-10
8.937468584e-10
9.766927041e-10
1.008329891e-09
9.766308251e-10
9.097013153e-10
7.737892983e-10
8.558889781e-10
9.684515121e-10
1.092520701e-09
1.198304253e-09
1.248286746e-09
1.212543759e-09
1.095734031e-09
9.618908382e-10
1.115463612e-09
1.213581654e-09
1.33924639e-09
1.459082271e-09
1.527117701e-09
1.497961799e-09
1.356011562e-09
1.142186693e-09
9.532155916e-10
1.553723358e-09
1.655659511e-09
1.769626499e-09
1.844305328e-09
1.822407125e-09
1.670262552e-09
1.411396081e-09
1.124515012e-09
9.103720985e-10
2.059651033e-09
2.138780962e-09
2.197622533e-09
2.172686801e-09
2.015716896e-09
1.731931407e-09
1.388048712e-09
1.070984962e-09
8.576158058e-10
2.551809062e-09
2.570869682e-09
2.52678963e-09
2.364545852e-09
2.071512387e-09
1.696883469e-09
1.320611094e-09
1.008068091e-09
8.08724005e-10
2.909191739e-09
2.84108285e-09
2.676188741e-09
2.391151474e-09
2.013511647e-09
1.609312433e-09
1.242103323e-09
9.518296041e-10
7.707013225e-10
3.041175341e-09
2.894238427e-09
2.641756068e-09
2.294253597e-09
1.897823154e-09
1.509769392e-09
1.172525397e-09
9.102863143e-10
7.472067398e-10
2.958974629e-09
2.772733922e-09
2.491338735e-09
2.142761354e-09
1.771985156e-09
1.422018142e-09
1.12141896e-09
8.87106446e-10
7.402624194e-10
2.752970053e-09
2.567235312e-09
2.302027567e-09
1.987922729e-09
1.662140225e-09
1.356659698e-09
1.092601417e-09
8.839559064e-10
7.511911291e-10
2.512600963e-09
2.349684316e-09
2.121750815e-09
1.855135038e-09
1.5787544e-09
1.31718281e-09
1.087239054e-09
9.017168056e-10
7.812070975e-10
2.288556659e-09
2.156026916e-09
1.970739129e-09
1.752839822e-09
1.524245028e-09
1.303797824e-09
1.105381064e-09
9.410873852e-10
8.316527194e-10
2.099879864e-09
1.997821493e-09
1.853730779e-09
1.681693693e-09
1.497475227e-09
1.315331931e-09
1.146679127e-09
1.002737314e-09
9.039528947e-10
1.949474275e-09
1.87551861e-09
1.769115677e-09
1.639048983e-09
1.49594515e-09
1.350129232e-09
1.210587124e-09
1.087186875e-09
9.993742746e-10
1.834323512e-09
1.785469178e-09
1.712997495e-09
1.621342711e-09
1.516859806e-09
1.406369427e-09
1.296294226e-09
1.194543396e-09
1.11867621e-09
1.749713206e-09
1.723156641e-09
1.681304428e-09
1.625158368e-09
1.557548108e-09
1.482119964e-09
1.402563943e-09
1.324207885e-09
1.261745897e-09
1.691356442e-09
1.684678751e-09
1.670646963e-09
1.647636829e-09
1.615601255e-09
1.575312333e-09
1.527599715e-09
1.474652941e-09
1.427316875e-09
1.656135621e-09
1.66724257e-09
1.678585683e-09
1.686594753e-09
1.688913521e-09
1.683743523e-09
1.669014341e-09
1.643352886e-09
1.61286085e-09
1.642205405e-09
1.669199097e-09
1.703619816e-09
1.740509032e-09
1.775698044e-09
1.805138953e-09
1.823934287e-09
1.826907174e-09
1.814705674e-09
1.648788459e-09
1.689847452e-09
1.745025912e-09
1.808422741e-09
1.874488548e-09
1.937265738e-09
1.989220886e-09
2.021342194e-09
2.028371795e-09
1.675812864e-09
1.729110908e-09
1.802601108e-09
1.889787647e-09
1.984111732e-09
2.078057483e-09
2.161752094e-09
2.222525264e-09
2.249059492e-09
1.723476773e-09
1.78714838e-09
1.876349531e-09
1.984256365e-09
2.103617283e-09
2.225710772e-09
2.338700461e-09
2.42660858e-09
2.472188272e-09
1.791815307e-09
1.863964924e-09
1.966160223e-09
2.091453968e-09
2.232173751e-09
2.378741423e-09
2.5177889e-09
2.630517944e-09
2.694197369e-09
1.880345827e-09
1.959090711e-09
2.071536163e-09
2.210774951e-09
2.368959106e-09
2.536018401e-09
2.697554734e-09
2.83271492e-09
2.913831757e-09
1.98785765e-09
2.071391528e-09
2.19143331e-09
2.341256521e-09
2.513071396e-09
2.696797779e-09
2.87772679e-09
3.034005964e-09
3.133725161e-09
2.112386138e-09
2.19905318e-09
2.324264082e-09
2.481611712e-09
2.663751167e-09
2.860968204e-09
3.059217486e-09
3.235614896e-09
3.34956007e-09
2.251381462e-09
2.339745897e-09
2.468109216e-09
2.630606647e-09
2.820610813e-09
3.029652912e-09
3.243241064e-09
3.43334246e-09
3.557752569e-09
2.402120454e-09
2.491225346e-09
2.621379434e-09
2.787614932e-09
2.984908139e-09
3.203329216e-09
3.425553559e-09
3.624101235e-09
3.755658066e-09
2.562613226e-09
2.652048556e-09
2.783876459e-09
2.954283889e-09
3.15561932e-09
3.377394667e-09
3.603027544e-09
3.805622588e-09
3.941358674e-09
2.733452442e-09
2.823933421e-09
2.956827308e-09
3.127101752e-09
3.327687033e-09
3.548390301e-09
3.773272723e-09
3.976183736e-09
4.113445249e-09
2.913875275e-09
3.00302801e-09
3.13374038e-09
3.300791324e-09
3.497351911e-09
3.713630614e-09
3.934386805e-09
4.134435059e-09
4.270871371e-09
3.096944479e-09
3.18336678e-09
3.309979107e-09
3.471636591e-09
3.661747102e-09
3.870961861e-09
4.084816226e-09
4.279305383e-09
4.41286659e-09
3.278173911e-09
3.360948972e-09
3.482156771e-09
3.636811114e-09
3.818586083e-09
4.018614331e-09
4.223282683e-09
4.409952436e-09
4.538885637e-09
3.454366903e-09
3.532830386e-09
3.647658821e-09
3.794058497e-09
3.965997235e-09
4.15512582e-09
4.348747126e-09
4.525737084e-09
4.648577758e-09
3.62306294e-09
3.696700583e-09
3.804385137e-09
3.941536677e-09
4.102442139e-09
4.279303788e-09
4.460391922e-09
4.626209032e-09
4.741767124e-09
3.782284757e-09
3.850688375e-09
3.95062255e-09
4.07774066e-09
4.226673651e-09
4.390204845e-09
4.557610315e-09
4.71109747e-09
4.818439374e-09
3.930421092e-09
3.993269404e-09
4.084980302e-09
4.201460992e-09
4.33771118e-09
4.487120827e-09
4.639997979e-09
4.780303429e-09
4.878731417e-09
4.066168364e-09
4.123218145e-09
4.206353752e-09
4.311757812e-09
4.434822864e-09
4.569566733e-09
4.70734441e-09
4.833892196e-09
4.922922628e-09
4.188497835e-09
4.2395792e-09
4.313900488e-09
4.407941538e-09
4.517510199e-09
4.637268605e-09
4.759623203e-09
4.872084791e-09
4.951426095e-09
4.29663391e-09
4.341647055e-09
4.40702184e-09
4.4895562e-09
4.585493205e-09
4.690150516e-09
4.796980756e-09
4.895247924e-09
4.964778924e-09
4.390037274e-09
4.428949433e-09
4.485346535e-09
4.556363529e-09
4.638695162e-09
4.728320248e-09
4.819723143e-09
4.903882067e-09
4.963631007e-09
4.468389794e-09
4.501231834e-09
4.548714835e-09
4.608326788e-09
4.67722642e-09
4.7520535e-09
4.828301154e-09
4.898607566e-09
4.948731992e-09
4.531579561e-09
4.55844195e-09
4.597162193e-09
4.645593769e-09
4.701367024e-09
4.761776594e-09
4.823293602e-09
4.880148962e-09
4.920916548e-09
4.579685164e-09
4.600713226e-09
4.630901963e-09
4.668478719e-09
4.711548149e-09
4.758047876e-09
4.80538925e-09
4.849317884e-09
4.881088266e-09
4.612958751e-09
4.628347238e-09
4.650306967e-09
4.677443184e-09
4.708332503e-09
4.741538155e-09
4.775367808e-09
4.806995073e-09
4.830202731e-09
4.631807806e-09
4.641794898e-09
4.655890039e-09
4.673075996e-09
4.692394069e-09
4.713010624e-09
4.734080553e-09
4.754112109e-09
4.769250381e-09
4.636775802e-09
4.641636691e-09
4.648283821e-09
4.656072777e-09
4.664497607e-09
4.673300792e-09
4.682431153e-09
4.691633491e-09
4.69923976e-09
4.628522101e-09
4.62856235e-09
4.628220243e-09
4.627215403e-09
4.625478422e-09
4.623296946e-09
4.621357231e-09
4.620539582e-09
4.621181728e-09
4.607801568e-09
4.60335042e-09
4.596510149e-09
4.587351911e-09
4.576222859e-09
4.563921612e-09
4.551813142e-09
4.54181092e-09
4.536075069e-09
4.575444385e-09
4.566848211e-09
4.554023554e-09
4.537377302e-09
4.517649965e-09
4.496114409e-09
4.474754327e-09
4.456414198e-09
4.44489383e-09
4.532336548e-09
4.519952581e-09
4.501670925e-09
4.478215601e-09
4.450694639e-09
4.420816593e-09
4.391123488e-09
4.365290158e-09
4.348576567e-09
4.479401447e-09
4.463591932e-09
4.440385861e-09
4.410803495e-09
4.376292518e-09
4.338957474e-09
4.301838739e-09
4.269343478e-09
4.248017595e-09
4.417582855e-09
4.398709721e-09
4.371109396e-09
4.336075727e-09
4.295366752e-09
4.251442801e-09
4.207783752e-09
4.169434666e-09
4.144060195e-09
4.347829569e-09
4.326249673e-09
4.294776099e-09
4.254952373e-09
4.208816709e-09
4.159145114e-09
4.109799872e-09
4.066373863e-09
4.037491692e-09
4.271081827e-09
4.247142826e-09
4.212302048e-09
4.168328017e-09
4.117508607e-09
4.062896006e-09
4.008680085e-09
3.960916435e-09
3.929040228e-09
4.188259573e-09
4.162296434e-09
4.124574667e-09
4.077062808e-09
4.022267987e-09
3.963480169e-09
3.905164691e-09
3.853760163e-09
3.819373054e-09
4.100252565e-09
4.072584704e-09
4.0324444e-09
3.981975292e-09
3.923873921e-09
3.861631086e-09
3.799938508e-09
3.745543836e-09
3.709096126e-09
4.007912277e-09
3.978841313e-09
3.9367181e-09
3.883836921e-09
3.82305479e-09
3.758028188e-09
3.69362941e-09
3.636847045e-09
3.598754779e-09
3.91204548e-09
3.881853565e-09
3.838154027e-09
3.783368083e-09
3.72048549e-09
3.653295301e-09
3.586808009e-09
3.528190979e-09
3.488835304e-09
3.813409413e-09
3.782358096e-09
3.737458304e-09
3.681235491e-09
3.616785879e-09
3.548000204e-09
3.479988298e-09
3.42004002e-09
3.379767214e-09
3.712708382e-09
3.681037949e-09
3.635282685e-09
3.57805079e-09
3.51252031e-09
3.442655119e-09
3.373629073e-09
3.312803987e-09
3.271926033e-09
3.610591644e-09
3.578520894e-09
3.532223472e-09
3.4743702e-09
3.408198075e-09
3.337717984e-09
3.268135977e-09
3.206840853e-09
3.165636481e-09
3.507652442e-09
3.475378827e-09
3.428821431e-09
3.37069505e-09
3.304274616e-09
3.233594333e-09
3.163864029e-09
3.102459805e-09
3.061175884e-09
3.404428014e-09
3.372128091e-09
3.325562554e-09
3.267473059e-09
3.201153351e-09
3.130639675e-09
3.061120496e-09
2.999924542e-09
2.958777751e-09
3.30140044e-09
3.26923059e-09
3.222879517e-09
3.165100207e-09
3.099187992e-09
3.029162228e-09
2.960168008e-09
2.899456691e-09
2.858635378e-09
3.198998131e-09
3.167095495e-09
3.121153696e-09
3.063923084e-09
2.998685219e-09
2.929425912e-09
2.861227822e-09
2.801239278e-09
2.760905452e-09
3.097597714e-09
3.066081365e-09
3.020717557e-09
2.96424156e-09
2.899907613e-09
2.831653502e-09
2.76448314e-09
2.705420169e-09
2.665711558e-09
2.997525615e-09
2.966498201e-09
2.921857149e-09
2.866311613e-09
2.803076732e-09
2.736029864e-09
2.67008245e-09
2.612115456e-09
2.573147578e-09
2.899057573e-09
2.868608397e-09
2.824814167e-09
2.770347997e-09
2.708376071e-09
2.642705068e-09
2.578142709e-09
2.521412667e-09
2.483280894e-09
2.802411474e-09
2.772624355e-09
2.729787245e-09
2.67652685e-09
2.615954111e-09
2.551797548e-09
2.488752486e-09
2.43337384e-09
2.396155412e-09
2.707794129e-09
2.678723211e-09
2.636934102e-09
2.584988717e-09
2.525927464e-09
2.463397216e-09
2.401974988e-09
2.348038445e-09
2.311794394e-09
2.61538576e-09
2.587073889e-09
2.546390285e-09
2.495844058e-09
2.438384635e-09
2.377568657e-09
2.317850988e-09
2.265426138e-09
2.230203095e-09
2.525325493e-09
2.497805657e-09
2.458272362e-09
2.409175423e-09
2.353389238e-09
2.294354132e-09
2.236401574e-09
2.185539313e-09
2.151371195e-09
2.437717979e-09
2.41101453e-09
2.372664596e-09
2.32505514e-09
2.270984348e-09
2.213776542e-09
2.157630731e-09
2.108365469e-09
2.075275031e-09
2.352638439e-09
2.326767818e-09
2.289623028e-09
2.243524849e-09
2.191191127e-09
2.135841374e-09
2.081527618e-09
2.033879371e-09
2.001879633e-09
2.270136985e-09
2.245108673e-09
2.209181103e-09
2.164606628e-09
2.114020665e-09
2.06054093e-09
2.008069076e-09
1.962045074e-09
1.931140571e-09
2.190242144e-09
2.166059511e-09
2.131352688e-09
2.088304167e-09
2.039465818e-09
1.98785341e-09
1.937220667e-09
1.892817414e-09
1.863005496e-09
2.112963878e-09
2.089624947e-09
2.056134844e-09
2.014605277e-09
1.967503774e-09
1.917743715e-09
1.868938156e-09
1.826143555e-09
1.797415625e-09
2.038296264e-09
2.015794481e-09
1.983510633e-09
1.943485219e-09
1.898101084e-09
1.850168882e-09
1.803170477e-09
1.761964915e-09
1.734307268e-09
1.966219865e-09
1.944544841e-09
1.913451457e-09
1.874909164e-09
1.831216626e-09
1.78508307e-09
1.739861773e-09
1.700218513e-09
1.673612991e-09
1.89670384e-09
1.875841986e-09
1.845918814e-09
1.808833295e-09
1.76680086e-09
1.722430881e-09
1.678950487e-09
1.640837458e-09
1.615262374e-09
1.829707767e-09
1.809642845e-09
1.780865929e-09
1.745206412e-09
1.704797765e-09
1.662151365e-09
1.620370955e-09
1.58375197e-09
1.55918288e-09
1.765183302e-09
1.745896922e-09
1.718239308e-09
1.683971435e-09
1.645146358e-09
1.604179595e-09
1.564054558e-09
1.528890291e-09
1.505300641e-09
1.703075669e-09
1.68454774e-09
1.657980102e-09
1.62506669e-09
1.5877819e-09
1.548447707e-09
1.509930408e-09
1.476179407e-09
1.453541129e-09
1.643324974e-09
1.6255341e-09
1.60002531e-09
1.568427051e-09
1.532636989e-09
1.494886059e-09
1.457926854e-09
1.425545947e-09
1.403829833e-09
1.585867365e-09
1.568791196e-09
1.54430882e-09
1.51398489e-09
1.479642428e-09
1.443423958e-09
1.407971857e-09
1.376916707e-09
1.356092739e-09
1.530636037e-09
1.514251568e-09
1.490762291e-09
1.461670865e-09
1.428727855e-09
1.393990083e-09
1.359993211e-09
1.330218881e-09
1.310256603e-09
1.477562104e-09
1.461845936e-09
1.439315927e-09
1.411414631e-09
1.37982243e-09
1.346513245e-09
1.313919635e-09
1.285380673e-09
1.266249361e-09
1.426575357e-09
1.411503914e-09
1.389899136e-09
1.363145426e-09
1.332855335e-09
1.300922795e-09
1.269681091e-09
1.24233155e-09
1.224000366e-09
1.377604904e-09
1.363154615e-09
1.342441079e-09
1.316792531e-09
1.287756062e-09
1.25714851e-09
1.227207579e-09
1.201002034e-09
1.183440407e-09
1.330579727e-09
1.316727178e-09
1.296871151e-09
1.272285706e-09
1.244454853e-09
1.215121199e-09
1.186430523e-09
1.161324197e-09
1.144501987e-09
1.28542914e-09
1.272151203e-09
1.253119385e-09
1.229555569e-09
1.202883035e-09
1.174773005e-09
1.147282929e-09
1.123231864e-09
1.107119483e-09
1.242083186e-09
1.229357119e-09
1.211116792e-09
1.188533884e-09
1.162973282e-09
1.136037614e-09
1.109699532e-09
1.086660741e-09
1.071229251e-09
1.200472953e-09
1.188276488e-09
1.170795631e-09
1.14915381e-09
1.124659811e-09
1.09885041e-09
1.073616907e-09
1.051548493e-09
1.036769688e-09
1.160530837e-09
1.148842246e-09
1.13208963e-09
1.111350082e-09
1.087878538e-09
1.063148597e-09
1.03897356e-09
1.017834806e-09
1.003681276e-09
1.122190752e-09
1.110988899e-09
1.094934158e-09
1.075059163e-09
1.052567196e-09
1.028871282e-09
1.005709985e-09
9.854614213e-10
9.719065939e-10
1.085388295e-09
1.074652674e-09
1.059266358e-09
1.040219351e-09
1.018665417e-09
9.959595397e-10
9.737686979e-10
9.543721501e-10
9.413903244e-10
1.050060869e-09
1.039771632e-09
1.025025245e-09
1.006770859e-09
9.861147967e-10
9.643564488e-10
9.430942583e-10
9.245128759e-10
9.120792418e-10
1.016147778e-09
1.006285752e-09
9.921517766e-10
9.746558719e-10
9.548589269e-10
9.340071093e-10
9.136332675e-10
8.958315392e-10
8.839221873e-10
9.835902895e-10
9.741369882e-10
9.605888966e-10
9.438185724e-10
9.248434122e-10
9.048586444e-10
8.853343564e-10
8.682781131e-10
8.568700371e-10
9.523316736e-10
9.432693001e-10
9.302815599e-10
9.14205158e-10
8.96015871e-10
8.768601882e-10
8.581481616e-10
8.418045689e-10
8.308756606e-10
9.223172236e-10
9.136286684e-10
9.011767379e-10
8.85763836e-10
8.683259219e-10
8.499628622e-10
8.320272916e-10
8.163648348e-10
8.05893874e-10
8.934942575e-10
8.851630922e-10
8.732234101e-10
8.584448073e-10
8.41725159e-10
8.241197424e-10
8.069262869e-10
7.919147485e-10
7.818813882e-10
8.658121066e-10
8.578225732e-10
8.463725434e-10
8.322002397e-10
8.161671189e-10
7.992858188e-10
7.828015723e-10
7.684120051e-10
7.587967531e-10
8.392220912e-10
8.315590894e-10
8.205770611e-10
8.069842326e-10
7.916072391e-10
7.754179494e-10
7.596114066e-10
7.458161019e-10
7.366002998e-10
8.136774885e-10
8.063265599e-10
7.957918049e-10
7.827527742e-10
7.68002812e-10
7.524748092e-10
7.373158273e-10
7.240882805e-10
7.152540801e-10
7.891334912e-10
7.82080802e-10
7.719734895e-10
7.594636935e-10
7.453129335e-10
7.304168364e-10
7.158765943e-10
7.031914675e-10
6.947218064e-10
7.655471611e-10
7.587794837e-10
7.49080653e-10
7.37076609e-10
7.234984489e-10
7.092061755e-10
6.952571305e-10
6.830902143e-10
6.749687894e-10
7.428773783e-10
7.363820713e-10
7.270736033e-10
7.155528728e-10
7.025218962e-10
6.888066192e-10
6.75422463e-10
6.637506362e-10
6.559618775e-10
7.210847861e-10
7.148497741e-10
7.059143621e-10
6.948555142e-10
6.82347448e-10
6.691835497e-10
6.563391628e-10
6.451403526e-10
6.376693955e-10
7.001317339e-10
6.941454872e-10
6.855666069e-10
6.749491808e-10
6.629408525e-10
6.50303879e-10
6.379752857e-10
6.272284267e-10
6.200610854e-10
6.799822193e-10
6.742337323e-10
6.65995612e-10
6.558000796e-10
6.442693746e-10
6.321359899e-10
6.203003126e-10
6.09985307e-10
6.031080471e-10
6.606018274e-10
6.55080599e-10
6.471681893e-10
6.373759181e-10
6.263017368e-10
6.146496777e-10
6.032850922e-10
5.933827696e-10
5.867826813e-10
6.419576724e-10
6.366536843e-10
6.290526289e-10
6.19645845e-10
6.090080609e-10
5.978160922e-10
5.869017837e-10
5.773938622e-10
5.710586339e-10
6.240183369e-10
6.189220341e-10
6.116186408e-10
6.025803925e-10
5.923598112e-10
5.816076818e-10
5.711238015e-10
5.619928494e-10
5.559107424e-10
6.067538136e-10
6.018560845e-10
5.948372962e-10
5.86151419e-10
5.763297379e-10
5.659981386e-10
5.559257618e-10
5.471551604e-10
5.413149835e-10
5.901354468e-10
5.854276038e-10
5.786809715e-10
5.703320537e-10
5.608918229e-10
5.509623447e-10
5.412834303e-10
5.328573382e-10
5.272484236e-10
5.741358757e-10
5.696096366e-10
5.631232922e-10
5.550966417e-10
5.460212266e-10
5.364763213e-10
5.271736722e-10
5.190769906e-10
5.136891709e-10
5.587289782e-10
5.543764482e-10
5.481390792e-10
5.404206915e-10
5.316942364e-10
5.225171782e-10
5.135744045e-10
5.05792744e-10
5.006163299e-10
5.43889816e-10
5.397034707e-10
5.337042951e-10
5.262808231e-10
5.178882169e-10
5.090630659e-10
5.004645488e-10
4.929841988e-10
4.88009958e-10
5.295945813e-10
5.2556725e-10
5.197959929e-10
5.126547176e-10
5.045815609e-10
4.960931291e-10
4.878239874e-10
4.806318857e-10
4.758510234e-10
5.158205433e-10
5.119453934e-10
5.063922647e-10
4.995210675e-10
4.917536417e-10
4.8358746e-10
4.756335187e-10
4.687172248e-10
4.641213651e-10
5.025459953e-10
4.988165175e-10
4.934721906e-10
4.868595276e-10
4.793847655e-10
4.715270538e-10
4.638748145e-10
4.572224837e-10
4.528036533e-10
4.897502016e-10
4.861601954e-10
4.810157873e-10
4.746506644e-10
4.674561231e-10
4.598937616e-10
4.525303755e-10
4.46130736e-10
4.418813485e-10
4.77413342e-10
4.739569029e-10
4.690039546e-10
4.628759044e-10
4.559497393e-10
4.486702421e-10
4.41583485e-10
4.354258162e-10
4.313386592e-10
4.655164549e-10
4.621879607e-10
4.574184192e-10
4.515174787e-10
4.448484188e-10
4.378399091e-10
4.310181577e-10
4.250922711e-10
4.211604936e-10
4.540413752e-10
4.508354736e-10
4.462416738e-10
4.405583622e-10
4.341356865e-10
4.273868721e-10
4.208190817e-10
4.151153021e-10
4.113324035e-10
4.429706671e-10
4.398822626e-10
4.354569091e-10
4.299822061e-10
4.23795719e-10
4.172958677e-10
4.109715496e-10
4.054806965e-10
4.018405156e-10
4.322875494e-10
4.293117898e-10
4.250479376e-10
4.197732599e-10
4.138132655e-10
4.075521795e-10
4.014613762e-10
3.961747437e-10
3.926714472e-10
4.219758112e-10
4.191080731e-10
4.149991064e-10
4.099162821e-10
4.041735556e-10
3.981415412e-10
3.922747985e-10
3.871841311e-10
3.838121993e-10
4.120197181e-10
4.092555898e-10
4.052951985e-10
4.00396437e-10
3.948621908e-10
3.890500232e-10
3.833983554e-10
3.784958177e-10
3.752500261e-10
4.024039055e-10
3.997391678e-10
3.959213191e-10
3.911991761e-10
3.858650194e-10
3.802638987e-10
3.748187445e-10
3.700968813e-10
3.669722755e-10
3.931132611e-10
3.905438647e-10
3.868627696e-10
3.823101044e-10
3.771679932e-10
3.717694897e-10
3.66522656e-10
3.619743398e-10
3.589662015e-10
3.841327959e-10
3.816548339e-10
3.781049076e-10
3.737148321e-10
3.687570081e-10
3.635529941e-10
3.584965844e-10
3.541149471e-10
3.512187485e-10
3.754475058e-10
3.73057182e-10
3.696329965e-10
3.653988136e-10
3.606177307e-10
3.556002971e-10
3.507266223e-10
3.465049687e-10
3.437163135e-10
3.670422267e-10
3.647358189e-10
3.61432048e-10
3.5734718e-10
3.527354171e-10
3.478967729e-10
3.431982432e-10
3.391299444e-10
3.364444946e-10
3.589014888e-10
3.566753063e-10
3.534866631e-10
3.495445685e-10
3.450947279e-10
3.404270836e-10
3.358960806e-10
3.319744477e-10
3.293878352e-10
3.510093738e-10
3.488597112e-10
3.457808768e-10
3.419749573e-10
3.376795495e-10
3.331749814e-10
3.288037116e-10
3.250218522e-10
3.225295778e-10
3.433493836e-10
3.412724689e-10
3.382980153e-10
3.346215102e-10
3.304728206e-10
3.261231121e-10
3.219034326e-10
3.182541049e-10
3.158514352e-10
3.359043257e-10
3.338962659e-10
3.310205706e-10
3.274664384e-10
3.234563665e-10
3.192527909e-10
3.151759206e-10
3.116514896e-10
3.093333873e-10
3.286562251e-10
3.267129497e-10
3.239301077e-10
3.204908996e-10
3.166107758e-10
3.125437973e-10
3.085997273e-10
3.051924408e-10
3.029535687e-10
3.21586268e-10
3.197034745e-10
3.170072183e-10
3.136749827e-10
3.099154962e-10
3.059748576e-10
3.021530038e-10
2.988540587e-10
2.966884728e-10
3.146747748e-10
3.128478704e-10
3.102314761e-10
3.069976242e-10
3.033486453e-10
2.995231673e-10
2.95812252e-10
2.926118749e-10
2.905129542e-10
3.079011992e-10
3.061252299e-10
3.035813926e-10
3.004364743e-10
2.968865913e-10
2.931629941e-10
2.895520005e-10
2.864398205e-10
2.844003377e-10
3.012441369e-10
2.995137065e-10
2.970344199e-10
2.939680242e-10
2.90504756e-10
2.868694608e-10
2.833461455e-10
2.803108343e-10
2.783228677e-10
2.946812664e-10
2.929903931e-10
2.90566675e-10
2.875668679e-10
2.841754159e-10
2.806166063e-10
2.771679381e-10
2.741972479e-10
2.722521931e-10
2.881890815e-10
2.865310091e-10
2.841526955e-10
2.812058083e-10
2.778743464e-10
2.743787433e-10
2.70990586e-10
2.680713431e-10
2.66159976e-10
2.817420446e-10
2.801087766e-10
2.777643458e-10
2.748602768e-10
2.71576948e-10
2.681303597e-10
2.647876838e-10
2.61905979e-10
2.600186164e-10
2.753110945e-10
2.736963502e-10
2.713789807e-10