/*--------------------------------*- C++ -*----------------------------------*\
| =========                 |                                                 |
| \\      /  F ield         | OpenFOAM: The Open Source CFD Toolbox           |
|  \\    /   O peration     | Version:  2212                                  |
|   \\  /    A nd           | Website:  www.openfoam.com                      |
|    \\/     M anipulation  |                                                 |
\*---------------------------------------------------------------------------*/
FoamFile
{
    version     2.0;
    format      ascii;
    arch        "LSB;label=32;scalar=64";
    class       volScalarField;
    location    "30.00000000";
    object      T;
}
// * * * * * * * * * * * * * * * * * * * * * * * * * * * * * * * * * * * * * //

dimensions      [0 0 0 1 0 0 0];

internalField   nonuniform List<scalar> 
3000
(
300.9397969
300.9282726
300.9081521
300.87482
300.8187994
300.7199155
300.5325405
300.1452627
299.2493369
300.8006498
300.7650179
300.7049176
300.6109086
300.4665975
300.2444249
299.8989561
299.3593135
298.5371515
300.6330887
300.5739462
300.4775954
300.3344795
300.1300815
299.844582
299.4546314
298.941446
298.3180589
300.4536558
300.3759464
300.25313
300.0784157
299.842798
299.5370896
299.1563647
298.7083991
298.2268639
300.2731368
300.1827178
300.043305
299.8518008
299.6050377
299.3024554
298.9501202
298.5652226
298.1776741
300.0978284
300.0000347
299.852195
299.6547355
299.4093116
299.121166
298.8016171
298.4690813
298.15
299.9307537
299.8298226
299.679638
299.4835366
299.2466961
298.9777812
298.6899336
298.3998585
298.15
299.7733303
299.6724429
299.5242315
299.3342109
299.1098784
298.8616085
298.6025882
298.3471392
298.15
299.6260746
299.5274973
299.3841778
299.2031181
298.993173
298.7653223
298.5319956
298.3052686
298.15
299.4890632
299.3943386
299.2577799
299.0872917
298.8923759
298.6839564
298.4734145
298.2709372
298.15
299.3621179
299.2722297
299.1435288
298.9843634
298.8043894
298.6141058
298.4237975
298.2421191
298.15
299.2449176
299.1604325
299.0401351
298.8924759
298.7269394
298.5534117
298.3811358
298.2175319
298.15
299.1370584
299.0582404
298.9465105
298.8101801
298.6583587
298.5002375
298.3441066
298.19638
298.15
299.0381016
298.9650057
298.8617567
298.7363656
298.5974479
298.4534772
298.3118818
298.1782352
298.15
298.9476189
298.8801663
298.7851642
298.6702226
298.5434011
298.4124646
298.2840586
298.1630259
298.15
298.8652412
298.803283
298.7162322
298.6112414
298.4957895
298.3769554
298.2606665
298.1511267
298.15
298.7907185
298.7340942
298.6547158
298.5592548
298.4546051
298.3471719
298.2421678
298.15
298.15
298.7239986
298.6725947
298.600711
298.5145419
298.4204145
298.3240914
298.2300998
298.15
298.15
298.6653286
298.6191452
298.5547764
298.4779643
298.3944993
298.3095146
298.2268089
298.15
298.15
298.6153923
298.5746238
298.5181096
298.4511861
298.3791487
298.3065059
298.236247
298.1692896
298.15
298.5754907
298.5406299
298.4927905
298.4369746
298.3780416
298.319875
298.2645282
298.2115333
298.1575985
298.5477763
298.5197492
298.4820963
298.439588
298.3967313
298.356781
298.3206741
298.2860917
298.2469639
298.5355488
298.5158884
298.4908969
298.4652559
298.4432367
298.4274634
298.4175125
298.4085833
298.3906754
298.5436194
298.5346832
298.5261314
298.5227507
298.5287356
298.5460814
298.5726865
298.6004433
298.6139024
298.5787446
298.5839806
298.5973649
298.6240416
298.6683383
298.7316266
298.8097233
298.890159
298.9500988
298.6501301
298.674393
298.717414
298.7850138
298.8819143
299.0088657
299.15909
299.3144381
299.4422842
298.7699985
298.8199115
298.9030273
299.0262264
299.1949319
299.40925
299.6591531
299.9191886
300.14403
298.9542098
299.038567
299.1755975
299.3736784
299.6392614
299.9717248
300.3569442
300.7601853
301.1199846
299.2229198
299.3531162
299.5618783
299.8595405
300.2538891
300.7433661
301.3086393
301.9033042
302.4457952
299.6012563
299.79173
300.094673
300.5228137
301.0854857
301.7797712
302.5796622
303.4242239
304.2073189
300.1199901
300.3886542
300.8134582
301.4098633
302.1887675
303.1451339
304.2443382
305.4075259
306.4990712
300.8161715
301.1848083
301.7649007
302.5747785
303.6265919
304.911938
306.3850393
307.9451582
309.4219266
301.7336992
302.2282841
303.003218
304.0794989
305.4697197
307.1602097
309.0907812
311.1342719
313.0801475
302.9237825
303.5746958
304.5903284
305.9936446
307.7961841
309.9762769
312.4552592
315.0744797
317.5778849
304.4452491
305.2873277
306.5957257
308.3939814
310.6901994
313.4509999
316.5743387
319.8646326
323.0153398
306.3646414
307.4370156
309.0960092
311.3634526
314.2405622
317.6774644
321.5430584
325.5992566
329.4848162
308.7560355
310.1016901
312.173997
314.9897174
318.5385163
322.748168
327.4522561
332.3648377
337.0669074
311.7005067
313.3655065
315.9173577
319.3631594
323.6750983
328.75179
334.3849829
340.2361784
345.8270614
315.2851616
317.3174929
320.4167154
324.5743675
329.7380371
335.7697004
342.4129301
349.2730728
355.8127381
319.60166
322.0496605
325.7632187
330.7111502
336.8083523
343.8724288
351.5931248
359.517538
367.0513318
324.7441648
327.6545562
332.0456169
337.8552079
344.9568611
353.1163573
361.9651601
370.9918064
379.548963
330.8066928
334.2222835
339.3469486
346.0786582
354.2408557
363.5409134
373.5491845
383.6972126
393.2901781
337.8798905
341.837082
347.7410151
355.4406573
364.7012215
375.1665031
386.3448073
397.6140266
408.2385213
346.047334
350.573627
357.2888675
365.9843828
376.3602427
387.9933463
400.3309721
412.7021919
424.3378838
355.3815325
360.4932791
368.0355683
377.7346256
389.2202673
402.0012778
415.4667537
428.9028537
441.5144934
365.9399059
371.6405637
380.0074921
390.696181
403.2633081
417.1504673
431.6929434
446.1405063
459.6793801
377.7610658
384.0401837
393.2103899
404.8531506
418.4515562
433.3829269
448.934236
464.3255674
478.7311492
390.8617607
397.694844
407.6283799
420.1691693
434.7286952
450.6246164
467.1018061
483.3571835
498.558901
405.2348165
412.5841122
423.2239394
436.588493
452.0218519
468.7879423
486.0960801
503.1261043
519.045155
420.8483267
428.6644438
439.9388913
454.0378284
470.2440027
487.7744603
505.8095353
523.5175087
540.068663
437.6462252
445.8704053
457.6963097
472.4287548
489.2966532
507.4775993
526.1293584
544.4135746
561.5070184
455.5502482
464.1170444
476.4032583
491.6606508
509.0726817
527.785282
546.9398884
565.6957894
583.2389799
474.4631838
483.3033135
495.9538548
511.6230382
529.4584753
548.5821932
568.124964
587.2473538
605.1465694
494.2691063
503.3117649
516.2298309
532.198054
550.3373176
569.7531489
589.5708367
608.9554523
627.1170493
514.8398799
524.0155256
537.1065815
553.2642154
571.5914023
591.1840801
611.1668026
630.712002
649.0439774
536.0397762
545.2821025
558.4562039
574.6990807
593.1040781
612.7639297
632.8067933
652.4150169
670.8283568
557.729608
566.976992
580.1505244
596.3817039
614.7618246
634.3862368
654.3906456
673.9696224
692.3794427
579.77048
588.9669475
602.0638071
618.194798
636.4559438
655.9504385
675.8250918
695.2887863
713.6152625
602.0270189
611.122791
624.0750693
640.0265616
658.0839535
677.3628995
697.0244906
716.2938046
734.4628924
624.3700185
633.3217146
646.0699687
661.7721496
679.5506793
698.5376781
717.911318
736.9145566
754.8585144
646.6784859
655.4490605
667.9422567
683.3347899
700.7690567
719.3970492
738.4164474
757.0895732
774.7472904
668.841117
677.3996038
689.5948172
704.6265635
721.6606617
739.8718057
758.4792423
776.7659395
794.0830894
690.7572557
699.0783806
710.9403257
725.5688773
742.1559945
759.901358
778.0474817
795.8990568
812.8280933
712.3374081
720.4011248
731.9015784
746.0926668
762.1945448
779.433658
797.0771437
814.4522897
830.9523132
733.5033906
741.2943762
752.4115412
766.1383654
781.7246675
798.4249722
815.5320726
832.3965254
848.4330398
754.188181
761.6953202
772.413163
785.6556777
800.7033
816.839532
833.3835528
849.7096664
865.2542519
774.3355351
781.5514123
791.8590026
804.6031951
819.0955536
834.6490866
850.6098137
866.3760788
881.4060016
793.8994263
800.8198394
810.7107112
822.9478915
836.8742086
851.8323849
867.1954853
882.3860127
896.8837936
812.843359
819.466865
828.9384117
840.6645313
854.0191407
868.3746067
883.1310229
897.7350115
911.6879706
831.1396034
837.4670992
846.5200114
857.7350217
870.5167032
884.2667645
898.4121181
912.4233219
925.8231166
848.7683849
854.802727
863.4404766
874.1477329
886.3590876
899.5050941
913.0391098
926.4553173
939.2974858
865.717062
871.4627241
879.6910959
889.8968107
901.5436802
914.0904488
927.0164067
939.8389425
952.1224638
881.979313
887.4420808
895.2687512
904.9814984
916.0724318
928.0277102
940.3519328
952.5851864
964.3120643
897.5543517
902.7410531
910.1752163
919.4054848
929.9512547
941.3252278
953.0566016
964.7075843
975.8824591
912.4461848
917.3644547
924.4164928
933.1762915
943.1894597
953.9943001
965.1438277
976.2217384
986.8514999
926.6629189
931.3209962
938.0021946
946.3047086
955.7992478
966.0487218
976.6291143
987.1448678
997.2378878
940.216121
944.6226762
950.9449805
958.804279
967.7952573
977.5044245
987.5298903
997.4961828
1007.06478
953.1202336
957.2842217
963.2600285
970.6908064
979.1940904
988.3789649
997.8647875
1007.297256
1016.350117
965.3920455
969.3225832
974.964564
981.9819231
990.0139282
998.6912124
1007.655559
1016.565508
1025.116741
977.0502185
980.7564835
986.0774384
992.6967057
1000.276345
1008.463356
1016.919026
1025.323493
1033.386514
988.1148705
991.6060189
996.6187559
1002.857693
1009.997761
1017.711904
1025.677761
1033.59254
1041.181362
998.6072099
1001.894797
1006.612161
1012.481597
1019.201061
1026.459714
1033.952878
1041.394051
1048.523114
1008.55204
1011.640138
1016.074615
1021.5919
1027.907439
1034.727945
1041.765557
1048.749358
1055.433361
1017.966755
1020.86646
1025.030258
1030.210212
1036.138271
1042.537785
1049.136905
1055.679581
1061.93333
1026.876326
1029.596087
1033.501115
1038.358201
1043.914895
1049.910313
1056.087811
1062.205501
1068.043789
1035.303324
1037.851304
1041.509109
1046.057411
1051.258483
1056.866359
1062.638823
1068.347457
1073.784955
1043.270101
1045.654196
1049.075959
1053.32914
1058.189903
1063.42638
1068.810035
1074.125255
1079.176438
1050.798716
1053.026533
1056.223041
1060.194309
1064.729593
1069.61035
1074.621001
1079.558097
1084.237181
1057.910793
1059.989636
1062.971264
1066.67334
1070.897459
1075.437666
1080.090655
1084.664527
1088.985427
1064.627399
1066.564261
1069.340953
1072.786052
1076.712781
1080.927076
1085.237252
1089.462377
1093.438688
1070.968935
1072.770496
1075.351759
1078.551578
1082.19414
1086.096611
1090.078318
1093.968746
1097.613731
1076.955045
1078.627667
1081.022571
1083.988291
1087.359354
1090.963544
1094.630622
1098.199972
1101.526566
1082.604539
1084.154273
1086.371456
1089.113749
1092.225437
1095.544349
1098.910148
1102.171625
1105.192452
1087.935337
1089.367932
1091.415615
1093.944659
1096.808571
1099.854694
1102.932088
1105.898505
1108.625899
1092.96443
1094.285348
1096.171353
1098.496856
1101.124091
1103.909423
1106.71085
1109.394652
1111.840681
1097.707865
1098.922294
1100.654068
1102.785297
1105.186488
1107.722574
1110.26006
1112.673361
1114.849856
1102.180737
1103.293616
1104.878257
1106.824074
1109.009423
1111.307392
1113.592593
1115.747202
1117.665782
1106.397216
1107.41325
1108.85754
1110.626434
1112.605755
1114.676358
1116.720594
1118.628052
1120.300149
1110.370571
1111.294257
1112.604692
1114.204818
1115.987573
1117.841224
1119.655515
1121.327121
1122.763996
1114.113218
1114.948868
1116.131688
1117.570904
1119.166244
1120.813055
1122.408152
1123.854984
1125.067745
1117.636779
1118.388541
1119.449759
1120.735661
1122.152459
1123.602274
1124.988685
1126.221622
1127.221229
1120.952141
1121.624017
1122.569451
1123.709401
1124.956283
1126.218704
1127.406718
1128.43645
1129.233716
1124.069524
1124.665392
1125.500683
1126.501837
1127.587211
1128.67162
1129.67132
1130.508355
1131.113943
1126.99855
1127.522174
1128.252809
1129.122142
1130.054215
1130.969793
1131.791063
1132.445726
1132.87014
1129.748308
1130.203356
1130.834684
1131.578999
1132.365795
1133.121527
1133.774061
1134.25649
1134.510058
1132.327418
1132.717467
1133.254709
1133.880658
1134.530022
1135.134708
1135.628
1135.948137
1136.040996
1134.74409
1135.072632
1135.52089
1136.034974
1136.554581
1137.016828
1137.360173
1137.527749
1137.469824
1137.006169
1137.276619
1137.640879
1138.049452
1138.446804
1138.775025
1138.977505
1139.002025
1138.803009
1139.121185
1139.336877
1139.622012
1139.931281
1140.213702
1140.416106
1140.486577
1140.377304
1140.046634
1141.096387
1141.260578
1141.471339
1141.687358
1141.861988
1141.946573
1141.893651
1141.659586
1141.206422
1142.938771
1143.054633
1143.195653
1143.324317
1143.398102
1143.372638
1143.204684
1142.85455
1142.287754
1144.655103
1144.725725
1144.801508
1144.848544
1144.828225
1144.700242
1144.425348
1143.967571
1143.295692
1146.251936
1146.280316
1146.295231
1146.26619
1146.158292
1145.935069
1145.561042
1145.003735
1144.23499
1147.735619
1147.724659
1147.682935
1147.583183
1147.394004
1147.082555
1146.616903
1145.967857
1145.110115
1149.112306
1149.06481
1148.970526
1148.805233
1148.540834
1148.147896
1147.59782
1146.864487
1145.925265
1150.387956
1150.306622
1150.163702
1149.937836
1149.604032
1149.136059
1148.508439
1147.697929
1146.68438
1151.568334
1151.455753
1151.26796
1150.986281
1150.588631
1150.051784
1149.353177
1148.472247
1147.391155
1152.659011
1152.517661
1152.288594
1151.955644
1151.499451
1150.899591
1150.136224
1149.191279
1148.049061
1153.665361
1153.497606
1153.230691
1152.850794
1152.341097
1151.683786
1150.861555
1149.858646
1148.661349
1154.592554
1154.400641
1154.099135
1153.676395
1153.117965
1152.408464
1151.532933
1150.47776
1149.231067
1155.445556
1155.231615
1154.898602
1154.436898
1153.834246
1153.077513
1152.15392
1151.051835
1149.761072
1156.229122
1155.995166
1155.633558
1155.136552
1154.493921
1153.69462
1152.72788
1151.583895
1150.254037
1156.947792
1156.69572
1156.308259
1155.779394
1155.100774
1154.263277
1153.257987
1152.076783
1150.712467
1157.605885
1157.337484
1156.926751
1156.369257
1155.658384
1154.786779
1153.747233
1152.533169
1151.138702
1158.207483
1157.924443
1157.492863
1156.909772
1156.170138
1155.26824
1154.198433
1152.955558
1151.534934
1158.756503
1158.460382
1158.010221
1157.404366
1156.639231
1155.710589
1154.614233
1153.346299
1151.903209
1159.256683
1158.948929
1158.482274
1157.856285
1157.068679
1156.116587
1154.997118
1153.707593
1152.245441
1159.711552
1159.39351
1158.912297
1158.268593
1157.461323
1156.48883
1155.349421
1154.041502
1152.563417
1160.124443
1159.797356
1159.303376
1158.644195
1157.819838
1156.829754
1155.673329
1154.349954
1152.858808
1160.498488
1160.163505
1159.65841
1158.985813
1158.146739
1157.141648
1155.970892
1154.634753
1153.13317
1160.836627
1160.494806
1159.980119
1159.296003
1158.444386
1157.426657
1156.244026
1154.897584
1153.38796
1161.141615
1160.793929
1160.271047
1159.577152
1158.714989
1157.686783
1156.494521
1155.140021
1153.624533
1161.416029
1161.063369
1160.533572
1159.83149
1158.960605
1157.923891
1156.724045
1155.36353
1153.844156
1161.662271
1161.305452
1160.769911
1160.061097
1159.183151
1158.139724
1156.934156
1155.569479
1154.048008
1161.882583
1161.52235
1160.98213
1160.26791
1159.384419
1158.335911
1157.126307
1155.759143
1154.237188
1162.079049
1161.716078
1161.172153
1160.453732
1159.566071
1158.513964
1157.301846
1155.933707
1154.412721
1162.253606
1161.888514
1161.341764
1160.620236
1159.729652
1158.675284
1157.462028
1156.094275
1154.575562
1162.408052
1162.041396
1161.49262
1160.768974
1159.876593
1158.821173
1157.608016
1156.241872
1154.726599
1162.544051
1162.176336
1161.626256
1160.901386
1160.008223
1158.952836
1157.740891
1156.377451
1154.86666
1162.663144
1162.294826
1161.744093
1161.018802
1160.12577
1159.071394
1157.861653
1156.501896
1154.996514
1162.766758
1162.398245
1161.847444
1161.122455
1160.230373
1159.177881
1157.971235
1156.616031
1155.116878
1162.856207
1162.487867
1161.937523
1161.213485
1160.323085
1159.273257
1158.070496
1156.720619
1155.228421
1162.932707
1162.56487
1162.015453
1161.292943
1160.40488
1159.358411
1158.160239
1156.81637
1155.331764
1162.997378
1162.630338
1162.082267
1161.361802
1160.476658
1159.434164
1158.241202
1156.903941
1155.427483
1163.051253
1162.685272
1162.13892
1161.420959
1160.539249
1159.501275
1158.314071
1156.983944
1155.516118
1163.095282
1162.730593
1162.186291
1161.471239
1160.593419
1159.560446
1158.379479
1157.056944
1155.598167
1163.13034
1162.767148
1162.225189
1161.513404
1160.639876
1159.612325
1158.438013
1157.123466
1155.674097
1163.15723
1162.795718
1162.256359
1161.548156
1160.67927
1159.657507
1158.490214
1157.183996
1155.74434
1163.176693
1162.817019
1162.280486
1161.57614
1160.712203
1159.696547
1158.536585
1157.238987
1155.809299
1163.189407
1162.831711
1162.298201
1161.597951
1160.739228
1159.729952
1158.577588
1157.288855
1155.869347
1163.195997
1162.840399
1162.310083
1161.614136
1160.760854
1159.758193
1158.613653
1157.33399
1155.924834
1163.197034
1162.843639
1162.316663
1161.625196
1160.77755
1159.781702
1158.645175
1157.374749
1155.976082
1163.193043
1162.841941
1162.318431
1161.631595
1160.78975
1159.80088
1158.67252
1157.411466
1156.023393
1163.184506
1162.835773
1162.315835
1161.633757
1160.797849
1159.816094
1158.696027
1157.44445
1156.067047
1163.171865
1162.825564
1162.309287
1161.632073
1160.802214
1159.827684
1158.716009
1157.473985
1156.107304
1163.155523
1162.811708
1162.299166
1161.626901
1160.803182
1159.835962
1158.732753
1157.500338
1156.144405
1163.135853
1162.794566
1162.285817
1161.61857
1160.801062
1159.841218
1158.746526
1157.523752
1156.178577
1163.113192
1162.774469
1162.26956
1161.607383
1160.796138
1159.843717
1158.757575
1157.544457
1156.210028
1163.087853
1162.751719
1162.250685
1161.593618
1160.788673
1159.843703
1158.766127
1157.562662
1156.238954
1163.060119
1162.726593
1162.229459
1161.577528
1160.778907
1159.841402
1158.772393
1157.578561
1156.265534
1163.03025
1162.699346
1162.206129
1161.559349
1160.767061
1159.837022
1158.776566
1157.592337
1156.289937
1162.998485
1162.67021
1162.180916
1161.539293
1160.753337
1159.830753
1158.778825
1157.604156
1156.312319
1162.965041
1162.639397
1162.154028
1161.517558
1160.737924
1159.822772
1158.779336
1157.614173
1156.332827
1162.930117
1162.607101
1162.125652
1161.494324
1160.720991
1159.81324
1158.77825
1157.622532
1156.351594
1162.893895
1162.573501
1162.095961
1161.469755
1160.702696
1159.802308
1158.77571
1157.629366
1156.368747
1162.85654
1162.538759
1162.06511
1161.444004
1160.683184
1159.790111
1158.771845
1157.634797
1156.384402
1162.818204
1162.503023
1162.033245
1161.417208
1160.662587
1159.776776
1158.766774
1157.63894
1156.398669
1162.779024
1162.466428
1162.000497
1161.389495
1160.641026
1159.762419
1158.760608
1157.641899
1156.411647
1162.739127
1162.429098
1161.966986
1161.360979
1160.618613
1159.747146
1158.75345
1157.643774
1156.423431
1162.698627
1162.391144
1161.93282
1161.331768
1160.59545
1159.731055
1158.745392
1157.644653
1156.434108
1162.657628
1162.352669
1161.8981
1161.301956
1160.571629
1159.714237
1158.736522
1157.64462
1156.443759
1162.616222
1162.313766
1161.862916
1161.271633
1160.547236
1159.696772
1158.726919
1157.643753
1156.452459
1162.574497
1162.274517
1161.827349
1161.240877
1160.522347
1159.678737
1158.716655
1157.642122
1156.460278
1162.532525
1162.234997
1161.791473
1161.20976
1160.497033
1159.660197
1158.705797
1157.639793
1156.46728
1162.490375
1162.195272
1161.755351
1161.178345
1160.471354
1159.641215
1158.694404
1157.636824
1156.473525
1162.448104
1162.155398
1161.719039
1161.146685
1160.445364
1159.621842
1158.682529
1157.633269
1156.479067
1162.405756
1162.11542
1161.682582
1161.114826
1160.419107
1159.602122
1158.670216
1157.629174
1156.483955
1162.363366
1162.075371
1161.646012
1161.082798
1160.392615
1159.582089
1158.657499
1157.624574
1156.488227
1162.32095
1162.035268
1161.609345
1161.050618
1160.365903
1159.561758
1158.644398
1157.619495
1156.491916
1162.278504
1161.995105
1161.572576
1161.01828
1160.338966
1159.541127
1158.630914
1157.613942
1156.495035
1162.235995
1161.954848
1161.535668
1160.985747
1160.311769
1159.520161
1158.617016
1157.607894
1156.497576
1162.193347
1161.914422
1161.498544
1160.95294
1160.284231
1159.498783
1158.602632
1157.601288
1156.499492
1162.150429
1161.873691
1161.461066
1160.919718
1160.256209
1159.476849
1158.587624
1157.594
1156.50068
1162.107033
1161.832441
1161.423013
1160.885853
1160.227469
1159.454125
1158.571762
1157.58581
1156.500945
1162.062841
1161.790348
1161.384049
1160.850997
1160.197653
1159.430242
1158.554676
1157.576362
1156.499958
1162.017391
1161.746936
1161.343682
1160.814634
1160.166224
1159.40465
1158.535809
1157.565103
1156.497198
1161.970023
1161.701527
1161.301204
1160.776028
1160.13241
1159.376543
1158.514333
1157.551206
1156.49186
1161.919821
1161.653175
1161.25563
1160.734142
1160.09512
1159.34478
1158.489066
1157.533466
1156.482755
1161.865537
1161.60059
1161.20561
1160.687552
1160.05285
1159.307771
1158.458346
1157.510176
1156.46817
1161.805495
1161.54204
1161.149329
1160.634338
1160.003559
1159.263356
1158.419899
1157.478973
1156.445704
1161.737491
1161.475242
1161.084388
1160.571957
1159.944539
1159.208649
1158.37067
1157.436659
1156.412072
1161.658664
1161.397231
1161.007671
1160.4971
1159.872256
1159.139874
1158.30664
1157.379001
1156.362884
1161.565363
1161.304222
1160.915195
1160.405532
1159.782178
1159.052173
1158.22262
1157.300503
1156.292399
1161.452995
1161.191453
1160.80195
1160.29192
1159.668591
1158.939411
1158.112038
1157.194174
1156.193271
1161.315875
1161.053027
1160.661726
1160.149655
1159.524411
1158.793971
1157.966716
1157.051286
1156.056284
1161.147056
1160.881746
1160.48695
1159.970675
1159.340992
1158.606552
1157.776655
1156.861145
1155.870102
1160.938182
1160.66895
1160.268514
1159.745294
1159.107953
1158.365986
1157.529843
1156.610881
1155.621043
1160.679332
1160.404367
1159.995627
1159.462046
1158.813019
1158.059076
1157.212085
1156.285273
1155.292893
1160.358892
1160.075987
1159.655687
1159.107557
1158.441886
1157.670459
1156.806875
1155.866621
1154.866778
1159.963453
1159.669954
1159.234175
1158.666453
1157.978145
1157.182544
1156.295326
1155.334681
1154.321099
1159.477734
1159.1705
1158.714604
1158.121304
1157.403231
1156.57548
1155.656165
1154.666679
1153.631562
1158.884554
1158.559923
1158.078498
1157.452631
1156.696469
1155.827204
1154.865796
1153.837394
1152.771285
1158.164845
1157.818611
1157.305438
1156.638984
1155.835148
1154.913549
1153.898447
1152.819336
1151.711008
1157.297724
1156.925132
1156.373188
1155.657059
1154.794669
1153.808429
1152.726386
1151.583008
1150.419401
1156.260661
1155.856409
1155.257844
1154.481882
1153.548769
1152.484099
1151.320222
1150.097252
1148.863449
1155.029644
1154.587884
1153.934046
1153.087055
1152.069799
1150.911475
1149.649279
1148.32967
1147.008938
1153.579397
1153.093768
1152.375253
1151.445062
1150.329073
1149.060526
1147.682032
1146.247115
1144.820988
1151.883673
1151.347353
1150.554071
1149.527632
1148.297264
1146.900715
1145.386596
1143.816227
1142.26466
1149.915595
1149.321362
1148.442639
1147.306147
1145.94485
1144.401483
1142.731253
1141.004021
1139.305576
1147.648038
1146.988347
1146.013037
1144.752087
1143.242592
1141.532765
1139.685015
1137.778477
1135.910573
1145.054046
1144.32112
1143.237741
1141.837497
1140.162028
1138.265518
1136.218177
1134.109142
1132.048334
1142.107261
1141.293195
1140.090079
1138.535473
1136.675981
1134.572249
1132.302881
1129.967716
1127.690001
1138.782382
1137.879247
1136.544701
1134.820642
1132.759051
1130.427529
1127.913642
1125.328596
1122.809745
1135.055601
1134.055563
1132.578035
1130.669622
1128.388094
1125.808476
1123.027838
1120.169378
1117.385272
1130.905047
1129.800477
1128.168728
1126.061471
1123.542659
1120.695192
1117.62615
1114.471288
1111.398253
1126.311186
1125.094777
1123.298044
1120.978072
1118.205376
1115.071146
1111.692929
1108.219547
1104.834676
1121.257194
1119.922068
1117.950225
1115.40449
1112.362292
1108.923487
1105.216497
1101.403642
1097.685103
1115.729284
1114.26909
1112.112789
1109.329251
1106.00313
1102.243286
1098.189356
1094.017516
1089.944828
1109.716965
1108.12597
1105.776776
1102.744564
1099.121494
1095.025705
1090.608328
1086.059671
1081.613951
1103.213256
1101.486422
1098.93692
1095.646477
1091.714986
1087.270086
1082.474611
1077.533182
1072.697357
1096.214819
1094.34787
1091.591765
1088.034965
1083.785274
1078.979988
1073.793766
1068.445648
1063.204607
1088.722042
1086.711518
1083.743715
1079.913968
1075.33811
1070.163173
1064.575683
1058.809091
1053.149778
1080.739029
1078.582343
1075.399025
1071.291379
1066.383317
1060.831604
1054.834551
1048.639889
1042.551265
1072.273522
1069.969002
1066.567708
1062.178965
1056.934759
1051.001489
1044.589006
1037.958917
1031.431703
1063.336689
1060.883612
1057.263306
1052.592154
1047.010211
1040.693374
1033.862636
1026.792547
1019.818727
1053.942784
1051.341357
1047.502411
1042.549465
1036.630748
1029.931795
1022.68475
1015.176185
1007.751618
1044.108702
1041.359935
1037.303905
1032.071332
1025.818845
1018.742336
1011.087345
1003.159354
995.1804154
1033.8536
1030.959116
1026.688333
1021.178956
1014.595535
1007.143224
998.9276814
990.5570082
982.2745812
1023.198787
1020.160804
1015.678422
1009.896048
1002.985639
995.0064606
986.5234549
977.7185128
968.9903992
1012.16764
1008.989033
1004.299161
998.0977476
990.8582301
982.6575908
973.7714039
964.5392697
955.3740947
1000.785351
997.3176581
992.4200464
986.1010618
978.5467094
969.9869616
960.7069144
951.0575294
941.4654137
988.9172948
985.464418
980.3696084
973.7958786
965.935978
957.0276893
947.3653014
937.3106681
927.3033802
976.8988434
973.3170261
968.0319669
961.2124862
953.057828
943.8132763
933.7818877
923.3358314
912.9269158
964.6099106
960.9044265
955.4369028
948.381751
939.9444298
930.3773683
919.991917
909.169944
898.3746959
952.0794798
948.2560916
942.6146198
935.3348197
926.6280607
916.7535317
906.0303777
894.8495306
883.6848858
939.3368579
935.4017512
929.5954741
922.1028578
913.1408616
902.9750303
891.9317896
880.4104882
868.894871
926.4114284
922.3711439
916.4097317
908.7168166
899.5146145
889.0746107
877.7299888
865.8878597
854.0410087
913.3324195
909.1937912
903.0873497
895.2072216
885.7805376
875.0843012
863.4579259
851.3156253
839.1584088
900.1287025
895.8987983
889.657782
881.6039829
871.9691001
861.0352296
849.147484
836.726518
824.2807449
886.8286112
882.5146768
876.1498054
867.9362265
858.1098581
846.957462
834.8293198
822.1518664
809.4400984
873.4597821
869.0691874
862.5913669
854.2321453
844.2313102
832.8798636
820.532729
807.621464
794.6668313
860.0490147
855.589203
849.00945
840.5188707
830.3607747
818.8299818
806.2855353
793.1634652
779.9894898
846.6221494
842.1005896
835.4299603
826.8223638
816.5242869
804.8339505
792.1140035
778.804307
765.4347333
833.2039639
828.6281056
821.8776294
813.1673249
802.7465163
790.9164161
778.0427739
764.5686515
751.0272892
819.8180864
815.1953187
808.3759367
799.577122
789.0507026
777.1004822
764.094816
750.479353
736.7899316
806.4869253
801.824539
794.9470479
786.073736
775.4586099
763.4076716
750.2914036
736.5574443
722.7434792
793.231615
788.5367683
781.61177
772.6777233
761.9904948
749.8579076
736.6521068
722.8221404
708.9068121
780.0719769
775.351665
768.3895201
759.4081895
748.6650939
736.4695109
723.1947993
709.290858
695.2969039
767.0264917
762.2875196
755.2983082
746.2827836
735.4996239
723.2592085
709.9356795
695.9792488
681.9288676
754.1122878
749.3612477
742.3547361
733.3177011
722.5097934
710.2421565
696.8893031
682.9012443
668.8160136
741.3451412
736.5883934
729.5740045
720.5276985
709.7098261
697.4319725
684.0686276
670.0691113
655.9699168
728.7394856
723.9831419
716.9699315
707.9261187
697.1124944
684.8407781
671.4850642
657.4935156
643.4004914
716.3084314
711.5583426
704.5549804
695.524925
684.7291601
672.4792496
659.1485389
645.1835922
631.1160713
704.0637941
699.3255404
692.3402955
683.3347424
672.5698244
660.3566749
647.0675574
633.1470204
619.1234955
692.01613
687.2950135
680.335744
671.364906
660.6431816
648.4810156
635.2492756
621.3901029
607.4281957
680.1747769
675.4758183
668.5499653
659.6235144
648.956679
636.8589723
623.6995725
609.9178464
596.0342861
668.547903
663.875839
656.9904238
648.117487
637.5165786
625.4960535
612.4231259
598.7340443
584.9446533
657.1425569
652.5018409
645.6634648
636.8526237
626.3280227
614.3966462
601.4234885
587.8413605
574.1610461
645.9647229
641.3595265
634.5743733
625.8336679
615.3951001
603.564087
590.7031653
577.2414113
563.6841646
635.0193764
630.4535931
623.7274348
615.0643692
604.7209133
593.0007338
580.2636897
566.9348471
553.513746
624.3105426
619.7877927
613.125996
604.547548
594.3076461
582.7080371
570.1056985
556.9214322
543.6486498
613.8413544
609.3649912
602.772527
594.2851592
584.1566301
572.6866096
560.2290057
547.2001216
534.0869385
603.6141117
599.1872288
592.6686824
584.2783558
574.2684105
562.9362948
550.6326737
537.7691362
524.8259559
593.6303401
589.2557789
582.815362
574.5275509
564.6428101
553.4562329
541.3150815
528.6260333
515.8624011
583.8908475
579.5712066
573.2127697
565.0324777
555.2789911
544.2449247
532.273991
519.7677754
507.1923999
574.3957811
570.1334248
563.860471
555.7922484
546.1755146
535.3002924
523.5066095
511.1907944
498.8115708
565.1446806
560.9417489
554.7574477
546.8054094
537.3303978
526.6197384
515.0096497
502.8910528
490.7150886
556.1365291
551.9949472
545.902149
538.0699935
528.7411665
518.2001999
506.7793882
494.8641055
482.8977439
547.3697998
543.2912876
537.2925378
529.5835658
520.4049015
510.0381963
498.8117147
487.1051519
475.353999
538.8424966
534.8285764
528.9261292
521.3432626
512.3182742
502.1298673
491.1021815
479.6090991
468.0780482
530.5521885
526.6041855
520.8000143
513.3458289
504.4776483
494.4711052
483.6460983
472.3705833
461.0638346
522.4961249
518.6152093
512.9110566
505.5878069
496.8791172
487.0574774
476.4384533
465.3839859
454.3051076
514.6712831
510.8584635
505.2558179
498.0654168
489.5184888
479.8843112