/*--------------------------------*- C++ -*----------------------------------*\
| =========                 |                                                 |
| \\      /  F ield         | OpenFOAM: The Open Source CFD Toolbox           |
|  \\    /   O peration     | Version:  2212                                  |
|   \\  /    A nd           | Website:  www.openfoam.com                      |
|    \\/     M anipulation  |                                                 |
\*---------------------------------------------------------------------------*/
FoamFile
{
    version     2.0;
    format      ascii;
    arch        "LSB;label=32;scalar=64";
    class       volScalarField;
    location    "18.25000000";
    object      A1C2H3_0;
}
// * * * * * * * * * * * * * * * * * * * * * * * * * * * * * * * * * * * * * //

dimensions      [0 0 0 0 0 0 0];

internalField   nonuniform List<scalar> 
3000
(
2.104837837e-25
2.364459154e-25
2.756222174e-25
3.27827518e-25
3.92530951e-25
4.679754126e-25
5.496157955e-25
6.275159931e-25
6.826007295e-25
7.902270862e-25
8.91275343e-25
1.043689336e-24
1.247242931e-24
1.501733209e-24
1.805749132e-24
2.15401421e-24
2.528948879e-24
2.861080755e-24
1.769975794e-24
2.011969661e-24
2.380459146e-24
2.88077607e-24
3.521913936e-24
4.313170992e-24
5.251432693e-24
6.284022696e-24
7.166533915e-24
3.371097561e-24
3.87211864e-24
4.646216462e-24
5.71956959e-24
7.130190162e-24
8.913908814e-24
1.106098263e-23
1.339952318e-23
1.528703088e-23
5.985628311e-24
6.959558272e-24
8.488001038e-24
1.064855923e-23
1.354281147e-23
1.72518339e-23
2.171363051e-23
2.645176972e-23
3.008884905e-23
1.02915653e-23
1.211925984e-23
1.502867783e-23
1.920540882e-23
2.487215238e-23
3.21713887e-23
4.088502207e-23
4.991415096e-23
5.65939692e-23
1.746918432e-23
2.082602156e-23
2.623188377e-23
3.408012054e-23
4.480756692e-23
5.8627279e-23
7.496750161e-23
9.156898856e-23
1.035476483e-22
2.95598792e-23
3.563416707e-23
4.550329151e-23
5.994229631e-23
7.975619739e-23
1.052299634e-22
1.350853363e-22
1.649766485e-22
1.861848703e-22
5.010079158e-23
6.097648077e-23
7.876106181e-23
1.049128348e-22
1.408637511e-22
1.869589978e-22
2.40594374e-22
2.93736154e-22
3.310250662e-22
8.521724919e-23
1.045370432e-22
1.362749284e-22
1.830962318e-22
2.475021245e-22
3.298663041e-22
4.251738848e-22
5.189133953e-22
5.842015438e-22
1.455249381e-22
1.796450575e-22
2.35875424e-22
3.18998856e-22
4.333472246e-22
5.792553065e-22
7.474004892e-22
9.119355384e-22
1.025959961e-21
2.494281485e-22
3.09425029e-22
4.085194581e-22
5.551964793e-22
7.569366323e-22
1.01390475e-21
1.309153266e-21
1.597032744e-21
1.795853376e-21
4.288497661e-22
5.340108502e-22
7.079683207e-22
9.656686344e-22
1.320026372e-21
1.770790317e-21
2.28759348e-21
2.79023923e-21
3.13656446e-21
7.391781148e-22
9.230703049e-22
1.227593685e-21
1.678960552e-21
2.29948663e-21
3.088051058e-21
3.99074903e-21
4.867143533e-21
5.470012743e-21
1.27653046e-21
1.59754559e-21
2.129552574e-21
2.918391413e-21
4.002664559e-21
5.379546969e-21
6.953846058e-21
8.479108351e-21
9.529290869e-21
2.207698895e-21
2.767361281e-21
3.695382891e-21
5.071770258e-21
6.963349033e-21
9.363964852e-21
1.210364495e-20
1.469905485e-20
1.6584366e-20
3.822090162e-21
4.796817923e-21
6.413724981e-21
8.812227321e-21
1.21080621e-20
1.628935916e-20
2.106643533e-20
2.574848739e-20
2.885707284e-20
6.621862354e-21
8.318080967e-21
1.113257017e-20
1.530794682e-20
2.1044635e-20
2.831973113e-20
3.662210257e-20
4.465596508e-20
5.015942981e-20
1.147846039e-20
1.442832699e-20
1.932384253e-20
2.658683231e-20
3.656445687e-20
4.921413163e-20
6.364390876e-20
7.759744934e-20
8.715805994e-20
1.990448301e-20
2.50321782e-20
3.354299361e-20
4.616991245e-20
6.351443332e-20
8.549885242e-20
1.105690934e-19
1.348032985e-19
1.514025331e-19
3.452577479e-20
4.343632087e-20
5.822696709e-20
8.017081253e-20
1.103101291e-19
1.485046405e-19
1.920488889e-19
2.341289213e-19
2.629454456e-19
5.990105809e-20
7.538183062e-20
1.01079397e-19
1.392039284e-19
1.915610021e-19
2.578984772e-19
3.33508891e-19
4.065577604e-19
4.5657127e-19
1.039446824e-19
1.308360999e-19
1.754748037e-19
2.416955679e-19
3.326242365e-19
4.478072463e-19
5.79055503e-19
7.058211429e-19
7.925898804e-19
1.803951674e-19
2.27101625e-19
3.046286994e-19
4.196252869e-19
5.774976802e-19
7.774267206e-19
1.005166894e-18
1.225053654e-18
1.375515234e-18
3.130969604e-19
3.942081287e-19
5.28829143e-19
7.284777396e-19
1.002490903e-18
1.349378487e-18
1.744356385e-18
2.125547856e-18
2.386281115e-18
5.434209233e-19
6.842562162e-19
9.179634351e-19
1.264470564e-18
1.739869583e-18
2.34142208e-18
3.025999615e-18
3.686306114e-18
4.137713379e-18
9.431085826e-19
1.187586402e-18
1.593183922e-18
2.194326591e-18
3.018671346e-18
4.061121305e-18
5.246598653e-18
6.389179795e-18
7.169727695e-18
1.636472804e-18
2.060717454e-18
2.764318866e-18
3.806625215e-18
5.234994704e-18
7.039804067e-18
9.090296842e-18
1.106460417e-17
1.241204717e-17
2.838694171e-18
3.574515533e-18
4.794311998e-18
6.6001261e-18
9.072660418e-18
1.219347386e-17
1.573472382e-17
1.913989017e-17
2.146092278e-17
4.921721493e-18
6.197022089e-18
8.30988492e-18
1.143516157e-17
1.570951993e-17
2.109712147e-17
2.720076859e-17
3.305981713e-17
3.70468518e-17
8.527333486e-18
1.07354067e-17
1.439086771e-17
1.979202561e-17
2.716848305e-17
3.644975314e-17
4.69431999e-17
5.699420293e-17
6.381937135e-17
1.476042094e-17
1.857828593e-17
2.489266457e-17
3.420971213e-17
4.691127715e-17
6.285749967e-17
8.084060416e-17
9.801868667e-17
1.096527403e-16
2.551803378e-17
3.210744275e-17
4.299255483e-17
5.902635885e-17
8.083585658e-17
1.08142159e-16
1.388404344e-16
1.680670552e-16
1.877973592e-16
4.404688878e-17
5.539361221e-17
7.410950971e-17
1.01620092e-16
1.389385598e-16
1.855083558e-16
2.376662615e-16
2.871259834e-16
3.203869377e-16
7.588288973e-17
9.536516208e-17
1.274420766e-16
1.74471869e-16
2.380592085e-16
3.170971585e-16
4.052254241e-16
4.884039344e-16
5.440896997e-16
1.30424968e-16
1.637577247e-16
2.185195506e-16
2.985643885e-16
4.063697347e-16
5.397499728e-16
6.877021165e-16
8.265936239e-16
9.191031662e-16
2.235541979e-16
2.803422818e-16
3.733977183e-16
5.089280061e-16
6.906348022e-16
9.142489542e-16
1.160832821e-15
1.39091437e-15
1.543290663e-15
3.819612242e-16
4.782265112e-16
6.354951649e-16
8.635954641e-16
1.167822258e-15
1.539950993e-15
1.947605086e-15
2.325438412e-15
2.574118027e-15
6.502408788e-16
8.124847457e-16
1.076621577e-15
1.457901713e-15
1.963449286e-15
2.577676101e-15
3.245688748e-15
3.860372001e-15
4.262273255e-15
1.102426594e-15
1.374075692e-15
1.814583453e-15
2.447059703e-15
3.280222683e-15
4.285063605e-15
5.369426924e-15
6.359613317e-15
7.00258168e-15
1.860575865e-15
2.312067779e-15
3.040987636e-15
4.081390768e-15
5.442214056e-15
7.070530426e-15
8.813357321e-15
1.039223344e-14
1.141026143e-14
3.124433069e-15
3.868768443e-15
5.064668381e-15
6.760671926e-15
8.962203125e-15
1.157467611e-14
1.434724566e-14
1.683878567e-14
1.843397177e-14
5.218297506e-15
6.434664567e-15
8.378771266e-15
1.111703341e-14
1.464320172e-14
1.879178631e-14
2.315683002e-14
2.704790534e-14
2.952186835e-14
8.664299234e-15
1.063342468e-14
1.376325461e-14
1.814004398e-14
2.372992079e-14
3.024941574e-14
3.705036447e-14
4.30650167e-14
4.686351293e-14
1.429571928e-14
1.745199308e-14
2.243984934e-14
2.936353504e-14
3.813259217e-14
4.827147013e-14
5.875925185e-14
6.796379828e-14
7.37397004e-14
2.34303025e-14
2.843756834e-14
3.630394369e-14
4.714199175e-14
6.075483295e-14
7.636055595e-14
9.237244312e-14
1.063233039e-13
1.150250267e-13
3.813239949e-14
4.599274646e-14
5.82682403e-14
7.505587702e-14
9.597013759e-14
1.197497218e-13
1.439600387e-13
1.649105539e-13
1.779056371e-13
6.160519084e-14
7.381334192e-14
9.276748468e-14
1.185012815e-13
1.503094545e-13
1.861935545e-13
2.224632595e-13
2.536517059e-13
2.728988371e-13
9.87715121e-14
1.175317871e-13
1.464936202e-13
1.855414925e-13
2.334469958e-13
2.870959415e-13
3.409578596e-13
3.870069332e-13
4.15294504e-13
1.571257656e-13
1.856545385e-13
2.294585406e-13
2.881287878e-13
3.59605471e-13
4.391093855e-13
5.184390474e-13
5.859081065e-13
6.271837866e-13
2.479726887e-13
2.909173788e-13
3.565201899e-13
4.438472063e-13
5.495487066e-13
6.663921143e-13
7.823318681e-13
8.804777815e-13
9.403032721e-13
3.882150554e-13
4.522319876e-13
5.495616026e-13
6.783862035e-13
8.333941115e-13
1.003779332e-12
1.172007496e-12
1.313830306e-12
1.400007683e-12
6.029167916e-13
6.974664596e-13
8.405827179e-13
1.029023752e-12
1.25455544e-12
1.50121917e-12
1.743693156e-12
1.947373412e-12
2.070803469e-12
9.288925824e-13
1.067318632e-12
1.276010157e-12
1.54950684e-12
1.875273669e-12
2.22998188e-12
2.577322082e-12
2.86818114e-12
3.044034205e-12
1.419836551e-12
1.62085251e-12
1.922818863e-12
2.316901859e-12
2.784313354e-12
3.291257295e-12
3.786000449e-12
4.199179676e-12
4.448499772e-12
2.153518883e-12
2.443232114e-12
2.877056158e-12
3.441126908e-12
4.107658173e-12
4.828082721e-12
5.529114883e-12
6.113228023e-12
6.465119605e-12
3.241853533e-12
3.656520681e-12
4.275714734e-12
5.078188736e-12
6.023323267e-12
7.041824176e-12
8.030412527e-12
8.852517061e-12
9.347122663e-12
4.844931373e-12
5.434704554e-12
6.313210385e-12
7.448506983e-12
8.781811739e-12
1.021489193e-11
1.16028814e-11
1.275523589e-11
1.344778562e-11
7.190509348e-12
8.024522888e-12
9.264178465e-12
1.086220823e-11
1.273429273e-11
1.474197444e-11
1.668291365e-11
1.829215345e-11
1.925846569e-11
1.060098533e-11
1.177425465e-11
1.35149192e-11
1.575394706e-11
1.837132074e-11
2.11728892e-11
2.387711862e-11
2.611670452e-11
2.746065498e-11
1.553061387e-11
1.717338179e-11
1.960665121e-11
2.273071921e-11
2.637591562e-11
3.027124752e-11
3.402634718e-11
3.71334447e-11
3.899710029e-11
2.261668956e-11
2.49070751e-11
2.82948427e-11
3.263734831e-11
3.769616315e-11
4.309460346e-11
4.829309011e-11
5.259144692e-11
5.516880973e-11
3.274971833e-11
3.593081788e-11
4.063036961e-11
4.664594937e-11
5.364428322e-11
6.110372141e-11
6.828055051e-11
7.421149533e-11
7.776714129e-11
4.716930987e-11
5.157229433e-11
5.807020767e-11
6.637781666e-11
7.603147475e-11
8.631119372e-11
9.619451779e-11
1.043589554e-10
1.092533097e-10
6.75947712e-11
7.367004423e-11
8.262792734e-11
9.406898566e-11
1.073509302e-10
1.214830292e-10
1.350628602e-10
1.46278141e-10
1.530017449e-10
9.640229018e-11
1.047614528e-10
1.170775637e-10
1.327943249e-10
1.510253755e-10
1.704111797e-10
1.890321716e-10
2.044090309e-10
2.136289569e-10
1.368642997e-10
1.483365429e-10
1.6522862e-10
1.867695696e-10
2.117404733e-10
2.382804063e-10
2.637669772e-10
2.848134144e-10
2.974360099e-10
1.934712473e-10
2.091788968e-10
2.32295154e-10
2.617563092e-10
2.958914949e-10
3.3215944e-10
3.669839145e-10
3.957449322e-10
4.130003078e-10
2.723616458e-10
2.938209219e-10
3.253881164e-10
3.656015761e-10
4.121777538e-10
4.616539314e-10
5.091612458e-10
5.484057196e-10
5.719608149e-10
3.818929338e-10
4.111475345e-10
4.541672605e-10
5.089511534e-10
5.723870922e-10
6.397667672e-10
7.044723566e-10
7.579407883e-10
7.900493037e-10
5.33393135e-10
5.731899124e-10
6.316966496e-10
7.061835474e-10
7.924205831e-10
8.840191478e-10
9.719995518e-10
1.044728727e-09
1.088427509e-09
7.421410946e-10
7.961587004e-10
8.755553836e-10
9.766188856e-10
1.093614487e-09
1.217892083e-09
1.337289996e-09
1.436032122e-09
1.4953944e-09
1.028630369e-09
1.101772998e-09
1.209261538e-09
1.346062531e-09
1.504420894e-09
1.672650978e-09
1.834317171e-09
1.96807128e-09
2.048527082e-09
1.420177352e-09
1.518946252e-09
1.664070946e-09
1.848745264e-09
2.062508562e-09
2.289613781e-09
2.50790669e-09
2.688578266e-09
2.797311038e-09
1.952936298e-09
2.085891051e-09
2.281211563e-09
2.529718606e-09
2.817339343e-09
3.122913938e-09
3.416673032e-09
3.659873423e-09
3.80629894e-09
2.674380587e-09
2.852699926e-09
3.114606832e-09
3.447753515e-09
3.833261702e-09
4.242791807e-09
4.636492659e-09
4.962482651e-09
5.158811899e-09
3.6462991e-09
3.884446824e-09
4.2341263e-09
4.678772061e-09
5.193140435e-09
5.73942196e-09
6.264509316e-09
6.699281349e-09
6.961162569e-09
4.948337533e-09
5.264832919e-09
5.729377922e-09
6.31981463e-09
7.002511213e-09
7.727250131e-09
8.423631018e-09
9.000112258e-09
9.347340543e-09
6.682086598e-09
7.100370826e-09
7.714024667e-09
8.493510883e-09
9.394211912e-09
1.034977517e-08
1.126743825e-08
1.2026786e-08
1.248406425e-08
8.975683286e-09
9.525064447e-09
1.033056984e-08
1.135298341e-08
1.253340249e-08
1.378466982e-08
1.498538306e-08
1.597833296e-08
1.657605508e-08
1.198885017e-08
1.270550038e-08
1.37555142e-08
1.508707121e-08
1.662284442e-08
1.824909838e-08
1.980812615e-08
2.109633727e-08
2.187136588e-08
1.59182547e-08
1.684622372e-08
1.820474592e-08
1.992572215e-08
2.190827967e-08
2.400506194e-08
2.601282469e-08
2.767017143e-08
2.866657789e-08
2.100302885e-08
2.219523283e-08
2.393899512e-08
2.614538464e-08
2.868372462e-08
3.13645694e-08
3.392818206e-08
3.604193482e-08
3.731166888e-08
2.753025996e-08
2.904940954e-08
3.126915577e-08
3.407417856e-08
3.729646642e-08
4.069444415e-08
4.393905982e-08
4.661090184e-08
4.821436126e-08
3.584024447e-08
3.775965216e-08
4.056125266e-08
4.409665423e-08
4.815157404e-08
5.242056686e-08
5.649046596e-08
5.983730044e-08
6.184377536e-08
4.633126849e-08
4.873551218e-08
5.224086244e-08
5.665793579e-08
6.171572671e-08
6.703137985e-08
7.20907551e-08
7.624526716e-08
7.873324001e-08
5.946372928e-08
6.244913046e-08
6.679678357e-08
7.226706781e-08
7.852020042e-08
8.508050577e-08
9.131390881e-08
9.642485884e-08
9.948214786e-08
7.57633946e-08
7.943829176e-08
8.478380019e-08
9.149942279e-08
9.916288389e-08
1.07188371e-07
1.148008031e-07
1.210330409e-07
1.247567826e-07
9.582366303e-08
1.003084664e-07
1.068244154e-07
1.149980634e-07
1.243092383e-07
1.340427668e-07
1.43259413e-07
1.507936146e-07
1.552900879e-07
1.203067192e-07
1.257337452e-07
1.336094775e-07
1.434740006e-07
1.546921608e-07
1.663983265e-07
1.774639465e-07
1.86496088e-07
1.918803878e-07
1.499435322e-07
1.564566251e-07
1.658976707e-07
1.777053358e-07
1.911107554e-07
2.050749371e-07
2.182529412e-07
2.289935312e-07
2.353891074e-07
1.85532695e-07
1.932866539e-07
2.045138899e-07
2.185353185e-07
2.344280583e-07
2.509551444e-07
2.665263911e-07
2.791994937e-07
2.867375706e-07
2.279381506e-07
2.370979844e-07
2.503465596e-07
2.668693917e-07
2.855677965e-07
3.049806402e-07
3.23242e-07
3.380840807e-07
3.469029794e-07
2.780858897e-07
2.888259291e-07
3.043439929e-07
3.23671325e-07
3.455102886e-07
3.68147944e-07
3.894106754e-07
4.066693094e-07
4.169136934e-07
3.369597347e-07
3.494626317e-07
3.67509911e-07
3.899585604e-07
4.152876131e-07
4.41503406e-07
4.660913942e-07
4.860238722e-07
4.978439366e-07
4.055963483e-07
4.200519946e-07
4.408982613e-07
4.667969081e-07
4.959781809e-07
5.261376686e-07
5.543855709e-07
5.772574391e-07
5.908080644e-07
4.850796149e-07
5.016840088e-07
5.256074806e-07
5.552947348e-07
5.88700852e-07
6.231797199e-07
6.554310629e-07
6.815146291e-07
6.969545183e-07
5.765345469e-07
5.954886361e-07
6.22774347e-07
6.565967867e-07
6.946087338e-07
7.337906745e-07
7.703959405e-07
7.999687759e-07
8.1745959e-07
6.811208639e-07
7.026293895e-07
7.335675645e-07
7.718777829e-07
8.148827895e-07
8.591574019e-07
9.004721384e-07
9.338156007e-07
9.535211075e-07
8.000263857e-07
8.242967473e-07
8.591812093e-07
9.023359041e-07
9.507253764e-07
1.000486119e-06
1.046869099e-06
1.084266897e-06
1.106352144e-06
9.344603657e-07
9.617015248e-07
1.000828157e-06
1.049186289e-06
1.103353821e-06
1.158996044e-06
1.210807501e-06
1.252544317e-06
1.277174844e-06
1.085646878e-06
1.116068314e-06
1.159733598e-06
1.21365464e-06
1.273994123e-06
1.335913203e-06
1.393513158e-06
1.439873347e-06
1.46721443e-06
1.254818357e-06
1.288629085e-06
1.337128724e-06
1.39697102e-06
1.463874872e-06
1.532464463e-06
1.596211157e-06
1.647477525e-06
1.677693482e-06
1.443209368e-06
1.480617029e-06
1.534244676e-06
1.600363913e-06
1.674221438e-06
1.749871853e-06
1.820120299e-06
1.876572976e-06
1.909826515e-06
1.652050688e-06
1.693260712e-06
1.752306798e-06
1.825054616e-06
1.9062505e-06
1.989347228e-06
2.066447885e-06
2.128363294e-06
2.164814921e-06
1.882563738e-06
1.927778588e-06
1.992529267e-06
2.072251994e-06
2.161164947e-06
2.252087316e-06
2.336384892e-06
2.404034818e-06
2.443842303e-06
2.135955424e-06
2.185373921e-06
2.256110124e-06
2.34314765e-06
2.440149194e-06
2.539269179e-06
2.631101563e-06
2.704752323e-06
2.748070224e-06
2.413413411e-06
2.467230139e-06
2.544226742e-06
2.638911526e-06
2.744364931e-06
2.852046105e-06
2.951743434e-06
3.03165515e-06
3.078634396e-06
2.716101853e-06
2.774506641e-06
2.858031749e-06
2.960687966e-06
3.074947329e-06
3.191543959e-06
3.299427807e-06
3.385853781e-06
3.436641306e-06
3.045157597e-06
3.108335084e-06
3.198649416e-06
3.309592226e-06
3.433001692e-06
3.558857975e-06
3.675240673e-06
3.768426854e-06
3.8231653e-06
3.401686857e-06
3.469816129e-06
3.567172514e-06
3.686707466e-06
3.819600585e-06
3.955050013e-06
4.080234088e-06
4.180418636e-06
4.239246099e-06
3.786762375e-06
3.860016671e-06
3.964659641e-06
4.093082184e-06
4.235781394e-06
4.381146254e-06
4.515423979e-06
4.62283692e-06
4.685886752e-06
4.201421027e-06
4.279967514e-06
4.392132992e-06
4.529728111e-06
4.682544342e-06
4.83813533e-06
4.98178838e-06
5.096651343e-06
5.164051998e-06
4.646661896e-06
4.730661505e-06
4.850576576e-06
4.997618519e-06
5.160850914e-06
5.326966858e-06
5.480266074e-06
5.602792102e-06
5.674667033e-06
5.123444761e-06
5.213052081e-06
5.340934845e-06
5.497686954e-06
5.671622684e-06
5.848550375e-06
6.011755609e-06
6.142149046e-06
6.218616636e-06
5.632688998e-06
5.728052218e-06
5.864111714e-06
6.030826339e-06
6.215740516e-06
6.403754622e-06
6.57711467e-06
6.715571108e-06
6.796744646e-06
6.175272851e-06
6.276533749e-06
6.420969944e-06
6.59788843e-06
6.794044105e-06
6.993407174e-06
7.177159779e-06
7.323866067e-06
7.409853746e-06
6.752033049e-06
6.859327026e-06
7.012330859e-06
7.199683605e-06
7.40733183e-06
7.618294362e-06
7.812666283e-06
7.967800581e-06
8.058705537e-06
7.363764742e-06
7.477220881e-06
7.638974355e-06
7.836980931e-06
8.056360892e-06
8.27916147e-06
8.48436861e-06
8.648100492e-06
8.74402086e-06
8.011221702e-06
8.130962867e-06
8.301639186e-06
8.510508495e-06
8.741847697e-06
8.976713177e-06
9.192960754e-06
9.365451344e-06
9.466480339e-06
8.695116787e-06
8.821259738e-06
9.001023473e-06
9.220953963e-06
9.464468454e-06
9.711614198e-06
9.939096957e-06
1.01204991e-05
1.022672512e-05
9.416122599e-06
9.548778136e-06
9.737785426e-06
9.968965325e-06
1.022485997e-05
1.048449011e-05
1.072339257e-05
1.091385102e-05
1.102535775e-05
1.017487234e-05
1.031414545e-05
1.051254423e-05
1.075515182e-05
1.102362058e-05
1.129592832e-05
1.154642504e-05
1.17460767e-05
1.186294325e-05
1.09719608e-05
1.111795085e-05
1.132588105e-05
1.158008495e-05
1.186131123e-05
1.214647916e-05
1.240873505e-05
1.261770917e-05
1.274001019e-05
1.18079455e-05
1.196074636e-05
1.217834023e-05
1.24442997e-05
1.273845664e-05
1.303665708e-05
1.331082769e-05
1.352924612e-05
1.365705197e-05
1.268334786e-05
1.284304815e-05
1.307043044e-05
1.334829571e-05
1.365554656e-05
1.39669419e-05
1.425317373e-05
1.44811512e-05
1.461452809e-05
1.359865455e-05
1.376533778e-05
1.400262606e-05
1.429253862e-05
1.461303709e-05
1.493778014e-05
1.523621099e-05
1.547385533e-05
1.561286545e-05
1.455431877e-05
1.472806356e-05
1.497536844e-05
1.52774614e-05
1.561135199e-05
1.594958636e-05
1.626034563e-05
1.650775804e-05
1.665245972e-05
1.555076164e-05
1.573164188e-05
1.598906732e-05
1.63034657e-05
1.665088409e-05
1.70027445e-05
1.732595353e-05
1.758322885e-05
1.773367673e-05
1.65883736e-05
1.677645865e-05
1.704410219e-05
1.737092326e-05
1.773199663e-05
1.809760931e-05
1.84333817e-05
1.870060865e-05
1.885685378e-05
1.766751576e-05
1.786287063e-05
1.814082367e-05
1.848017724e-05
1.885502464e-05
1.923450763e-05
1.958294955e-05
1.986021099e-05
2.002230105e-05
1.87885213e-05
1.899120683e-05
1.927955486e-05
1.963154361e-05
2.002027625e-05
2.04137398e-05
2.07749503e-05
2.106232346e-05
2.123030285e-05
1.995169679e-05
2.016176981e-05
2.046059268e-05
2.082531244e-05
2.122803407e-05
2.163558092e-05
2.200965223e-05
2.230720898e-05
2.248111897e-05
2.115732352e-05
2.137483704e-05
2.168420918e-05
2.206174924e-05
2.247855644e-05
2.290028213e-05
2.328729996e-05
2.359510703e-05
2.37749859e-05
2.240565878e-05
2.263066215e-05
2.29506528e-05
2.334109616e-05
2.377207865e-05
2.420807187e-05
2.460811571e-05
2.492623488e-05
2.511211806e-05
2.369693708e-05
2.392947612e-05
2.426014958e-05
2.466357325e-05
2.510881418e-05
2.555915706e-05
2.59723004e-05
2.630078877e-05
2.649270896e-05
2.503137135e-05
2.527148854e-05
2.561290432e-05
2.602937958e-05
2.648895584e-05
2.695372421e-05
2.738003487e-05
2.771894502e-05
2.79169323e-05
2.640915403e-05
2.665688861e-05
2.700910175e-05
2.743869437e-05
2.791267685e-05
2.839194055e-05
2.883148086e-05
2.918086111e-05
2.938494306e-05
2.783045817e-05
2.808584633e-05
2.844890746e-05
2.889167796e-05
2.938013182e-05
2.987395496e-05
3.032678209e-05
3.068667663e-05
3.089687847e-05
2.929543864e-05
2.955851359e-05
2.993246918e-05
3.038847303e-05
3.089145791e-05
3.139989907e-05
3.186606517e-05
3.22365143e-05
3.245285896e-05
3.080423297e-05
3.10750251e-05
3.145991763e-05
3.192920548e-05
3.244677573e-05
3.296988824e-05
3.344944066e-05
3.383048087e-05
3.405298913e-05
3.23569623e-05
3.263549929e-05
3.303136741e-05
3.351398527e-05
3.404619019e-05
3.458402231e-05
3.507700386e-05
3.546866808e-05
3.569735861e-05
3.395373217e-05
3.42400391e-05
3.46469178e-05
3.514290725e-05
3.568979134e-05
3.624238652e-05
3.674883564e-05
3.715115337e-05
3.738604286e-05
3.559463342e-05
3.588873288e-05
3.630665364e-05
3.681605205e-05
3.737765519e-05
3.794505228e-05
3.846500323e-05
3.887800068e-05
3.911910393e-05
3.727974297e-05
3.758165519e-05
3.801064613e-05
3.853348679e-05
3.910984442e-05
3.969207786e-05
4.022556091e-05
4.064926116e-05
4.089659115e-05
3.900912458e-05
3.931886748e-05
3.975895349e-05
4.029526581e-05
4.088640915e-05
4.148350914e-05
4.203055073e-05
4.246497384e-05
4.271854182e-05
4.078282953e-05
4.110041883e-05
4.155162171e-05
4.210143137e-05
4.270738755e-05
4.331938023e-05
4.388000313e-05
4.432516629e-05
4.458498184e-05
4.260089724e-05
4.292634656e-05
4.338868513e-05
4.39520142e-05
4.457280646e-05
4.519971408e-05
4.577393754e-05
4.622985517e-05
4.649592627e-05
4.446335591e-05
4.479667685e-05
4.527016706e-05
4.584703419e-05
4.648268201e-05
4.712452307e-05
4.771236294e-05
4.817904682e-05
4.845137992e-05
4.637022307e-05
4.671142526e-05
4.719608035e-05
4.778650086e-05
4.843702011e-05
4.90938095e-05
4.969527837e-05
5.017273773e-05
5.045133783e-05
4.832150607e-05
4.867059732e-05
4.916642787e-05
4.977041388e-05
5.043581691e-05
5.110756607e-05
5.172267346e-05
5.221091512e-05
5.249578581e-05
5.031720254e-05
5.067418885e-05
5.118120289e-05
5.179876347e-05
5.247905935e-05
5.316577644e-05
5.379452889e-05
5.429355732e-05
5.458470085e-05
5.235730085e-05
5.272218648e-05
5.324038964e-05
5.387153094e-05
5.45667256e-05
5.526841563e-05
5.591081681e-05
5.642063423e-05
5.671805153e-05
5.444178059e-05
5.481456815e-05
5.534396373e-05
5.598868913e-05
5.669878541e-05
5.741545033e-05
5.807150116e-05
5.859210764e-05
5.889579842e-05
5.657061299e-05
5.695130351e-05
5.749189258e-05
5.815020273e-05
5.887520057e-05
5.960683939e-05
6.027653814e-05
6.080793165e-05
6.11178944e-05
5.874376132e-05
5.913235428e-05
5.968413573e-05
6.03560287e-05
6.109592516e-05
6.184253409e-05
6.252587646e-05
6.306805301e-05
6.338428507e-05
6.09611812e-05
6.135767461e-05
6.192064525e-05
6.260611657e-05
6.3360906e-05
6.41224785e-05
6.481945775e-05
6.537241139e-05
6.569490899e-05
6.322282095e-05
6.362721138e-05
6.420136601e-05
6.490040879e-05
6.567008289e-05
6.644660979e-05
6.715721679e-05
6.772093972e-05
6.804969803e-05
6.552862189e-05
6.594090452e-05
6.652623598e-05
6.723884099e-05
6.802338889e-05
6.881485849e-05
6.953908182e-05
7.011356446e-05
7.04485776e-05
6.78785186e-05
6.829868728e-05
6.889518654e-05
6.962134226e-05
7.042075064e-05
7.122714877e-05
7.196497479e-05
7.25502058e-05
7.289146691e-05
7.02724392e-05
7.07004865e-05
7.130814267e-05
7.20478354e-05
7.286208853e-05
7.368339864e-05
7.443481158e-05
7.503077794e-05
7.537827917e-05
7.271030559e-05
7.314622279e-05
7.376502325e-05
7.451823712e-05
7.534731698e-05
7.618352021e-05
7.694850219e-05
7.755518927e-05
7.790892184e-05
7.519203363e-05
7.563581082e-05
7.626574119e-05
7.70324583e-05
7.787634457e-05
7.872741983e-05
7.950595095e-05
8.012334252e-05
8.048329673e-05
7.771753337e-05
7.816915942e-05
7.881020367e-05
7.959040408e-05
8.044907429e-05
8.131499827e-05
8.210705667e-05
8.273513494e-05
8.31013002e-05
8.028670916e-05
8.07461718e-05
8.139831227e-05
8.219197407e-05
8.306540356e-05
8.394615085e-05
8.475171272e-05
8.539045839e-05
8.576282325e-05
8.289945984e-05
8.336674567e-05
8.402996309e-05
8.483706244e-05
8.572522447e-05
8.662076752e-05
8.743980714e-05
8.808919945e-05
8.846775157e-05
8.555567882e-05
8.603077331e-05
8.670504682e-05
8.752555797e-05
8.84284237e-05
8.933873292e-05
9.01712227e-05
9.083123937e-05
9.121596557e-05
8.825525412e-05
8.873814164e-05
8.942344883e-05
9.025734412e-05
9.117488266e-05
9.209992636e-05
9.294583684e-05
9.361645412e-05
9.400734037e-05
9.09980684e-05
9.14887322e-05
9.218504907e-05
9.303229897e-05
9.396447735e-05
9.490422176e-05
9.576352157e-05
9.644471423e-05
9.684174562e-05
9.378399887e-05
9.428242109e-05
9.498972209e-05
9.585029512e-05
9.679707825e-05
9.775148748e-05
9.862414333e-05
9.93158846e-05
9.971904534e-05
9.661291719e-05
9.711907882e-05
9.783733674e-05
9.871119947e-05
9.967255009e-05
0.0001006415861
0.0001015275626
0.0001022298242
0.0001026390975
9.948468917e-05
9.999857001e-05
0.000100727756
0.0001016148729
0.0001025907514
0.0001035743738
0.0001044736336
0.0001051863854
0.0001056017536
0.0001023991744
0.000102920753
0.0001036608363
0.0001045611697
0.0001055515342
0.0001065497
0.0001074622034
0.0001081854134
0.0001086068578
0.0001053562257
0.0001058854792
0.0001066364273
0.000107549937
0.0001085547428
0.0001095674064
0.0001104931111
0.0001112267455
0.000111654246
0.0001083556883
0.0001088925923
0.0001096543702
0.0001105810135
0.0001116002129
0.0001126273256
0.0001135661865
0.000114310209
0.0001147437442
0.0001113973984
0.0001119419269
0.0001127144974
0.0001136542283
0.0001146877702
0.0001157292798
0.0001166812482
0.0001174356198
0.0001178751668
0.000114481182
0.000115033307
0.0001158166299
0.0001167693989
0.000117817228
0.000118873078
0.0001198381016
0.00012060278
0.0001210483138
0.0001176068527
0.0001181665436
0.0001189605752
0.0001199263286
0.0001209883848
0.0001220585135
0.0001230365349
0.0001238114741
0.0001242629674
0.0001207742084
0.0001213414318
0.0001221461243
0.0001231248029
0.0001242010202
0.0001252853597
0.0001262763158
0.0001270614647
0.0001275188874
0.0001239830278
0.0001245577468
0.000125373047
0.0001263645854
0.0001274548902
0.000128553365
0.0001295571851
0.0001303524866
0.0001308158048
0.0001272330653
0.0001278152386
0.000128641087
0.0001296454113
0.0001307497208
0.0001318622454
0.0001328788496
0.000133684239
0.0001341534142
0.0001305240445
0.0001311136248
0.0001319499537
0.0001329669798
0.0001340851994
0.0001352116761
0.0001362409727
0.0001370563755
0.0001375313635
0.0001338556493
0.0001344525824
0.0001352993135
0.0001363289443
0.0001374609644
0.0001386012796
0.000139643162
0.0001404684915
0.0001409492406
0.000137227513
0.0001378317357
0.0001386887776
0.0001397308993
0.0001408765913
0.0001420306115
0.0001430849538
0.0001439201076
0.0001444065565
0.0001406392049
0.0001412506422
0.0001421178866
0.0001431723642
0.0001443315752
0.0001454991415
0.0001465657937
0.0001474106492
0.0001479027249
0.000144090212
0.0001447087743
0.0001455860915
0.0001466527632
0.0001478253096
0.0001490062306
0.0001500850121
0.0001509394214
0.0001514370354
0.0001475799182
0.0001482054973
0.0001490927306
0.0001501714003
0.0001513570596
0.0001525511033
0.0001536417944
0.0001545055779
0.0001550086226
0.0001511075773
0.0001517400414
0.000152637
0.0001537274291
0.0001549259299
0.0001561328131
0.0001572351454
0.0001581080833
0.0001586164271
0.0001546722813
0.0001553114696
0.00015621792
0.0001573198163
0.0001585308265
0.0001597502019
0.0001608638465
0.0001617456692
0.0001622591505
0.0001582729227
0.0001589186377
0.0001598342938
0.0001609472988
0.0001621704107
0.0001634018525
0.0001645264055
0.0001654167819
0.0001659352022
0.0001619081499
0.0001625601494
0.00016348466
0.0001646083343
0.0001658430477
0.0001670860331
0.0001682209992
0.0001691195233
0.0001696426391
0.0001655763159
0.0001662343035
0.0001671672385
0.0001683010436
0.0001695467463
0.0001708006357
0.0001719454087
0.0001728515836
0.0001733790973
0.0001692754213
0.0001699390346
0.0001708798689
0.0001720231478
0.0001732790929
0.0001745431065
0.0001756969477
0.0001766101684
0.0001771417174
0.0001730030493
0.000173671848
0.0001746199435
0.0001757718983
0.0001770371794
0.0001783103713
0.0001794723855
0.0001803919193
0.0001809270647
0.000176756297
0.0001774297486
0.0001783843345
0.000179544002
0.0001808175257
0.0001820987564
0.0001832678659
0.0001841928313
0.0001847310456
0.0001805317009
0.0001812091664
0.0001821693179
0.0001833355436
0.0001846160011
0.0001859039075
0.0001870788249
0.0001880081698
0.0001885488239
0.0001843251614
0.0001850058796
0.000185970496
0.0001871419072
0.0001884277439
0.0001897207095
0.0001908999097
0.0001918323894
0.0001923747394
0.0001881318671
0.000188814939
0.0001897827214
0.0001909576998
0.0001922470861
0.0001935432108
0.0001947249039
0.0001956590594
0.0001962022344
0.0001919462216
0.0001926305958
0.0001936000261
0.0001947766825
0.0001960674843
0.0001973645562
0.0001985466624
0.0001994808006
0.0002000237912
0.0001957617776
0.0001964462358
0.0001974155574
0.0001985917089
0.0001998814648
0.0002011769358
0.0002023570623
0.0002032892393
0.0002038308882
0.000199571183
0.000200254329
0.0002012215303
0.0002023946811
0.0002036805817
0.0002049715491
0.0002061469754
0.000207074984
0.0002076139789
0.000203366144
0.0002040463946
0.0002050091982
0.0002061765267
0.0002074554017
0.0002087385966
0.0002099062652
0.0002108276295
0.0002113625005
0.0002071374084
0.0002078129898
0.0002087688468
0.0002099272006
0.0002111955154
0.0002124673014
0.0002136238183
0.0002145357955
0.000215064917
0.0002108747765
0.0002115437251
0.0002124898182
0.0002136357197