/*--------------------------------*- C++ -*----------------------------------*\
| =========                 |                                                 |
| \\      /  F ield         | OpenFOAM: The Open Source CFD Toolbox           |
|  \\    /   O peration     | Version:  2212                                  |
|   \\  /    A nd           | Website:  www.openfoam.com                      |
|    \\/     M anipulation  |                                                 |
\*---------------------------------------------------------------------------*/
FoamFile
{
    version     2.0;
    format      ascii;
    arch        "LSB;label=32;scalar=64";
    class       volScalarField;
    location    "18.25000000";
    object      A2;
}
// * * * * * * * * * * * * * * * * * * * * * * * * * * * * * * * * * * * * * //

dimensions      [0 0 0 0 0 0 0];

internalField   nonuniform List<scalar> 
3000
(
6.348852249e-24
7.131951362e-24
8.313631226e-24
9.888306507e-24
1.183996466e-23
1.411560594e-23
1.657813573e-23
1.892784988e-23
2.058937828e-23
2.383573136e-23
2.688366304e-23
3.148094624e-23
3.762076017e-23
4.52969843e-23
5.446705746e-23
6.497182434e-23
7.628103005e-23
8.629916957e-23
5.338802921e-23
6.068732242e-23
7.180212018e-23
8.689324735e-23
1.062319767e-22
1.300987729e-22
1.583996918e-22
1.895458496e-22
2.161651608e-22
1.016828917e-22
1.167952597e-22
1.401444803e-22
1.725201823e-22
2.150689325e-22
2.688714967e-22
3.33633999e-22
4.041717437e-22
4.611049205e-22
1.805453621e-22
2.099221532e-22
2.560247976e-22
3.211940377e-22
4.084938072e-22
5.203696226e-22
6.54951491e-22
7.978687342e-22
9.075745421e-22
3.104259936e-22
3.655550283e-22
4.533122616e-22
5.792956683e-22
7.502225794e-22
9.703906584e-22
1.233221456e-21
1.505568623e-21
1.70705315e-21
5.269256767e-22
6.281785213e-22
7.912364648e-22
1.027964197e-21
1.35153807e-21
1.768384557e-21
2.261257724e-21
2.76201152e-21
3.123326155e-21
8.916194111e-22
1.074839268e-21
1.372523515e-21
1.808049985e-21
2.405700587e-21
3.174070948e-21
4.074604767e-21
4.976222798e-21
5.615931052e-21
1.511198839e-21
1.839244465e-21
2.375684501e-21
3.164506081e-21
4.248901622e-21
5.639283246e-21
7.257099981e-21
8.860028685e-21
9.984783745e-21
2.570423859e-21
3.153171268e-21
4.110488704e-21
5.522771404e-21
7.465463246e-21
9.949836617e-21
1.282462648e-20
1.565211925e-20
1.762142591e-20
4.389498578e-21
5.418672847e-21
7.11476512e-21
9.622041802e-21
1.307116751e-20
1.747224128e-20
2.254406276e-20
2.750699277e-20
3.094635407e-20
7.523557427e-21
9.333261818e-21
1.23222794e-20
1.674654954e-20
2.283171303e-20
3.058274405e-20
3.948844729e-20
4.817187873e-20
5.416899279e-20
1.293550016e-20
1.610751028e-20
2.13546536e-20
2.912777066e-20
3.98164149e-20
5.34130126e-20
6.900158775e-20
8.416311808e-20
9.460950741e-20
2.229601914e-20
2.78428266e-20
3.702828472e-20
5.064305523e-20
6.936026686e-20
9.314610679e-20
1.203745225e-19
1.46809022e-19
1.649942632e-19
3.850431799e-20
4.818721196e-20
6.42343407e-20
8.802840735e-20
1.207337928e-19
1.622650629e-19
2.09748341e-19
2.557383842e-19
2.874321729e-19
6.659137079e-20
8.347264419e-20
1.114648638e-19
1.52981295e-19
2.100374576e-19
2.824446932e-19
3.650418328e-19
4.434712217e-19
5.001922447e-19
1.152865968e-19
1.44687566e-19
1.934587562e-19
2.65805405e-19
3.652186521e-19
4.913432503e-19
6.354736108e-19
7.765469843e-19
8.704679219e-19
1.997366903e-19
2.509001133e-19
3.357941667e-19
4.617369285e-19
6.347738125e-19
8.542142949e-19
1.104645273e-18
1.346997224e-18
1.512973238e-18
3.462272402e-19
4.352046826e-19
5.828691185e-19
8.019441231e-19
1.102901141e-18
1.484455701e-18
1.919704073e-18
2.340588803e-18
2.6289659e-18
6.003831058e-19
7.550508336e-19
1.0117643e-18
1.39263261e-18
1.915798886e-18
2.578919351e-18
3.335118142e-18
4.066099528e-18
4.566785662e-18
1.041408217e-18
1.310178877e-18
1.756312218e-18
2.418208993e-18
3.327307478e-18
4.479376522e-18
5.792810867e-18
7.062079831e-18
7.93127881e-18
1.806808304e-18
2.273758114e-18
3.048879239e-18
4.198837545e-18
5.778095065e-18
7.779046439e-18
1.00596995e-17
1.22630882e-17
1.377165642e-17
3.135305582e-18
3.946437135e-18
5.292883866e-18
7.290314907e-18
1.003301576e-17
1.350730553e-17
1.746617483e-17
2.128983402e-17
2.390705806e-17
5.441297959e-18
6.850114826e-18
9.188580554e-18
1.265724724e-17
1.741918605e-17
2.344968855e-17
3.031906425e-17
3.695155575e-17
4.148996063e-17
9.444010601e-18
1.189058414e-17
1.595118664e-17
2.197323005e-17
3.023834782e-17
4.07015924e-17
5.261539542e-17
6.411335551e-17
7.197790867e-17
1.639132168e-17
2.06393668e-17
2.768872775e-17
3.814049655e-17
5.248005909e-17
7.062481603e-17
9.127387498e-17
1.111908415e-16
1.248067355e-16
2.844718623e-17
3.582142313e-17
4.805554806e-17
6.618794326e-17
9.105283082e-17
1.224964724e-16
1.582542798e-16
1.927181997e-16
2.162620333e-16
4.93612799e-17
6.21578622e-17
8.338074243e-17
1.148200523e-16
1.579042674e-16
2.123431191e-16
2.741925723e-16
3.337440274e-16
3.743872391e-16
8.562414071e-17
1.078188781e-16
1.446118604e-16
1.990810183e-16
2.73660601e-16
3.677943658e-16
4.746098474e-16
5.7732061e-16
6.473304136e-16
1.484549403e-16
1.869221055e-16
2.5065284e-16
3.449212296e-16
4.738496172e-16
6.363569972e-16
8.204626136e-16
9.971903507e-16
1.117452131e-15
2.572117878e-16
3.238143733e-16
4.340748276e-16
5.969911111e-16
8.194887781e-16
1.099441717e-15
1.415957801e-15
1.719128361e-15
1.924997377e-15
4.45221741e-16
5.60380821e-16
7.508427778e-16
1.03187488e-15
1.414994909e-15
1.895984238e-15
2.438412474e-15
2.95655866e-15
3.307479111e-15
7.697059232e-16
9.684636792e-16
1.296793648e-15
1.780424716e-15
2.438269272e-15
3.261915127e-15
4.187873791e-15
5.069442621e-15
5.664572006e-15
1.32859575e-15
1.670849402e-15
2.23538103e-15
3.065188624e-15
4.19083357e-15
5.595528311e-15
7.168778408e-15
8.660642606e-15
9.663899896e-15
2.288871873e-15
2.876519833e-15
3.844062683e-15
5.262632398e-15
7.180630958e-15
9.564669595e-15
1.222290138e-14
1.473183262e-14
1.641149429e-14
3.934036275e-15
4.939459369e-15
6.591252066e-15
9.005661683e-15
1.225741747e-14
1.62805942e-14
2.074330646e-14
2.49327208e-14
2.772310594e-14
6.743113212e-15
8.456024372e-15
1.126287546e-14
1.535090462e-14
2.08317657e-14
2.757668736e-14
3.501444944e-14
4.19544486e-14
4.655060738e-14
1.152117832e-14
1.442484884e-14
1.916857699e-14
2.604881528e-14
3.522527337e-14
4.644987227e-14
5.87460302e-14
7.014269794e-14
7.764367447e-14
1.96133551e-14
2.450715168e-14
3.247436765e-14
4.397500225e-14
5.922394223e-14
7.775099755e-14
9.790040649e-14
1.164412295e-13
1.285638632e-13
3.325272982e-14
4.144653991e-14
5.47336701e-14
7.381118705e-14
9.894206095e-14
1.292512935e-13
1.619591773e-13
1.918263823e-13
2.11220375e-13
5.612094887e-14
6.973939647e-14
9.172596268e-14
1.231078658e-13
1.64154671e-13
2.132699277e-13
2.6583919e-13
3.1346317e-13
3.441701664e-13
9.424294458e-14
1.166944924e-13
1.527666791e-13
2.039235985e-13
2.703288573e-13
3.491294418e-13
4.327590533e-13
5.079119109e-13
5.560278516e-13
1.574006258e-13
1.940901667e-13
2.527306748e-13
3.353254645e-13
4.416860375e-13
5.668206873e-13
6.984844406e-13
8.158517831e-13
8.904744609e-13
2.613431119e-13
3.207382656e-13
4.151439983e-13
5.471620373e-13
7.157706944e-13
9.124196248e-13
1.117558107e-12
1.298979359e-12
1.413554218e-12
4.312048331e-13
5.264081975e-13
6.768579776e-13
8.856985986e-13
1.150201557e-12
1.456022719e-12
1.772367943e-12
2.050006665e-12
2.224226445e-12
7.067331997e-13
8.577684329e-13
1.095043602e-12
1.421953977e-12
1.83256104e-12
2.303279833e-12
2.78624985e-12
3.207052685e-12
3.469524631e-12
1.150195634e-12
1.387288962e-12
1.757557315e-12
2.263926411e-12
2.894767764e-12
3.612036506e-12
4.342297551e-12
4.974232498e-12
5.366206014e-12
1.858210294e-12
2.226447357e-12
2.798165218e-12
3.574379256e-12
4.533816043e-12
5.616195935e-12
6.710206954e-12
7.65095089e-12
8.231506317e-12
2.979265574e-12
3.545135719e-12
4.418717648e-12
5.596526974e-12
7.041511e-12
8.659735818e-12
1.028438467e-11
1.167337304e-11
1.252661728e-11
4.739416409e-12
5.599935744e-12
6.92120507e-12
8.690888196e-12
1.084685475e-11
1.324494864e-11
1.563778673e-11
1.7672871e-11
1.891787858e-11
7.479649328e-12
8.774998775e-12
1.075378988e-11
1.338785293e-11
1.657614977e-11
2.010052284e-11
2.359763931e-11
2.655803659e-11
2.836256644e-11
1.170980499e-11
1.364076023e-11
1.657653271e-11
2.046229522e-11
2.513783095e-11
3.02771968e-11
3.535149995e-11
3.96293334e-11
4.222872136e-11
1.81858896e-11
2.103780834e-11
2.535465044e-11
3.103863312e-11
3.784138982e-11
4.528155856e-11
5.25953533e-11
5.873900602e-11
6.24620548e-11
2.801834889e-11
3.219371541e-11
3.848851122e-11
4.673803717e-11
5.656419909e-11
6.726332878e-11
7.774021979e-11
8.65134618e-11
9.181775539e-11
4.282676696e-11
4.889003401e-11
5.79982804e-11
6.988505454e-11
8.398364985e-11
9.927467398e-11
1.141976907e-10
1.266604868e-10
1.341807738e-10
6.495694625e-11
7.369557799e-11
8.678103083e-11
1.037951234e-10
1.238997435e-10
1.456299591e-10
1.667752517e-10
1.843939146e-10
1.950080596e-10
9.778460493e-11
1.102921754e-10
1.289688715e-10
1.531738243e-10
1.816818384e-10
2.124028074e-10
2.422215422e-10
2.670186506e-10
2.8193743e-10
1.461387288e-10
1.639278854e-10
1.904259865e-10
2.246695713e-10
2.648856007e-10
3.081111259e-10
3.499766129e-10
3.847347431e-10
4.056239363e-10
2.168896082e-10
2.420454294e-10
2.794363203e-10
3.27636534e-10
3.841027872e-10
4.446589053e-10
5.032019123e-10
5.517401556e-10
5.80886301e-10
3.197629511e-10
3.551508759e-10
4.076523011e-10
4.75184967e-10
5.541288614e-10
6.386280833e-10
7.201912372e-10
7.877400248e-10
8.282752655e-10
4.684635657e-10
5.180109704e-10
5.914001637e-10
6.856236047e-10
7.955636011e-10
9.130467533e-10
1.026299604e-09
1.120008204e-09
1.176214858e-09
6.822218752e-10
7.512989171e-10
8.534712746e-10
9.844356933e-10
1.137000305e-09
1.2998042e-09
1.45657479e-09
1.586197627e-09
1.663920216e-09
9.879164548e-10
1.083850542e-09
1.225574186e-09
1.406979617e-09
1.618013281e-09
1.842942266e-09
2.059340045e-09
2.238163688e-09
2.345365666e-09
1.422979085e-09
1.555748942e-09
1.751682539e-09
2.002170808e-09
2.293225157e-09
2.603130906e-09
2.901061047e-09
3.147154551e-09
3.294669462e-09
2.039359525e-09
2.222530185e-09
2.492593855e-09
2.837488446e-09
3.237830336e-09
3.663738935e-09
4.072941335e-09
4.410840049e-09
4.613383369e-09
2.908920182e-09
3.160900367e-09
3.532118993e-09
4.005764014e-09
4.555074562e-09
5.139045295e-09
5.699834949e-09
6.162803695e-09
6.440333069e-09
4.130751709e-09
4.476481172e-09
4.985457558e-09
5.634355278e-09
6.386349661e-09
7.185308474e-09
7.952249798e-09
8.585317334e-09
8.964856529e-09
5.841055098e-09
6.314262867e-09
7.010486943e-09
7.8974948e-09
8.924763077e-09
1.001562783e-08
1.106244616e-08
1.19264608e-08
1.244453732e-08
8.226429525e-09
8.872645639e-09
9.822906567e-09
1.103283098e-08
1.243328741e-08
1.391979346e-08
1.534591361e-08
1.652294073e-08
1.722882922e-08
1.154164046e-08
1.242219421e-08
1.371643539e-08
1.536345116e-08
1.726888349e-08
1.929062641e-08
2.122983e-08
2.283029469e-08
2.379030713e-08
1.61332165e-08
1.733051213e-08
1.908955269e-08
2.132698076e-08
2.391430764e-08
2.665863975e-08
2.929044461e-08
3.14625121e-08
3.276562784e-08
2.247052172e-08
2.409494424e-08
2.648057876e-08
2.951366244e-08
3.301962579e-08
3.673716261e-08
4.030163526e-08
4.324340577e-08
4.500858261e-08
3.118624137e-08
3.338510212e-08
3.661316941e-08
4.071558317e-08
4.54557007e-08
5.048028643e-08
5.529707766e-08
5.927222897e-08
6.165776606e-08
4.312844471e-08
4.609741335e-08
5.045447291e-08
5.598934647e-08
6.238199085e-08
6.915599828e-08
7.564839951e-08
8.100590425e-08
8.422121724e-08
5.942645752e-08
6.342392087e-08
6.928815622e-08
7.673435553e-08
8.5330756e-08
9.443649548e-08
1.031611929e-07
1.103596192e-07
1.146797084e-07
8.157256234e-08
8.693726972e-08
9.480410528e-08
1.047883203e-07
1.163090313e-07
1.285067437e-07
1.401896289e-07
1.498262485e-07
1.556089616e-07
1.115208931e-07
1.186930565e-07
1.292056774e-07
1.425404633e-07
1.579183437e-07
1.741906841e-07
1.89768502e-07
2.026129282e-07
2.103187905e-07
1.518036564e-07
1.613493416e-07
1.753338045e-07
1.9306106e-07
2.134900145e-07
2.35092068e-07
2.55758833e-07
2.727901876e-07
2.830041872e-07
2.056629018e-07
2.183010672e-07
2.368049756e-07
2.6024343e-07
2.872311004e-07
3.157438438e-07
3.429998687e-07
3.654456704e-07
3.788998727e-07
2.771935275e-07
2.938244647e-07
3.181573114e-07
3.489515044e-07
3.843728721e-07
4.217567201e-07
4.574570244e-07
4.868310506e-07
5.044263653e-07
3.71490279e-07
3.93223575e-07
4.249959511e-07
4.651630808e-07
5.113107834e-07
5.599548354e-07
6.063526495e-07
6.444880752e-07
6.673125278e-07
4.9478866e-07
5.229682293e-07
5.641263649e-07
6.160966536e-07
6.757231389e-07
7.384849965e-07
7.982654007e-07
8.473389389e-07
8.766811457e-07
6.545875312e-07
6.90811056e-07
7.436629502e-07
8.10308919e-07
8.866551964e-07
9.668859101e-07
1.043184531e-06
1.105729406e-06
1.143084877e-06
8.597406161e-07
9.058708697e-07
9.731002142e-07
1.057750427e-06
1.154556467e-06
1.256106079e-06
1.352511113e-06
1.431415718e-06
1.478484871e-06
1.120505066e-06
1.178670814e-06
1.263335863e-06
1.3697689e-06
1.491263008e-06
1.618466211e-06
1.739001089e-06
1.837492622e-06
1.896170153e-06
1.448536842e-06
1.521121125e-06
1.626636065e-06
1.759056092e-06
1.90992407e-06
2.067564588e-06
2.216651971e-06
2.338265738e-06
2.410621894e-06
1.856826461e-06
1.946444868e-06
2.076547186e-06
2.239540711e-06
2.424874847e-06
2.618130827e-06
2.800540205e-06
2.949076637e-06
3.037331691e-06
2.35958327e-06
2.469051713e-06
2.627755083e-06
2.826231721e-06
3.051463425e-06
3.285837596e-06
3.506620103e-06
3.686092469e-06
3.792586157e-06
2.972070091e-06
3.104364645e-06
3.295901216e-06
3.535022552e-06
3.805843195e-06
4.087082486e-06
4.351497225e-06
4.566073406e-06
4.69323124e-06
3.710399939e-06
3.868611442e-06
4.097367363e-06
4.382468568e-06
4.704743555e-06
5.038753065e-06
5.352189247e-06
5.606130793e-06
5.75642906e-06
4.591307648e-06
4.778593886e-06
5.049041945e-06
5.385550686e-06
5.765231476e-06
6.157987264e-06
6.525885939e-06
6.823487213e-06
6.999418165e-06
5.631909551e-06
5.851447563e-06
6.168080364e-06
6.561436923e-06
7.004474986e-06
7.461939325e-06
7.889717712e-06
8.235247261e-06
8.439285646e-06
6.849463098e-06
7.104403617e-06
7.471670011e-06
7.927251614e-06
8.439517275e-06
8.967559015e-06
9.460539579e-06
9.858185257e-06
1.0092757e-05
8.261136013e-06
8.55456147e-06
8.976808074e-06
9.499859466e-06
1.00870676e-05
1.069138935e-05
1.1254735e-05
1.170855379e-05
1.197600732e-05
9.883791896e-06
1.021867882e-05
1.070009772e-05
1.129566911e-05
1.196331276e-05
1.264938585e-05
1.328804193e-05
1.380191499e-05
1.41044955e-05
1.173379656e-05
1.211298274e-05
1.265756579e-05
1.333045865e-05
1.408375097e-05
1.485675843e-05
1.557540192e-05
1.615299504e-05
1.649282179e-05
1.382684721e-05
1.425300363e-05
1.486450337e-05
1.561922395e-05
1.646304844e-05
1.732783611e-05
1.81308318e-05
1.877556131e-05
1.915460795e-05
1.617782481e-05
1.66534321e-05
1.733532899e-05
1.817604937e-05
1.9114918e-05
2.007595332e-05
2.096731694e-05
2.168232094e-05
2.210239894e-05
1.880066899e-05
1.932799813e-05
2.008347361e-05
2.10139997e-05
2.205201856e-05
2.311335674e-05
2.409672473e-05
2.488483949e-05
2.534758449e-05
2.1708274e-05
2.22893709e-05
2.31212859e-05
2.414503185e-05
2.528587381e-05
2.645113106e-05
2.752973663e-05
2.839347793e-05
2.890033897e-05
2.49124041e-05
2.554907768e-05
2.645995611e-05
2.757992481e-05
2.882680873e-05
3.009914202e-05
3.127579726e-05
3.221734666e-05
3.276957821e-05
2.842362671e-05
2.911744027e-05
3.01094571e-05
3.132822625e-05
3.268390243e-05
3.406599555e-05
3.534307941e-05
3.636427498e-05
3.696293171e-05
3.225126168e-05
3.300352731e-05
3.4078501e-05
3.539821454e-05
3.686495599e-05
3.835901169e-05
3.973846339e-05
4.084079507e-05
4.14867292e-05
3.640334557e-05
3.721512144e-05
3.83745105e-05
3.979687503e-05
4.137647445e-05
4.298421219e-05
4.446753007e-05
4.565213917e-05
4.634600039e-05
4.088660975e-05
4.175870013e-05
4.300360361e-05
4.452988967e-05
4.622366175e-05
4.794632108e-05
4.953456646e-05
5.080224924e-05
5.15444869e-05
4.57064716e-05
4.663942958e-05
4.797059131e-05
4.96016393e-05
5.141042816e-05
5.324877717e-05
5.494258293e-05
5.629379801e-05
5.708466564e-05
5.086703817e-05
5.186117083e-05
5.327898728e-05
5.501521775e-05
5.693940919e-05
5.889375783e-05
6.069334151e-05
6.21282207e-05
6.296778243e-05
5.637112162e-05
5.742649767e-05
5.893102917e-05
6.077245719e-05
6.281199541e-05
6.488221331e-05
6.678739409e-05
6.830575641e-05
6.919389532e-05
6.222026601e-05
6.333672559e-05
6.492771073e-05
6.687396401e-05
6.902837234e-05
7.121391053e-05
7.322412986e-05
7.482549826e-05
7.576192623e-05
6.84147847e-05
6.959195124e-05
7.126882396e-05
7.33191643e-05
7.55875695e-05
7.788748563e-05
8.000183083e-05
8.168545123e-05
8.266972014e-05
7.495380762e-05
7.619110141e-05
7.795301063e-05
8.010635818e-05
8.248751771e-05
8.490050408e-05
8.711773439e-05
8.888259661e-05
8.991411053e-05
8.183533753e-05
8.313199075e-05
8.497782193e-05
8.723278182e-05
8.972511351e-05
9.224952732e-05
9.456810189e-05
9.641296192e-05
9.749099016e-05
8.905631416e-05
9.041138712e-05
9.233978542e-05
9.469467607e-05
9.729628952e-05
9.993018477e-05
0.0001023482919
0.0001042716951
0.0001053953857
9.661268517e-05
9.802508332e-05
0.0001000344778
0.0001024873605
0.0001051960896
0.0001079372499
0.000110452837
0.0001124531419
0.0001136215352
0.0001044994825
0.000105967974
0.0001080566023
0.0001106053113
0.0001134187474
0.0001162647192
0.0001188755229
0.0001209509249
0.0001221629677
0.000112710903
0.0001142341362
0.0001164000699
0.0001190422426
0.0001219577674
0.0001249058928
0.0001276094691
0.0001297580238
0.0001310125823
0.0001212403916
0.0001228169126
0.0001250580815
0.0001277911885
0.0001308060065
0.0001338534557
0.0001366472088
0.0001388668549
0.0001401627283
0.0001300807258
0.000131708996
0.0001340232125
0.0001368445862
0.0001399557561
0.0001430995585
0.0001459807686
0.0001482693497
0.0001496052828
0.0001392241009
0.000140902513
0.0001432874951
0.0001461943576
0.0001493988221
0.0001526358959
0.0001556017464
0.0001579570316
0.0001593317262
0.0001486622138
0.0001503891075
0.0001528425005
0.0001558319897
0.0001591266042
0.000162453784
0.0001655013856
0.0001679210891
0.0001693332156
0.000158386344
0.0001601600207
0.0001626794182
0.0001657486123
0.0001691301704
0.0001725442332
0.0001756706476
0.0001781524461
0.0001796006535
0.000168387433
0.0001702061694
0.0001727891315
0.0001759350714
0.0001794003295
0.0001828980184
0.0001861002786
0.0001886418281
0.0001901247536
0.0001786561587
0.0001805182189
0.0001831622898
0.0001863819994
0.0001899276984
0.0001935057437
0.0001967808738
0.0001993798241
0.0002008961011
0.0001891830059
0.0001910866527
0.0001937893761
0.0001970798807
0.0002007027654
0.0002043579039
0.0002077029356
0.0002103569434
0.0002119052097
0.0001999583318
0.0002019018365
0.000204660769
0.0002080191116
0.0002117159482
0.0002154449402
0.0002188569278
0.0002215636685
0.0002231425724
0.0002109724265
0.0002129540774
0.0002157668008
0.000219190056
0.0002229576472
0.0002267572909
0.0002302333247
0.0002329905021
0.0002345987086
0.0002222155676
0.0002242336775
0.000227097809
0.0002305830955
0.0002344182934
0.0002382854379
0.0002418226548
0.0002446280104
0.0002462642059
0.00023367807
0.0002357309825
0.0002386441835
0.0002421886744
0.0002460883915
0.0002500199472
0.0002536155408
0.0002564668604
0.0002581297572
0.0002453503297
0.0002474364247
0.000250396408
0.0002539973394
0.0002579585577
0.0002619515054
0.0002656027334
0.0002684978538
0.0002701861934
0.0002572228628
0.0002593405606
0.0002623450966
0.0002659997744
0.000270019553
0.0002740709508
0.0002777751418
0.0002807119555
0.0002824245115
0.0002692863392
0.0002714341039
0.0002744810252
0.0002781868309
0.0002822623117
0.0002863693013
0.0002901238593
0.0002931003182
0.0002948358989
0.0002815316112
0.0002837079536
0.0002867951586
0.0002905495535
0.0002946779658
0.0002988377761
0.000302640185
0.0003056543038
0.0003074117535
0.0002939497384
0.0002961532175
0.0002992786731
0.0003030792014
0.0003072578651
0.000311467816
0.0003153156418
0.0003183654999
0.0003201437005
0.0003065320071
0.0003087612319
0.0003119229751
0.000315767266
0.0003199935938
0.0003242510977
0.0003281419906
0.0003312257337
0.0003330236053
0.0003192699469
0.0003215235767
0.0003247197159
0.0003286054847
0.0003328769833
0.0003371795467
0.000341111242
0.0003442270828
0.0003460435844
0.0003321553432
0.0003344320882
0.0003376608037
0.0003415858521
0.0003459001224
0.0003502453462
0.0003542156648
0.0003573618831
0.0003591960126
0.0003451802466
0.0003474788678
0.000350738411
0.0003547006273
0.0003590553646
0.0003634409433
0.0003674477913
0.000370622734
0.0003724735284
0.0003583369793
0.0003606562879
0.0003639449815
0.0003679423393
0.000372335332
0.0003767590536
0.0003808004213
0.0003840025018
0.0003858690365
0.0003716181392
0.0003739569957
0.000377273232
0.0003813037893
0.0003857329177
0.0003901926619
0.0003942666229
0.0003974943202
0.0003993757085
0.000385016603
0.0003873739166
0.0003907161561
0.0003947780532
0.0003992412874
0.0004037350234
0.0004078397328
0.00041109159
0.0004129869828
0.000398525525
0.0004009002522
0.0004042670222
0.0004083584802
0.0004128538779
0.0004173796627
0.0004215133549
0.0004247879775
0.0004266965621
0.0004121383353
0.0004145294787
0.0004179193716
0.0004220386894
0.0004265643939
0.0004311203697
0.0004352813566
0.0004385774115
0.0004404984106
0.000425848736
0.0004282553427
0.0004316670137
0.0004358125666
0.0004403668041
0.0004449511959
0.0004491378647
0.000452454078
0.0004543867491
0.0004396506965
0.000442071857
0.0004455040225
0.0004496742595
0.0004542553362
0.0004588664496
0.0004630772601
0.0004664124154
0.0004683560493
0.0004535384488
0.0004559732955
0.0004594247307
0.0004636181717
0.0004682244717
0.0004728606894
0.000477094172
0.0004804471085
0.0004824010284
0.0004675064801
0.0004699541858
0.0004734237229
0.0004776389565
0.0004822689385
0.000486928718
0.0004911834707
0.0004945530811
0.0004965166415
0.0004815495262
0.000484009303
0.0004874958291
0.0004917315099
0.0004963837045
0.0005010655752
0.0005053402615
0.0005087254899
0.0005106980752
0.0004956625638
0.0004981336619
0.000501636117
0.0005058909631
0.00051056397
0.0005152665302
0.000519559876
0.0005229597162
0.0005249407399
0.0005098408055
0.0005123225099
0.0005158398847
0.0005201126751
0.0005248051602
0.0005295270744
0.0005338378657
0.0005372513589
0.0005392402619
0.0005240796921
0.0005265713208
0.0005301026535
0.0005343922249
0.0005391029172
0.000543842913
0.0005481699932
0.0005515962258
0.0005535924761
0.0005383748837
0.0005408757868
0.00054442016
0.0005487254038
0.000553453092
0.0005582099571
0.0005625522247
0.0005659903272
0.0005679934178
0.0005527222492
0.0005552318067
0.000558788346
0.0005631082058
0.0005678517364
0.0005726243164
0.0005769807225
0.0005804298666
0.0005824393149
0.0005671178581
0.0005696354793
0.0005732033508
0.0005775368207
0.0005822950951
0.0005870822908
0.0005914518364
0.0005949112332
0.0005969265799
0.0005815579725
0.0005840830949
0.000587661505
0.000592007626
0.0005967795975
0.0006015803616
0.0006059620954
0.0006094309941
0.0006114518016
0.0005960390385
0.0005985711263
0.0006021593187
0.0006065171775
0.0006113018491
0.0006161151843
0.0006205082003
0.0006239858859
0.0006260117379
0.0006105576784
0.0006130962212
0.0006166934755
0.0006210622017
0.0006258586238
0.0006306835802
0.0006350870158
0.0006385728075
0.0006406033076
0.0006251106819
0.0006276551935
0.0006312608234
0.0006356395879
0.000640446856
0.000645282529
0.0006496955626
0.0006531888122
0.0006552235833
0.0006396949992
0.0006422450165
0.0006458583683
0.0006502463815
0.0006550636335
0.0006599091613
0.0006643310105
0.000667831101
0.0006698697839
0.0006543077326
0.0006568628143
0.0006604832652
0.0006648797745
0.0006697061897
0.0006745607515
0.0006789906711
0.0006824970148
0.0006845392675
0.0006689461298
0.0006715058553
0.000675132812
0.0006795371003
0.0006843718966
0.0006892347103
0.0006936719905
0.0006971840277
0.000699229525
0.0006836075763
0.000686171545
0.0006898044419
0.0006942158262
0.000699058258
0.0007039285785
0.0007083725431
0.0007118897408
0.0007139381725
0.0006982895891
0.0007008574191
0.0007044957171
0.0007089135465
0.0007137629031
0.0007186400201
0.0007230900246
0.0007266118749
0.0007286629459
0.0007129898092
0.0007155611363
0.0007192043215
0.000723627975
0.0007284835791
0.0007333668156
0.0007378222459
0.0007413482648
0.0007434016938
0.0007277059958
0.0007302804726
0.0007339280549
0.0007383569402
0.0007432181459
0.0007481068562
0.0007525671265
0.0007560968526
0.0007581523716
0.0007424360195
0.0007450133146
0.0007486648262
0.0007530983785
0.0007579645692
0.0007628581374
0.000767322689
0.0007708556822
0.0007729130355
0.0007571778563
0.0007597576533
0.0007634126477
0.0007678503275
0.0007727209148
0.0007776187528
0.0007820870524
0.0007856228926
0.0007876818364
0.0007719295817
0.0007745115783
0.0007781696288
0.0007826109208
0.0007874853424
0.0007923868883
0.0007968584264
0.0008003967125
0.0008024570138
0.0007866893642
0.0007892732713
0.0007929339699
0.0007973783813
0.0008022560996
0.0008071608161
0.0008116351054
0.0008151754537
0.0008172368899
0.0008014554596
0.0008040410004
0.0008077039566
0.0008121510156
0.0008170315155
0.0008219388881
0.0008264154619
0.000829957505
0.0008320198627
0.0008162262047
0.0008188131139
0.0008224779531
0.000826927207
0.0008318099948
0.0008367195296
0.0008411979401
0.0008447413253
0.0008468044
0.0008310000107
0.0008335880333
0.0008372543956
0.0008417054094
0.00084659001
0.0008515012323
0.0008559810486
0.0008595254365
0.000861589031
0.0008457753563
0.0008483642467
0.0008520317851
0.0008564841393
0.0008613700945
0.0008662825459
0.0008707633519
0.0008743084147
0.0008763723388
0.00086055078
0.0008631403005
0.0008668086793
0.0008712619679
0.0008761488339
0.00088106207
0.000885543462
0.0008890888814
0.0008911529502
0.0008753248713
0.0008779147909
0.0008815836836
0.0008860375112
0.0008909248556
0.0008958384429
0.0009003200268
0.0009038654916
0.0009059295243
0.0008900962606
0.0008926863533
0.00089635544
0.0009008094191
0.0009056968172
0.0009106103297
0.0009150917173
0.0009186369208
0.0009207007389
0.0009048636069
0.0009074536496
0.0009111226143
0.0009155763612
0.0009204633921
0.0009253764064
0.0009298572115
0.0009334018478
0.0009354652729
0.0009196255832
0.0009222153529
0.0009258838796
0.0009303370101
0.0009352232512
0.0009401353413
0.0009446151739
0.0009481589336
0.0009502217851
0.0009343808573
0.0009369701285
0.0009406378967
0.00094509002
0.0009499750405
0.0009548857705
0.0009593642307
0.0009629067954
0.0009649688868
0.0009491280696
0.0009517166097
0.0009553832884
0.0009598340001
0.0009647173523
0.000969626268
0.0009741029372
0.0009776439724
0.0009797051074
0.0009638658026
0.0009664533674
0.0009701186078
0.0009745674803
0.0009794486892
0.0009843553065
0.0009888297367
0.0009923688831
0.00099442885
0.0009785925447
0.0009811788714
0.0009848422976
0.0009892888682
0.0009941674178
0.0009990712085
0.001003542909
0.001007079771
0.001009138336
0.0009933066423
0.0009958914414
0.0009995526383
0.001003996394
0.001008871711
0.001013772084
0.001018240503
0.001021774635
0.001023831534
0.001008006241
0.001010589186
0.001014247684
0.001018688044
0.001023559472
0.001028455753
0.001032920258
0.001036451146
0.001038506072
0.001022689209
0.001025269924
0.00102892518
0.001033361469
0.001038228248
0.001043119647
0.001047579494
0.001051106533
0.001053159126
0.001037353049
0.00103993109
0.001043582465
0.001048013885
0.001052875112
0.00105776069
0.001062214994
0.001065737458
0.001067787285
0.001051994781
0.001054569619
0.001058216344
0.001062641938
0.001067496527
0.001072375151
0.00107682284
0.001080339854
0.001082386389
0.001066610805
0.001069181799
0.001072822946
0.001077241551
0.00108208818
0.001086958471
0.001091398238
0.001094908731
0.001096951331
0.00108119674
0.001083763105
0.00108739754
0.001091807735
0.001096644788
0.001101505055
0.001105935298
0.001109437954
0.001111475829
0.001095747225
0.001098308004
0.001101934332
0.001106334373
0.001111159865
0.001116008034
0.001120426781
0.001123919984
0.001125952165
0.001110255703
0.001112809716
0.001116426231
0.001120813977
0.00112562547
0.001130458991
0.001134863825
0.001138345589
0.001140370885
0.001124714164
0.001127259968
0.001130864573
0.001135237403
0.001140031913
0.001144847665
0.001149235627
0.001152703526
0.001154720479
0.001139112866
0.001141648699
0.00114523884
0.001149593554
0.001154367444
0.001159161628
0.001163529117
0.001166980199
0.00116898704
0.001153440039
0.001155963761
0.00115953634
0.001163869062
0.001168617928
0.001173385948
0.001177728613
0.001181159316
0.001183153913
0.001167681566
0.001170190602
0.001173741888
0.001178047959
0.001182766513
0.001187502858
0.001191815488
0.001195221551
0.001197201353
0.001181820677
0.001184311952
0.001187837498
0.001192111366
0.001196793317
0.00120149144
0.001205767856
0.001209144234
0.001211106227
0.001195837649
0.001198307531
0.001201802085
0.001206037207
0.001210675151
0.001215327361
0.001219560316
0.001222901103
0.001224841764
0.001209709551
0.001212153794
0.001215611228
0.001219799978
0.001224385303
0.001228982672
0.001233163772
0.00123646214
0.001238377401
0.001223410045
0.001225823749
0.001229236999
0.001233370601
0.001237893418
0.001242425718
0.001246545368
0.001249793529
0.001251678761
0.001236909279
0.001239286864
0.001242647897
0.001246716391
0.0012511655
0.001255621179
0.001259668573
0.001262857777
0.00126470779
0.001250173891
0.001252509095
0.00125580891
0.001259801162
0.00126416408
0.001268530292
0.001272493447
0.001275614023
0.001277423094
0.001263167172
0.001265453078
0.001268681752
0.00127258552
0.001276848555
0.001281111263
0.001284977128
0.001288018571
0.001289780503
0.001275849404
0.001278078503
0.001281225289
0.001285027347
0.001289175763
0.001293319913
0.001297074543
0.001300025671
0.001301733885
0.001288178398
0.001290342695
0.001293396174
0.00129708252
0.001301100774
0.001305110554
0.00130873937
0.001311588542
0.001313236216
0.001300110248
0.001302201409
0.001305149716
0.001308705851
0.001312577923
0.001316437119
0.001319925247
0.001322660646
0.001324240886
0.001311600303
0.001313609851
0.001316440956
0.001319852247
0.001323562056
0.001327254492
0.001330587187
0.001333197173
0.001334703223
0.001322604342