/*--------------------------------*- C++ -*----------------------------------*\
| =========                 |                                                 |
| \\      /  F ield         | OpenFOAM: The Open Source CFD Toolbox           |
|  \\    /   O peration     | Version:  2212                                  |
|   \\  /    A nd           | Website:  www.openfoam.com                      |
|    \\/     M anipulation  |                                                 |
\*---------------------------------------------------------------------------*/
FoamFile
{
    version     2.0;
    format      ascii;
    arch        "LSB;label=32;scalar=64";
    class       volScalarField;
    location    "18.25000000";
    object      A2_0;
}
// * * * * * * * * * * * * * * * * * * * * * * * * * * * * * * * * * * * * * //

dimensions      [0 0 0 0 0 0 0];

internalField   nonuniform List<scalar> 
3000
(
6.348865956e-24
7.131967133e-24
8.313650079e-24
9.888329423e-24
1.183999254e-23
1.411563955e-23
1.657817542e-23
1.892789531e-23
2.058942769e-23
2.383578334e-23
2.688372295e-23
3.148101796e-23
3.762084745e-23
4.529709074e-23
5.446718639e-23
6.497197858e-23
7.628121118e-23
8.629937421e-23
5.338814704e-23
6.06874585e-23
7.180228375e-23
8.689344754e-23
1.062322229e-22
1.300990748e-22
1.584000586e-22
1.895462867e-22
2.161656571e-22
1.016831162e-22
1.167955198e-22
1.401447943e-22
1.725205694e-22
2.150694132e-22
2.688720927e-22
3.336347305e-22
4.041726198e-22
4.611059104e-22
1.805457534e-22
2.099226071e-22
2.560253471e-22
3.211947178e-22
4.084946565e-22
5.203706804e-22
6.54952791e-22
7.978702822e-22
9.075762729e-22
3.104266341e-22
3.655557695e-22
4.533131573e-22
5.792967749e-22
7.50223957e-22
9.703923646e-22
1.233223531e-21
1.505571057e-21
1.70705583e-21
5.26926669e-22
6.281796604e-22
7.912378259e-22
1.027965854e-21
1.351540093e-21
1.768387002e-21
2.261260608e-21
2.762014789e-21
3.123329651e-21
8.916208576e-22
1.074840892e-21
1.37252539e-21
1.808052162e-21
2.405703079e-21
3.174073713e-21
4.074607695e-21
4.97622573e-21
5.615933857e-21
1.511200764e-21
1.839246495e-21
2.375686606e-21
3.164508119e-21
4.248903294e-21
5.639284085e-21
7.257099427e-21
8.860026331e-21
9.984779795e-21
2.570425966e-21
3.153173046e-21
4.110489673e-21
5.522770685e-21
7.46545945e-21
9.949827895e-21
1.282461095e-20
1.565209599e-20
1.762139648e-20
4.389499695e-21
5.418672182e-21
7.11476081e-21
9.622030777e-21
1.307114526e-20
1.747220221e-20
2.254400167e-20
2.750690793e-20
3.094625125e-20
7.523554524e-21
9.333253353e-21
1.232225999e-20
1.674651065e-20
2.283164252e-20
3.058262749e-20
3.94882725e-20
4.817164364e-20
5.41687135e-20
1.293548733e-20
1.610748382e-20
2.135460062e-20
2.912767098e-20
3.981624024e-20
5.3412731e-20
6.900117709e-20
8.416259009e-20
9.460887327e-20
2.229598804e-20
2.784276792e-20
3.702817254e-20
5.064284917e-20
6.935991193e-20
9.314555204e-20
1.203738271e-19
1.468087047e-19
1.649931796e-19
3.850426226e-20
4.818711097e-20
6.423415265e-20
8.802806926e-20
1.20733235e-19
1.622644374e-19
2.097503612e-19
2.557571735e-19
2.874340597e-19
6.659129552e-20
8.347251266e-20
1.114646286e-19
1.529808975e-19
2.100369959e-19
2.824472876e-19
3.650848383e-19
4.433706225e-19
5.002377893e-19
1.152865251e-19
1.44687448e-19
1.934585629e-19
2.658051041e-19
3.652180759e-19
4.913394361e-19
6.354314175e-19
7.766572758e-19
8.704220831e-19
1.997366531e-19
2.509000588e-19
3.357941e-19
4.617368803e-19
6.347738342e-19
8.542141156e-19
1.104640322e-18
1.346967441e-18
1.512969618e-18
3.462272593e-19
4.352047176e-19
5.828692011e-19
8.019443171e-19
1.102901542e-18
1.484456389e-18
1.919704845e-18
2.340588476e-18
2.62896722e-18
6.003831842e-19
7.550509522e-19
1.0117645e-18
1.392632957e-18
1.915799454e-18
2.578920195e-18
3.335119242e-18
4.066100763e-18
4.566787029e-18
1.04140834e-18
1.31017905e-18
1.75631248e-18
2.418209391e-18
3.327308052e-18
4.479377282e-18
5.792811774e-18
7.06208081e-18
7.931279806e-18
1.806808447e-18
2.273758306e-18
3.048879507e-18
4.198837915e-18
5.778095548e-18
7.779047022e-18
1.005970014e-17
1.226308884e-17
1.377165705e-17
3.135305724e-18
3.946437314e-18
5.292884099e-18
7.290315202e-18
1.003301612e-17
1.350730592e-17
1.746617522e-17
2.128983438e-17
2.39070584e-17
5.441298087e-18
6.850114974e-18
9.188580733e-18
1.265724744e-17
1.741918627e-17
2.344968876e-17
3.031906442e-17
3.695155588e-17
4.148996075e-17
9.444010705e-18
1.189058425e-17
1.595118676e-17
2.197323016e-17
3.023834791e-17
4.070159245e-17
5.261539542e-17
6.411335545e-17
7.197790861e-17
1.639132175e-17
2.063936687e-17
2.768872779e-17
3.814049656e-17
5.248005904e-17
7.062481592e-17
9.127387479e-17
1.111908412e-16
1.248067353e-16
2.844718626e-17
3.582142313e-17
4.805554801e-17
6.618794315e-17
9.105283063e-17
1.224964721e-16
1.582542794e-16
1.927181991e-16
2.162620327e-16
4.936127984e-17
6.215786211e-17
8.338074227e-17
1.14820052e-16
1.579042669e-16
2.123431185e-16
2.741925714e-16
3.337440263e-16
3.743872381e-16
8.562414051e-17
1.078188779e-16
1.446118601e-16
1.990810177e-16
2.736606001e-16
3.677943646e-16
4.746098458e-16
5.77320608e-16
6.473304119e-16
1.484549399e-16
1.869221051e-16
2.506528393e-16
3.449212284e-16
4.738496156e-16
6.363569952e-16
8.204626109e-16
9.971903474e-16
1.117452128e-15
2.57211787e-16
3.238143724e-16
4.340748262e-16
5.969911091e-16
8.194887754e-16
1.099441714e-15
1.415957797e-15
1.719128355e-15
1.924997372e-15
4.452217395e-16
5.603808192e-16
7.508427751e-16
1.031874877e-15
1.414994904e-15
1.895984231e-15
2.438412465e-15
2.956558649e-15
3.307479102e-15
7.697059204e-16
9.684636754e-16
1.296793643e-15
1.78042471e-15
2.438269263e-15
3.261915116e-15
4.187873775e-15
5.069442603e-15
5.664571989e-15
1.328595744e-15
1.670849395e-15
2.235381022e-15
3.065188612e-15
4.190833554e-15
5.59552829e-15
7.16877838e-15
8.660642572e-15
9.663899867e-15
2.288871863e-15
2.87651982e-15
3.844062668e-15
5.262632376e-15
7.180630929e-15
9.564669558e-15
1.222290133e-14
1.473183256e-14
1.641149424e-14
3.934036259e-15
4.939459347e-15
6.591252041e-15
9.005661645e-15
1.225741742e-14
1.628059414e-14
2.074330637e-14
2.493272069e-14
2.772310586e-14
6.743113185e-15
8.456024334e-15
1.126287542e-14
1.535090455e-14
2.083176561e-14
2.757668723e-14
3.501444928e-14
4.195444842e-14
4.655060722e-14
1.152117828e-14
1.442484877e-14
1.91685769e-14
2.604881515e-14
3.52252732e-14
4.644987205e-14
5.874602992e-14
7.014269762e-14
7.76436742e-14
1.961335501e-14
2.450715157e-14
3.247436749e-14
4.397500202e-14
5.922394193e-14
7.775099718e-14
9.790040601e-14
1.164412289e-13
1.285638627e-13
3.325272966e-14
4.14465397e-14
5.473366981e-14
7.381118667e-14
9.894206046e-14
1.292512929e-13
1.619591765e-13
1.918263813e-13
2.112203742e-13
5.61209486e-14
6.973939609e-14
9.172596218e-14
1.231078652e-13
1.641546702e-13
2.132699266e-13
2.658391886e-13
3.134631684e-13
3.441701651e-13
9.424294409e-14
1.166944917e-13
1.527666783e-13
2.039235975e-13
2.703288559e-13
3.491294401e-13
4.327590511e-13
5.079119083e-13
5.560278495e-13
1.574006249e-13
1.940901657e-13
2.527306735e-13
3.353254629e-13
4.416860353e-13
5.668206843e-13
6.984844368e-13
8.158517789e-13
8.904744575e-13
2.613431105e-13
3.207382639e-13
4.151439961e-13
5.471620344e-13
7.157706906e-13
9.124196199e-13
1.117558101e-12
1.298979352e-12
1.413554212e-12
4.312048307e-13
5.264081946e-13
6.768579738e-13
8.856985936e-13
1.150201551e-12
1.456022711e-12
1.772367932e-12
2.050006653e-12
2.224226436e-12
7.067331955e-13
8.577684279e-13
1.095043595e-12
1.421953968e-12
1.832561029e-12
2.303279819e-12
2.786249832e-12
3.207052665e-12
3.469524616e-12
1.150195627e-12
1.387288953e-12
1.757557304e-12
2.263926396e-12
2.894767745e-12
3.612036482e-12
4.342297522e-12
4.974232467e-12
5.36620599e-12
1.858210282e-12
2.226447343e-12
2.798165199e-12
3.574379232e-12
4.533816012e-12
5.616195897e-12
6.710206908e-12
7.650950842e-12
8.231506281e-12
2.979265554e-12
3.545135694e-12
4.418717617e-12
5.596526935e-12
7.041510951e-12
8.659735757e-12
1.028438459e-11
1.167337296e-11
1.252661723e-11
4.739416375e-12
5.599935703e-12
6.92120502e-12
8.690888132e-12
1.084685467e-11
1.324494854e-11
1.563778662e-11
1.767287089e-11
1.89178785e-11
7.479649273e-12
8.774998707e-12
1.07537898e-11
1.338785283e-11
1.657614965e-11
2.010052269e-11
2.359763914e-11
2.655803642e-11
2.836256632e-11
1.17098049e-11
1.364076012e-11
1.657653258e-11
2.046229506e-11
2.513783076e-11
3.027719657e-11
3.53514997e-11
3.962933316e-11
4.222872118e-11
1.818588946e-11
2.103780817e-11
2.535465023e-11
3.103863289e-11
3.784138953e-11
4.528155822e-11
5.259535292e-11
5.873900565e-11
6.246205453e-11
2.801834868e-11
3.219371515e-11
3.848851092e-11
4.673803682e-11
5.656419867e-11
6.726332827e-11
7.77402192e-11
8.651346124e-11
9.181775499e-11
4.282676664e-11
4.889003362e-11
5.799827995e-11
6.9885054e-11
8.398364921e-11
9.927467321e-11
1.141976898e-10
1.266604859e-10
1.341807732e-10
6.495694577e-11
7.369557741e-11
8.678103014e-11
1.037951226e-10
1.238997425e-10
1.45629958e-10
1.667752504e-10
1.843939134e-10
1.950080587e-10
9.778460421e-11
1.102921745e-10
1.289688705e-10
1.531738231e-10
1.816818369e-10
2.124028057e-10
2.422215402e-10
2.670186488e-10
2.819374287e-10
1.461387277e-10
1.639278841e-10
1.90425985e-10
2.246695694e-10
2.648855985e-10
3.081111234e-10
3.499766101e-10
3.847347405e-10
4.056239344e-10
2.168896065e-10
2.420454274e-10
2.794363179e-10
3.276365313e-10
3.84102784e-10
4.446589015e-10
5.032019082e-10
5.517401519e-10
5.808862983e-10
3.197629486e-10
3.551508729e-10
4.076522976e-10
4.751849631e-10
5.541288568e-10
6.386280779e-10
7.201912313e-10
7.877400195e-10
8.282752617e-10
4.68463562e-10
5.180109659e-10
5.914001586e-10
6.856235989e-10
7.955635944e-10
9.130467455e-10
1.026299596e-09
1.120008197e-09
1.176214852e-09
6.822218697e-10
7.512989107e-10
8.534712672e-10
9.844356848e-10
1.137000295e-09
1.299804188e-09
1.456574778e-09
1.586197616e-09
1.663920209e-09
9.879164471e-10
1.083850533e-09
1.225574175e-09
1.406979605e-09
1.618013267e-09
1.84294225e-09
2.059340028e-09
2.238163673e-09
2.345365655e-09
1.422979075e-09
1.55574893e-09
1.751682524e-09
2.002170791e-09
2.293225137e-09
2.603130884e-09
2.901061023e-09
3.14715453e-09
3.294669447e-09
2.03935951e-09
2.222530166e-09
2.492593834e-09
2.837488421e-09
3.237830309e-09
3.663738903e-09
4.072941302e-09
4.41084002e-09
4.613383348e-09
2.908920161e-09
3.160900341e-09
3.532118963e-09
4.00576398e-09
4.555074523e-09
5.139045251e-09
5.699834902e-09
6.162803655e-09
6.44033304e-09
4.130751678e-09
4.476481136e-09
4.985457516e-09
5.63435523e-09
6.386349607e-09
7.185308413e-09
7.952249734e-09
8.585317278e-09
8.964856489e-09
5.841055055e-09
6.314262815e-09
7.010486884e-09
7.897494733e-09
8.924763002e-09
1.001562774e-08
1.106244607e-08
1.192646073e-08
1.244453727e-08
8.226429463e-09
8.872645566e-09
9.822906484e-09
1.103283088e-08
1.24332873e-08
1.391979335e-08
1.534591349e-08
1.652294063e-08
1.722882915e-08
1.154164037e-08
1.242219411e-08
1.371643527e-08
1.536345103e-08
1.726888335e-08
1.929062625e-08
2.122982984e-08
2.283029456e-08
2.379030702e-08
1.613321638e-08
1.733051199e-08
1.908955253e-08
2.132698059e-08
2.391430744e-08
2.665863954e-08
2.929044438e-08
3.146251191e-08
3.276562769e-08
2.247052156e-08
2.409494405e-08
2.648057854e-08
2.95136622e-08
3.301962552e-08
3.673716232e-08
4.030163495e-08
4.324340551e-08
4.500858242e-08
3.118624115e-08
3.338510187e-08
3.661316913e-08
4.071558285e-08
4.545570034e-08
5.048028603e-08
5.529707724e-08
5.927222861e-08
6.16577658e-08
4.312844442e-08
4.609741301e-08
5.045447252e-08
5.598934604e-08
6.238199036e-08
6.915599773e-08
7.564839893e-08
8.100590376e-08
8.422121688e-08
5.942645713e-08
6.342392041e-08
6.92881557e-08
7.673435494e-08
8.533075533e-08
9.443649472e-08
1.031611921e-07
1.103596185e-07
1.146797079e-07
8.157256181e-08
8.69372691e-08
9.480410457e-08
1.047883195e-07
1.163090304e-07
1.285067426e-07
1.401896278e-07
1.498262476e-07
1.55608961e-07
1.115208924e-07
1.186930556e-07
1.292056765e-07
1.425404622e-07
1.579183424e-07
1.741906827e-07
1.897685006e-07
2.026129271e-07
2.103187896e-07
1.518036554e-07
1.613493404e-07
1.753338032e-07
1.930610585e-07
2.134900129e-07
2.350920662e-07
2.557588311e-07
2.727901861e-07
2.830041861e-07
2.056629005e-07
2.183010657e-07
2.368049738e-07
2.60243428e-07
2.872310982e-07
3.157438414e-07
3.429998662e-07
3.654456683e-07
3.788998712e-07
2.771935258e-07
2.938244627e-07
3.181573091e-07
3.489515019e-07
3.843728693e-07
4.21756717e-07
4.574570212e-07
4.868310479e-07
5.044263633e-07
3.714902767e-07
3.932235724e-07
4.249959481e-07
4.651630774e-07
5.113107796e-07
5.599548312e-07
6.063526453e-07
6.444880717e-07
6.673125252e-07
4.94788657e-07
5.229682259e-07
5.64126361e-07
6.160966493e-07
6.75723134e-07
7.38484991e-07
7.982653952e-07
8.473389344e-07
8.766811424e-07
6.545875274e-07
6.908110516e-07
7.436629451e-07
8.103089133e-07
8.8665519e-07
9.668859031e-07
1.043184524e-06
1.1057294e-06
1.143084873e-06
8.597406112e-07
9.05870864e-07
9.731002075e-07
1.057750419e-06
1.154556458e-06
1.25610607e-06
1.352511104e-06
1.43141571e-06
1.478484865e-06
1.12050506e-06
1.178670807e-06
1.263335854e-06
1.369768891e-06
1.491262997e-06
1.6184662e-06
1.739001078e-06
1.837492613e-06
1.896170146e-06
1.448536834e-06
1.521121116e-06
1.626636055e-06
1.759056081e-06
1.909924056e-06
2.067564573e-06
2.216651957e-06
2.338265726e-06
2.410621886e-06
1.856826451e-06
1.946444856e-06
2.076547172e-06
2.239540696e-06
2.424874831e-06
2.618130809e-06
2.800540188e-06
2.949076623e-06
3.037331681e-06
2.359583257e-06
2.469051699e-06
2.627755067e-06
2.826231703e-06
3.051463405e-06
3.285837575e-06
3.506620082e-06
3.686092452e-06
3.792586145e-06
2.972070075e-06
3.104364627e-06
3.295901196e-06
3.53502253e-06
3.805843171e-06
4.087082461e-06
4.3514972e-06
4.566073386e-06
4.693231225e-06
3.71039992e-06
3.86861142e-06
4.097367339e-06
4.382468542e-06
4.704743526e-06
5.038753034e-06
5.352189217e-06
5.606130768e-06
5.756429042e-06
4.591307626e-06
4.778593861e-06
5.049041916e-06
5.385550655e-06
5.765231443e-06
6.157987229e-06
6.525885904e-06
6.823487185e-06
6.999418144e-06
5.631909525e-06
5.851447534e-06
6.168080331e-06
6.561436887e-06
7.004474948e-06
7.461939284e-06
7.889717671e-06
8.235247228e-06
8.439285622e-06
6.849463067e-06
7.104403583e-06
7.471669973e-06
7.927251573e-06
8.43951723e-06
8.967558967e-06
9.460539532e-06
9.858185219e-06
1.009275697e-05
8.261135978e-06
8.55456143e-06
8.97680803e-06
9.499859419e-06
1.008706755e-05
1.06913893e-05
1.125473494e-05
1.170855374e-05
1.197600729e-05
9.883791855e-06
1.021867877e-05
1.070009767e-05
1.129566906e-05
1.19633127e-05
1.264938578e-05
1.328804187e-05
1.380191494e-05
1.410449547e-05
1.173379651e-05
1.211298269e-05
1.265756573e-05
1.333045858e-05
1.40837509e-05
1.485675836e-05
1.557540185e-05
1.615299498e-05
1.649282175e-05
1.382684715e-05
1.425300357e-05
1.486450331e-05
1.561922388e-05
1.646304836e-05
1.732783603e-05
1.813083172e-05
1.877556124e-05
1.91546079e-05
1.617782475e-05
1.665343203e-05
1.733532891e-05
1.817604929e-05
1.911491792e-05
2.007595323e-05
2.096731685e-05
2.168232087e-05
2.210239889e-05
1.880066892e-05
1.932799805e-05
2.008347353e-05
2.101399961e-05
2.205201846e-05
2.311335664e-05
2.409672463e-05
2.488483941e-05
2.534758443e-05
2.170827392e-05
2.228937081e-05
2.312128581e-05
2.414503175e-05
2.52858737e-05
2.645113095e-05
2.752973652e-05
2.839347785e-05
2.890033891e-05
2.491240402e-05
2.554907759e-05
2.645995601e-05
2.75799247e-05
2.882680862e-05
3.009914189e-05
3.127579714e-05
3.221734656e-05
3.276957814e-05
2.842362662e-05
2.911744017e-05
3.010945698e-05
3.132822613e-05
3.26839023e-05
3.406599541e-05
3.534307928e-05
3.636427488e-05
3.696293163e-05
3.225126158e-05
3.30035272e-05
3.407850088e-05
3.539821441e-05
3.686495585e-05
3.835901154e-05
3.973846324e-05
4.084079495e-05
4.148672912e-05
3.640334546e-05
3.721512131e-05
3.837451037e-05
3.979687488e-05
4.137647429e-05
4.298421203e-05
4.446752992e-05
4.565213905e-05
4.63460003e-05
4.088660962e-05
4.17587e-05
4.300360347e-05
4.452988951e-05
4.622366158e-05
4.794632091e-05
4.953456629e-05
5.080224911e-05
5.154448681e-05
4.570647147e-05
4.663942943e-05
4.797059115e-05
4.960163913e-05
5.141042798e-05
5.324877698e-05
5.494258275e-05
5.629379787e-05
5.708466553e-05
5.086703803e-05
5.186117067e-05
5.327898711e-05
5.501521756e-05
5.6939409e-05
5.889375763e-05
6.069334131e-05
6.212822055e-05
6.296778232e-05
5.637112147e-05
5.74264975e-05
5.893102899e-05
6.0772457e-05
6.281199521e-05
6.488221309e-05
6.678739388e-05
6.830575625e-05
6.91938952e-05
6.222026585e-05
6.333672542e-05
6.492771053e-05
6.687396381e-05
6.902837212e-05
7.121391031e-05
7.322412965e-05
7.482549809e-05
7.576192611e-05
6.841478453e-05
6.959195105e-05
7.126882375e-05
7.331916408e-05
7.558756927e-05
7.78874854e-05
8.000183061e-05
8.168545106e-05
8.266972001e-05
7.495380744e-05
7.619110121e-05
7.795301041e-05
8.010635795e-05
8.248751747e-05
8.490050383e-05
8.711773416e-05
8.888259643e-05
8.99141104e-05
8.183533734e-05
8.313199053e-05
8.49778217e-05
8.723278158e-05
8.972511326e-05
9.224952706e-05
9.456810164e-05
9.641296173e-05
9.749099002e-05
8.905631396e-05
9.041138689e-05
9.233978518e-05
9.469467582e-05
9.729628926e-05
9.99301845e-05
0.0001023482916
0.0001042716949
0.0001053953855
9.661268496e-05
9.802508309e-05
0.0001000344775
0.0001024873602
0.0001051960893
0.0001079372496
0.0001104528367
0.0001124531417
0.0001136215351
0.0001044994823
0.0001059679737
0.0001080566021
0.000110605311
0.0001134187471
0.0001162647188
0.0001188755226
0.0001209509247
0.0001221629675
0.0001127109028
0.0001142341359
0.0001164000696
0.0001190422423
0.0001219577671
0.0001249058924
0.0001276094688
0.0001297580236
0.0001310125821
0.0001212403913
0.0001228169124
0.0001250580813
0.0001277911882
0.0001308060062
0.0001338534554
0.0001366472085
0.0001388668546
0.0001401627282
0.0001300807255
0.0001317089957
0.0001340232122
0.0001368445859
0.0001399557557
0.0001430995581
0.0001459807683
0.0001482693494
0.0001496052826
0.0001392241007
0.0001409025128
0.0001432874948
0.0001461943572
0.0001493988218
0.0001526358955
0.000155601746
0.0001579570313
0.000159331726
0.0001486622135
0.0001503891072
0.0001528425002
0.0001558319894
0.0001591266039
0.0001624537836
0.0001655013853
0.0001679210888
0.0001693332154
0.0001583863437
0.0001601600204
0.0001626794178
0.0001657486119
0.00016913017
0.0001725442329
0.0001756706472
0.0001781524458
0.0001796006533
0.0001683874327
0.0001702061691
0.0001727891311
0.000175935071
0.0001794003291
0.000182898018
0.0001861002782
0.0001886418279
0.0001901247534
0.0001786561584
0.0001805182186
0.0001831622895
0.000186381999
0.000189927698
0.0001935057433
0.0001967808734
0.0001993798238
0.0002008961009
0.0001891830056
0.0001910866524
0.0001937893757
0.0001970798803
0.000200702765
0.0002043579035
0.0002077029352
0.0002103569432
0.0002119052095
0.0001999583315
0.0002019018362
0.0002046607686
0.0002080191112
0.0002117159478
0.0002154449398
0.0002188569274
0.0002215636682
0.0002231425722
0.0002109724262
0.000212954077
0.0002157668004
0.0002191900556
0.0002229576468
0.0002267572905
0.0002302333243
0.0002329905018
0.0002345987084
0.0002222155673
0.0002242336771
0.0002270978086
0.0002305830951
0.000234418293
0.0002382854375
0.0002418226544
0.0002446280101
0.0002462642057
0.0002336780697
0.0002357309822
0.0002386441831
0.0002421886741
0.0002460883911
0.0002500199468
0.0002536155404
0.0002564668601
0.000258129757
0.0002453503294
0.0002474364243
0.0002503964077
0.000253997339
0.0002579585573
0.0002619515049
0.000265602733
0.0002684978535
0.0002701861932
0.0002572228625
0.0002593405602
0.0002623450962
0.000265999774
0.0002700195526
0.0002740709504
0.0002777751414
0.0002807119551
0.0002824245113
0.0002692863388
0.0002714341035
0.0002744810248
0.0002781868305
0.0002822623113
0.0002863693008
0.0002901238589
0.0002931003179
0.0002948358987
0.0002815316109
0.0002837079532
0.0002867951582
0.0002905495531
0.0002946779654
0.0002988377757
0.0003026401846
0.0003056543035
0.0003074117533
0.000293949738
0.0002961532171
0.0002992786727
0.000303079201
0.0003072578647
0.0003114678155
0.0003153156413
0.0003183654995
0.0003201437002
0.0003065320067
0.0003087612315
0.0003119229746
0.0003157672655
0.0003199935933
0.0003242510972
0.0003281419901
0.0003312257333
0.000333023605
0.0003192699465
0.0003215235763
0.0003247197155
0.0003286054843
0.0003328769828
0.0003371795462
0.0003411112416
0.0003442270824
0.0003460435841
0.0003321553428
0.0003344320878
0.0003376608032
0.0003415858516
0.000345900122
0.0003502453457
0.0003542156644
0.0003573618827
0.0003591960124
0.0003451802462
0.0003474788674
0.0003507384106
0.0003547006268
0.0003590553641
0.0003634409428
0.0003674477908
0.0003706227337
0.0003724735282
0.0003583369789
0.0003606562874
0.000363944981
0.0003679423389
0.0003723353315
0.0003767590531
0.0003808004208
0.0003840025015
0.0003858690362
0.0003716181388
0.0003739569953
0.0003772732315
0.0003813037889
0.0003857329172
0.0003901926614
0.0003942666224
0.0003974943198
0.0003993757083
0.0003850166026
0.0003873739162
0.0003907161556
0.0003947780528
0.0003992412869
0.0004037350229
0.0004078397324
0.0004110915896
0.0004129869826
0.0003985255246
0.0004009002518
0.0004042670218
0.0004083584797
0.0004128538774
0.0004173796622
0.0004215133545
0.0004247879772
0.0004266965619
0.000412138335
0.0004145294783
0.0004179193711
0.0004220386889
0.0004265643934
0.0004311203692
0.0004352813561
0.0004385774111
0.0004404984104
0.0004258487356
0.0004282553422
0.0004316670132
0.0004358125662
0.0004403668036
0.0004449511954
0.0004491378642
0.0004524540776
0.0004543867488
0.0004396506961
0.0004420718566
0.000445504022
0.000449674259
0.0004542553357
0.0004588664491
0.0004630772596
0.0004664124151
0.0004683560491
0.0004535384484
0.000455973295
0.0004594247302
0.0004636181712
0.0004682244712
0.0004728606888
0.0004770941715
0.0004804471081
0.0004824010281
0.0004675064797
0.0004699541854
0.0004734237224
0.000477638956
0.000482268938
0.0004869287175
0.0004911834703
0.0004945530808
0.0004965166412
0.0004815495258
0.0004840093026
0.0004874958286
0.0004917315094
0.000496383704
0.0005010655746
0.000505340261
0.0005087254895
0.000510698075
0.0004956625634
0.0004981336614
0.0005016361165
0.0005058909626
0.0005105639695
0.0005152665297
0.0005195598755
0.0005229597159
0.0005249407396
0.0005098408051
0.0005123225094
0.0005158398842
0.0005201126746
0.0005248051596
0.0005295270738
0.0005338378652
0.0005372513585
0.0005392402617
0.0005240796916
0.0005265713203
0.000530102653
0.0005343922244
0.0005391029167
0.0005438429124
0.0005481699927
0.0005515962254
0.0005535924759
0.0005383748832
0.0005408757863
0.0005444201595
0.0005487254033
0.0005534530914
0.0005582099565
0.0005625522242
0.0005659903268
0.0005679934175
0.0005527222488
0.0005552318062
0.0005587883454
0.0005631082053
0.0005678517358
0.0005726243159
0.000576980722
0.0005804298661
0.0005824393146
0.0005671178577
0.0005696354788
0.0005732033503
0.0005775368202
0.0005822950945
0.0005870822902
0.0005914518358
0.0005949112328
0.0005969265796
0.000581557972
0.0005840830944
0.0005876615045
0.0005920076255
0.0005967795969
0.000601580361
0.0006059620948
0.0006094309937
0.0006114518013
0.0005960390381
0.0005985711258
0.0006021593182
0.0006065171769
0.0006113018485
0.0006161151837
0.0006205081998
0.0006239858855
0.0006260117376
0.0006105576779
0.0006130962207
0.0006166934749
0.0006210622012
0.0006258586232
0.0006306835796
0.0006350870152
0.000638572807
0.0006406033073
0.0006251106815
0.000627655193
0.0006312608229
0.0006356395873
0.0006404468554
0.0006452825284
0.000649695562
0.0006531888118
0.000655223583
0.0006396949987
0.0006422450159
0.0006458583677
0.0006502463809
0.0006550636329
0.0006599091607
0.0006643310099
0.0006678311006
0.0006698697836
0.0006543077321
0.0006568628137
0.0006604832647
0.0006648797739
0.0006697061891
0.0006745607509
0.0006789906705
0.0006824970143
0.0006845392672
0.0006689461293
0.0006715058548
0.0006751328114
0.0006795370998
0.000684371896
0.0006892347097
0.0006936719899
0.0006971840273
0.0006992295246
0.0006836075758
0.0006861715445
0.0006898044413
0.0006942158256
0.0006990582574
0.0007039285779
0.0007083725425
0.0007118897403
0.0007139381722
0.0006982895886
0.0007008574185
0.0007044957165
0.0007089135459
0.0007137629025
0.0007186400194
0.000723090024
0.0007266118745
0.0007286629456
0.0007129898087
0.0007155611357
0.000719204321
0.0007236279744
0.0007284835785
0.000733366815
0.0007378222453
0.0007413482643
0.0007434016935
0.0007277059953
0.0007302804721
0.0007339280543
0.0007383569396
0.0007432181453
0.0007481068556
0.0007525671259
0.0007560968522
0.0007581523713
0.000742436019
0.0007450133141
0.0007486648256
0.0007530983779
0.0007579645686
0.0007628581368
0.0007673226884
0.0007708556817
0.0007729130352
0.0007571778559
0.0007597576528
0.0007634126471
0.0007678503269
0.0007727209142
0.0007776187521
0.0007820870518
0.0007856228921
0.0007876818361
0.0007719295812
0.0007745115777
0.0007781696282
0.0007826109202
0.0007874853418
0.0007923868877
0.0007968584258
0.000800396712
0.0008024570135
0.0007866893637
0.0007892732707
0.0007929339693
0.0007973783807
0.0008022560989
0.0008071608154
0.0008116351048
0.0008151754532
0.0008172368895
0.0008014554591
0.0008040409998
0.000807703956
0.000812151015
0.0008170315149
0.0008219388875
0.0008264154613
0.0008299575045
0.0008320198624
0.0008162262042
0.0008188131133
0.0008224779525
0.0008269272064
0.0008318099941
0.000836719529
0.0008411979395
0.0008447413249
0.0008468043997
0.0008310000102
0.0008335880327
0.000837254395
0.0008417054088
0.0008465900093
0.0008515012316
0.0008559810479
0.000859525436
0.0008615890307
0.0008457753558
0.0008483642461
0.0008520317844
0.0008564841387
0.0008613700939
0.0008662825453
0.0008707633513
0.0008743084142
0.0008763723385
0.0008605507795
0.0008631402999
0.0008668086787
0.0008712619672
0.0008761488332
0.0008810620693
0.0008855434614
0.0008890888809
0.0008911529498
0.0008753248708
0.0008779147903
0.000881583683
0.0008860375106
0.0008909248549
0.0008958384423
0.0009003200262
0.0009038654911
0.000905929524
0.0008900962601
0.0008926863527
0.0008963554394
0.0009008094184
0.0009056968166
0.000910610329
0.0009150917167
0.0009186369203
0.0009207007385
0.0009048636064
0.000907453649
0.0009111226137
0.0009155763605
0.0009204633915
0.0009253764058
0.0009298572108
0.0009334018473
0.0009354652725
0.0009196255826
0.0009222153523
0.000925883879
0.0009303370094
0.0009352232506
0.0009401353406
0.0009446151733
0.0009481589331
0.0009502217847
0.0009343808568
0.0009369701279
0.0009406378961
0.0009450900194
0.0009499750398
0.0009548857699
0.0009593642301
0.0009629067949
0.0009649688865
0.000949128069
0.0009517166092
0.0009553832878
0.0009598339995
0.0009647173516
0.0009696262674
0.0009741029366
0.0009776439719
0.000979705107
0.0009638658021
0.0009664533668
0.0009701186072
0.0009745674797
0.0009794486885
0.0009843553058
0.0009888297361
0.0009923688826
0.0009944288497
0.0009785925442
0.0009811788708
0.000984842297
0.0009892888676
0.0009941674172
0.0009990712078
0.001003542908
0.00100707977
0.001009138336
0.0009933066418
0.0009958914408
0.0009995526376
0.001003996394
0.00100887171
0.001013772083
0.001018240503
0.001021774635
0.001023831534
0.00100800624
0.001010589185
0.001014247683
0.001018688043
0.001023559472
0.001028455752
0.001032920257
0.001036451145
0.001038506072
0.001022689208
0.001025269923
0.001028925179
0.001033361468
0.001038228248
0.001043119646
0.001047579494
0.001051106532
0.001053159125
0.001037353049
0.00103993109
0.001043582464
0.001048013884
0.001052875111
0.001057760689
0.001062214993
0.001065737458
0.001067787284
0.00105199478
0.001054569618
0.001058216344
0.001062641937
0.001067496526
0.00107237515
0.001076822839
0.001080339854
0.001082386388
0.001066610805
0.001069181798
0.001072822945
0.00107724155
0.00108208818
0.00108695847
0.001091398238
0.00109490873
0.00109695133
0.001081196739
0.001083763105
0.001087397539
0.001091807734
0.001096644787
0.001101505055
0.001105935297
0.001109437953
0.001111475829
0.001095747225
0.001098308003
0.001101934332
0.001106334373
0.001111159865
0.001116008033
0.001120426781
0.001123919983
0.001125952165
0.001110255703
0.001112809716
0.00111642623
0.001120813976
0.00112562547
0.00113045899
0.001134863824
0.001138345589
0.001140370884
0.001124714164
0.001127259967
0.001130864573
0.001135237402
0.001140031912
0.001144847665
0.001149235627
0.001152703525
0.001154720479
0.001139112866
0.001141648698
0.00114523884
0.001149593553
0.001154367443
0.001159161628
0.001163529116
0.001166980198
0.00116898704
0.001153440038
0.00115596376
0.001159536339
0.001163869061
0.001168617927
0.001173385948
0.001177728612
0.001181159315
0.001183153912
0.001167681565
0.001170190602
0.001173741888
0.001178047958
0.001182766512
0.001187502857
0.001191815487
0.00119522155
0.001197201353
0.001181820676
0.001184311952
0.001187837497
0.001192111365
0.001196793316
0.001201491439
0.001205767855
0.001209144233
0.001211106227
0.001195837648
0.00119830753
0.001201802085
0.001206037206
0.00121067515
0.00121532736
0.001219560315
0.001222901103
0.001224841764
0.00120970955
0.001212153793
0.001215611228
0.001219799977
0.001224385302
0.001228982672
0.001233163771
0.001236462139
0.0012383774
0.001223410044
0.001225823748
0.001229236998
0.0012333706
0.001237893418
0.001242425717
0.001246545368
0.001249793529
0.001251678761
0.001236909278
0.001239286863
0.001242647896
0.00124671639
0.0012511655
0.001255621178
0.001259668572
0.001262857777
0.00126470779
0.00125017389
0.001252509094
0.001255808909
0.001259801162
0.001264164079
0.001268530291
0.001272493446
0.001275614022
0.001277423094
0.001263167171
0.001265453077
0.001268681751
0.001272585519
0.001276848554
0.001281111263
0.001284977127
0.001288018571
0.001289780502
0.001275849403
0.001278078502
0.001281225288
0.001285027346
0.001289175762
0.001293319912
0.001297074542
0.001300025671
0.001301733885
0.001288178398
0.001290342694
0.001293396174
0.001297082519
0.001301100774
0.001305110554
0.001308739369
0.001311588541
0.001313236216
0.001300110248
0.001302201409
0.001305149716
0.00130870585
0.001312577922
0.001316437119
0.001319925247
0.001322660646
0.001324240886
0.001311600302
0.001313609851
0.001316440955
0.001319852246
0.001323562055
0.001327254491
0.001330587187
0.001333197172