/*--------------------------------*- C++ -*----------------------------------*\
| =========                 |                                                 |
| \\      /  F ield         | OpenFOAM: The Open Source CFD Toolbox           |
|  \\    /   O peration     | Version:  2212                                  |
|   \\  /    A nd           | Website:  www.openfoam.com                      |
|    \\/     M anipulation  |                                                 |
\*---------------------------------------------------------------------------*/
FoamFile
{
    version     2.0;
    format      ascii;
    arch        "LSB;label=32;scalar=64";
    class       volScalarField;
    location    "18.25000000";
    object      A2CH2-2_0;
}
// * * * * * * * * * * * * * * * * * * * * * * * * * * * * * * * * * * * * * //

dimensions      [0 0 0 0 0 0 0];

internalField   nonuniform List<scalar> 
3000
(
1.295807228e-23
1.455638602e-23
1.69682073e-23
2.018213635e-23
2.416549132e-23
2.881009914e-23
3.383614816e-23
3.863193916e-23
4.202313573e-23
4.864897131e-23
5.486983243e-23
6.425293625e-23
7.678436119e-23
9.245161492e-23
1.111678294e-22
1.326081667e-22
1.556903713e-22
1.761374961e-22
1.089655128e-22
1.238634464e-22
1.465488638e-22
1.773500094e-22
2.168205527e-22
2.655329243e-22
3.232953826e-22
3.868649999e-22
4.411952767e-22
2.075358122e-22
2.383803076e-22
2.860363e-22
3.521154272e-22
4.38957841e-22
5.487693924e-22
6.80950276e-22
8.249184779e-22
9.411196225e-22
3.684948818e-22
4.284531935e-22
5.22549126e-22
6.555601508e-22
8.337397793e-22
1.062079325e-21
1.33676211e-21
1.62845745e-21
1.852367944e-21
6.335824486e-22
7.461012988e-22
9.252145805e-22
1.182347794e-21
1.531211052e-21
1.980575905e-21
2.517015665e-21
3.072878362e-21
3.484109816e-21
1.07546015e-21
1.282118025e-21
1.614920577e-21
2.098083695e-21
2.758500374e-21
3.609287047e-21
4.615244595e-21
5.637286436e-21
6.374731916e-21
1.819802872e-21
2.193755899e-21
2.801331479e-21
3.690243847e-21
4.91005242e-21
6.478300807e-21
8.316295265e-21
1.015650228e-20
1.146214984e-20
3.084368635e-21
3.753911647e-21
4.848788655e-21
6.458777393e-21
8.672033492e-21
1.15098078e-20
1.481177721e-20
1.808335924e-20
2.037898684e-20
5.246252682e-21
6.435642452e-21
8.389530592e-21
1.127200338e-20
1.523704114e-20
2.030764993e-20
2.617509698e-20
3.194600855e-20
3.596536106e-20
8.958991437e-21
1.105953777e-20
1.452126339e-20
1.963861434e-20
2.667827486e-20
3.566085496e-20
4.601242407e-20
5.614174164e-20
6.316145934e-20
1.535561331e-20
1.904921796e-20
2.514979599e-20
3.41797146e-20
4.659950051e-20
6.241930147e-20
8.059576971e-20
9.831857592e-20
1.105586271e-19
2.640139567e-20
3.287545693e-20
4.358484958e-20
5.94497268e-20
8.126515278e-20
1.090156621e-19
1.408317628e-19
1.717762868e-19
1.930972059e-19
4.550622484e-20
5.682723124e-20
7.557468971e-20
1.033623157e-19
1.415639388e-19
1.901105552e-19
2.456836075e-19
2.996373311e-19
3.36751939e-19
7.858739341e-20
9.835013714e-20
1.311022315e-19
1.796657378e-19
2.464171498e-19
3.311825481e-19
4.281015628e-19
5.220017014e-19
5.866543864e-19
1.359131665e-19
1.703678154e-19
2.274998647e-19
3.122347781e-19
4.286865612e-19
5.764763285e-19
7.451399793e-19
9.049216484e-19
1.020987814e-18
2.353003665e-19
2.953077947e-19
3.948498797e-19
5.425095241e-19
7.454118836e-19
1.00282619e-18
1.296918616e-18
1.585161267e-18
1.776535682e-18
4.076634836e-19
5.120882422e-19
6.853573897e-19
9.424072092e-19
1.295576459e-18
1.743455117e-18
2.254576191e-18
2.749166985e-18
3.08797821e-18
7.066515106e-19
8.882549287e-19
1.189638844e-18
1.636772198e-18
2.251027323e-18
3.02978257e-18
3.918126723e-18
4.777152199e-18
5.365734576e-18
1.225384962e-18
1.541062611e-18
2.06501618e-18
2.842370503e-18
3.910155795e-18
5.263588355e-18
6.806994174e-18
8.298930898e-18
9.320833925e-18
2.125519392e-18
2.674081681e-18
3.584642118e-18
4.935576831e-18
6.791051477e-18
9.142430188e-18
1.182315615e-17
1.441374021e-17
1.618777943e-17
3.687704614e-18
4.640751471e-18
6.222777483e-18
8.569847988e-18
1.179312021e-17
1.587707153e-17
2.053189519e-17
2.502902181e-17
2.810801656e-17
6.399173777e-18
8.054697147e-18
1.080280133e-17
1.487956753e-17
2.047743287e-17
2.756847454e-17
3.564854516e-17
4.345265125e-17
4.879441761e-17
1.110571493e-17
1.398111675e-17
1.875393623e-17
2.583350109e-17
3.555264031e-17
4.786092379e-17
6.188135126e-17
7.541829694e-17
8.46812022e-17
1.927526991e-17
2.426873784e-17
3.255644632e-17
4.48474647e-17
6.171660812e-17
8.307213838e-17
1.07388265e-16
1.308556542e-16
1.469072433e-16
3.345476372e-17
4.212504335e-17
5.65128214e-17
7.784492943e-17
1.071120422e-16
1.44145574e-16
1.862903975e-16
2.269410169e-16
2.547311187e-16
5.806083832e-17
7.311168949e-17
9.808159429e-17
1.350898955e-16
1.858392442e-16
2.500158595e-16
3.229977066e-16
3.933387233e-16
4.413917944e-16
1.007465983e-16
1.268644809e-16
1.701804757e-16
2.343482495e-16
3.222833274e-16
4.333932697e-16
5.596282825e-16
6.811730708e-16
7.641260493e-16
1.747592605e-16
2.200588199e-16
2.951534625e-16
4.063252589e-16
5.585425224e-16
7.506699592e-16
9.686808362e-16
1.178313963e-15
1.321204286e-15
3.029972032e-16
3.815088599e-16
5.115835745e-16
7.03985779e-16
9.671291942e-16
1.298807482e-15
1.674567866e-15
2.035269964e-15
2.280724795e-15
5.249704103e-16
6.60906584e-16
8.859486613e-16
1.21846152e-15
1.672580246e-15
2.243965436e-15
2.889976166e-15
3.508748618e-15
3.928928194e-15
9.086995477e-16
1.143739739e-15
1.532473432e-15
2.106061193e-15
2.88801086e-15
3.869712197e-15
4.976810612e-15
6.034349255e-15
6.750579443e-15
1.570973164e-15
1.976638613e-15
2.646761516e-15
3.633854641e-15
4.976518254e-15
6.657583042e-15
8.547468717e-15
1.034675455e-14
1.156141622e-14
2.711669671e-15
3.410210855e-15
4.562422353e-15
6.256063242e-15
8.553509451e-15
1.14204975e-14
1.463150776e-14
1.767640905e-14
1.972406154e-14
4.671597219e-15
5.870989212e-15
7.845748307e-15
1.074105516e-14
1.465569843e-14
1.952153152e-14
2.494699398e-14
3.006773343e-14
3.349593015e-14
8.029384374e-15
1.008145712e-14
1.345277297e-14
1.838059317e-14
2.501744047e-14
3.322876123e-14
4.23371759e-14
5.088778841e-14
5.658297644e-14
1.37627212e-14
1.72587799e-14
2.298757454e-14
3.133125894e-14
4.251771918e-14
5.628413246e-14
7.146463611e-14
8.562920368e-14
9.500998328e-14
2.351476931e-14
2.944117237e-14
3.912314051e-14
5.316573458e-14
7.189492286e-14
9.480437532e-14
1.199008846e-13
1.431615311e-13
1.584710559e-13
4.003092859e-14
5.001918605e-14
6.628030446e-14
8.975314443e-14
1.208762912e-13
1.586900855e-13
1.998151113e-13
2.376570077e-13
2.62399354e-13
6.786893081e-14
8.459252647e-14
1.117116074e-13
1.506488902e-13
2.019410993e-13
2.638023611e-13
3.305592826e-13
3.9151837e-13
4.311015902e-13
1.145430158e-13
1.423383115e-13
1.872129664e-13
2.512635389e-13
3.350402153e-13
4.352846374e-13
5.425787061e-13
6.397794414e-13
7.024525494e-13
1.92350059e-13
2.381737306e-13
3.117971687e-13
4.162085984e-13
5.51741949e-13
7.125742178e-13
8.832625673e-13
1.036649847e-12
1.134854683e-12
3.212548936e-13
3.961383253e-13
5.158237379e-13
6.843999139e-13
9.014821444e-13
1.15688236e-12
1.425608542e-12
1.66515574e-12
1.817460935e-12
5.334013518e-13
6.546269337e-13
8.473091722e-13
1.116758225e-12
1.460888862e-12
1.86224985e-12
2.280938138e-12
2.651219573e-12
2.885067328e-12
8.800885028e-13
1.074398565e-12
1.381466605e-12
1.807710456e-12
2.347561319e-12
2.971742882e-12
3.617404295e-12
4.18406583e-12
4.539649079e-12
1.442440107e-12
1.750702742e-12
2.234981019e-12
2.902204804e-12
3.740253746e-12
4.700991117e-12
5.686733695e-12
6.545593353e-12
7.081299491e-12
2.347542427e-12
2.831448888e-12
3.587165177e-12
4.620662909e-12
5.908208688e-12
7.372153348e-12
8.862616161e-12
1.015239619e-11
1.095241508e-11
3.792589878e-12
4.544158886e-12
5.711030943e-12
7.295278852e-12
9.253484242e-12
1.146261727e-11
1.3695491e-11
1.561554846e-11
1.680046238e-11
6.080640765e-12
7.235574746e-12
9.018545172e-12
1.142244113e-11
1.437163941e-11
1.767442283e-11
2.099032043e-11
2.382523912e-11
2.556670814e-11
9.673060714e-12
1.142936468e-11
1.412605144e-11
1.773794399e-11
2.213823671e-11
2.703271093e-11
3.191646249e-11
3.607004732e-11
3.861109691e-11
1.526578034e-11
1.790955369e-11
2.194821347e-11
2.73242669e-11
3.383149938e-11
4.102465898e-11
4.816219416e-11
5.420430373e-11
5.788731617e-11
2.389934453e-11
2.78403511e-11
3.383215048e-11
4.176284194e-11
5.130542963e-11
6.179467819e-11
7.215114059e-11
8.088204489e-11
8.618730858e-11
3.711669637e-11
4.293731441e-11
5.174775878e-11
6.334845431e-11
7.72324939e-11
9.241744396e-11
1.073444655e-10
1.198832977e-10
1.274818273e-10
5.718415488e-11
6.570578714e-11
7.855300738e-11
9.538965623e-11
1.154440526e-10
1.372800546e-10
1.586624427e-10
1.765678136e-10
1.873933841e-10
8.740714861e-11
9.978172342e-11
1.183707722e-10
1.426304379e-10
1.714040736e-10
2.026111726e-10
2.33067072e-10
2.585018922e-10
2.738497193e-10
1.325732779e-10
1.504078064e-10
1.771135731e-10
2.118369935e-10
2.528674577e-10
2.972151563e-10
3.403687752e-10
3.763249493e-10
3.979862181e-10
1.995721765e-10
2.250983149e-10
2.632145028e-10
3.126125615e-10
3.707917999e-10
4.334865134e-10
4.943392694e-10
5.449436446e-10
5.753888082e-10
2.982595996e-10
3.345641611e-10
3.886417032e-10
4.585255017e-10
5.405966793e-10
6.288082765e-10
7.142433542e-10
7.851738705e-10
8.278021658e-10
4.4265763e-10
4.939955642e-10
5.703020373e-10
6.68666661e-10
7.838985863e-10
9.07475232e-10
1.026942827e-09
1.125993948e-09
1.185472492e-09
6.526163204e-10
7.24835203e-10
8.319778592e-10
9.697940069e-10
1.130895756e-09
1.303333499e-09
1.469780405e-09
1.607630211e-09
1.69035424e-09
9.561074619e-10
1.057222729e-09
1.206992735e-09
1.3992794e-09
1.623639661e-09
1.863396192e-09
2.094525196e-09
2.285774711e-09
2.400491426e-09
1.392382813e-09
1.533356722e-09
1.74187231e-09
2.009149054e-09
2.320513649e-09
2.652786032e-09
2.972760027e-09
3.237340086e-09
3.395993629e-09
2.016312436e-09
2.212107971e-09
2.501360699e-09
2.871611328e-09
3.302350608e-09
3.761477864e-09
4.203223579e-09
4.568297649e-09
4.787172527e-09
2.904329396e-09
3.175334091e-09
3.575277116e-09
4.086600807e-09
4.680770526e-09
5.313477653e-09
5.921797153e-09
6.424332144e-09
6.725598603e-09
4.162551762e-09
4.536498017e-09
5.087862134e-09
5.792048414e-09
6.609517725e-09
7.479291243e-09
8.315059183e-09
9.005293772e-09
9.419093122e-09
5.937844519e-09
6.452396196e-09
7.210482954e-09
8.177827087e-09
9.299838539e-09
1.049281942e-08
1.163863538e-08
1.258475066e-08
1.31520037e-08
8.432839485e-09
9.139071276e-09
1.017885466e-08
1.150463298e-08
1.304127741e-08
1.467418145e-08
1.624196523e-08
1.753635972e-08
1.831253939e-08
1.192625982e-08
1.289332771e-08
1.431630064e-08
1.612945766e-08
1.822969806e-08
2.046043284e-08
2.260160162e-08
2.436929615e-08
2.542947877e-08
1.680030674e-08
1.812169916e-08
2.006503369e-08
2.25397992e-08
2.540486852e-08
2.844671567e-08
3.136577007e-08
3.37756203e-08
3.522121991e-08
2.357737118e-08
2.537924265e-08
2.802799638e-08
3.139935677e-08
3.530058751e-08
3.944106028e-08
4.341363256e-08
4.66932099e-08
4.866090718e-08
3.296892995e-08
3.542115451e-08
3.902445099e-08
4.360864072e-08
4.891105655e-08
5.453682318e-08
5.993350112e-08
6.438870958e-08
6.706220671e-08
4.594016098e-08
4.927089469e-08
5.416322375e-08
6.038467202e-08
6.757797071e-08
7.520753744e-08
8.252505393e-08
8.856576739e-08
9.219112339e-08
6.379451228e-08
6.830921261e-08
7.49382212e-08
8.336466094e-08
9.31035138e-08
1.034296531e-07
1.133312899e-07
1.215044888e-07
1.264098955e-07
8.82831013e-08
9.438909382e-08
1.03351435e-07
1.147391109e-07
1.278949413e-07
1.418390703e-07
1.552063011e-07
1.66238306e-07
1.728592199e-07
1.21744267e-07
1.299820403e-07
1.420689629e-07
1.574199905e-07
1.751464868e-07
1.939272508e-07
2.119246506e-07
2.267740125e-07
2.356845123e-07
1.672786558e-07
1.783610506e-07
1.946153644e-07
2.152491919e-07
2.390636356e-07
2.642817038e-07
2.884368482e-07
3.083591554e-07
3.203101916e-07
2.289646522e-07
2.438249238e-07
2.656106691e-07
2.932511461e-07
3.251330496e-07
3.588734218e-07
3.911727395e-07
4.177978995e-07
4.337626036e-07
3.121175049e-07
3.319668022e-07
3.610522729e-07
3.97930909e-07
4.404383039e-07
4.853901089e-07
5.283902875e-07
5.63811608e-07
5.850371813e-07
4.23592892e-07
4.499869464e-07
4.886405784e-07
5.376150602e-07
5.940169455e-07
6.536086663e-07
7.105610746e-07
7.574336962e-07
7.854976398e-07
5.721317585e-07
6.070454704e-07
6.581424515e-07
7.228273453e-07
7.972482561e-07
8.757934783e-07
9.507765017e-07
1.012419681e-06
1.049286324e-06
7.687380032e-07
8.146451681e-07
8.817804835e-07
9.666842446e-07
1.06425376e-06
1.167099572e-06
1.265150185e-06
1.345648122e-06
1.393733155e-06
1.027074173e-06
1.087027792e-06
1.174628962e-06
1.285288651e-06
1.412285161e-06
1.545950466e-06
1.673185747e-06
1.777490158e-06
1.839708177e-06
1.363853028e-06
1.441560279e-06
1.554990568e-06
1.698091492e-06
1.862065132e-06
2.034360334e-06
2.198091282e-06
2.332088841e-06
2.411891394e-06
1.799195602e-06
1.899078723e-06
2.044718753e-06
2.228183928e-06
2.438056966e-06
2.658181507e-06
2.866970432e-06
3.037524853e-06
3.138919856e-06
2.356916207e-06
2.484149197e-06
2.669447444e-06
2.902511481e-06
3.168635009e-06
3.447200744e-06
3.710877019e-06
3.925830915e-06
4.053378246e-06
3.064710953e-06
3.225249016e-06
3.458752377e-06
3.751953505e-06
4.086083139e-06
4.43508304e-06
4.764699381e-06
5.032828555e-06
5.19160813e-06
3.954256663e-06
4.154802881e-06
4.446100783e-06
4.811216845e-06
5.226428299e-06
5.659133428e-06
6.066856469e-06
6.397772886e-06
6.593323683e-06
5.061071704e-06
5.309014005e-06
5.668641689e-06
6.118558127e-06
6.629086331e-06
7.159867534e-06
7.658801571e-06
8.062805497e-06
8.301036511e-06
6.424217807e-06
6.727524005e-06
7.166806238e-06
7.715314261e-06
8.336317862e-06
8.980395592e-06
9.584344349e-06
1.007223073e-05
1.035930739e-05
8.085804848e-06
8.452877617e-06
8.983717092e-06
9.6452477e-06
1.039250716e-05
1.116563938e-05
1.188881628e-05
1.247164462e-05
1.281385639e-05
1.00903051e-05
1.052980256e-05
1.11644219e-05
1.195372754e-05
1.284329107e-05
1.376141479e-05
1.461811685e-05
1.530695691e-05
1.571057351e-05
1.248369912e-05
1.300432992e-05
1.375498037e-05
1.468678084e-05
1.57345771e-05
1.681342306e-05
1.781768641e-05
1.86233541e-05
1.909447829e-05
1.531248955e-05
1.592279367e-05
1.680144659e-05
1.789005874e-05
1.911149787e-05
2.036619995e-05
2.153145619e-05
2.246425407e-05
2.300867923e-05
1.862263038e-05
1.933075793e-05
2.034879635e-05
2.160776834e-05
2.301735332e-05
2.446207384e-05
2.580082552e-05
2.687030161e-05
2.749338132e-05
2.245842539e-05
2.327192576e-05
2.443985283e-05
2.58816226e-05
2.749259147e-05
2.914018146e-05
3.06637127e-05
3.187844886e-05
3.258498433e-05
2.686145139e-05
2.778708361e-05
2.9114263e-05
3.074985785e-05
3.25738738e-05
3.443558389e-05
3.615371847e-05
3.752115691e-05
3.831530654e-05
3.18695582e-05
3.291313152e-05
3.440757147e-05
3.624636189e-05
3.829326388e-05
4.037851646e-05
4.229943179e-05
4.382574495e-05
4.471095832e-05
3.751599027e-05
3.868224107e-05
4.035042999e-05
4.239994609e-05
4.467756772e-05
4.699379666e-05
4.912389748e-05
5.081390332e-05
5.179288023e-05
4.382866401e-05
4.51211724e-05
4.696797024e-05
4.92337846e-05
5.17478439e-05
5.430040297e-05
5.664425488e-05
5.850137677e-05
5.95760504e-05
5.082962371e-05
5.225077043e-05
5.427935579e-05
5.676503197e-05
5.951909042e-05
6.231122775e-05
6.487154726e-05
6.689781522e-05
6.806935734e-05
5.853468637e-05
6.008564803e-05
6.229751812e-05
6.50046207e-05
6.80001061e-05
7.103299864e-05
7.381069368e-05
7.600678208e-05
7.727562724e-05
6.695327481e-05
6.863405375e-05
7.102907159e-05
7.395723053e-05
7.71935156e-05
8.046635526e-05
8.346060855e-05
8.582590416e-05
8.71917895e-05
7.608842876e-05
7.789791248e-05
8.047439395e-05
8.362141445e-05
8.709594143e-05
9.060606317e-05
9.38144498e-05
9.634714361e-05
9.780916049e-05
8.593697625e-05
8.787302033e-05
9.062785297e-05
9.398986088e-05
9.769830158e-05
0.0001014413432
0.0001048599736
0.0001075571698
0.0001091138237
9.648984224e-05
9.854937082e-05
0.0001014781557
0.0001050497685
0.0001089862093
0.0001129562932
0.0001165799726
0.0001194378085
0.0001210870842
0.0001077324687
0.0001099115864
0.0001130087949
0.0001167833087
0.0001209404507
0.0001251303777
0.000128952775
0.0001319665462
0.0001337059744
0.0001196453194
0.0001219394291
0.000125198567
0.0001291681511
0.0001335375161
0.0001379389639
0.0001419527829
0.0001451170692
0.0001469437935
0.0001322044421
0.0001346083642
0.000138022137
0.0001421780282
0.000146750164
0.0001513538833
0.0001555510299
0.0001588598179
0.0001607706589
0.0001453820658
0.0001478901541
0.0001514506279
0.000155783319
0.0001605479969
0.0001653439992
0.0001697157418
0.0001731625411
0.0001751540575
0.0001591472088
0.0001617534615
0.0001654522145
0.0001699516323
0.0001748980334
0.000179875767
0.0001844128861
0.0001879908372
0.0001900593814
0.0001734662815
0.0001761644427
0.0001799927067
0.000184648376
0.0001897652617
0.0001949137734
0.0001996066974
0.0002033086703
0.0002054504394
0.0001883036668
0.0001910873196
0.0001950361067
0.0001998372981
0.0002051131643
0.000210421244
0.0002152601722
0.0002190788544
0.0002212899353
0.0002036222689
0.0002064849172
0.0002105451324
0.0002154809934
0.0002209042062
0.0002263605152
0.0002313355251
0.000235263499
0.0002375399083
0.0002193840193
0.0002223191592
0.0002264816986
0.000231541367
0.0002371002808
0.0002426934623
0.0002477946035
0.0002518244135
0.0002541621319
0.0002355503374
0.000238551518
0.0002428073516
0.000247980052
0.0002536631096
0.0002593818835
0.0002645992572
0.0002687234671
0.0002711184692
0.0002520825404
0.0002551434141
0.0002594836555
0.0002647587802
0.0002705545967
0.0002763878382
0.0002817116641
0.0002859229055
0.0002883711845
0.0002689422023
0.0002720565665
0.0002764725293
0.0002818397038
0.0002877371349
0.0002936739398
0.0002990946112
0.0003033856239
0.0003058832127
0.0002860914638
0.0002892532932
0.0002937365358
0.0002991856714
0.0003051738685
0.0003112036047
0.0003167117333
0.0003210753978
0.0003236183863
0.0003034932925
0.0003066967643
0.000311239125
0.0003167604592
0.0003228289114
0.0003289412603
0.0003345277115
0.0003389570754
0.000341541625
0.0003211116992
0.0003243512119
0.0003289448339
0.0003345289605
0.0003406675271
0.0003468525141
0.0003525084342
0.0003569967335
0.0003596190884
0.000338911911
0.000342182097
0.000346819447
0.0003524573373
0.0003586562704
0.0003649042878
0.0003706211246
0.0003751617993
0.0003778182959
0.0003568605079
0.0003601562417
0.0003648301205
0.0003705131372
0.0003767630968
0.0003830649193
0.0003888344366
0.0003934211428
0.0003961082173
0.0003749255235
0.0003782419259
0.0003829454751
0.0003886653797
0.0003949574426
0.0004013042367
0.0004071185239
0.0004117451426
0.0004144593363
0.0003930765177
0.0003964089565
0.0004011356594
0.0004068846147
0.0004132102778
0.0004195936065
0.0004254450843
0.0004301057273
0.0004328436913
0.0004112846214
0.0004146287098
0.0004193723898
0.0004251429582
0.0004314941379
0.0004379059613
0.0004437873839
0.0004484763969
0.0004512348955
0.00042952256
0.0004328741529
0.0004376289686
0.000443414107
0.0004497831348
0.0004562158075
0.0004621202622
0.0004668322268
0.0004696081393
0.0004477646574
0.0004511198459
0.0004558802841
0.0004616733364
0.0004680529522
0.0004744992185
0.000480420123
0.0004851498562
0.0004879401788
0.0004659868241
0.0004693419291
0.0004741027961
0.0004798974839
0.000486280827
0.0004927338134
0.0004986649115
0.0005034074648
0.0005062093114
0.0004841665319
0.000487518097
0.000492274509
0.0004980649206
0.0005044455194
0.000510898726
0.0005168340818
0.0005215847386
0.0005243953408
0.0005022827792
0.0005056275624
0.0005103749348
0.0005161555134
0.0005225272736
0.0005289745644
0.0005349085556
0.0005396628278
0.0005424795351
0.0005203160462
0.0005236510121
0.0005283850482
0.0005341505793
0.0005405077718
0.0005469433642
0.0005528706742
0.0005576242984
0.000560444577
0.0005382482453
0.0005415705563
0.0005462872362
0.0005520328348
0.0005583700825
0.0005647885356
0.0005707041454
0.0005754530787
0.0005782745106
0.0005560626659
0.0005593696737
0.0005640652425
0.0005697863398
0.0005760986046
0.0005824948081
0.0005883939875
0.0005931344017
0.0005959546837
0.0005737439157
0.000577033153
0.0005817041094
0.0005873964396
0.000593679009
0.0006000481708
0.0006059264693
0.0006106547465
0.0006134716879
0.0005912778607
0.0005945470326
0.0005991901174
0.0006048497046
0.0006110981785
0.000617435813
0.0006232890504
0.0006280017766
0.0006308132979
0.0006086515626
0.0006118985389
0.0006165107239
0.0006221338691
0.0006283441465
0.0006346460624
0.0006404703194
0.000645164279
0.0006479684091
0.0006258532177
0.0006290760243
0.0006336545012
0.00063923777
0.0006454060357
0.0006516683243
0.0006574599331
0.0006621321025
0.0006649269769
0.000642872094
0.0006460689059
0.0006506110758
0.0006561512856
0.0006622739981
0.0006684930208
0.0006742485554
0.0006788960971
0.000681679955
0.0006596984714
0.0006628676043
0.0006673710671
0.0006728652751
0.0006789391533
0.0006851115311
0.0006908277978
0.000695448054
0.0006982192358
0.0006763235835
0.0006794634869
0.0006839260315
0.0006893715224
0.0006953935333
0.0007015161338
0.0007071901615
0.0007117806476
0.0007145375921
0.0006927395582
0.0006958488087
0.0007002684028
0.0007056626782
0.000711630025
0.0007176999517
0.0007233289824
0.0007278873802
0.0007306286212
0.0007089393622
0.0007120166564
0.0007163914376
0.0007217322042
0.0007276423147
0.0007336568959
0.0007392383756
0.0007437625272
0.0007464866913
0.0007249167462
0.0007279608944
0.0007322891612
0.0007375743208
0.0007434248363
0.0007493816144
0.0007549131841
0.0007594010856
0.0007621068882
0.000740666194
0.000743676114
0.0007479563172
0.0007531839561
0.0007589727205
0.0007648694418
0.0007703489285
0.0007747987234
0.0007774849661
0.0007561828731
0.0007591575844
0.0007633883187
0.0007685566984
0.0007742817476
0.0007801163519
0.0007855417599
0.0007899517328
0.0007926173002
0.0007714625883
0.0007744012065
0.0007785812025
0.0007836887496
0.0007893483016
0.0007951189124
0.0008004884146
0.0008048569851
0.0008075008415
0.0007865017361
0.000789403468
0.0007935315851
0.0007985768825
0.0008041693272
0.0008098742422
0.0008151861722
0.0008195118885
0.0008221330747
0.0008012972633
0.0008041614021
0.000808236621
0.0008132183992
0.0008187422894
0.0008243799712
0.0008296328147
0.0008339143481
0.0008365119781
0.0008158466289
0.0008186725474
0.000822693964
0.0008276110926
0.0008330651347
0.0008386342021
0.0008438265895
0.000848062728
0.0008506359864
0.0008301477698
0.0008329349133
0.0008369017304
0.0008417532104
0.0008471362561
0.0008526354753
0.0008577661738
0.0008619558166
0.0008645039551
0.0008441990584
0.0008469469435
0.0008508584647
0.0008556434206
0.0008609544576
0.0008663827343
0.0008714506414
0.0008755927939
0.0008781151283
0.0008579992725
0.0008607074843
0.0008645631062
0.0008692807787
0.0008745189244
0.0008798752962
0.0008848794323
0.0008889732002
0.0008914691075
0.0008715475637
0.0008742157502
0.0008780149588
0.0008826646988
0.0008878291925
0.0008931128214
0.000898052323
0.000902096907
0.0009045658226
0.00088484343
0.0008874712984
0.0008912136645
0.0008957949258
0.0009008851208
0.0009060952859
0.0009109693992
0.0009149640905
0.0009174055048
0.0008978866891
0.0009004740022
0.0009041591771
0.0009086715085
0.0009136868654
0.0009188229559
0.0009236310303
0.0009275752052
0.0009299886618
0.0009106774521
0.0009132240249
0.0009168517332
0.0009212947745
0.0009262348547
0.0009312963632
0.0009360378459
0.0009399309613
0.0009423160534
0.0009232161003
0.0009257217962
0.0009292918318
0.0009336653069
0.0009385297669
0.0009435162833
0.0009481907128
0.0009520323017
0.0009543886699
0.0009355032628
0.0009379679904
0.0009414802118
0.0009457839252
0.0009505725088
0.0009554837139
0.000960090715
0.0009638803819
0.0009662077116
0.000947539795
0.0009499635054
0.0009534178314
0.000957651661
0.0009623641954
0.0009671998554
0.0009717391333
0.0009754765503
0.000977774569
0.0009593267599
0.0009617094434
0.0009651058491
0.0009692697417
0.0009739061313
0.0009786660921
0.0009831374282
0.0009868223306
0.0009890908058
0.0009708654088
0.0009732070925
0.0009765456054
0.0009806395728
0.0009851997937
0.0009898839758
0.0009942872219
0.0009979194047
0.001000158142
0.0009821571651
0.0009844579102
0.0009877386064
0.0009917627197
0.0009962468158
0.001000855209
0.001005190284
0.001008769598
0.001010978437
0.0009932036084
0.0009954635078
0.000998686509
0.001002640896
0.001007048972
0.001011581632
0.001015848515
0.001019374863
0.001021553678
0.001004006459
0.001006225635
0.001009391105
0.001013275945
0.001017608165
0.001022065206
0.001026263935
0.001029737268
0.001031885964
0.001014567566
0.001016746168
0.001019854309
0.001023669829
0.00102792641
0.001032308003
0.00103643867
0.001039858986
0.001041977496
0.001024888891
0.001027027094
0.001030078144
0.001033824615
0.001038005825
0.001042312192
0.001046374938
0.001049742277
0.001051830564
0.001034972501
0.001037070502
0.001040064733
0.001043742467
0.001047848618
0.00105208003
0.001056075043
0.001059389483
0.001061447534
0.001044820552
0.001046878571
0.001049816284
0.001053425631
0.001057457078
0.00106161385
0.001065541359
0.001068803016
0.001070830841
0.001054435284
0.001056453558
0.001059335083
0.001062876425
0.001066833562
0.001070916049
0.001074776324
0.001077985347
0.001079982979
0.001063819005
0.00106579779
0.001068623481
0.001072097234
0.001075980489
0.001079989083
0.001083782427
0.001086938997
0.001088906488
0.001072974086
0.001074913654
0.001077683887
0.001081090494
0.001084900327
0.001088835452
0.001092562202
0.001095666526
0.001097603947
0.00108190295
0.001083803586
0.001086518759
0.001089858685
0.001093595585
0.001097457695
0.001101118217
0.001104170527
0.001106077966
0.001090608063
0.001092470065
0.001095130591
0.001098404326
0.001102068804
0.001105858378
0.001109453061
0.001112453611
0.001114331171
0.001099091925
0.001100915601
0.00110352191
0.001106729959
0.001110322547
0.001114040084
0.001117569338
0.001120518401
0.001122366195
0.001107357063
0.001109142728
0.001111695259
0.001114838142
0.001118359386
0.001122005403
0.001125469654
0.001128367515
0.001130185666
0.001115406017
0.001117153993
0.001119653193
0.001122731439
0.001126181897
0.001129756919
0.001133156601
0.001136003554
0.001137792192
0.001123241337
0.001124951946
0.001127398267
0.001130412409
0.00113379264
0.001137297196
0.001140632746
0.001143429087
0.001145188344
0.001130865567
0.001132539134
0.001134933026
0.001137883592
0.001141194154
0.001144628766
0.001147900616
0.001150646635
0.001152376638
0.00113828124
0.001139918085
0.00114225999
0.001145147501
0.001148388935
0.001151754111
0.001154962675
0.001157658647
0.001159359513
0.00114549087
0.001147091302
0.001149381648
0.001152206606
0.001155379431
0.001158675649
0.001161821311
0.001164467482
0.001166139309
0.001152496938
0.001154061252
0.001156300447
0.001159063322
0.001162168019
0.001165395715
0.001168478812
0.001171075387
0.001172718245
0.00115930189
0.001160830363
0.001163018783
0.001165720004
0.001168757003
0.001171916553
0.001174937358
0.001177484481
0.001179098398
0.001165908135
0.001167401017
0.001169538997
0.001172178938
0.001175148601
0.0011782403
0.001181199003
0.001183696739
0.001185281688
0.001172318046
0.001173775553
0.001175863378
0.001178442347
0.00118134495
0.001184368995
0.001187265679
0.001189713992
0.001191269877
0.001178533973
0.001179956281
0.001181994176
0.001184512398
0.001187348115
0.001190304587
0.001193139208
0.001195537945
0.001197064582
0.001184558261
0.001185945503
0.001187933623
0.00119039123
0.001193160123
0.001196048968
0.001198821341
0.001201170211
0.001202667322
0.001190393289
0.001191745548
0.001193683975
0.001196081002
0.001198783011
0.001201604034
0.00120431382
0.001206612388
0.001208079591
0.00119604152
0.001197358832
0.001199247577
0.001201583962
0.001204218905
0.001206971773
0.001209618485
0.001211866174
0.001213302986
0.001201505577
0.001202787935
0.001204626943
0.001206902538
0.001209470131
0.001212154392
0.001214737416
0.001216933529
0.001218339379
0.001206788337
0.001208035704
0.001209824875
0.001212039475
0.001214539362
0.001217154485
0.001219673128
0.001221816896
0.001223191162
0.001211893057
0.001213105385
0.001214844606
0.001216997989
0.001219429804
0.001221975253
0.00122442882
0.001226519477
0.001227861542
0.001216823518
0.001218000781
0.001219689974
0.001221781973
0.001224145421
0.001226620754
0.001229008667
0.001231045569
0.001232354904
0.001221584201
0.001222726437
0.001224365624
0.001226396213
0.001228691193
0.001231096207
0.001233418161
0.001235400936
0.001236677221
0.001226180476
0.00122728784
0.00122887723
0.001230846647
0.001233073395
0.001235408304
0.00123766447
0.001239593226
0.001240836491
0.001230618805
0.001231691638
0.001233231728
0.001235140611
0.001237299886
0.001239565541
0.001241756809
0.001243632368
0.001244843178
0.001234906936
0.001235945841
0.001237437543
0.001239287097
0.001241380387
0.001243578523
0.001245706776
0.00124753095
0.001248710603
0.001239054086
0.001240060018
0.001241504782
0.001243296958
0.001245326707
0.00124746021
0.001249528623
0.001251304506
0.001252455252
0.001243071076
0.001244045429
0.001245445384
0.001247183059
0.001249152891
0.001251226066
0.001253239399
0.001254971652
0.001256096909
0.001246970402
0.001247915094
0.001249273175
0.001250960323
0.001252875252
0.001254894064
0.001256858922
0.001258554032
0.001259658569
0.001250766206
0.00125168375
0.001253003803
0.00125464563
0.001256512222
0.001258484479
0.001260409505
0.001262075966
0.001263166045
0.001254474113
0.001255367662
0.001256654507
0.001258257531
0.00126008399
0.001262019429
0.001263915388
0.001265563773
0.001266647193
0.001258110901
0.001258984256
0.001260243693
0.00126181573
0.001263611872
0.001265522106
0.00126740181
0.001269044682
0.001270130714
0.001261693968
0.001262551532
0.00126379026
0.00126534031
0.001267117385
0.001269015677
0.001270893702
0.001272545325
0.001273644481
0.001265240564
0.001266087235
0.001267312678
0.001268850664
0.001270621011
0.001272521826
0.001274413996
0.001276089795
0.001277213426
0.001268766802
0.001269607791
0.001270827805
0.001272364159
0.001274140657
0.00127605898
0.001277981577
0.001279697341
0.00128085703
0.001272286432
0.001273126999
0.001274349461
0.001275894552
0.001277689865
0.001279640275
0.001281608984
0.001283379805
0.00128458656