/*--------------------------------*- C++ -*----------------------------------*\
| =========                 |                                                 |
| \\      /  F ield         | OpenFOAM: The Open Source CFD Toolbox           |
|  \\    /   O peration     | Version:  2212                                  |
|   \\  /    A nd           | Website:  www.openfoam.com                      |
|    \\/     M anipulation  |                                                 |
\*---------------------------------------------------------------------------*/
FoamFile
{
    version     2.0;
    format      ascii;
    arch        "LSB;label=32;scalar=64";
    class       volScalarField;
    location    "18.25000000";
    object      AC3H4_0;
}
// * * * * * * * * * * * * * * * * * * * * * * * * * * * * * * * * * * * * * //

dimensions      [0 0 0 0 0 0 0];

internalField   nonuniform List<scalar> 
3000
(
1.389222417e-22
1.560576107e-22
1.819145164e-22
2.16370743e-22
2.590759113e-22
3.088703084e-22
3.627541001e-22
4.141693173e-22
4.505260118e-22
5.215609286e-22
5.882541873e-22
6.888495483e-22
8.231977597e-22
9.911648925e-22
1.191819642e-21
1.421679452e-21
1.669141564e-21
1.888353235e-21
1.168208768e-21
1.327928094e-21
1.571136293e-21
1.901352439e-21
2.324512371e-21
2.846753062e-21
3.46601887e-21
4.147542673e-21
4.730012385e-21
2.224971495e-21
2.555652392e-21
3.066567746e-21
3.774995774e-21
4.706025018e-21
5.883304196e-21
7.300402852e-21
8.84387222e-21
1.008965361e-20
3.950598278e-21
4.593405628e-21
5.602199158e-21
7.028197683e-21
8.938444502e-21
1.138645101e-20
1.433129896e-20
1.745853688e-20
1.985905994e-20
6.792576751e-21
7.998880622e-21
9.919137043e-21
1.26758377e-20
1.641596743e-20
2.123356513e-20
2.698468459e-20
3.294403549e-20
3.735280861e-20
1.152990537e-20
1.374546473e-20
1.731340911e-20
2.249335475e-20
2.957361884e-20
3.869482138e-20
4.947959598e-20
6.043680869e-20
6.834289099e-20
1.950993248e-20
2.351904711e-20
3.003280675e-20
3.956275109e-20
5.264020185e-20
6.94532423e-20
8.915820433e-20
1.088868868e-19
1.228846086e-19
3.306722079e-20
4.024532715e-20
5.198339837e-20
6.924393281e-20
9.297203836e-20
1.233955432e-19
1.587956385e-19
1.938699533e-19
2.184811547e-19
5.624457174e-20
6.899590483e-20
8.994335104e-20
1.208460633e-19
1.633548494e-19
2.177163548e-19
2.806206851e-19
3.424900671e-19
3.85581154e-19
9.604848561e-20
1.185682394e-19
1.556810641e-19
2.105436864e-19
2.860152017e-19
3.823165669e-19
4.932947281e-19
6.018901509e-19
6.771478565e-19
1.646260492e-19
2.042248252e-19
2.696285275e-19
3.664374028e-19
4.995887116e-19
6.691912456e-19
8.640593754e-19
1.054063837e-18
1.18528822e-18
2.830468094e-19
3.524545875e-19
4.672689376e-19
6.373547294e-19
8.712357655e-19
1.168746241e-18
1.509843517e-18
1.841596703e-18
2.07017617e-18
4.878678259e-19
6.092392268e-19
8.102288896e-19
1.108137295e-18
1.517693132e-18
2.038156616e-18
2.633949822e-18
3.212382369e-18
3.610284419e-18
8.425278207e-19
1.054402262e-18
1.405534255e-18
1.926178838e-18
2.641814165e-18
3.550575664e-18
4.589634902e-18
5.596329152e-18
6.289464178e-18
1.457111876e-18
1.826496806e-18
2.439003928e-18
3.347438659e-18
4.595906853e-18
6.180346534e-18
7.988573288e-18
9.701579362e-18
1.094591114e-17
2.522632432e-18
3.16596624e-18
4.233147266e-18
5.816191982e-18
7.991488503e-18
1.075120235e-17
1.390413863e-17
1.699435799e-17
1.904606694e-17
4.370520759e-18
5.490048487e-18
7.347650254e-18
1.010345652e-17
1.388974995e-17
1.869141384e-17
2.417109359e-17
2.947355374e-17
3.31059164e-17
7.575942534e-18
9.522895238e-18
1.27540031e-17
1.754767665e-17
2.413304661e-17
3.248200657e-17
4.200585865e-17
5.121538804e-17
5.752552301e-17
1.313723382e-17
1.652158344e-17
2.213883913e-17
3.04727799e-17
4.192040313e-17
5.643042323e-17
7.297712838e-17
8.897203833e-17
9.992776228e-17
2.278748828e-17
2.866857172e-17
3.843060244e-17
5.291384339e-17
7.280620843e-17
9.801511327e-17
1.267549184e-16
1.545283208e-16
1.735476247e-16
3.953552562e-17
4.975304923e-17
6.671379786e-17
9.187651495e-17
1.264329065e-16
1.702165559e-16
2.20120473e-16
2.683337354e-16
3.013433423e-16
6.860492577e-17
8.635363265e-17
1.158157934e-16
1.595224122e-16
2.195365889e-16
2.955589658e-16
3.821846274e-16
4.658517001e-16
5.231202649e-16
1.190633015e-16
1.498902084e-16
2.01059148e-16
2.769584835e-16
3.81156443e-16
5.131123703e-16
6.634240297e-16
8.085523275e-16
9.078590477e-16
2.066483172e-16
2.601828082e-16
3.490345366e-16
4.808053672e-16
6.616578384e-16
8.906084342e-16
1.151299301e-15
1.402890936e-15
1.574978488e-15
3.586653131e-16
4.516185511e-16
6.058685428e-16
8.345680327e-16
1.14833795e-15
1.545370906e-15
1.997201533e-15
2.433012941e-15
2.73094797e-15
6.224646875e-16
7.838234247e-16
1.051523389e-15
1.448285852e-15
1.992364774e-15
2.680396144e-15
3.462827566e-15
4.216946899e-15
4.732119294e-15
1.080094649e-15
1.360101976e-15
1.824488625e-15
2.512425211e-15
3.4551688e-15
4.646367906e-15
5.999721458e-15
7.302791562e-15
8.19212255e-15
1.873577352e-15
2.359229614e-15
3.164312128e-15
4.356174375e-15
5.988081175e-15
8.047861151e-15
1.038513503e-14
1.263259186e-14
1.416450544e-14
3.24840415e-15
4.090120157e-15
5.484638807e-15
7.54736456e-15
1.036850012e-14
1.392439155e-14
1.795288295e-14
2.181993592e-14
2.445143387e-14
5.628157851e-15
7.085516668e-15
9.498171426e-15
1.306301024e-14
1.793157403e-14
2.405734049e-14
3.098316029e-14
3.761696112e-14
4.212166655e-14
9.742081622e-15
1.226192524e-14
1.642950236e-14
2.257888243e-14
3.096209078e-14
4.148681789e-14
5.335591524e-14
6.469368696e-14
7.237232305e-14
1.684225455e-14
2.119135548e-14
2.837567978e-14
3.895821188e-14
5.33527816e-14
7.137531835e-14
9.163660411e-14
1.109265775e-13
1.239488506e-13
2.907155439e-14
3.656054854e-14
4.891329935e-14
6.70706636e-14
9.170136774e-14
1.224380762e-13
1.568630143e-13
1.895071138e-13
2.11459803e-13
5.008375361e-14
6.294232235e-14
8.411352886e-14
1.151538412e-13
1.571223635e-13
2.09288502e-13
2.674543744e-13
3.223533398e-13
3.591067139e-13
8.608227531e-14
1.080823549e-13
1.44225916e-13
1.970566142e-13
2.682096314e-13
3.562424306e-13
4.538928887e-13
5.455632018e-13
6.066207771e-13
1.47548844e-13
1.85029763e-13
2.464476355e-13
3.358994965e-13
4.558284913e-13
6.034169202e-13
7.661656782e-13
9.180226792e-13
1.018593137e-12
2.520996426e-13
3.156360597e-13
4.194355412e-13
5.699848879e-13
7.707787742e-13
1.016388881e-12
1.285446217e-12
1.534821435e-12
1.698953417e-12
4.291678444e-13
5.362510328e-13
7.105849856e-13
9.6223514e-13
1.295903526e-12
1.70130172e-12
2.142199311e-12
2.547898766e-12
2.813159156e-12
7.276164489e-13
9.069085946e-13
1.197649792e-12
1.615092856e-12
2.164991954e-12
2.828200891e-12
3.543895727e-12
4.19743249e-12
4.621800533e-12
1.228004842e-12
1.525995714e-12
2.007092872e-12
2.693773335e-12
3.591935592e-12
4.666647057e-12
5.816937108e-12
6.859017382e-12
7.530930053e-12
2.062166383e-12
2.553437947e-12
3.342748405e-12
4.462134278e-12
5.915175588e-12
7.63944439e-12
9.469379295e-12
1.111383082e-11
1.216667612e-11
3.444141197e-12
4.246960112e-12
5.530097384e-12
7.337388604e-12
9.664709372e-12
1.240283416e-11
1.528382543e-11
1.785199097e-11
1.948484205e-11
5.71853717e-12
7.018186822e-12
9.08391792e-12
1.197266059e-11
1.566205944e-11
1.996502101e-11
2.445374728e-11
2.842350681e-11
3.093057058e-11
9.435317339e-12
1.151850087e-11
1.481055547e-11
1.938028742e-11
2.516799479e-11
3.185980809e-11
3.878190624e-11
4.48570508e-11
4.866923659e-11
1.546417435e-11
1.87690372e-11
2.396095571e-11
3.111422809e-11
4.009891539e-11
5.039894644e-11
6.096706096e-11
7.017486782e-11
7.591815423e-11
2.516751049e-11
3.035544409e-11
3.845744644e-11
4.953754941e-11
6.334131644e-11
7.903627455e-11
9.501554744e-11
1.088433011e-10
1.174203142e-10
4.065921686e-11
4.87167562e-11
6.122677256e-11
7.82115181e-11
9.920552914e-11
1.228898082e-10
1.468286581e-10
1.674137937e-10
1.801173756e-10
6.518779212e-11
7.756981176e-11
9.668507781e-11
1.224574353e-10
1.540761942e-10
1.894859646e-10
2.250364734e-10
2.554303637e-10
2.741011023e-10
1.036980487e-10
1.22527381e-10
1.514387719e-10
1.901625135e-10
2.373392994e-10
2.898148391e-10
3.421758263e-10
3.867085821e-10
4.139525439e-10
1.636473727e-10
1.919913221e-10
2.352904271e-10
2.929288597e-10
3.626962594e-10
4.398191786e-10
5.163468788e-10
5.811302958e-10
6.206196996e-10
2.561825249e-10
2.984341823e-10
3.626738102e-10
4.47703104e-10
5.500175557e-10
6.624855299e-10
7.735329924e-10
8.671525496e-10
9.240404675e-10
3.978243488e-10
4.602272265e-10
5.546872894e-10
6.790682681e-10
8.279387125e-10
9.907671433e-10
1.15083853e-09
1.285306258e-09
1.366796222e-09
6.128217065e-10
7.041811577e-10
8.419222436e-10
1.022448998e-09
1.237495927e-09
1.471669806e-09
1.701001566e-09
1.893058803e-09
2.009184362e-09
9.365041625e-10
1.06916668e-09
1.268468643e-09
1.528597663e-09
1.837171703e-09
2.171895924e-09
2.498618224e-09
2.771520856e-09
2.936217664e-09
1.419965521e-09
1.611149598e-09
1.897468177e-09
2.269810243e-09
2.709878211e-09
3.185644659e-09
3.648728858e-09
4.034684672e-09
4.267255015e-09
2.136576616e-09
2.410179403e-09
2.818802704e-09
3.348506295e-09
3.972570689e-09
4.645324601e-09
5.298587837e-09
5.842068084e-09
6.169169666e-09
3.190992119e-09
3.580034807e-09
4.159678766e-09
4.909008983e-09
5.789411786e-09
6.736187966e-09
7.653706968e-09
8.415917808e-09
8.874245452e-09
4.731533131e-09
5.281459275e-09
6.099116039e-09
7.153626803e-09
8.389694586e-09
9.716203487e-09
1.0999593e-08
1.206448194e-08
1.270436977e-08
6.967105744e-09
7.740210652e-09
8.887656148e-09
1.036446799e-08
1.209208423e-08
1.394286339e-08
1.573101003e-08
1.721330414e-08
1.810355635e-08
1.019015899e-08
1.127150458e-08
1.287398117e-08
1.493281323e-08
1.733716086e-08
1.990908017e-08
2.239109805e-08
2.444701437e-08
2.568134629e-08
1.480758807e-08
1.631284581e-08
1.854056444e-08
2.139833484e-08
2.473075163e-08
2.829088152e-08
3.172326088e-08
3.456468058e-08
3.627023736e-08
2.138193951e-08
2.346770895e-08
2.655097378e-08
3.050099231e-08
3.510112921e-08
4.001022967e-08
4.473936582e-08
4.865244072e-08
5.10009763e-08
3.06857804e-08
3.356306235e-08
3.781201635e-08
4.324903679e-08
4.957376723e-08
5.631690409e-08
6.280843539e-08
6.817780915e-08
7.140024085e-08
4.377265998e-08
4.77243063e-08
5.355449213e-08
6.10071139e-08
6.966787944e-08
7.889393466e-08
8.777058519e-08
9.511063669e-08
9.951582534e-08
6.206860087e-08
6.747167283e-08
7.543675077e-08
8.560884236e-08
9.741934574e-08
1.099914425e-07
1.220813084e-07
1.320760231e-07
1.380747502e-07
8.748831208e-08
9.484234548e-08
1.056754138e-07
1.19498373e-07
1.35534697e-07
1.525937249e-07
1.689910895e-07
1.825442821e-07
1.906794646e-07
1.225802417e-07
1.325424375e-07
1.472074285e-07
1.659051164e-07
1.875803429e-07
2.106237377e-07
2.327644512e-07
2.510620051e-07
2.620461421e-07
1.707040907e-07
1.841323655e-07
2.038868451e-07
2.290548093e-07
2.582099211e-07
2.891875007e-07
3.18940571e-07
3.435259955e-07
3.582866015e-07
2.362432783e-07
2.542478457e-07
2.807181327e-07
3.144181749e-07
3.534303083e-07
3.948581248e-07
4.346342752e-07
4.674980726e-07
4.872313205e-07
3.24852932e-07
3.488566005e-07
3.841253738e-07
4.289954952e-07
4.809033401e-07
5.359950478e-07
5.888714708e-07
6.325534386e-07
6.587853596e-07
4.437412724e-07
4.755478912e-07
5.222533e-07
5.816315205e-07
6.502757724e-07
7.230888631e-07
7.929471968e-07
8.506488563e-07
8.853022201e-07
6.019788679e-07
6.438483278e-07
7.052920748e-07
7.833505796e-07
8.73524888e-07
9.691164151e-07
1.060788232e-06
1.136490225e-06
1.181953775e-06
8.108264305e-07
8.655533905e-07
9.458134206e-07
1.047697116e-06
1.16530218e-06
1.28988559e-06
1.409296777e-06
1.507873661e-06
1.567068938e-06
1.084068025e-06
1.155060226e-06
1.259101742e-06
1.391062915e-06
1.543253692e-06
1.704345622e-06
1.858648516e-06
1.985971433e-06
2.062411305e-06
1.438333281e-06
1.529684118e-06
1.66346099e-06
1.8329798e-06
2.028293743e-06
2.234837793e-06
2.432518468e-06
2.595535239e-06
2.693367912e-06
1.89338989e-06
2.009939082e-06
2.180476634e-06
2.396356082e-06
2.644809451e-06
2.907263466e-06
3.15821166e-06
3.364994368e-06
3.489027064e-06
2.472386608e-06
2.619762526e-06
2.835212481e-06
3.107636543e-06
3.420776383e-06
3.751150937e-06
4.066681717e-06
4.326433338e-06
4.482130772e-06
3.202027247e-06
3.386664804e-06
3.656323865e-06
3.996868734e-06
4.387769956e-06
4.799608231e-06
5.19242736e-06
5.515442857e-06
5.70890115e-06
4.11265742e-06
4.341786361e-06
4.6760714e-06
5.097661826e-06
5.580861187e-06
6.089152465e-06
6.573259402e-06
6.970838534e-06
7.208729911e-06
5.238247782e-06
5.519847592e-06
5.930222372e-06
6.447027378e-06
7.038388757e-06
7.659410387e-06
8.249934057e-06
8.734229488e-06
9.023688005e-06
6.616259623e-06
6.958978566e-06
7.457829006e-06
8.085094114e-06
8.801604722e-06
9.552694014e-06
1.02656549e-05
1.084945116e-05
1.119795678e-05
8.287380143e-06
8.70041731e-06
9.300876497e-06
1.005469621e-05
1.091419276e-05
1.181343933e-05
1.266543604e-05
1.336191664e-05
1.377715068e-05
1.029511748e-05
1.078807231e-05
1.150379375e-05
1.240081934e-05
1.342163574e-05
1.448750509e-05
1.549538682e-05
1.631785973e-05
1.680754149e-05
1.268524735e-05
1.326793134e-05
1.411281024e-05
1.516988094e-05
1.637044801e-05
1.762139236e-05
1.88018863e-05
1.9763483e-05
2.033519257e-05
1.550507287e-05
1.618727399e-05
1.717511773e-05
1.84088903e-05
1.980732509e-05
2.126135369e-05
2.263066677e-05
2.374402425e-05
2.440501686e-05
1.88025042e-05
1.959376668e-05
2.073798066e-05
2.216452964e-05
2.377819026e-05
2.545241909e-05
2.702582663e-05
2.830276294e-05
2.905978121e-05
2.262510464e-05
2.353448848e-05
2.484773382e-05
2.648213627e-05
2.832716694e-05
3.023736478e-05
3.202880129e-05
3.347999667e-05
3.433908788e-05
2.701901991e-05
2.805485626e-05
2.95487053e-05
3.14046272e-05
3.349551163e-05
3.565566047e-05
3.76773292e-05
3.931202578e-05
4.027837155e-05
3.202784699e-05
3.319750028e-05
3.48821046e-05
3.697140699e-05
3.9320549e-05
4.174243795e-05
4.400445577e-05
4.583018863e-05
4.69079543e-05
3.76914892e-05
3.900113685e-05
4.088492291e-05
4.321730547e-05
4.583465571e-05
4.852752611e-05
5.103761948e-05
5.305999085e-05
5.425220109e-05
4.404504883e-05
4.549948872e-05
4.758889507e-05
5.017159345e-05
5.306433902e-05
5.603459675e-05
5.879786193e-05
6.102036817e-05
6.232881402e-05
5.111780868e-05
5.27203034e-05
5.501957143e-05
5.785712196e-05
6.102945269e-05
6.428045983e-05
6.729919736e-05
6.972311557e-05
7.114829656e-05
5.893235017e-05
6.068451485e-05
6.319554231e-05
6.628962412e-05
6.974258488e-05
7.32745389e-05
7.654816814e-05
7.917250615e-05
8.071360902e-05
6.750384783e-05
6.940558611e-05
7.212784897e-05
7.547720914e-05
7.920864308e-05
8.301854667e-05
8.65436021e-05
8.936511198e-05
9.102002594e-05
7.683956976e-05
7.888905974e-05
8.181960429e-05
8.542006723e-05
8.942464986e-05
9.350636995e-05
9.727657654e-05
0.000100289829
0.0001020551953
8.693860183e-05
8.913233106e-05
9.226583443e-05
9.611039229e-05
0.0001003797517
0.0001047241619
0.0001087305833
0.0001119280971
0.0001137993896
9.779180068e-05
0.000100124647
0.0001034535409
0.0001075325182
0.0001120554328
0.0001166506298
0.0001208818802
0.000124254299
0.000126225931
0.0001093819693
0.0001118473222
0.0001153619721
0.0001196632539
0.0001244259167
0.0001292574981
0.0001337000061
0.0001372363137
0.0001393017649
0.0001216842379
0.0001242741535
0.0001279630832
0.0001324723961
0.0001374587303
0.0001425101208
0.0001471484325
0.0001508361956
0.0001529881552
0.0001346666262
0.0001373720077
0.0001412221586
0.0001459233884
0.0001511154017
0.0001563682121
0.0001611853204
0.0001650109495
0.0001672414668
0.0001482907535
0.0001511015501
0.0001550985625
0.0001599740978
0.0001653522587
0.0001707866635
0.0001757643504
0.0001797133682
0.0001820140078
0.0001625126648
0.000165418079
0.0001695465861
0.0001745776719
0.0001801212944
0.0001857164139
0.0001908355941
0.0001948929029
0.0001972548977
0.0001772837342
0.0001802724316
0.0001845163531
0.0001896834435
0.000195371068
0.000201105343
0.000206346398
0.000210496538
0.000212910936
0.000192551612
0.0001956119256
0.0001999547541
0.0002052378527
0.0002110476102
0.000216899159
0.0002222422527
0.0002264696438
0.0002289274459
0.0002082611812
0.0002113813057
0.0002158063758
0.0002211853552
0.0002270953076
0.0002330422557
0.0002384676248
0.0002427567889
0.0002452490737
0.0002243554954
0.0002275236652
0.0002320144014
0.0002374692943
0.0002434577428
0.0002494785208
0.0002549667344
0.0002593024923
0.0002618205266
0.0002407766722
0.0002439813213
0.0002485214582
0.0002540327165
0.0002600784732
0.0002661520772
0.000271684263
0.0002760519047
0.0002785872393
0.0002574667224
0.0002606966237
0.0002652703973
0.0002708191143
0.000276901735
0.0002830079479
0.0002885659832
0.0002929514109
0.0002954959598
0.0002743683016
0.0002776126834
0.0002822049913
0.0002877730877
0.0002938730645
0.0002999926376
0.000305559304
0.0003099491477
0.0003124952519
0.000291425372
0.0002946740133
0.0002992705439
0.0003048409163
0.00031093983
0.000317054626
0.0003226137302
0.0003269954362
0.0003295359125
0.0003085837708
0.0003118270749
0.0003164144067
0.0003219710406
0.0003280516758
0.0003341447743
0.0003396812365
0.0003440431315
0.0003465713071
0.0003257916829
0.0003290207304
0.0003335864034
0.0003391144532
0.0003451608782
0.0003512166474
0.0003567165591
0.0003610478914
0.000363557626
0.0003430000199
0.0003462066034
0.0003507391644
0.0003562250034
0.0003622226173
0.0003682267553
0.0003736774109
0.0003779683715
0.0003804540676
0.0003601627091
0.0003633393512
0.0003678283767
0.0003732596195
0.0003791951722
0.0003851347209
0.000390524626
0.0003947663515
0.0003972229553
0.0003772368994
0.0003803768565
0.0003848129551
0.0003901784576
0.000396040045
0.000401903381
0.0004072222403
0.0004114068017
0.0004138297955
0.0003941830916
0.0003972803451
0.0004016551435
0.0004069449831
0.0004127220221
0.0004184988283
0.0004237375173
0.0004278578959
0.0004302432834
0.0004109652016
0.0004140144389
0.0004183205539
0.0004235259935
0.0004292091805
0.0004348904022
0.0004400409256
0.000444090979
0.0004464352654
0.0004275505646
0.0004305471523
0.0004347781521
0.0004398915916
0.0004454728476
0.0004510506365
0.0004561060761
0.0004600804967
0.0004623806647
0.0004439098905
0.0004468498413
0.0004510001977
0.000456015116
0.0004614875224
0.0004669551713
0.0004719096263
0.0004758038942
0.0004780573767
0.000460017178
0.0004628971127
0.000466962148
0.0004718730376
0.0004772307651
0.0004825826364
0.0004874311585
0.0004912414909
0.0004934461415
0.0004758495951
0.0004786667025
0.0004826425318
0.0004874448298
0.0004926830622
0.0004979145125
0.0005026530381
0.0005063763358
0.0005085303988
0.0004913873353
0.0004941393294
0.0004980228008
0.0005027128169
0.0005078276736
0.0005129349763
0.0005175602569
0.0005211940505
0.0005232961294
0.0005066134536
0.0005092985306
0.0005130871649
0.0005176620089
0.0005226504661
0.0005276307339
0.0005321402667
0.0005356826627
0.0005377316901
0.0005215136904
0.0005241304858
0.0005278224166
0.0005322799262
0.0005371397396
0.0005419908484
0.0005463828081
0.0005498324361
0.000551827643
0.0005360762868
0.0005386238336
0.0005422177483
0.0005465564196
0.0005512860491
0.0005560065634
0.0005602797363
0.0005636356979
0.0005655765849
0.0005502917964
0.0005527694847
0.0005562645683
0.0005604834881
0.0005650820254
0.0005696711277
0.0005738248482
0.0005770866681
0.0005789729774
0.0005641528973
0.000566560436
0.0005699563173
0.000574055099
0.0005785221989
0.0005829796218
0.0005870137128
0.0005901812926
0.0005920129816
0.0005776542066
0.0005799915869
0.0005832882878
0.0005872670116
0.0005916028271
0.0005959287906
0.0005998435067
0.0006029170815
0.0006046942981
0.0005907921007
0.0005930595621
0.0005962574503
0.0006001166064
0.0006043217287
0.0006085168808
0.0006123128564
0.0006152929541
0.0006170160136
0.0006035645416
0.0006057625405
0.0006088622858
0.0006126027224
0.0006166781252
0.000620743487
0.0006244216876
0.0006273090917
0.0006289784555
0.0006159709121
0.0006181000933
0.0006211026268
0.0006247255024
0.0006286724903
0.0006326094061
0.0006361710837
0.0006389667988
0.0006405830548
0.0006280118605
0.0006300730302
0.000632979508
0.0006364862472
0.0006403064088
0.0006441165004
0.0006475631526
0.000650268373
0.0006518322175
0.0006396891545
0.0006416832564
0.0006444950257
0.0006478872795
0.000651582445
0.0006552675697
0.0006586009029
0.0006612169841
0.0006627292058
0.0006510055452
0.0006529336389
0.0006556522079
0.0006589318179
0.0006625040204
0.0006660662334
0.0006692881293
0.000671816562
0.0006732780269
0.000661964642
0.0006638278832
0.0006664548936
0.0006696238595
0.0006730753006
0.000676516821
0.0006796293066
0.0006820716936
0.000683483332
0.0006725707962
0.0006743704194
0.0006769076225
0.0006799680731
0.0006833010918
0.0006866242727
0.0006896294932
0.0006919875284
0.0006933503228
0.0006828289956
0.0006845662987
0.0006870155333
0.0006899697011
0.0006931867461
0.0006963940471
0.000699294242
0.0007015696921
0.0007028846666
0.0006927447684
0.0006944210986
0.0006967842717
0.0006996344696
0.0007027380752
0.0007058320388
0.0007086295205
0.0007108242084
0.0007120924193
0.0007023240963
0.0007039408379
0.0007062199081
0.000708968509
0.0007119612729
0.0007149445031
0.0007176416382
0.0007197574282
0.0007209799556
0.0007115733354
0.0007131318991
0.0007153288614
0.0007179782809
0.0007208628456
0.000723737989
0.0007263371814
0.0007283759664
0.0007295539069
0.000720499145
0.0007220009588
0.0007241178314
0.0007266705122
0.000729449548
0.0007322192779
0.0007347229544
0.0007366866449
0.000737821105
0.0007291084238
0.0007305549247
0.0007325937379
0.0007350521363
0.0007377283273
0.0007403953296
0.0007428059273
0.0007446964413
0.0007457885319
0.0007374082541
0.000738800881
0.0007407636676
0.0007431302417
0.0007457062732
0.0007482732337
0.0007505931893
0.0007524124441
0.0007534632755
0.0007454058514
0.0007467460392
0.0007486348257
0.0007509120257
0.0007533905732
0.0007558601675
0.0007580919076
0.0007598418122
0.0007608524898
0.0007531085202
0.0007543976948
0.0007562144943
0.0007584047536
0.0007607884739
0.0007631633579
0.0007653092909
0.0007669917398
0.0007679633608
0.0007605236154
0.0007617631888
0.0007635099951
0.0007656157231
0.0007679072461
0.0007701900486
0.0007722525578
0.0007738694256
0.0007748030758
0.0007676585078
0.0007688498747
0.0007705286567
0.0007725522327
0.000774754155
0.0007769474711
0.000778928909
0.0007804820459
0.0007813787967
0.0007745205547
0.0007756650896
0.0007772777873
0.0007792215549
0.0007813364343
0.0007834428198
0.0007853455031
0.0007868367312
0.0007876976378
0.0007811170746
0.0007822161286
0.0007837646492
0.0007856309128
0.0007876612634
0.0007896832303
0.0007915094359
0.0007929405458
0.0007937666455
0.0007874553243
0.0007885102235
0.0007899964387
0.0007917874593
0.0007937357478
0.0007956757609
0.0007974277228
0.0007988004715
0.0007995927817
0.0007935424803
0.000794554524
0.0007959802676
0.0007976982602
0.0007995669033
0.0008014273772
0.0008031072837
0.000804423392
0.0008051829096
0.0007993856226
0.000800356082
0.000801723148
0.0008033702798
0.0008051616419
0.0008069449384
0.0008085549302
0.0008098160815
0.0008105437814
0.0008049917213
0.0008059218387
0.0008072319801
0.0008088103687
0.0008105267597
0.0008122351865
0.0008137773549
0.0008149851939
0.0008156820288
0.0008103676259
0.0008112586137
0.0008125135415
0.0008140252535
0.0008156689279
0.0008173047373
0.0008187811232
0.0008199372549
0.0008206041545
0.0008155200557
0.0008163730961
0.0008175744787
0.0008190215291
0.000820594685
0.0008221600725
0.0008235726658
0.0008246786551
0.0008253165258
0.0008204555926
0.0008212718374
0.0008224213
0.0008238056516
0.0008253104302
0.0008268075348
0.0008281582738
0.0008292156449
0.0008298253697
0.0008251806756
0.0008259612457
0.0008270603702
0.0008283839338
0.0008298224191
0.0008312533227
0.0008325440939
0.0008335543305
0.0008341367688
0.0008297015959
0.0008304475818
0.000831497907
0.0008327625409
0.0008341367601
0.0008355034876
0.0008367361261
0.0008377006712
0.0008382566591
0.0008340244942
0.0008347369558
0.0008357399775
0.0008369474882
0.0008382594118
0.0008395639316
0.0008407402212
0.0008416604776
0.0008421908277
0.0008381553581
0.0008388353253
0.0008397924966
0.0008409446393
0.0008421961819
0.0008434404063
0.0008445620799
0.0008454394105
0.0008459449123
0.0008421000215
0.0008427484943
0.0008436612264
0.0008447597054
0.0008459527259
0.0008471385119
0.0008482072523
0.0008490429805
0.0008495244007
0.0008458641638
0.0008464821127
0.0008473517755
0.000848398245
0.0008495345478
0.0008506636979
0.0008516811386
0.0008524765489
0.0008529346316
0.0008494533102
0.0008500416771
0.0008508695993
0.0008518656645
0.0008529470006
0.0008540212635
0.0008549889893
0.0008557453281
0.0008561807953
0.0008528728327
0.0008534325311
0.0008542200019
0.0008551672196
0.000856195287
0.0008572163592
0.0008581359072
0.0008588543834
0.0008592679355
0.0008561279516
0.0008566598672
0.0008574081366
0.0008583080164
0.0008592844618
0.0008602539881
0.0008611268489
0.0008618086347
0.0008622009507
0.0008592237371
0.0008597287286
0.0008604390082
0.0008612930136
0.0008622194332
0.0008631390082
0.0008639666268
0.0008646128585
0.0008649845968
0.0008621651115
0.0008626440111
0.0008633174753
0.0008641270246
0.0008650049657
0.0008658761347
0.0008666599116
0.0008672716906
0.0008676234891
0.000864956852
0.0008654104661
0.0008660482528
0.0008668147204
0.0008676456821
0.0008684699426
0.0008692112348
0.0008697896282
0.0008701221052
0.0008676035926
0.0008680327025
0.0008686359143
0.0008693606318
0.0008701460666
0.0008709248694
0.0008716249917
0.0008721710335
0.0008724847878
0.0008701098279
0.0008705151904
0.0008710848952
0.0008717691526
0.0008725104674
0.0008732452181
0.000873905444
0.0008744201357
0.0008747157476
0.0008724799153
0.0008728622634
0.0008733994957
0.0008740445423
0.0008747431
0.0008754351598
0.0008760567229
0.0008765410345
0.000876819066
0.0008747180784
0.0008750781221
0.0008755838838
0.0008761909296
0.00087684805
0.0008774987373
0.0008780828323
0.0008785377033
0.0008787986984
0.0008768284103
0.0008771668371
0.0008776420983
0.000878212315
0.0008788292762
0.0008794398676
0.0008799876513
0.0008804139914
0.0008806584771
0.0008788148763
0.0008791323518
0.0008795780519
0.0008801125741
0.0008806906137
0.0008812623453
0.0008817749379
0.0008821736278
0.0008824021143
0.0008806813168
0.0008809784857
0.0008813955342
0.0008818954603
0.0008824357764
0.0008829698451
0.0008834483309
0.0008838202235
0.0008840332046
0.0008824314508
0.0008827089368
0.0008830982142
0.0008835646077
0.0008840683602
0.0008845659245
0.0008850113533
0.0008853572739
0.0008855552278
0.0008840688778
0.000884327285
0.0008846896435
0.0008851235335
0.0008855918451
0.0008860540264
0.0008864674142
0.0008867881617
0.000886971551
0.0008855970805
0.0008858369933
0.0008861732577
0.0008865756404
0.0008870095976
0.0008874374808
0.0008878198109
0.0008881161583
0.0008882854307
0.0008870194269
0.0008872414109
0.0008875523791
0.0008879242181
0.0008883248718
0.0008887195067
0.0008890717301
0.0008893444252
0.0008895000139
0.0008883391715
0.0008885437734
0.0008888302171
0.0008891724444
0.000889540811
0.0008899032128
0.0008902262492
0.000890476015
0.0008906183387
0.0008895594562
0.0008897472047
0.0008900098698
0.0008903233861
0.000890660448
0.0008909915977
0.0008912863358
0.0008915138711
0.0008916433344
0.0008906833104
0.0008908547161
0.000891094323
0.0008913799982
0.000891686704
0.0008919875489
0.0008922548469
0.0008924608263
0.0008925778199
0.0008917136506
0.0008918692061
0.0008920864499
0.0008923451233
0.000892622388
0.0008928938416
0.000893134527
0.0008933196011
0.0008934245017
0.0008926532784
0.0008927934583
0.0008929890086
0.0008932214883
0.0008934701932
0.0008937131353
0.0008939280048
0.0008940927997
0.00089418597
0.0008935048779
0.0008936301388
0.0008938046392
0.0008940117023
0.0008942326941
0.0008944479698
0.0008946377887
0.0008947829057
0.0008948646938
0.0008942710128
0.0008943817922
0.00089453586
0.0008947182513
0.0008949123415
0.0008951007603
0.0008952662612
0.0008953922759
0.0008954630149
0.0008949541212
0.0008950508377
0.0008951850627
0.0008953434935
0.0008955114567
0.0008956737909
0.0008958156723
0.0008959231331
0.0008959831405
0.0008955565112
0.000895639563
0.0008957545067
0.0008958896535
0.0008960322257
0.0008961692084
0.0008962881328
0.0008963775594
0.0008964271357
0.0008960803558
0.0008961501203
0.0008962463137
0.0008963588164
0.0008964766928
0.0008965890156
0.0008966856071
0.0008967574885
0.0008967969162
0.0008965276883
0.0008965845206
0.0008966624634
0.0008967529228
0.0008968467555
0.0008969350659
0.0008970099078
0.0008970646999
0.0008970942417
0.0008969003986
0.0008969446307
0.0008970047894
0.0008970737656
0.0008971441611
0.0008972090599
0.0008972626918
0.0008973008152
0.0008973207128
0.0008972002326
0.0008972321721
0.0008972749787
0.0008973229891
0.0008973705061
0.0008974125452
0.0008974454607
0.0008974672985
0.0008974777711
0.0008974287936
0.0008974487237
0.0008974745746
0.0008975020927
0.000897527241
0.0008975469213
0.0008975595664
0.0008975654627
0.0008975667058
0.0008975875497
0.0008975957288
0.0008976049845
0.0008976124397
0.0008976156794
0.0008976134511
0.0008976062236
0.0008975964826
0.0008975886674
0.0008976778462
0.0008976745079
0.0008976674941
0.0008976552733
0.0008976370169
0.0008976132805
0.0008975865312
0.0008975614181
0.0008975446917
0.0008977009239
0.0008976862794
0.0008976632901
0.0008976317408
0.0008975923571
0.0008975474677
0.0008975015043
0.0008974612483
0.0008974357352
0.0008976579469
0.0008976321888
0.0008975934914
0.0008975429286
0.0008974827495
0.0008974170242
0.0008973521179
0.0008972969173
0.0008972627225
0.0008975500415
0.0008975133488
0.0008974591912
0.0008973899064
0.0008973092378
0.0008972229667
0.0008971393627
0.0008970693936
0.0008970266076
0.0008973783433
0.0008973308883
0.0008972615094
0.0008971737834
0.0008970729197
0.000896966381
0.0008968643134
0.0008967797415
0.0008967284476
0.000897144055
0.0008970860123
0.0008970016548
0.0008968957738
0.0008967750166
0.0008966484971
0.0008965282074
0.0008964292043
0.0008963694877
0.000896848512
0.0008967800692
0.0008966809954
0.0008965572713
0.0008964169526
0.0008962707711
0.0008961325322
0.0008960192942
0.0008959512546
0.0008964932544
0.0008964146249
0.0008963011354
0.0008961599289
0.0008960004373
0.0008958349735
0.0008956791162
0.0008955518878
0.0008954756532
0.0008960801033