/*--------------------------------*- C++ -*----------------------------------*\
| =========                 |                                                 |
| \\      /  F ield         | OpenFOAM: The Open Source CFD Toolbox           |
|  \\    /   O peration     | Version:  2212                                  |
|   \\  /    A nd           | Website:  www.openfoam.com                      |
|    \\/     M anipulation  |                                                 |
\*---------------------------------------------------------------------------*/
FoamFile
{
    version     2.0;
    format      ascii;
    arch        "LSB;label=32;scalar=64";
    class       volScalarField;
    location    "18.25000000";
    object      AC3H4;
}
// * * * * * * * * * * * * * * * * * * * * * * * * * * * * * * * * * * * * * //

dimensions      [0 0 0 0 0 0 0];

internalField   nonuniform List<scalar> 
3000
(
1.389219417e-22
1.560572655e-22
1.819141038e-22
2.163702414e-22
2.59075301e-22
3.08869573e-22
3.627532314e-22
4.141683232e-22
4.505249303e-22
5.215597908e-22
5.882528761e-22
6.888479785e-22
8.231958493e-22
9.91162563e-22
1.19181682e-21
1.421676076e-21
1.669137599e-21
1.888348757e-21
1.168206189e-21
1.327925116e-21
1.571132713e-21
1.901348057e-21
2.324506982e-21
2.846746454e-21
3.466010843e-21
4.147533107e-21
4.730001524e-21
2.22496658e-21
2.555646699e-21
3.066560872e-21
3.774987303e-21
4.706014497e-21
5.883291153e-21
7.300386841e-21
8.843853048e-21
1.008963195e-20
3.950589713e-21
4.593395693e-21
5.602187131e-21
7.028182797e-21
8.938425916e-21
1.138642786e-20
1.433127051e-20
1.7458503e-20
1.985902206e-20
6.792562733e-21
7.9988644e-21
9.919117439e-21
1.267581348e-20
1.641593728e-20
2.123352778e-20
2.698463917e-20
3.294398221e-20
3.735274997e-20
1.152988365e-20
1.37454398e-20
1.731337932e-20
2.249331847e-20
2.957357455e-20
3.869476787e-20
4.947953287e-20
6.043673715e-20
6.834281447e-20
1.950990082e-20
2.351901156e-20
3.003276571e-20
3.956270342e-20
5.264014728e-20
6.945318177e-20
8.915814022e-20
1.088868226e-19
1.228845472e-19
3.306717867e-20
4.024528272e-20
5.198335229e-20
6.924388818e-20
9.297200173e-20
1.233955248e-19
1.587956505e-19
1.938700047e-19
2.18481241e-19
5.624452561e-20
6.89958659e-20
8.99433298e-20
1.20846079e-19
1.633549324e-19
2.177165455e-19
2.806210248e-19
3.42490576e-19
3.855817978e-19
9.604846113e-20
1.185682539e-19
1.556811583e-19
2.105439276e-19
2.860156883e-19
3.823174217e-19
4.932960645e-19
6.01892007e-19
6.77150106e-19
1.646261127e-19
2.042250104e-19
2.69628952e-19
3.664382534e-19
4.995902541e-19
6.691937957e-19
8.640631997e-19
1.05406898e-18
1.18529433e-18
2.8304709e-19
3.524551663e-19
4.672700966e-19
6.373569103e-19
8.712395867e-19
1.168752402e-18
1.509852502e-18
1.841608255e-18
2.070190045e-18
4.878685063e-19
6.092405104e-19
8.102313439e-19
1.108141804e-18
1.517700898e-18
2.038168754e-18
2.633965037e-18
3.212389312e-18
3.61030813e-18
8.425290398e-19
1.054404471e-18
1.40553837e-18
1.926186235e-18
2.641826369e-18
3.550589351e-18
4.589590705e-18
5.595918063e-18
6.2894229e-18
1.457113523e-18
1.826499683e-18
2.439009075e-18
3.347447358e-18
4.595916956e-18
6.180289771e-18
7.987632372e-18
9.703780359e-18
1.094491467e-17
2.522634e-18
3.165968822e-18
4.233151494e-18
5.816198565e-18
7.991501108e-18
1.075128579e-17
1.390506178e-17
1.699194494e-17
1.904706984e-17
4.370521572e-18
5.490049678e-18
7.347651713e-18
1.010345758e-17
1.388974947e-17
1.869141776e-17
2.417120191e-17
2.947420537e-17
3.310599559e-17
7.575942116e-18
9.522894472e-18
1.275400129e-17
1.75476724e-17
2.413303783e-17
3.248199151e-17
4.200584177e-17
5.12153952e-17
5.752549413e-17
1.31372321e-17
1.652158085e-17
2.213883474e-17
3.047277231e-17
4.19203907e-17
5.643040477e-17
7.29771043e-17
8.897201132e-17
9.992773236e-17
2.278748559e-17
2.866856792e-17
3.843059669e-17
5.291383469e-17
7.280619587e-17
9.801509665e-17
1.267548985e-16
1.545282994e-16
1.735476029e-16
3.953552249e-17
4.975304503e-17
6.6713792e-17
9.187650686e-17
1.264328959e-16
1.702165432e-16
2.201204591e-16
2.683337214e-16
3.013433286e-16
6.860492266e-17
8.635362874e-17
1.158157883e-16
1.595224058e-16
2.195365812e-16
2.955589573e-16
3.82184619e-16
4.658516923e-16
5.231202576e-16
1.190632987e-16
1.498902051e-16
2.010591441e-16
2.769584791e-16
3.811564382e-16
5.131123658e-16
6.634240259e-16
8.085523247e-16
9.078590452e-16
2.066483149e-16
2.601828058e-16
3.490345341e-16
4.808053647e-16
6.616578366e-16
8.906084332e-16
1.151299301e-15
1.402890937e-15
1.574978489e-15
3.586653115e-16
4.516185497e-16
6.05868542e-16
8.345680326e-16
1.148337951e-15
1.545370908e-15
1.997201537e-15
2.433012947e-15
2.730947975e-15
6.224646869e-16
7.838234248e-16
1.05152339e-15
1.448285854e-15
1.992364779e-15
2.680396151e-15
3.462827576e-15
4.216946912e-15
4.732119306e-15
1.08009465e-15
1.360101978e-15
1.824488629e-15
2.512425217e-15
3.45516881e-15
4.646367921e-15
5.999721477e-15
7.302791587e-15
8.192122573e-15
1.873577357e-15
2.359229619e-15
3.164312136e-15
4.356174389e-15
5.988081195e-15
8.047861177e-15
1.038513507e-14
1.26325919e-14
1.416450547e-14
3.248404159e-15
4.090120166e-15
5.484638823e-15
7.547364585e-15
1.036850015e-14
1.392439159e-14
1.795288301e-14
2.181993599e-14
2.445143393e-14
5.628157868e-15
7.085516686e-15
9.498171457e-15
1.306301028e-14
1.793157409e-14
2.405734057e-14
3.098316039e-14
3.761696124e-14
4.212166666e-14
9.742081654e-15
1.226192528e-14
1.642950242e-14
2.257888251e-14
3.096209088e-14
4.148681804e-14
5.335591542e-14
6.469368719e-14
7.237232325e-14
1.684225461e-14
2.119135556e-14
2.837567988e-14
3.895821202e-14
5.335278179e-14
7.137531861e-14
9.163660444e-14
1.109265779e-13
1.23948851e-13
2.90715545e-14
3.65605487e-14
4.891329953e-14
6.707066386e-14
9.170136809e-14
1.224380767e-13
1.568630149e-13
1.895071145e-13
2.114598036e-13
5.008375382e-14
6.294232263e-14
8.411352918e-14
1.151538417e-13
1.571223641e-13
2.092885028e-13
2.674543754e-13
3.223533411e-13
3.591067149e-13
8.608227566e-14
1.080823554e-13
1.442259165e-13
1.97056615e-13
2.682096325e-13
3.56242432e-13
4.538928906e-13
5.45563204e-13
6.066207789e-13
1.475488446e-13
1.850297638e-13
2.464476364e-13
3.35899498e-13
4.558284933e-13
6.034169229e-13
7.661656816e-13
9.180226832e-13
1.01859314e-12
2.520996436e-13
3.156360611e-13
4.194355431e-13
5.699848906e-13
7.707787778e-13
1.016388886e-12
1.285446223e-12
1.534821442e-12
1.698953423e-12
4.291678464e-13
5.362510353e-13
7.105849891e-13
9.622351449e-13
1.295903532e-12
1.701301728e-12
2.142199321e-12
2.547898778e-12
2.813159166e-12
7.276164522e-13
9.06908599e-13
1.197649798e-12
1.615092864e-12
2.164991965e-12
2.828200904e-12
3.543895744e-12
4.19743251e-12
4.62180055e-12
1.228004847e-12
1.525995722e-12
2.007092883e-12
2.693773348e-12
3.591935609e-12
4.666647079e-12
5.816937136e-12
6.859017416e-12
7.53093008e-12
2.062166393e-12
2.553437961e-12
3.342748422e-12
4.462134299e-12
5.915175616e-12
7.639444426e-12
9.469379343e-12
1.111383088e-11
1.216667616e-11
3.444141215e-12
4.246960133e-12
5.530097411e-12
7.337388639e-12
9.664709418e-12
1.240283422e-11
1.528382551e-11
1.785199106e-11
1.948484212e-11
5.7185372e-12
7.018186857e-12
9.083917965e-12
1.197266065e-11
1.566205952e-11
1.996502112e-11
2.445374741e-11
2.842350696e-11
3.093057069e-11
9.435317391e-12
1.151850093e-11
1.481055555e-11
1.938028752e-11
2.516799493e-11
3.185980827e-11
3.878190647e-11
4.485705105e-11
4.866923678e-11
1.546417444e-11
1.876903731e-11
2.396095585e-11
3.111422827e-11
4.009891564e-11
5.039894674e-11
6.096706134e-11
7.017486823e-11
7.591815454e-11
2.516751064e-11
3.035544427e-11
3.845744667e-11
4.953754972e-11
6.334131684e-11
7.903627506e-11
9.501554806e-11
1.088433018e-10
1.174203147e-10
4.065921711e-11
4.871675651e-11
6.122677295e-11
7.821151861e-11
9.92055298e-11
1.228898091e-10
1.468286591e-10
1.674137948e-10
1.801173763e-10
6.518779254e-11
7.756981229e-11
9.668507846e-11
1.224574362e-10
1.540761952e-10
1.894859659e-10
2.250364749e-10
2.554303653e-10
2.741011035e-10
1.036980494e-10
1.225273819e-10
1.51438773e-10
1.901625149e-10
2.373393011e-10
2.898148412e-10
3.421758287e-10
3.867085844e-10
4.139525457e-10
1.636473739e-10
1.919913235e-10
2.352904288e-10
2.929288619e-10
3.626962621e-10
4.398191817e-10
5.163468824e-10
5.811302994e-10
6.206197022e-10
2.561825269e-10
2.984341847e-10
3.62673813e-10
4.477031073e-10
5.500175599e-10
6.624855348e-10
7.735329979e-10
8.671525549e-10
9.240404712e-10
3.978243518e-10
4.602272302e-10
5.546872938e-10
6.790682732e-10
8.279387186e-10
9.907671507e-10
1.150838539e-09
1.285306266e-09
1.366796227e-09
6.12821711e-10
7.041811632e-10
8.419222502e-10
1.022449006e-09
1.237495936e-09
1.471669817e-09
1.701001579e-09
1.893058815e-09
2.009184371e-09
9.365041695e-10
1.069166689e-09
1.268468653e-09
1.528597675e-09
1.837171717e-09
2.17189594e-09
2.498618244e-09
2.771520874e-09
2.936217677e-09
1.419965532e-09
1.611149611e-09
1.897468192e-09
2.269810261e-09
2.709878232e-09
3.185644685e-09
3.648728886e-09
4.034684699e-09
4.267255035e-09
2.136576632e-09
2.410179422e-09
2.818802727e-09
3.348506322e-09
3.972570721e-09
4.645324639e-09
5.29858788e-09
5.842068122e-09
6.169169695e-09
3.190992143e-09
3.580034836e-09
4.159678801e-09
4.909009023e-09
5.789411833e-09
6.736188022e-09
7.65370703e-09
8.415917865e-09
8.874245493e-09
4.731533168e-09
5.281459319e-09
6.099116091e-09
7.153626862e-09
8.389694655e-09
9.71620357e-09
1.099959309e-08
1.206448202e-08
1.270436983e-08
6.967105799e-09
7.740210718e-09
8.887656225e-09
1.036446808e-08
1.209208433e-08
1.394286351e-08
1.573101016e-08
1.721330426e-08
1.810355644e-08
1.019015907e-08
1.127150468e-08
1.287398128e-08
1.493281336e-08
1.733716101e-08
1.990908034e-08
2.239109824e-08
2.444701453e-08
2.568134641e-08
1.480758819e-08
1.631284595e-08
1.85405646e-08
2.139833503e-08
2.473075185e-08
2.829088177e-08
3.172326114e-08
3.456468081e-08
3.627023753e-08
2.138193968e-08
2.346770915e-08
2.655097401e-08
3.050099258e-08
3.510112952e-08
4.001023002e-08
4.473936619e-08
4.865244104e-08
5.100097654e-08
3.068578064e-08
3.356306263e-08
3.781201669e-08
4.324903717e-08
4.957376766e-08
5.631690458e-08
6.280843591e-08
6.81778096e-08
7.140024119e-08
4.377266031e-08
4.77243067e-08
5.35544926e-08
6.100711443e-08
6.966788005e-08
7.889393534e-08
8.777058591e-08
9.511063733e-08
9.951582582e-08
6.206860133e-08
6.747167339e-08
7.543675142e-08
8.560884309e-08
9.741934658e-08
1.099914435e-07
1.220813094e-07
1.32076024e-07
1.380747509e-07
8.748831273e-08
9.484234626e-08
1.056754147e-07
1.19498374e-07
1.355346982e-07
1.525937262e-07
1.689910909e-07
1.825442833e-07
1.906794655e-07
1.225802426e-07
1.325424386e-07
1.472074298e-07
1.659051178e-07
1.875803445e-07
2.106237395e-07
2.327644531e-07
2.510620067e-07
2.620461433e-07
1.70704092e-07
1.84132367e-07
2.038868469e-07
2.290548113e-07
2.582099233e-07
2.891875032e-07
3.189405735e-07
3.435259976e-07
3.582866031e-07
2.362432801e-07
2.542478478e-07
2.807181351e-07
3.144181775e-07
3.534303112e-07
3.94858128e-07
4.346342785e-07
4.674980754e-07
4.872313227e-07
3.248529344e-07
3.488566033e-07
3.84125377e-07
4.289954987e-07
4.809033439e-07
5.359950521e-07
5.888714752e-07
6.325534425e-07
6.587853625e-07
4.437412755e-07
4.755478949e-07
5.222533041e-07
5.816315251e-07
6.502757776e-07
7.230888689e-07
7.929472027e-07
8.506488614e-07
8.853022239e-07
6.019788721e-07
6.438483326e-07
7.052920802e-07
7.833505855e-07
8.735248947e-07
9.691164227e-07
1.06078824e-06
1.136490232e-06
1.18195378e-06
8.108264358e-07
8.655533967e-07
9.458134275e-07
1.047697124e-06
1.165302189e-06
1.2898856e-06
1.409296787e-06
1.50787367e-06
1.567068945e-06
1.084068032e-06
1.155060234e-06
1.259101751e-06
1.391062925e-06
1.543253704e-06
1.704345635e-06
1.858648529e-06
1.985971444e-06
2.062411314e-06
1.43833329e-06
1.529684128e-06
1.663461002e-06
1.832979814e-06
2.028293758e-06
2.23483781e-06
2.432518485e-06
2.595535254e-06
2.693367923e-06
1.893389902e-06
2.009939095e-06
2.180476649e-06
2.396356099e-06
2.64480947e-06
2.907263487e-06
3.158211681e-06
3.364994385e-06
3.489027077e-06
2.472386623e-06
2.619762543e-06
2.8352125e-06
3.107636564e-06
3.420776407e-06
3.751150963e-06
4.066681743e-06
4.32643336e-06
4.482130788e-06
3.202027265e-06
3.386664825e-06
3.656323889e-06
3.99686876e-06
4.387769986e-06
4.799608263e-06
5.192427392e-06
5.515442885e-06
5.70890117e-06
4.112657443e-06
4.341786388e-06
4.676071429e-06
5.097661859e-06
5.580861223e-06
6.089152505e-06
6.573259443e-06
6.970838567e-06
7.208729936e-06
5.23824781e-06
5.519847624e-06
5.930222408e-06
6.447027418e-06
7.038388802e-06
7.659410436e-06
8.249934107e-06
8.734229529e-06
9.023688035e-06
6.616259658e-06
6.958978606e-06
7.457829051e-06
8.085094163e-06
8.801604777e-06
9.552694074e-06
1.026565496e-05
1.084945121e-05
1.119795682e-05
8.287380185e-06
8.700417358e-06
9.300876551e-06
1.005469627e-05
1.091419283e-05
1.18134394e-05
1.266543611e-05
1.33619167e-05
1.377715072e-05
1.029511753e-05
1.078807237e-05
1.150379382e-05
1.240081941e-05
1.342163582e-05
1.448750518e-05
1.54953869e-05
1.63178598e-05
1.680754154e-05
1.268524741e-05
1.326793141e-05
1.411281032e-05
1.516988103e-05
1.63704481e-05
1.762139246e-05
1.88018864e-05
1.976348308e-05
2.033519263e-05
1.550507294e-05
1.618727407e-05
1.717511782e-05
1.84088904e-05
1.98073252e-05
2.126135381e-05
2.263066688e-05
2.374402434e-05
2.440501693e-05
1.880250429e-05
1.959376678e-05
2.073798077e-05
2.216452976e-05
2.377819038e-05
2.545241923e-05
2.702582676e-05
2.830276305e-05
2.905978129e-05
2.262510474e-05
2.353448859e-05
2.484773395e-05
2.64821364e-05
2.832716709e-05
3.023736493e-05
3.202880144e-05
3.34799968e-05
3.433908797e-05
2.701902003e-05
2.805485639e-05
2.954870544e-05
3.140462735e-05
3.34955118e-05
3.565566065e-05
3.767732937e-05
3.931202592e-05
4.027837165e-05
3.202784712e-05
3.319750043e-05
3.488210477e-05
3.697140717e-05
3.932054919e-05
4.174243815e-05
4.400445597e-05
4.583018878e-05
4.690795441e-05
3.769148934e-05
3.900113701e-05
4.08849231e-05
4.321730567e-05
4.583465592e-05
4.852752633e-05
5.10376197e-05
5.305999102e-05
5.425220122e-05
4.404504899e-05
4.54994889e-05
4.758889527e-05
5.017159366e-05
5.306433925e-05
5.603459699e-05
5.879786216e-05
6.102036836e-05
6.232881416e-05
5.111780886e-05
5.272030361e-05
5.501957165e-05
5.78571222e-05
6.102945294e-05
6.42804601e-05
6.729919762e-05
6.972311578e-05
7.114829671e-05
5.893235037e-05
6.068451508e-05
6.319554255e-05
6.628962439e-05
6.974258516e-05
7.327453919e-05
7.654816842e-05
7.917250637e-05
8.071360918e-05
6.750384805e-05
6.940558636e-05
7.212784924e-05
7.547720943e-05
7.920864339e-05
8.301854699e-05
8.65436024e-05
8.936511222e-05
9.102002611e-05
7.683957001e-05
7.888906001e-05
8.181960459e-05
8.542006754e-05
8.942465019e-05
9.350637029e-05
9.727657686e-05
0.0001002898292
0.0001020551955
8.69386021e-05
8.913233136e-05
9.226583476e-05
9.611039263e-05
0.0001003797521
0.0001047241623
0.0001087305837
0.0001119280974
0.0001137993898
9.779180097e-05
0.0001001246473
0.0001034535413
0.0001075325185
0.0001120554332
0.0001166506302
0.0001208818806
0.0001242542993
0.0001262259312
0.0001093819696
0.0001118473225
0.0001153619724
0.0001196632543
0.0001244259171
0.0001292574985
0.0001337000065
0.000137236314
0.0001393017652
0.0001216842383
0.0001242741538
0.0001279630836
0.0001324723965
0.0001374587307
0.0001425101212
0.0001471484329
0.000150836196
0.0001529881554
0.0001346666266
0.0001373720081
0.000141222159
0.0001459233888
0.0001511154021
0.0001563682126
0.0001611853208
0.0001650109499
0.000167241467
0.0001482907539
0.0001511015505
0.000155098563
0.0001599740983
0.0001653522592
0.000170786664
0.0001757643508
0.0001797133686
0.000182014008
0.0001625126652
0.0001654180794
0.0001695465865
0.0001745776724
0.0001801212949
0.0001857164144
0.0001908355946
0.0001948929033
0.000197254898
0.0001772837347
0.000180272432
0.0001845163536
0.000189683444
0.0001953710685
0.0002011053436
0.0002063463986
0.0002104965384
0.0002129109363
0.0001925516124
0.0001956119261
0.0001999547546
0.0002052378532
0.0002110476108
0.0002168991595
0.0002222422532
0.0002264696442
0.0002289274462
0.0002082611816
0.0002113813062
0.0002158063764
0.0002211853557
0.0002270953082
0.0002330422563
0.0002384676253
0.0002427567894
0.000245249074
0.0002243554959
0.0002275236657
0.0002320144019
0.0002374692949
0.0002434577434
0.0002494785214
0.0002549667349
0.0002593024927
0.0002618205269
0.0002407766726
0.0002439813218
0.0002485214587
0.0002540327171
0.0002600784738
0.0002661520778
0.0002716842636
0.0002760519051
0.0002785872396
0.0002574667229
0.0002606966242
0.0002652703978
0.0002708191149
0.0002769017356
0.0002830079485
0.0002885659838
0.0002929514114
0.0002954959601
0.0002743683021
0.0002776126839
0.0002822049918
0.0002877730883
0.0002938730651
0.0002999926382
0.0003055593046
0.0003099491481
0.0003124952522
0.0002914253725
0.0002946740139
0.0002992705445
0.0003048409169
0.0003109398305
0.0003170546266
0.0003226137308
0.0003269954367
0.0003295359128
0.0003085837713
0.0003118270754
0.0003164144073
0.0003219710412
0.0003280516764
0.0003341447749
0.0003396812371
0.000344043132
0.0003465713074
0.0003257916834
0.0003290207309
0.000333586404
0.0003391144538
0.0003451608788
0.0003512166481
0.0003567165597
0.0003610478919
0.0003635576263
0.0003430000204
0.0003462066039
0.000350739165
0.000356225004
0.0003622226179
0.000368226756
0.0003736774115
0.0003779683719
0.0003804540679
0.0003601627096
0.0003633393518
0.0003678283773
0.0003732596201
0.0003791951728
0.0003851347215
0.0003905246266
0.0003947663519
0.0003972229556
0.0003772368999
0.0003803768571
0.0003848129557
0.0003901784582
0.0003960400456
0.0004019033816
0.0004072222409
0.0004114068022
0.0004138297958
0.0003941830921
0.0003972803457
0.000401655144
0.0004069449837
0.0004127220227
0.0004184988289
0.0004237375179
0.0004278578964
0.0004302432837
0.000410965202
0.0004140144394
0.0004183205545
0.0004235259941
0.0004292091811
0.0004348904028
0.0004400409262
0.0004440909794
0.0004464352658
0.000427550565
0.0004305471528
0.0004347781526
0.0004398915922
0.0004454728482
0.0004510506371
0.0004561060767
0.0004600804971
0.000462380665
0.000443909891
0.0004468498418
0.0004510001983
0.0004560151165
0.000461487523
0.0004669551719
0.0004719096268
0.0004758038947
0.000478057377
0.0004600171784
0.0004628971132
0.0004669621486
0.0004718730382
0.0004772307657
0.000482582637
0.000487431159
0.0004912414914
0.0004934461418
0.0004758495955
0.000478666703
0.0004826425323
0.0004874448304
0.0004926830628
0.0004979145131
0.0005026530387
0.0005063763363
0.000508530399
0.0004913873357
0.0004941393299
0.0004980228013
0.0005027128175
0.0005078276741
0.0005129349768
0.0005175602574
0.0005211940509
0.0005232961297
0.000506613454
0.0005092985311
0.0005130871654
0.0005176620094
0.0005226504666
0.0005276307345
0.0005321402672
0.0005356826631
0.0005377316903
0.0005215136909
0.0005241304863
0.0005278224171
0.0005322799267
0.0005371397402
0.000541990849
0.0005463828086
0.0005498324365
0.0005518276433
0.0005360762872
0.000538623834
0.0005422177487
0.0005465564201
0.0005512860496
0.0005560065639
0.0005602797368
0.0005636356982
0.0005655765851
0.0005502917968
0.0005527694852
0.0005562645688
0.0005604834886
0.0005650820259
0.0005696711282
0.0005738248486
0.0005770866684
0.0005789729776
0.0005641528976
0.0005665604364
0.0005699563177
0.0005740550995
0.0005785221993
0.0005829796223
0.0005870137132
0.0005901812929
0.0005920129818
0.000577654207
0.0005799915873
0.0005832882882
0.0005872670121
0.0005916028275
0.0005959287911
0.0005998435072
0.0006029170818
0.0006046942983
0.0005907921011
0.0005930595625
0.0005962574507
0.0006001166068
0.0006043217292
0.0006085168812
0.0006123128569
0.0006152929544
0.0006170160138
0.0006035645419
0.0006057625409
0.0006088622862
0.0006126027229
0.0006166781257
0.0006207434874
0.000624421688
0.000627309092
0.0006289784557
0.0006159709124
0.0006181000937
0.0006211026272
0.0006247255028
0.0006286724907
0.0006326094066
0.0006361710841
0.0006389667991
0.000640583055
0.0006280118608
0.0006300730306
0.0006329795084
0.0006364862476
0.0006403064092
0.0006441165008
0.000647563153
0.0006502683733
0.0006518322177
0.0006396891548
0.0006416832568
0.0006444950261
0.0006478872799
0.0006515824454
0.0006552675701
0.0006586009033
0.0006612169844
0.000662729206
0.0006510055456
0.0006529336393
0.0006556522082
0.0006589318182
0.0006625040208
0.0006660662337
0.0006692881296
0.0006718165622
0.0006732780271
0.0006619646423
0.0006638278835
0.0006664548939
0.0006696238599
0.000673075301
0.0006765168214
0.000679629307
0.0006820716939
0.0006834833322
0.0006725707965
0.0006743704197
0.0006769076228
0.0006799680735
0.0006833010921
0.000686624273
0.0006896294935
0.0006919875286
0.000693350323
0.0006828289959
0.0006845662991
0.0006870155336
0.0006899697015
0.0006931867465
0.0006963940475
0.0006992942423
0.0007015696924
0.0007028846667
0.0006927447686
0.0006944210989
0.0006967842721
0.0006996344699
0.0007027380755
0.0007058320391
0.0007086295209
0.0007108242086
0.0007120924194
0.0007023240966
0.0007039408382
0.0007062199085
0.0007089685093
0.0007119612732
0.0007149445034
0.0007176416385
0.0007197574284
0.0007209799558
0.0007115733357
0.0007131318994
0.0007153288617
0.0007179782812
0.0007208628459
0.0007237379893
0.0007263371817
0.0007283759666
0.000729553907
0.0007204991452
0.0007220009591
0.0007241178317
0.0007266705125
0.0007294495483
0.0007322192782
0.0007347229547
0.0007366866451
0.0007378211051
0.0007291084241
0.000730554925
0.0007325937382
0.0007350521365
0.0007377283276
0.0007403953299
0.0007428059275
0.0007446964415
0.000745788532
0.0007374082543
0.0007388008813
0.0007407636679
0.000743130242
0.0007457062735
0.000748273234
0.0007505931896
0.0007524124443
0.0007534632756
0.0007454058516
0.0007467460395
0.000748634826
0.000750912026
0.0007533905735
0.0007558601678
0.0007580919078
0.0007598418124
0.0007608524899
0.0007531085204
0.000754397695
0.0007562144946
0.0007584047539
0.0007607884742
0.0007631633582
0.0007653092911
0.0007669917399
0.000767963361
0.0007605236156
0.000761763189
0.0007635099953
0.0007656157233
0.0007679072464
0.0007701900489
0.000772252558
0.0007738694258
0.0007748030759
0.000767658508
0.000768849875
0.000770528657
0.0007725522329
0.0007747541553
0.0007769474714
0.0007789289092
0.0007804820461
0.0007813787968
0.0007745205549
0.0007756650898
0.0007772777875
0.0007792215552
0.0007813364345
0.00078344282
0.0007853455033
0.0007868367313
0.0007876976379
0.0007811170748
0.0007822161288
0.0007837646494
0.000785630913
0.0007876612636
0.0007896832305
0.0007915094362
0.000792940546
0.0007937666456
0.0007874553245
0.0007885102237
0.000789996439
0.0007917874595
0.000793735748
0.0007956757611
0.0007974277231
0.0007988004716
0.0007995927818
0.0007935424805
0.0007945545242
0.0007959802678
0.0007976982604
0.0007995669036
0.0008014273774
0.0008031072839
0.0008044233922
0.0008051829097
0.0007993856228
0.0008003560822
0.0008017231482
0.00080337028
0.0008051616421
0.0008069449386
0.0008085549304
0.0008098160817
0.0008105437815
0.0008049917215
0.0008059218389
0.0008072319803
0.0008088103689
0.0008105267599
0.0008122351867
0.0008137773551
0.0008149851941
0.0008156820289
0.0008103676261
0.0008112586139
0.0008125135417
0.0008140252537
0.0008156689281
0.0008173047375
0.0008187811234
0.0008199372551
0.0008206041546
0.0008155200558
0.0008163730963
0.0008175744789
0.0008190215293
0.0008205946852
0.0008221600727
0.000823572666
0.0008246786552
0.0008253165259
0.0008204555928
0.0008212718376
0.0008224213002
0.0008238056518
0.0008253104303
0.000826807535
0.0008281582739
0.000829215645
0.0008298253698
0.0008251806757
0.0008259612459
0.0008270603704
0.000828383934
0.0008298224193
0.0008312533229
0.0008325440941
0.0008335543306
0.0008341367689
0.000829701596
0.0008304475819
0.0008314979072
0.000832762541
0.0008341367602
0.0008355034878
0.0008367361263
0.0008377006713
0.0008382566592
0.0008340244943
0.0008347369559
0.0008357399776
0.0008369474884
0.000838259412
0.0008395639318
0.0008407402214
0.0008416604778
0.0008421908278
0.0008381553582
0.0008388353254
0.0008397924968
0.0008409446395
0.000842196182
0.0008434404065
0.00084456208
0.0008454394106
0.0008459449124
0.0008421000217
0.0008427484944
0.0008436612266
0.0008447597055
0.000845952726
0.0008471385121
0.0008482072525
0.0008490429806
0.0008495244008
0.0008458641639
0.0008464821129
0.0008473517756
0.0008483982451
0.000849534548
0.000850663698
0.0008516811387
0.000852476549
0.0008529346316
0.0008494533103
0.0008500416772
0.0008508695995
0.0008518656647
0.0008529470007
0.0008540212637
0.0008549889894
0.0008557453282
0.0008561807954
0.0008528728328
0.0008534325312
0.000854220002
0.0008551672197
0.0008561952871
0.0008572163593
0.0008581359073
0.0008588543835
0.0008592679356
0.0008561279517
0.0008566598673
0.0008574081367
0.0008583080165
0.0008592844619
0.0008602539882
0.000861126849
0.0008618086348
0.0008622009508
0.0008592237372
0.0008597287287
0.0008604390083
0.0008612930137
0.0008622194334
0.0008631390083
0.0008639666269
0.0008646128586
0.0008649845968
0.0008621651116
0.0008626440112
0.0008633174754
0.0008641270248
0.0008650049659
0.0008658761348
0.0008666599117
0.0008672716906
0.0008676234891
0.0008649568521
0.0008654104662
0.0008660482529
0.0008668147206
0.0008676456823
0.0008684699427
0.0008692112349
0.0008697896283
0.0008701221052
0.0008676035927
0.0008680327026
0.0008686359144
0.0008693606319
0.0008701460667
0.0008709248695
0.0008716249918
0.0008721710335
0.0008724847879
0.000870109828
0.0008705151905
0.0008710848953
0.0008717691527
0.0008725104675
0.0008732452182
0.0008739054441
0.0008744201357
0.0008747157476
0.0008724799153
0.0008728622635
0.0008733994958
0.0008740445424
0.0008747431001
0.0008754351599
0.000876056723
0.0008765410346
0.000876819066
0.0008747180785
0.0008750781222
0.0008755838839
0.0008761909297
0.0008768480501
0.0008774987374
0.0008780828323
0.0008785377033
0.0008787986984
0.0008768284104
0.0008771668372
0.0008776420984
0.0008782123151
0.0008788292763
0.0008794398677
0.0008799876514
0.0008804139915
0.0008806584772
0.0008788148763
0.0008791323519
0.000879578052
0.0008801125741
0.0008806906137
0.0008812623454
0.0008817749379
0.0008821736279
0.0008824021144
0.0008806813169
0.0008809784857
0.0008813955343
0.0008818954603
0.0008824357765
0.0008829698452
0.000883448331
0.0008838202235
0.0008840332046
0.0008824314508
0.0008827089369
0.0008830982143
0.0008835646077
0.0008840683603
0.0008845659246
0.0008850113534
0.0008853572739
0.0008855552278
0.0008840688778
0.000884327285
0.0008846896436
0.0008851235336
0.0008855918452
0.0008860540264
0.0008864674143
0.0008867881617
0.0008869715511
0.0008855970806
0.0008858369934
0.0008861732578
0.0008865756405
0.0008870095976
0.0008874374809
0.0008878198109
0.0008881161583
0.0008882854308
0.000887019427
0.0008872414109
0.0008875523791
0.0008879242181
0.0008883248718
0.0008887195068
0.0008890717302
0.0008893444252
0.0008895000139
0.0008883391716
0.0008885437735
0.0008888302172
0.0008891724445
0.0008895408111
0.0008899032129
0.0008902262493
0.0008904760151
0.0008906183387
0.0008895594562
0.0008897472047
0.0008900098698
0.0008903233861
0.000890660448
0.0008909915977
0.0008912863358
0.0008915138711
0.0008916433344
0.0008906833105
0.0008908547161
0.0008910943231
0.0008913799983
0.0008916867041
0.0008919875489
0.0008922548469
0.0008924608263
0.0008925778199
0.0008917136506
0.0008918692062
0.00089208645
0.0008923451233
0.000892622388
0.0008928938416
0.0008931345271
0.0008933196011
0.0008934245017
0.0008926532784
0.0008927934584
0.0008929890086
0.0008932214884
0.0008934701932
0.0008937131353
0.0008939280049
0.0008940927997
0.00089418597
0.000893504878
0.0008936301388
0.0008938046392
0.0008940117023
0.0008942326941
0.0008944479698
0.0008946377888
0.0008947829058
0.0008948646938
0.0008942710128
0.0008943817923
0.00089453586
0.0008947182513
0.0008949123415
0.0008951007603
0.0008952662612
0.0008953922759
0.0008954630149
0.0008949541212
0.0008950508377
0.0008951850627
0.0008953434936
0.0008955114568
0.0008956737909
0.0008958156723
0.0008959231331
0.0008959831405
0.0008955565112
0.0008956395631
0.0008957545067
0.0008958896536
0.0008960322258
0.0008961692084
0.0008962881328
0.0008963775594
0.0008964271357
0.0008960803558
0.0008961501203
0.0008962463137
0.0008963588164
0.0008964766928
0.0008965890156
0.0008966856072
0.0008967574885
0.0008967969162
0.0008965276883
0.0008965845206
0.0008966624634
0.0008967529228
0.0008968467555
0.0008969350659
0.0008970099078
0.0008970646999
0.0008970942417
0.0008969003987
0.0008969446307
0.0008970047895
0.0008970737656
0.0008971441611
0.00089720906
0.0008972626918
0.0008973008152
0.0008973207128
0.0008972002326
0.0008972321721
0.0008972749788
0.0008973229891
0.0008973705062
0.0008974125453
0.0008974454607
0.0008974672985
0.0008974777711
0.0008974287936
0.0008974487237
0.0008974745746
0.0008975020928
0.000897527241
0.0008975469214
0.0008975595664
0.0008975654627
0.0008975667058
0.0008975875497
0.0008975957288
0.0008976049845
0.0008976124397
0.0008976156794
0.0008976134511
0.0008976062236
0.0008975964826
0.0008975886674
0.0008976778462
0.0008976745079
0.0008976674941
0.0008976552733
0.0008976370169
0.0008976132805
0.0008975865312
0.0008975614181
0.0008975446917
0.0008977009239
0.0008976862794
0.0008976632901
0.0008976317408
0.0008975923571
0.0008975474677
0.0008975015043
0.0008974612483
0.0008974357352
0.0008976579469
0.0008976321888
0.0008975934914
0.0008975429286
0.0008974827495
0.0008974170242
0.0008973521179
0.0008972969173
0.0008972627225
0.0008975500415
0.0008975133488
0.0008974591912
0.0008973899064
0.0008973092378
0.0008972229666
0.0008971393627
0.0008970693935
0.0008970266076
0.0008973783433
0.0008973308883
0.0008972615094
0.0008971737833
0.0008970729197
0.000896966381
0.0008968643134
0.0008967797415
0.0008967284476
0.000897144055
0.0008970860123
0.0008970016548
0.0008968957738
0.0008967750166
0.0008966484971
0.0008965282074
0.0008964292042
0.0008963694877
0.000896848512
0.0008967800692
0.0008966809954
0.0008965572713
0.0008964169526
0.0008962707711
0.0008961325321
0.0008960192941
0.0008959512546
0.0008964932544
0.0008964146249
0.0008963011354
0.0008961599289
0.0008960004373
0.0008958349735
0.0008956791162
0.0008955518878
0.0008954756532
0.0008960801032
0.0008959915403
0.0008958639938
0.0008957057401