/*--------------------------------*- C++ -*----------------------------------*\
| =========                 |                                                 |
| \\      /  F ield         | OpenFOAM: The Open Source CFD Toolbox           |
|  \\    /   O peration     | Version:  2212                                  |
|   \\  /    A nd           | Website:  www.openfoam.com                      |
|    \\/     M anipulation  |                                                 |
\*---------------------------------------------------------------------------*/
FoamFile
{
    version     2.0;
    format      ascii;
    arch        "LSB;label=32;scalar=64";
    class       volScalarField;
    location    "18.25000000";
    object      C2H2_0;
}
// * * * * * * * * * * * * * * * * * * * * * * * * * * * * * * * * * * * * * //

dimensions      [0 0 0 0 0 0 0];

internalField   nonuniform List<scalar> 
3000
(
0.3340065119
0.3340065119
0.3340065119
0.3340065119
0.3340065119
0.3340065119
0.3340065119
0.3340065119
0.3340065119
0.3340065119
0.3340065119
0.3340065119
0.3340065119
0.3340065119
0.3340065119
0.3340065119
0.3340065119
0.3340065119
0.3340065119
0.3340065119
0.3340065119
0.3340065119
0.3340065119
0.3340065119
0.3340065119
0.3340065119
0.3340065119
0.3340065119
0.3340065119
0.3340065119
0.3340065119
0.3340065119
0.3340065119
0.3340065119
0.3340065119
0.3340065119
0.3340065119
0.3340065119
0.3340065119
0.3340065119
0.3340065119
0.3340065119
0.3340065119
0.3340065119
0.3340065119
0.3340065119
0.3340065119
0.3340065119
0.3340065119
0.3340065119
0.3340065119
0.3340065119
0.3340065119
0.3340065119
0.3340065119
0.3340065119
0.3340065119
0.3340065119
0.3340065119
0.3340065119
0.3340065119
0.3340065119
0.3340065119
0.3340065119
0.3340065119
0.3340065119
0.3340065119
0.3340065119
0.3340065119
0.3340065119
0.3340065119
0.3340065119
0.3340065119
0.3340065119
0.3340065119
0.3340065119
0.3340065119
0.3340065119
0.3340065119
0.3340065119
0.3340065119
0.3340065119
0.3340065119
0.3340065119
0.3340065119
0.3340065119
0.3340065119
0.3340065119
0.3340065119
0.3340065119
0.3340065119
0.3340065119
0.3340065119
0.3340065119
0.3340065119
0.3340065119
0.3340065119
0.3340065119
0.3340065119
0.3340065119
0.3340065119
0.3340065119
0.3340065119
0.3340065119
0.3340065119
0.3340065119
0.3340065119
0.3340065119
0.3340065119
0.3340065119
0.3340065119
0.3340065119
0.3340065119
0.3340065119
0.3340065119
0.3340065119
0.3340065119
0.3340065119
0.3340065119
0.3340065119
0.3340065119
0.3340065119
0.3340065119
0.3340065119
0.3340065119
0.3340065119
0.3340065119
0.3340065119
0.3340065119
0.3340065119
0.3340065119
0.3340065119
0.3340065119
0.3340065119
0.3340065119
0.3340065119
0.3340065119
0.3340065119
0.3340065119
0.3340065119
0.3340065119
0.3340065119
0.3340065119
0.3340065119
0.3340065119
0.3340065119
0.3340065119
0.3340065119
0.3340065119
0.3340065119
0.3340065119
0.3340065119
0.3340065119
0.3340065119
0.3340065119
0.3340065119
0.3340065119
0.3340065119
0.3340065119
0.3340065119
0.3340065119
0.3340065119
0.3340065119
0.3340065119
0.3340065119
0.3340065119
0.3340065119
0.3340065119
0.3340065119
0.3340065119
0.3340065119
0.3340065119
0.3340065119
0.3340065119
0.3340065119
0.3340065119
0.3340065119
0.3340065119
0.3340065119
0.3340065119
0.3340065119
0.3340065119
0.3340065119
0.3340065119
0.3340065119
0.3340065119
0.3340065119
0.3340065119
0.3340065119
0.3340065119
0.3340065119
0.3340065119
0.3340065119
0.3340065119
0.3340065119
0.3340065119
0.3340065119
0.3340065119
0.3340065119
0.3340065119
0.3340065119
0.3340065119
0.3340065119
0.3340065119
0.3340065119
0.3340065119
0.3340065119
0.3340065119
0.3340065119
0.3340065119
0.3340065119
0.3340065119
0.3340065119
0.3340065119
0.3340065119
0.3340065119
0.3340065119
0.3340065119
0.3340065119
0.3340065119
0.3340065119
0.3340065119
0.3340065119
0.3340065119
0.3340065119
0.3340065119
0.3340065119
0.3340065119
0.3340065119
0.3340065119
0.3340065119
0.3340065119
0.3340065119
0.3340065119
0.3340065119
0.3340065119
0.3340065119
0.3340065119
0.3340065119
0.3340065119
0.3340065119
0.3340065119
0.3340065119
0.3340065119
0.3340065119
0.3340065119
0.3340065119
0.3340065119
0.3340065119
0.3340065119
0.3340065119
0.3340065119
0.3340065119
0.3340065119
0.3340065119
0.3340065119
0.3340065119
0.3340065119
0.3340065119
0.3340065119
0.3340065119
0.3340065119
0.3340065119
0.3340065119
0.3340065119
0.3340065119
0.3340065119
0.3340065119
0.3340065118
0.3340065118
0.3340065119
0.3340065119
0.3340065119
0.3340065119
0.3340065119
0.3340065118
0.3340065118
0.3340065118
0.3340065118
0.3340065119
0.3340065119
0.3340065119
0.3340065118
0.3340065118
0.3340065118
0.3340065118
0.3340065118
0.3340065118
0.3340065119
0.3340065118
0.3340065118
0.3340065118
0.3340065118
0.3340065118
0.3340065118
0.3340065118
0.3340065118
0.3340065118
0.3340065118
0.3340065118
0.3340065118
0.3340065118
0.3340065118
0.3340065118
0.3340065118
0.3340065118
0.3340065118
0.3340065118
0.3340065118
0.3340065118
0.3340065118
0.3340065118
0.3340065117
0.3340065117
0.3340065117
0.3340065118
0.3340065118
0.3340065118
0.3340065118
0.3340065117
0.3340065117
0.3340065116
0.3340065116
0.3340065116
0.3340065118
0.3340065118
0.3340065117
0.3340065117
0.3340065116
0.3340065116
0.3340065115
0.3340065114
0.3340065113
0.3340065117
0.3340065117
0.3340065116
0.3340065116
0.3340065115
0.3340065113
0.3340065112
0.3340065111
0.334006511
0.3340065116
0.3340065116
0.3340065115
0.3340065114
0.3340065112
0.334006511
0.3340065108
0.3340065106
0.3340065104
0.3340065115
0.3340065114
0.3340065113
0.334006511
0.3340065108
0.3340065104
0.3340065101
0.3340065097
0.3340065095
0.3340065112
0.3340065111
0.3340065108
0.3340065105
0.33400651
0.3340065095
0.3340065089
0.3340065084
0.334006508
0.3340065108
0.3340065106
0.3340065102
0.3340065096
0.3340065089
0.334006508
0.3340065071
0.3340065062
0.3340065057
0.3340065101
0.3340065097
0.3340065091
0.3340065081
0.334006507
0.3340065056
0.3340065041
0.3340065028
0.334006502
0.334006509
0.3340065083
0.3340065073
0.3340065058
0.3340065039
0.3340065017
0.3340064995
0.3340064975
0.3340064962
0.3340065071
0.334006506
0.3340065044
0.3340065021
0.3340064991
0.3340064957
0.3340064922
0.3340064892
0.3340064872
0.334006504
0.3340065024
0.3340064997
0.3340064961
0.3340064916
0.3340064864
0.334006481
0.3340064764
0.3340064735
0.3340064992
0.3340064965
0.3340064924
0.3340064868
0.3340064799
0.334006472
0.3340064639
0.3340064569
0.3340064526
0.3340064914
0.3340064873
0.334006481
0.3340064724
0.3340064618
0.3340064499
0.3340064378
0.3340064274
0.334006421
0.3340064791
0.3340064728
0.3340064632
0.3340064503
0.3340064343
0.3340064165
0.3340063986
0.3340063833
0.3340063739
0.3340064598
0.3340064504
0.3340064359
0.3340064164
0.3340063927
0.3340063664
0.3340063401
0.3340063177
0.3340063041
0.33400643
0.3340064158
0.3340063942
0.3340063653
0.3340063304
0.3340062918
0.3340062535
0.3340062211
0.3340062013
0.3340063843
0.3340063632
0.3340063312
0.3340062888
0.3340062378
0.3340061817
0.3340061263
0.3340060796
0.3340060513
0.3340063148
0.3340062838
0.334006237
0.3340061753
0.3340061015
0.3340060207
0.3340059412
0.3340058744
0.3340058339
0.3340062102
0.3340061653
0.3340060974
0.3340060085
0.3340059026
0.3340057871
0.3340056739
0.3340055791
0.3340055217
0.3340060547
0.33400599
0.3340058927
0.3340057658
0.334005615
0.3340054514
0.3340052915
0.3340051577
0.3340050769
0.3340058258
0.3340057336
0.3340055955
0.3340054159
0.3340052034
0.3340049735
0.3340047495
0.3340045624
0.3340044494
0.3340054925
0.3340053624
0.3340051683
0.3340049166
0.33400462
0.3340043
0.334003989
0.3340037299
0.3340035736
0.3340050122
0.3340048307
0.3340045604
0.3340042112
0.3340038012
0.3340033603
0.3340029331
0.334002578
0.3340023642
0.3340043275
0.3340040767
0.3340037044
0.3340032249
0.3340026638
0.3340020627
0.334001482
0.3340010006
0.3340007111
0.3340033618
0.3340030189
0.3340025112
0.3340018596
0.3340010998
0.3340002888
0.3339995076
0.3339988612
0.3339984728
0.3340020145
0.3340015507
0.3340008657
0.3339999896
0.3339989716
0.3339978881
0.3339968467
0.3339959859
0.3339954685
0.334000156
0.3339995356
0.3339986215
0.3339974556
0.3339961048
0.3339946703
0.3339932934
0.3339921553
0.3339914709
0.3339976231
0.3339968018
0.3339955944
0.3339940581
0.3339922817
0.3339903977
0.3339885904
0.3339870965
0.3339861973
0.333994212
0.3339931357
0.3339915558
0.3339895489
0.3339872315
0.333984776
0.3339824212
0.3339804746
0.3339793022
0.3339896711
0.333988273
0.3339862232
0.3339836225
0.3339806226
0.3339774463
0.3339744017
0.333971885
0.333970369
0.3339836906
0.3339818893
0.3339792508
0.3339759068
0.3339720534
0.3339679772
0.3339640725
0.3339608465
0.3339589035
0.3339758933
0.3339735908
0.3339702213
0.3339659556
0.3339610458
0.3339558579
0.3339508934
0.3339467952
0.3339443283
0.333965826
0.3339629065
0.3339586384
0.3339532418
0.3339470387
0.3339404934
0.3339342383
0.3339290809
0.3339259792
0.3339529531
0.3339492822
0.3339439214
0.3339371526
0.3339293846
0.3339212014
0.3339133938
0.3339069657
0.3339031048
0.3339366524
0.3339320765
0.3339254023
0.333916988
0.3339073484
0.3338972126
0.3338875598
0.3338796264
0.3338748685
0.333916213
0.3339105601
0.3339023255
0.3338919612
0.3338801103
0.3338676745
0.3338558553
0.33384616
0.3338403552
0.333890837
0.3338839175
0.3338738513
0.3338612038
0.3338467713
0.3338316588
0.3338173266
0.3338055939
0.333798582
0.333859645
0.3338512538
0.3338390635
0.3338237747
0.3338063643
0.3337881741
0.3337709614
0.3337569005
0.3337485132
0.3338216851
0.3338116045
0.3337969805
0.3337786728
0.3337578686
0.3337361814
0.3337157062
0.3336990161
0.3336890798
0.3337759465
0.3337639499
0.3337465707
0.3337248539
0.3337002277
0.3336746143
0.3336504872
0.3336308628
0.3336192023
0.3337213757
0.3337072321
0.3336867713
0.3336612502
0.3336323709
0.3336024011
0.3335742339
0.3335513724
0.3335378147
0.3336568962
0.3336403753
0.3336165084
0.3335867921
0.3335532352
0.333518488
0.3334859027
0.3334595109
0.3334438888
0.3335814293
0.3335623071
0.3335347192
0.3335004303
0.3334617881
0.3334218612
0.3333844992
0.3333543001
0.3333364569
0.333493916
0.3334719796
0.3334403732
0.3334011566
0.3333570478
0.3333115676
0.3332690974
0.3332348366
0.3332146283
0.3333933371
0.3333683903
0.3333324918
0.3332880231
0.3332381016
0.3331867312
0.333138856
0.3331003059
0.3330776034
0.3332787318
0.3332505992
0.3332101653
0.3331601577
0.3331041199
0.333046566
0.3329930289
0.3329499944
0.3329246908
0.3331492138
0.333117744
0.3330725665
0.3330167762
0.3329543662
0.332890384
0.3328309737
0.3327833004
0.3327553105
0.333003983
0.3329690519
0.3329189603
0.3328571899
0.3327882031
0.3327176016
0.3326521604
0.3325997325
0.3325689934
0.3328423347
0.3328038457
0.3327487098
0.3326808103
0.332605099
0.3325277466
0.332456167
0.3323989081
0.3323653789
0.332663664
0.3326215494
0.3325612804
0.3324871584
0.3324046335
0.332320454
0.3322426776
0.3321805491
0.3321442104
0.3324674744
0.3324216995
0.3323562547
0.332275867
0.3321864931
0.3320954628
0.3320114783
0.3319444777
0.3319053304
0.3322533908
0.3322039493
0.3321333252
0.3320466762
0.3319504686
0.3318526135
0.3317624535
0.3316906121
0.3316486761
0.3320211503
0.3319680624
0.3318922928
0.3317994308
0.3316964518
0.331591844
0.3314955818
0.331418962
0.3313742747
0.3317706004
0.331713911
0.3316330636
0.3315340776
0.3314244329
0.3313131866
0.3312109327
0.3311296252
0.33108224
0.3315016962
0.3314414726
0.3313556464
0.3312506624
0.3311344968
0.3310167644
0.3309086627
0.3308227837
0.3307727683
0.331214497
0.3311508268
0.331060149
0.3309493259
0.3308268197
0.3307027876
0.3305890118
0.3304987003
0.3304461352
0.3309091624
0.3308421513
0.330746774
0.3306303004
0.3305016649
0.3303715495
0.3302522997
0.3301577147
0.3301026918
0.3305859475
0.330515717
0.3304158144
0.3302939047
0.3301593783
0.3300234222
0.3298989212
0.3298002391
0.3297428599
0.3302451973
0.3301718828
0.3300676481
0.3299405387
0.3298003834
0.3296588516
0.3295293418
0.3294267536
0.3293671281
0.3298873411
0.3298110895
0.3297027319
0.3295706783
0.3294251755
0.3292783518
0.3291440919
0.3290378008
0.3289760458
0.3295128853
0.3294338535
0.3293215957
0.3291848687
0.3290343161
0.3288824994
0.3287437609
0.3286339804
0.3285702183
0.3291224071
0.3290407596
0.3289248349
0.3287837178
0.3286284255
0.3284719269
0.3283289917
0.3282159425
0.3281503001
0.3287165465
0.328632454
0.3285131038
0.3283678889
0.3282081768
0.3280473159
0.3279004733
0.3277843816
0.3277169888
0.3282959988
0.3282096363
0.3280871078
0.327938094
0.3277742882
0.3276093903
0.3274589341
0.3273400298
0.3272710182
0.327861507
0.327773052
0.3276475958
0.3274950858
0.3273275158
0.3271589092
0.3270051356
0.3268836498
0.326813152
0.3274138534
0.3273234848
0.3271953528
0.3270396502
0.3268686465
0.3266966597
0.3265398647
0.3264160282
0.3263441765
0.3269538524
0.3268617484
0.326731192
0.3265725992
0.3263984903
0.3262234498
0.3260639269
0.3259379688
0.3258648945
0.326482342
0.3263886794
0.3262559471
0.3260947634
0.3259178738
0.3257401015
0.3255781402
0.3254502859
0.3253761182
0.3260001767
0.3259051294
0.3257704657
0.3256069848
0.3254276328
0.3252474443
0.3250833279
0.324953798
0.3248786635
0.3255082201
0.325411958
0.3252756017
0.3251101102
0.324928606
0.3247463085
0.3245803128
0.324449322
0.3243733438
0.3250073381
0.3249100261
0.3247722089
0.3246049847
0.324421629
0.3242375198
0.3240699115
0.3239376674
0.3238609645
0.3244983924
0.3244001898
0.3242611349
0.3240924458
0.3239075281
0.3237218935
0.3235529292
0.3234196314
0.3233423183
0.3239822344
0.3238832938
0.3237432156
0.3235733182
0.3233871157
0.3232002295
0.3230301546
0.3228959941
0.3228181804
0.3234597
0.3233601672
0.3232192698
0.3230484087
0.3228611852
0.3226733081
0.3225023562
0.3223675146
0.3222893045
0.3229316048
0.3228316178
0.3226900949
0.3225185016
0.3223305071
0.322141886
0.321970278
0.3218349273
0.3217564197
0.3223987395
0.3222984286
0.3221564627
0.3219843556
0.3217958257
0.3216066928
0.3214346369
0.321298939
0.321220227
0.3218618667
0.3217613542
0.3216191164
0.3214467002
0.3212578555
0.3210684287
0.3208961199
0.3207602266
0.3206813974
0.3213217178
0.3212211177
0.3210787677
0.3209062333
0.3207172796
0.3205277618
0.3203553818
0.3202194347
0.3201405699
0.3207789905
0.3206784085
0.3205360945
0.320363619
0.3201747471
0.3199853266
0.3198130441
0.3196771746
0.3195983498
0.3202343468
0.3201338808
0.3199917395
0.3198194862
0.3196308723
0.3194417229
0.3192696936
0.3191340231
0.3190553083
0.319688412
0.3195881517
0.3194463087
0.3192744278
0.3190862336
0.318897515
0.3187258819
0.3185905219
0.3185119815
0.3191417738
0.3190418011
0.3189003713
0.3187289999
0.3185413732
0.318353231
0.3181821249
0.3180471775
0.3179688706
0.3185949819
0.3184953714
0.3183544589
0.3181837216
0.3179967966
0.3178093636
0.3176389034
0.3175044616
0.3174264418
0.318048548
0.3179493669
0.317809066
0.3176390753
0.3174529736
0.3172663695
0.3170966629
0.3169628108
0.316885127
0.3175029462
0.3174042551
0.3172646504
0.3170955076
0.3169103381
0.3167246709
0.3165558148
0.3164226282
0.3163453244
0.3169586139
0.3168604668
0.3167216339
0.3165534294
0.3163692898
0.3161846558
0.3160167368
0.3158842837
0.3158073995
0.3164159525
0.3163183974
0.3161804035
0.3160132176
0.3158301945
0.3156466794
0.3154797747
0.3153481157
0.3152716861
0.3158753291
0.3157784081
0.3156413125
0.3154752159
0.3152933857
0.3151110653
0.314945243
0.3148144316
0.314738488
0.315337077
0.3152408272
0.3151046815
0.3149397363
0.3147591659
0.3145781064
0.3144134265
0.3142835097
0.3142080797
0.314801498
0.3147059515
0.3145708007
0.3144070606
0.3142278082
0.3140480673
0.3138845817
0.3137556007
0.3136807083
0.3142688636
0.314174048
0.3140399307
0.3138774418
0.3136995574
0.3135211848
0.3133589384
0.3132309287
0.3131565947
0.3137394168
0.3136453554
0.3135123044
0.3133511062
0.3131746323
0.3129976702
0.3128367014
0.3127096933
0.3126359356
0.3132133736
0.313120086
0.3129881288
0.3128282542
0.3126532265
0.3124777104
0.3123180514
0.3121920706
0.3121189044
0.3126909249
0.3125984272
0.3124675864
0.3123090625
0.3121355105
0.3119614698
0.3118031474
0.3116782151
0.311605653
0.3121722379
0.3120805432
0.311950837
0.3117936857
0.3116216331
0.3114490916
0.3112921273
0.3111682609
0.3110963134
0.3116574581
0.3115665765
0.3114380192
0.3112822576
0.3111117231
0.3109406994
0.3107851104
0.3106623236
0.310590999
0.3111467106
0.3110566497
0.310929252
0.3107748929
0.3106058905
0.3104363986
0.3102821978
0.3101605012
0.3100898058
0.310640102
0.3105508671
0.3104246363
0.3102716887
0.3101042281
0.309936278
0.3097834746
0.3096628757
0.3095928141
0.3101377215
0.3100493158
0.3099242565
0.3097727259
0.3096068131
0.3094404108
0.3092890107
0.3091695144
0.3091000898
0.3096396425
0.3095520674
0.3094281815
0.3092780702
0.3091137079
0.3089488563
0.3087988623
0.3086804711
0.3086116852
0.3091459241
0.3090591792
0.3089364665
0.3087877741
0.308624962
0.3084616609
0.308313073
0.3081957872
0.3081276406
0.3086566121
0.3085706958
0.3084491538
0.3083018774
0.3081406125
0.3079788591
0.3078316749
0.3077154932
0.3076479852
0.3081717404
0.3080866497
0.3079662741
0.3078204089
0.3076606856
0.3075004747
0.3073546899
0.3072396089
0.3071727379
0.3076913321
0.3076070629
0.307487848
0.3073433868
0.3071851979
0.3070265222
0.3068821303
0.3067681453
0.3067019087
0.3072154004
0.3071319476
0.3070138862
0.3068708205
0.3067141566
0.306557007
0.3064140001
0.306301105
0.3062354995
0.3067439498
0.3066613073
0.306544391
0.3064027108
0.306247561
0.3060919268
0.3059502953
0.3058384829
0.3057735046
0.3062769768
0.306195138
0.3060793573
0.3059390511
0.3057854033
0.3056312723
0.3054910056
0.3053802676
0.3053159118
0.3058144708
0.3057334282
0.3056187729
0.3054798284
0.3053276689
0.3051750279
0.305036114
0.3049264413
0.3048627029
0.305356415
0.3052761608
0.3051626197
0.3050250234
0.3048743378
0.3047231725
0.3045855985
0.3044769812
0.3044138546
0.3049027869
0.3048233128
0.304710874
0.3045746118
0.3044253847
0.3042756797
0.304139432
0.3040318596
0.3039693387
0.3044535593
0.3043748563
0.3042635076
0.3041285646
0.3039807799
0.3038325192
0.3036975835
0.3035910447
0.3035291233
0.3040087005
0.3039307596
0.3038204879
0.3036868487
0.3035404896
0.3033936566
0.3032600178
0.3031545011
0.3030931725
0.3035681752
0.3034909867
0.3033817789
0.3032494274
0.3031044766
0.3029590542
0.3028266969
0.3027221902
0.3026614476
0.3031319445
0.3030554988
0.3029473412
0.3028162611
0.3026727009
0.3025286713
0.3023975797
0.3022940707
0.3022339071
0.3026999666
0.302624254
0.3025171327
0.3023873073
0.3022451195
0.302102465
0.3019726229
0.3018700989
0.301810507
0.3022721971
0.3021972076
0.3020911086
0.3019625212
0.3018216876
0.3016803898
0.3015517808
0.3014502291
0.3013912015
0.3018485895
0.3017743133
0.3016692226
0.3015418561
0.3014023582
0.3012623987
0.3011350062
0.3010344138
0.300975943
0.3014290956
0.3013555227
0.3012514263
0.3011252635
0.3009870827
0.3008484431
0.3007222504
0.3006226041
0.3005646828
0.3010136658
0.3009407861
0.3008376698
0.3007126938
0.3005758115
0.3004384731
0.3003134634
0.3002147502
0.3001573706
0.3006022491
0.3005300527
0.3004279024
0.300304096
0.3001684935
0.3000324378
0.2999085943
0.299810801
0.2997539556
0.3001947936
0.3001232705
0.3000220722
0.2998994184
0.2997650772
0.2996302856
0.2995075915
0.2994107049
0.2993543861
0.299791247
0.2997203872
0.2996201267
0.2994986087
0.2993655102
0.2992319642
0.2991104027
0.2990144097
0.29895861
0.2993915559
0.2993213496
0.2992220131
0.299101614
0.2989697398
0.298837421
0.2987169755
0.298621863
0.2985665748
0.2989956671
0.2989261044
0.2988276781
0.298708381
0.2985777129
0.2984466031
0.2983272571
0.2982330121
0.2981782278
0.2986035268
0.2985345981
0.2984370681
0.2983188567
0.2981893765
0.2980594575
0.2979411945
0.2978478041
0.2977935164
0.2982150813
0.2981467769
0.2980501299
0.2979329876
0.2978046773
0.2976759313
0.297558735
0.2974661864
0.2974123878
0.297830277
0.2977625875
0.2976668098
0.2975507205
0.2974235625
0.2972959716
0.297179826
0.2970881065
0.2970347897
0.2974490605
0.2973819764
0.2972870548
0.2971720023
0.2970459791
0.2969195258
0.296804415
0.2967135121
0.2966606698
0.2970713785
0.2970048905
0.296910812
0.2967967805
0.2966718747
0.2965465417
0.2964324499
0.2963423513
0.2962899764
0.2966971781
0.2966312772
0.2965380287
0.2964250027
0.2963011971
0.2961769674
0.2960638791
0.2959745725
0.2959226579
0.296326407
0.2962610841
0.296168653
0.2960566169
0.2959338949
0.2958107515
0.2956986515
0.2956101249
0.2955586637
0.2959590133
0.2958942594
0.2958026332
0.295691572
0.2955699169
0.2954478433
0.2953367164
0.295248958
0.2951979432
0.2955949456
0.2955307521
0.2954399183
0.295329817
0.2952092126
0.2950881924
0.2949780239
0.294891022
0.2948404469
0.2952341531
0.2951705114
0.2950804581
0.294971302
0.2948517322
0.2947317494
0.2946225247
0.2945362678
0.2944861257
0.294876586
0.2948134876
0.2947242027
0.2946159774
0.2944974265
0.2943784654
0.2942701702
0.294184647
0.2941349313
0.2945221947
0.2944596315
0.2943711033
0.2942637947
0.2941462472
0.2940282923
0.2939209125
0.2938361119
0.2937868164
0.294170931
0.2941088947
0.2940211118
0.2939147061
0.2937981468
0.2936811829
0.2935747048
0.293490616
0.2934417342
0.293822747
0.2937612297
0.2936741809
0.2935686645
0.2934530787
0.2933370909
0.293231501
0.2931481134
0.2930996392
0.2934775961
0.2934165901
0.2933302644
0.2932256239
0.2931109971
0.292995971
0.2928912561
0.2928085593
0.2927604867
0.2931354325
0.2930749302
0.2929893169
0.2928855394
0.2927718574
0.292657779
0.2925539262
0.2924719102
0.2924242334
0.2927962115
0.2927362055
0.2926512942
0.2925483673
0.2924356164
0.2923224718
0.2922194688
0.2921381238
0.2920908371
0.2924598899
0.292400373
0.2923161537
0.292214065
0.292102232
0.291990008
0.2918878428
0.2918071593
0.2917602572
0.2921264255
0.2920673909
0.2919838538
0.2918825917
0.2917716638
0.2916603476
0.2915590087
0.2914789777
0.291432455
0.291795778
0.2917372191
0.2916543548
0.2915539082
0.2914438731
0.2913334527
0.291232929
0.2911535419
0.2911073937
0.2914679089
0.2914098194
0.2913276192
0.2912279774
0.2911188237
0.2910092875
0.2909095688
0.2908308176
0.2907850391
0.291142782
0.291085156
0.2910036117
0.2909047647
0.2907964817
0.2906878192
0.290588896
0.2905107732
0.2904653603
0.2908203637
0.2907631959
0.2906822998
0.2905842387
0.2904768166
0.2903690183
0.290270882
0.2901933811
0.29014833
0.2905006239
0.2904439094
0.2903636549
0.2902663716
0.290159802
0.2900528594
0.2899555028
0.2898786181
0.2898339256
0.2901835364
0.2901272711
0.2900476525
0.2899511404
0.2898454161
0.2897393226
0.2896427397
0.2895664668
0.2895221305
0.2898690799
0.2898132606
0.2897342735
0.2896385275
0.2895336434
0.289428394
0.2893325807
0.2892569167
0.289212935
0.2895572394
0.289501864
0.2894235055
0.2893285224
0.2892244754
0.2891200676
0.2890250222
0.2889499659
0.2889063383
0.2892480073
0.2891930748
0.289115344
0.2890211232
0.288917913
0.2888143471
0.2887200704
0.288645623
0.2886023504
0.2889413849
0.2888868963
0.2888097945
0.2887163382
0.2886139679
0.2885112478
0.2884177439
0.2883439093
0.2883009943
0.2886373846
0.2885833426
0.2885068743
0.2884141882
0.2883126651
0.2882107988
0.288118076
0.2880448613
0.2880023084
0.2883360321
0.2882824419
0.2882066148
0.2881147092
0.2880140452
0.2879130459
0.2878211172
0.2877485336
0.2877063497
0.2880373687
0.2879842382
0.2879090642
0.2878179544
0.2877181675
0.2876180545
0.2875269388
0.2874550021
0.2874131968
0.2877414539
0.2876887947
0.2876142906
0.287523998
0.287425113
0.2873259128
0.2872356357
0.2871643671
0.2871229535
0.2874483688
0.2873961963
0.2873223848
0.2872329379
0.2871349876
0.287036735
0.2869473298
0.2868767571
0.2868357519
0.2871582191
0.2871065533
0.2870334635
0.286944899
0.2868479255
0.2867506648
0.2866621739
0.2865923321
0.2865517563
0.2868711381
0.2868200043
0.286747673
0.2866600369
0.2865640927
0.286467879
0.2863803547
0.2863112868
0.2862711664
0.2865872905
0.2865367198
0.2864651918
0.2863785405
0.2862836898
0.2861885902
0.2861020961
0.2860338541
0.2859942203
0.2863068745
0.2862569043
0.2861862338
0.2861006352
0.2860069551
0.2859130498
0.2858276617
0.2857603076
0.2857211972
0.2860301246
0.2859807994
0.2859110511
0.2858265855
0.285734167
0.2856415505
0.2855573573
0.2854909633
0.2854524193
0.2857573142
0.2857086863
0.2856399354
0.2855566967
0.2854656456
0.2853744273
0.2852915316
0.285226181
0.2851882528
0.2854887572
0.2854408868
0.2853732202
0.285291316
0.2852017534
0.2851120583
0.285030577
0.2849663642
0.2849291077
0.2852248092
0.2851777647
0.2851112807
0.2850308329
0.2849428953
0.2848548641
0.2847749283
0.2847119589
0.2846754364
0.2849658664
0.2849197245
0.2848545332
0.2847756775
0.2846895171
0.2846033057
0.2845250605
0.2844634512
0.2844277313
0.2847123651
0.2846672103
0.284603433
0.2845263189
0.2844421025
0.2843578814
0.2842814849
0.2842213624
0.2841865195
0.2844647784
0.2844207028
0.284358471
0.2842832605
0.2842011683
0.2841191216
0.2840447437
0.2839862438
0.2839523574
0.2842236118
0.2841807141
0.284120169
0.2840470349
0.2839672589
0.2838875817
0.2838154023
0.2837586685
0.2837258224
0.2839893979
0.2839477824
0.2838890724
0.2838181965
0.2837409378
0.2836638341
0.2835940405
0.2835392216
0.2835075025
0.2837626884
0.2837224631
0.2836657421
0.2835973122
0.2835227779
0.283448457
0.2833812408
0.2833284888
0.283297985
0.2835440446
0.2835053199
0.2834507444
0.2833849508
0.2833133503
0.2832420228
0.2831775763
0.2831270428
0.2830978425
0.2833340272
0.283296913
0.2832446389
0.2831816705
0.2831132107
0.2830450839
0.2829835952
0.2829354286
0.2829076174
0.2831331827
0.2830977864
0.2830479651
0.2829880049
0.2829228849
0.2828581575
0.2827998061
0.2827541468
0.2827278058
0.2829420303
0.2829084536
0.282861228
0.2828044476
0.2827428534
0.2826817094
0.2826266604
0.2825836369
0.2825588401
0.2827610466
0.2827293826
0.2826848827
0.2826314372
0.2825735352
0.2825161377
0.2824645361
0.2824242604
0.2824010716
0.2825906506
0.2825609801
0.2825193184
0.2824693406
0.2824152716
0.2823617568
0.2823137216
0.2822762842
0.2822547548
0.2824311878
0.2824035767
0.2823648437
0.2823184385
0.2822683116
0.2822187822
0.282174401
0.2821398668
0.2821200325
0.2822829163
0.2822574123
0.282221672
0.2821789117
0.2821327987
0.2820873188
0.2820466425
0.2820150466
0.2819969258
0.2821459939
0.282122624
0.2820899106
0.28205083
0.2820087607
0.281967351
0.28193039
0.2819017347
0.281885326
0.2820204679
0.2819992362
0.281969551
0.2819341446
0.2818961034
0.2818587381
0.2818254596
0.2817997121
0.2817849935
0.2819062684
0.2818871547
0.2818604644
0.2818286842
0.2817946085
0.2817612136
0.2817315402
0.2817086323
0.2816955608
0.281803205
0.2817861645
0.2817624009
0.2817341561
0.281703936
0.2816743901
0.2816482009
0.2816280296
0.2816165419
0.2817109689
0.2816959328
0.2816749934
0.2816501518
0.2816236324
0.2815977689
0.281574902
0.2815573319
0.2815473459
0.2816291387
0.2816160154
0.2815977659
0.2815761572
0.2815531425
0.281530754
0.2815110113
0.281495879
0.2814872961
0.2815571911
0.2815458687
0.2815301467
0.2815115675
0.2814918258
0.2814726708
0.2814558238
0.2814429428
0.2814356516
0.2814945151
0.281484865
0.281471485
0.2814557045
0.2814389759
0.281422786
0.2814085838
0.2813977507
0.2813916306
0.2814404304
0.2814323109
0.2814210695
0.2814078371
0.2813938418
0.2813803307
0.2813685074
0.2813595089
0.2813544339
0.2813942065
0.2813874673
0.2813781501
0.281367203
0.2813556498
0.2813445219
0.2813348056
0.2813274246
0.2813232672
0.2813550841
0.2813495709
0.2813419585
0.2813330298
0.281323625
0.2813145842
0.2813067045
0.2813007271
0.2812973637
0.2813222954
0.2813178541
0.2813117289
0.2813045549
0.2812970104
0.2812897691
0.2812834664
0.2812786897
0.2812760038
0.2812950836
0.2812915646
0.2812867158
0.2812810428
0.2812750842
0.281269372
0.2812644048
0.2812606378
0.281258516
0.2812727194
0.2812699808
0.2812662097
0.2812618014
0.2812571735
0.2812527388
0.2812488769
0.2812459449
0.2812442896
0.2812545174
0.2812524284
0.2812495529
0.2812461926
0.2812426603
0.2812392691
0.2812363108
0.2812340581
0.2812327813
0.2812398472
0.2812382885
0.2812361411
0.2812336272
0.2812309804
0.2812284317
0.2812261991
0.28122449
0.2812235152
0.2812281235
0.2812269894
0.2812254239
0.2812235857
0.2812216423
0.2812197604
0.2812181002
0.2812168186
0.2812160807
0.2812188344
0.2812180334
0.2812169236
0.2812156132
0.2812142175
0.2812128531
0.2812116359
0.2812106844
0.2812101293
0.2812115318
0.2812109863
0.2812102253
0.2812093179
0.2812083393
0.2812073682
0.2812064869
0.2812057855
0.2812053689
0.2812058302
0.2812054755
0.2812049746
0.2812043673
0.2812036987
0.2812030194
0.2812023874
0.2812018718
0.2812015585
0.2812014029
0.2812011864
0.2812008738
0.2812004835
0.2812000389
0.2811995706
0.2811991192
0.2811987388
0.2811985011
0.2811979777
0.2811978577
0.2811976764
0.2811974375
0.2811971496
0.2811968293
0.2811965054
0.2811962212
0.281196038
0.2811953314
0.2811952754
0.2811951816
0.2811950438
0.281194861
0.2811946409
0.2811944043
0.281194187
0.2811940422
0.2811932836
0.2811932673
0.2811932279
0.2811931536
0.2811930376
0.2811928823
0.2811927033
0.2811925314
0.2811924134
0.2811916908
0.2811916965
0.2811916875
0.2811916495
0.2811915726
0.2811914568
0.2811913143
0.2811911723
0.2811910729
0.2811904407
0.2811904558
0.2811904606
0.2811904399
0.2811903832
0.2811902891
0.2811901685
0.2811900459
0.281189959
0.2811894465
0.2811894629
0.2811894703
0.2811894543
0.2811894051
0.2811893213
0.2811892128
0.2811891022
0.2811890238
0.2811886423
0.2811886548
0.281188658
0.2811886392
0.2811885896
0.2811885088
0.2811884064
0.281188303
0.2811882304
0.2811879788
0.2811879846
0.28118798
0.281187954
0.2811878999
0.2811878181
0.2811877179
0.2811876194
0.2811875516
0.2811874196
0.2811874177
0.2811874036
0.2811873688
0.2811873082
0.2811872233
0.2811871243
0.2811870298
0.281186966
0.2811869383
0.2811869285
0.281186905
0.281186861
0.2811867937
0.281186706
0.281186608
0.2811865171
0.2811864569
0.2811865158
0.2811864988
0.2811864664
0.2811864144
0.2811863416
0.2811862519
0.2811861554
0.2811860681
0.2811860112
0.2811861383
0.2811861153
0.2811860759
0.2811860177
0.281185941
0.2811858505
0.281185756
0.2811856721
0.2811856183
0.2811857973
0.2811857696
0.281185725
0.2811856625
0.2811855835
0.2811854934
0.2811854014
0.2811853211
0.2811852703
0.2811854867
0.2811854558
0.2811854077
0.2811853426
0.2811852629
0.2811851741
0.2811850851
0.2811850088
0.2811849612
0.2811852025
0.2811851695
0.2811851194
0.2811850533
0.2811849741