/*--------------------------------*- C++ -*----------------------------------*\
| =========                 |                                                 |
| \\      /  F ield         | OpenFOAM: The Open Source CFD Toolbox           |
|  \\    /   O peration     | Version:  2212                                  |
|   \\  /    A nd           | Website:  www.openfoam.com                      |
|    \\/     M anipulation  |                                                 |
\*---------------------------------------------------------------------------*/
FoamFile
{
    version     2.0;
    format      ascii;
    arch        "LSB;label=32;scalar=64";
    class       volScalarField;
    location    "18.25000000";
    object      C2H5;
}
// * * * * * * * * * * * * * * * * * * * * * * * * * * * * * * * * * * * * * //

dimensions      [0 0 0 0 0 0 0];

internalField   nonuniform List<scalar> 
3000
(
9.924240008e-27
1.114834609e-26
1.299549606e-26
1.545695915e-26
1.850770524e-26
2.206488743e-26
2.591420542e-26
2.958717492e-26
3.218440276e-26
3.725894409e-26
4.20233369e-26
4.920960783e-26
5.880709485e-26
7.080623052e-26
8.514048491e-26
1.015610733e-25
1.192391245e-25
1.348990375e-25
8.345377449e-26
9.486370876e-26
1.122378718e-25
1.358276577e-25
1.660571078e-25
2.033646317e-25
2.476033798e-25
2.962896786e-25
3.378998097e-25
1.589461523e-25
1.82569141e-25
2.190676145e-25
2.696758852e-25
3.361862146e-25
4.202880077e-25
5.215218894e-25
6.317833724e-25
7.207787941e-25
2.822204611e-25
3.281409647e-25
4.002065822e-25
5.020762569e-25
6.385393922e-25
8.134187084e-25
1.023791113e-24
1.247192999e-24
1.418680237e-24
4.85244088e-25
5.714193506e-25
7.085975621e-25
9.055292224e-25
1.172714558e-24
1.516871479e-24
1.927716837e-24
2.35343774e-24
2.668389318e-24
8.236667279e-25
9.819406542e-25
1.236825541e-24
1.606867725e-24
2.112663875e-24
2.764259546e-24
3.534696653e-24
4.317452353e-24
4.882243017e-24
1.393739589e-24
1.680140618e-24
2.145467199e-24
2.826262476e-24
3.760482788e-24
4.961564385e-24
6.369237776e-24
7.778605843e-24
8.778568437e-24
2.362238081e-24
2.875024076e-24
3.71356267e-24
4.946612469e-24
6.641689794e-24
8.815070296e-24
1.134396663e-23
1.384959044e-23
1.56077552e-23
4.01797018e-24
4.928894095e-24
6.425328491e-24
8.632943319e-24
1.166966875e-23
1.555312503e-23
2.004686158e-23
2.446666502e-23
2.754499199e-23
6.861463719e-24
8.470220913e-24
1.11214729e-23
1.50407298e-23
2.043223993e-23
2.731178922e-23
3.52398183e-23
4.299763249e-23
4.837387646e-23
1.176047827e-23
1.458932258e-23
1.926161284e-23
2.617742052e-23
3.568945565e-23
4.780549285e-23
6.172645589e-23
7.529997296e-23
8.467436871e-23
2.022017274e-23
2.517850723e-23
3.33805894e-23
4.55311501e-23
6.22391188e-23
8.349265555e-23
1.078599514e-22
1.315597106e-22
1.478889925e-22
3.485209446e-23
4.352259692e-23
5.78808609e-23
7.916280823e-23
1.084206388e-22
1.456014972e-22
1.881636202e-22
2.29484739e-22
2.579110119e-22
6.018814365e-23
7.532397803e-23
1.004080756e-22
1.376018084e-22
1.887252786e-22
2.536449428e-22
3.278685284e-22
3.997581523e-22
4.493001476e-22
1.040925075e-22
1.304805089e-22
1.742366097e-22
2.391331103e-22
3.283205778e-22
4.415041479e-22
5.706165753e-22
6.932169184e-22
7.818773548e-22
1.802106125e-22
2.261688202e-22
3.024056449e-22
4.154945195e-22
5.708926356e-22
7.680446707e-22
9.933420483e-22
1.213858282e-21
1.360674228e-21
3.122190693e-22
3.921953383e-22
5.24897756e-22
7.21765608e-22
9.922488149e-22
1.33526799e-21
1.72673005e-21
2.105563097e-21
2.365009456e-21
5.41206288e-22
6.80291683e-22
9.11113861e-22
1.253561732e-21
1.724003783e-21
2.320432192e-21
3.000792292e-21
3.658699801e-21
4.109477538e-21
9.384909295e-22
1.180260337e-21
1.58154291e-21
2.176898586e-21
2.994687857e-21
4.031247044e-21
5.213301962e-21
6.355938201e-21
7.138587566e-21
1.627880913e-21
2.048010741e-21
2.745385695e-21
3.780032062e-21
5.201092706e-21
7.001953692e-21
9.055053462e-21
1.103911596e-20
1.239780759e-20
2.824318855e-21
3.554233171e-21
4.765866629e-21
6.563428242e-21
9.032050554e-21
1.215984524e-20
1.572485671e-20
1.916909214e-20
2.152721632e-20
4.900964357e-21
6.168887703e-21
8.273591013e-21
1.139588296e-20
1.568314634e-20
2.111399583e-20
2.730231777e-20
3.32792856e-20
3.737040966e-20
8.505585244e-21
1.070778278e-20
1.436316458e-20
1.978522449e-20
2.722886794e-20
3.665547188e-20
4.739336399e-20
5.776096978e-20
6.485519573e-20
1.476244144e-20
1.85868126e-20
2.493415964e-20
3.434754103e-20
4.726719341e-20
6.362285692e-20
8.224596712e-20
1.00219051e-19
1.1251256e-19
2.562215927e-20
3.226250839e-20
4.328174595e-20
5.961947163e-20
8.20344186e-20
1.103974716e-19
1.426751354e-19
1.738084263e-19
1.950921692e-19
4.446733508e-20
5.599440453e-20
7.511822869e-20
1.034619595e-19
1.42329615e-19
1.914808791e-19
2.473758509e-19
3.012482778e-19
3.380509245e-19
7.715929242e-20
9.71623255e-20
1.303369631e-19
1.79481458e-19
2.468287385e-19
3.319250708e-19
4.28605319e-19
5.216934429e-19
5.852250622e-19
1.338437486e-19
1.685375515e-19
2.260506666e-19
3.111943759e-19
4.27773788e-19
5.749194104e-19
7.418885185e-19
9.024413186e-19
1.011877466e-18
2.320580121e-19
2.921881381e-19
3.918091298e-19
5.391651993e-19
7.407002074e-19
9.947243763e-19
1.282509933e-18
1.558762725e-18
1.746750495e-18
4.020618222e-19
5.061719699e-19
6.785261234e-19
9.331894878e-19
1.280987778e-18
1.718597553e-18
2.213361187e-18
2.687263704e-18
3.00906885e-18
6.959505802e-19
8.759620621e-19
1.173683605e-18
1.612980316e-18
2.211856267e-18
2.963717093e-18
3.811616448e-18
4.6215592e-18
5.170102229e-18
1.203169892e-18
1.513859094e-18
2.027089757e-18
2.783080112e-18
3.811393147e-18
5.098879299e-18
6.546296214e-18
7.924324932e-18
8.854604402e-18
2.07680206e-18
2.61179769e-18
3.494248302e-18
4.791366402e-18
6.550924146e-18
8.746679946e-18
1.120591384e-17
1.35379289e-17
1.51061756e-17
3.57786457e-18
4.496449812e-18
6.008869824e-18
8.226314847e-18
1.122444459e-17
1.49510671e-17
1.910629581e-17
2.302814443e-17
2.565371606e-17
6.149517139e-18
7.72115039e-18
1.030315999e-17
1.407725831e-17
1.916025846e-17
2.544910875e-17
3.242502053e-17
3.897372466e-17
4.333552906e-17
1.054055453e-17
1.321810315e-17
1.760565062e-17
2.399587859e-17
3.256331847e-17
4.310667959e-17
5.473305561e-17
6.558134918e-17
7.276585653e-17
1.800944905e-17
2.254834386e-17
2.996353691e-17
4.071842768e-17
5.506266454e-17
7.260845858e-17
9.182925918e-17
1.09644012e-16
1.213691952e-16
3.065887337e-17
3.830865589e-17
5.076267654e-17
6.873998055e-17
9.257646194e-17
1.215371326e-16
1.530337751e-16
1.820159339e-16
2.009654691e-16
5.197957805e-17
6.478782441e-17
8.555773756e-17
1.153789273e-16
1.546624369e-16
2.020404861e-16
2.531679478e-16
2.998549488e-16
3.301707011e-16
8.772677078e-17
1.090146462e-16
1.433832333e-16
1.924381977e-16
2.566008584e-16
3.33375656e-16
4.155494617e-16
4.899929189e-16
5.379925271e-16
1.473188981e-16
1.824144811e-16
2.388013489e-16
3.187680139e-16
4.225700808e-16
5.457476921e-16
6.764734577e-16
7.939484641e-16
8.691606278e-16
2.460478931e-16
3.034001775e-16
3.950655195e-16
5.241751776e-16
6.9043415e-16
8.8603923e-16
1.091849385e-15
1.275311311e-15
1.391956809e-15
4.085350748e-16
5.013810228e-16
6.489546852e-16
8.553224011e-16
1.118886255e-15
1.426279746e-15
1.746941438e-15
2.030527587e-15
2.209622642e-15
6.740762317e-16
8.228990753e-16
1.058082556e-15
1.384540582e-15
1.798006038e-15
2.276054425e-15
2.770548112e-15
3.204532985e-15
3.476858119e-15
1.104817503e-15
1.340921682e-15
1.711837141e-15
2.222868277e-15
2.864727592e-15
3.600542492e-15
4.355495502e-15
5.013260575e-15
5.423529059e-15
1.798123437e-15
2.168767279e-15
2.747596618e-15
3.539178596e-15
4.525325839e-15
5.646555431e-15
6.78806678e-15
7.775853368e-15
8.388537711e-15
2.90508471e-15
3.480766555e-15
4.3745508e-15
5.588012435e-15
7.087876491e-15
8.779888219e-15
1.049002493e-14
1.196052259e-14
1.286796817e-14
4.657926655e-15
5.542628181e-15
6.908404437e-15
8.749787228e-15
1.100881622e-14
1.353859874e-14
1.607831527e-14
1.82495283e-14
1.958321608e-14
7.410205816e-15
8.755678208e-15
1.082154754e-14
1.358849912e-14
1.695934187e-14
2.070862053e-14
2.444950049e-14
2.763088298e-14
2.957702621e-14
1.169523829e-14
1.372079976e-14
1.681508148e-14
2.093402423e-14
2.59195877e-14
3.14305478e-14
3.689865896e-14
4.152726136e-14
4.434841856e-14
1.83103585e-14
2.133019587e-14
2.592158068e-14
3.199885784e-14
3.93115032e-14
4.734969907e-14
5.528609017e-14
6.197653091e-14
6.604159187e-14
2.843759926e-14
3.289829561e-14
3.965067124e-14
4.854220482e-14
5.918482446e-14
7.082577597e-14
8.226999208e-14
9.188371158e-14
9.770944963e-14
4.381252188e-14
5.034379407e-14
6.019143942e-14
7.309913135e-14
8.847690674e-14
1.052250318e-13
1.216296907e-13
1.353701023e-13
1.436785587e-13
6.696541832e-14
7.64495278e-14
9.069907615e-14
1.093005317e-13
1.313714669e-13
1.553206221e-13
1.787066359e-13
1.982485161e-13
2.100455174e-13
1.015607237e-13
1.152257885e-13
1.356930643e-13
1.623153495e-13
1.937909485e-13
2.278371884e-13
2.609978574e-13
2.886558259e-13
3.053319734e-13
1.528759257e-13
1.724204909e-13
2.016122891e-13
2.394608634e-13
2.840672088e-13
3.3218028e-13
3.789340556e-13
4.178619627e-13
4.413048573e-13
2.284810196e-13
2.562390026e-13
2.975914886e-13
3.510456314e-13
4.138514829e-13
4.814013752e-13
5.468744627e-13
6.012632529e-13
6.339503481e-13
3.392101808e-13
3.7836739e-13
4.365541899e-13
5.115383703e-13
5.993483747e-13
6.934655035e-13
7.843612351e-13
8.595835014e-13
9.046198728e-13
5.005607216e-13
5.554359468e-13
6.367586368e-13
7.411931931e-13
8.629897719e-13
9.92917619e-13
1.117717795e-12
1.220374487e-12
1.281453394e-12
7.347051934e-13
8.111082616e-13
9.239775183e-13
1.068302192e-12
1.235709613e-12
1.413113548e-12
1.582186406e-12
1.720042351e-12
1.801313466e-12
1.073339592e-12
1.179015712e-12
1.334528511e-12
1.532299227e-12
1.760078661e-12
1.999347427e-12
2.225016672e-12
2.406862239e-12
2.512719845e-12
1.561591148e-12
1.706771359e-12
1.91942245e-12
2.188057614e-12
2.494766947e-12
2.813483325e-12
3.11023415e-12
3.345826904e-12
3.480722518e-12
2.263216039e-12
2.461357272e-12
2.750040075e-12
3.111961039e-12
3.521099935e-12
3.941042313e-12
4.326252119e-12
4.626710829e-12
4.795235641e-12
3.2674488e-12
3.536371369e-12
3.92599947e-12
4.410612669e-12
4.952805131e-12
5.502140379e-12
5.998062325e-12
6.377371149e-12
6.585009221e-12
4.698076695e-12
5.061839688e-12
5.58610999e-12
6.233346216e-12
6.950493173e-12
7.668276683e-12
8.306432654e-12
8.785027412e-12
9.040133783e-12
6.725450278e-12
7.217484343e-12
7.923608529e-12
8.790186291e-12
9.743073738e-12
1.068774018e-11
1.151737404e-11
1.212913633e-11
1.244686537e-11
9.582461073e-12
1.025078295e-11
1.120748024e-11
1.237765075e-11
1.365916164e-11
1.492335084e-11
1.602619453e-11
1.683065457e-11
1.723982983e-11
1.358629596e-11
1.45019891e-11
1.581255124e-11
1.741572438e-11
1.9172515e-11
2.090735079e-11
2.242175121e-11
2.352402346e-11
2.407841038e-11
1.916885366e-11
2.043932405e-11
2.226201894e-11
2.450023872e-11
2.696646257e-11
2.9419291e-11
3.157778292e-11
3.315980448e-11
3.395598093e-11
2.691975891e-11
2.87084362e-11
3.12867774e-11
3.44754232e-11
3.802269412e-11
4.159317207e-11
4.477873398e-11
4.714660921e-11
4.83515317e-11
3.76463838e-11
4.020048379e-11
4.390585794e-11
4.853100395e-11
5.373904564e-11
5.905900422e-11
6.388603948e-11
6.753922573e-11
6.943132805e-11
5.245477737e-11
5.614238816e-11
6.153105577e-11
6.832638697e-11
7.607828169e-11
8.412029571e-11
9.154597159e-11
9.727379765e-11
1.003014549e-10
7.285365505e-11
7.821071041e-11
8.609612434e-11
9.614082385e-11
1.077448147e-10
1.199619653e-10
1.314308037e-10
1.404393125e-10
1.452990387e-10
1.008807962e-10
1.086673695e-10
1.202068718e-10
1.350430487e-10
1.523788363e-10
1.708729554e-10
1.884916249e-10
2.025581636e-10
2.102914079e-10
1.392477122e-10
1.505113929e-10
1.673034761e-10
1.890672842e-10
2.147485317e-10
2.424562521e-10
2.69186523e-10
2.908310345e-10
3.029327892e-10
1.914946135e-10
2.07636508e-10
2.318210765e-10
2.633760829e-10
3.009132864e-10
3.417900108e-10
3.816378876e-10
4.142904941e-10
4.328141427e-10
2.621438274e-10
2.849802426e-10
3.193303364e-10
3.643862041e-10
4.183273606e-10
4.775021483e-10
5.356755852e-10
5.838199504e-10
6.115019323e-10
3.568364737e-10
3.886472318e-10
4.366376457e-10
4.998336075e-10
5.758567357e-10
6.597286535e-10
7.427355192e-10
8.120378452e-10
8.523591179e-10
4.82435386e-10
5.259888444e-10
5.918263905e-10
6.787589326e-10
7.83693476e-10
8.999450633e-10
1.01565088e-09
1.112989399e-09
1.170322147e-09
6.470782978e-10
7.056241813e-10
7.94227786e-10
9.114027637e-10
1.053172785e-09
1.210729734e-09
1.368238946e-09
1.501647971e-09
1.580816633e-09
8.601711357e-10
9.373927018e-10
1.054333848e-09
1.209114924e-09
1.396599924e-09
1.605416934e-09
1.814868277e-09
1.992830406e-09
2.099119632e-09
1.132334687e-09
1.232331804e-09
1.383716177e-09
1.584098393e-09
1.826966291e-09
2.097674145e-09
2.369314417e-09
2.600660948e-09
2.739601882e-09
1.475371899e-09
1.602496901e-09
1.794831456e-09
2.049365031e-09
2.3574459e-09
2.700370451e-09
3.044412254e-09
3.337911177e-09
3.515018847e-09
1.902193508e-09
2.061078588e-09
2.301071253e-09
2.617818295e-09
3.000348641e-09
3.425391917e-09
3.851510841e-09
4.215413916e-09
4.435896307e-09
2.426525451e-09
2.621329326e-09
2.914957802e-09
3.301465889e-09
3.767017045e-09
4.283165445e-09
4.799984937e-09
5.241569252e-09
5.510031264e-09
3.061088776e-09
3.295657572e-09
3.648398247e-09
4.111381332e-09
4.667387297e-09
5.282213179e-09
5.896809901e-09
6.421947094e-09
6.742111968e-09
3.818060742e-09
4.095726486e-09
4.512225842e-09
5.057196203e-09
5.709522746e-09
6.428732488e-09
7.146200922e-09
7.758985655e-09
8.133454592e-09
4.708489092e-09
5.031871829e-09
5.515659767e-09
6.146588875e-09
6.899161301e-09
7.726220699e-09
8.549326643e-09
9.25178933e-09
9.681855937e-09
5.741675264e-09
6.112508781e-09
6.665757203e-09
7.384796033e-09
8.239308689e-09
9.175168872e-09
1.010411283e-08
1.089603382e-08
1.138156487e-08
6.924576883e-09
7.343570031e-09
7.966908661e-09
8.774186054e-09
9.729911136e-09
1.077285044e-08
1.180515312e-08
1.268398731e-08
1.322337565e-08
8.261278965e-09
8.728021273e-09
9.420421229e-09
1.031393228e-08
1.136763827e-08
1.251322709e-08
1.364374035e-08
1.460465272e-08
1.519484251e-08
9.75257799e-09
1.026549513e-08
1.102422663e-08
1.199981664e-08
1.314579902e-08
1.438698611e-08
1.560802379e-08
1.66440288e-08
1.728060785e-08
1.139571273e-08
1.195207392e-08
1.27727395e-08
1.382418241e-08
1.505440162e-08
1.638171234e-08
1.768328781e-08
1.87854788e-08
1.946282867e-08
1.318426186e-08
1.378023776e-08
1.465687715e-08
1.57760412e-08
1.708035604e-08
1.848218621e-08
1.985233773e-08
2.101018782e-08
2.172167924e-08
1.510821336e-08
1.573897954e-08
1.666423803e-08
1.7841326e-08
1.920780546e-08
2.067078994e-08
2.209597074e-08
2.32976843e-08
2.403590375e-08
1.715419631e-08
1.781407499e-08
1.877942341e-08
2.000327122e-08
2.141856417e-08
2.29279967e-08
2.439350564e-08
2.562639833e-08
2.638339176e-08
1.930585453e-08
1.998848526e-08
2.098447767e-08
2.224289301e-08
2.36926339e-08
2.523291415e-08
2.672334302e-08
2.797422994e-08
2.874175e-08
2.15443334e-08
2.224286267e-08
2.325941684e-08
2.453953897e-08
2.600876807e-08
2.756385323e-08
2.906352904e-08
3.031910242e-08
3.108884755e-08
2.384884702e-08
2.455612652e-08
2.558281278e-08
2.687147565e-08
2.834505382e-08
2.989889474e-08
3.139229814e-08
3.263947933e-08
3.340331496e-08
2.61972919e-08
2.6906076e-08
2.793240095e-08
2.921648366e-08
3.067948463e-08
3.221642947e-08
3.368857456e-08
3.491482836e-08
3.566498299e-08
2.85668748e-08
2.927000882e-08
3.028568229e-08
3.155243336e-08
3.299049949e-08
3.449565213e-08
3.593241647e-08
3.712601958e-08
3.785525055e-08
3.093472559e-08
3.162531784e-08
3.262049387e-08
3.38578188e-08
3.525747009e-08
3.671699393e-08
3.810539161e-08
3.925565009e-08
3.995737639e-08
3.327847062e-08
3.395004289e-08
3.491552756e-08
3.611223225e-08
3.746112144e-08
3.886248334e-08
4.019087757e-08
4.128829141e-08
4.195669252e-08
3.557674682e-08
3.622335962e-08
3.715078128e-08
3.829676667e-08
3.958387717e-08
4.09160293e-08
4.217428395e-08
4.321065939e-08
4.384074091e-08
3.780964236e-08
3.842599284e-08
3.930793238e-08
4.039433866e-08
4.161012442e-08
4.28636251e-08
4.40431975e-08
4.501170985e-08
4.559933807e-08
3.995905472e-08
4.054054672e-08
4.137062755e-08
4.238992851e-08
4.352639805e-08
4.469347479e-08
4.578745409e-08
4.668266548e-08
4.722457384e-08
4.2008962e-08
4.255174884e-08
4.332468833e-08
4.427073858e-08
4.5321487e-08
4.6396047e-08
4.739914403e-08
4.82169816e-08
4.871075285e-08
4.394560753e-08
4.444660944e-08
4.51582345e-08
4.602627385e-08
4.698646856e-08
4.796406332e-08
4.887255875e-08
4.961025967e-08
5.005428782e-08
4.575760172e-08
4.62145004e-08
4.686173147e-08
4.764835181e-08
4.851467846e-08
4.939242981e-08
5.020408839e-08
5.086011815e-08
5.125355435e-08
4.743594786e-08
4.784716143e-08
4.842796935e-08
4.913105025e-08
4.990162618e-08
5.067812162e-08
5.139207985e-08
5.196603037e-08
5.230871694e-08
4.897400082e-08
4.933864251e-08
4.985198366e-08
5.047060302e-08
5.114486554e-08
5.182003052e-08
5.243666528e-08
5.292913903e-08
5.322153553e-08
5.036736912e-08
5.068519352e-08
5.113092809e-08
5.16652543e-08
5.224383086e-08
5.281878537e-08
5.333957031e-08
5.375205614e-08
5.399516085e-08
5.16137714e-08
5.188511148e-08
5.226391012e-08
5.271508172e-08
5.319964875e-08
5.367655486e-08
5.410391082e-08
5.443865639e-08
5.463392639e-08
5.271285826e-08
5.293855675e-08
5.325180001e-08
5.362179843e-08
5.401493466e-08
5.4396841e-08
5.473398558e-08
5.499387074e-08
5.514314307e-08
5.366601026e-08
5.384734813e-08
5.409702296e-08
5.438854313e-08
5.469358271e-08
5.498427074e-08
5.523507163e-08
5.542348604e-08
5.552890201e-08
5.447612178e-08
5.461474653e-08
5.480334324e-08
5.501966623e-08
5.524055569e-08
5.544439189e-08
5.56132273e-08
5.573395505e-08
5.579788924e-08
5.514737946e-08
5.524523522e-08
5.537564783e-08
5.552051874e-08
5.566168131e-08
5.578347838e-08
5.587510722e-08
5.593222042e-08
5.595721546e-08
5.568504247e-08
5.574430369e-08
5.581973592e-08
5.589724954e-08
5.596345926e-08
5.600834851e-08
5.602779213e-08
5.602555459e-08
5.601426257e-08
5.609523063e-08
5.611824051e-08
5.6142119e-08
5.61566151e-08
5.615288242e-08
5.612619883e-08
5.607863544e-08
5.602141737e-08
5.597654798e-08
5.638472496e-08
5.637393955e-08
5.634983546e-08
5.630580481e-08
5.623727471e-08
5.614445548e-08
5.603512761e-08
5.592733139e-08
5.585160713e-08
5.656078401e-08
5.651872247e-08
5.645028203e-08
5.635228364e-08
5.622414674e-08
5.607064344e-08
5.590477863e-08
5.575077557e-08
5.564689374e-08
5.663097811e-08
5.656017933e-08
5.645106361e-08
5.630365348e-08
5.612106995e-08
5.591227409e-08
5.569501819e-08
5.549909583e-08
5.536969704e-08
5.660304285e-08
5.650602838e-08
5.635986209e-08
5.616753303e-08
5.593556904e-08
5.56767504e-08
5.541311289e-08
5.517943218e-08
5.502707482e-08
5.648475193e-08
5.636399505e-08
5.618432403e-08
5.595145614e-08
5.567503194e-08
5.537128885e-08
5.506609927e-08
5.479866077e-08
5.462580107e-08
5.62838092e-08
5.614170976e-08
5.593196663e-08
5.566278761e-08
5.534663649e-08
5.500285696e-08
5.466073133e-08
5.436334956e-08
5.417232658e-08
5.600775908e-08
5.584662361e-08
5.561010086e-08
5.530865528e-08
5.495729218e-08
5.457812483e-08
5.420344109e-08
5.387972608e-08
5.367275102e-08
5.566391398e-08
5.548594062e-08
5.522577037e-08
5.489589694e-08
5.451359585e-08
5.410342943e-08
5.370031062e-08
5.33536557e-08
5.313280498e-08
5.52592974e-08
5.506656502e-08
5.478570477e-08
5.443102067e-08
5.402179948e-08
5.358474983e-08
5.315705402e-08
5.279062897e-08
5.255784054e-08
5.480060107e-08
5.459506214e-08
5.429628554e-08
5.392017679e-08
5.348778864e-08
5.302769199e-08
5.25790079e-08
5.219575658e-08
5.195282888e-08
5.429415442e-08
5.407763098e-08
5.376352305e-08
5.336914003e-08
5.291707009e-08
5.243748164e-08
5.197112896e-08
5.157377064e-08
5.132236378e-08
5.374590475e-08
5.35200871e-08
5.319304305e-08
5.278330028e-08
5.231476703e-08
5.181896389e-08
5.13379974e-08
5.092903106e-08
5.067066974e-08
5.316140662e-08
5.292785411e-08
5.259008117e-08
5.216766056e-08
5.168562072e-08
5.117660826e-08
5.068382501e-08
5.026553602e-08
5.000161385e-08
5.254581876e-08
5.230596239e-08
5.195948403e-08
5.15268409e-08
5.103399718e-08
5.051451816e-08
5.001246694e-08
4.958693546e-08
4.931872034e-08
5.190390726e-08
5.165905367e-08
5.130571571e-08
5.086508694e-08
5.036389797e-08
4.983644364e-08
4.932743627e-08
4.889654699e-08
4.862518718e-08
5.124005388e-08
5.099139033e-08
5.063286841e-08
5.01862822e-08
4.96789741e-08
4.914579677e-08
4.863192049e-08
4.819737329e-08
4.792390405e-08
5.055826816e-08
5.030686833e-08
4.994467643e-08
4.949396313e-08
4.898254214e-08
4.844566878e-08
4.792879944e-08
4.749212054e-08
4.721747106e-08
4.986220261e-08
4.960903288e-08
4.92445325e-08
4.879133622e-08
4.827760201e-08
4.773884828e-08
4.722066405e-08
4.678321747e-08
4.650821792e-08
4.915516997e-08
4.890109605e-08
4.853550579e-08
4.808129641e-08
4.756685574e-08
4.702784039e-08
4.650983541e-08
4.60728344e-08
4.579822298e-08
4.844016184e-08
4.818595552e-08
4.782036084e-08
4.736644609e-08
4.685272655e-08
4.631488573e-08
4.57983838e-08
4.536290222e-08
4.508933212e-08
4.771986839e-08
4.746621428e-08
4.710157719e-08
4.66491147e-08
4.61373782e-08
4.560197949e-08
4.508814739e-08
4.465513075e-08
4.438317693e-08
4.699669826e-08
4.674420051e-08
4.638136911e-08
4.593137816e-08
4.542273419e-08
4.489089025e-08
4.438075063e-08
4.39510267e-08
4.368119238e-08
4.627279858e-08
4.602198734e-08
4.566170514e-08
4.521507809e-08
4.471049638e-08
4.418317806e-08
4.367762175e-08
4.325191074e-08
4.298463363e-08
4.555007454e-08
4.530141224e-08
4.494432706e-08
4.450184026e-08
4.400216299e-08
4.348021182e-08
4.298000958e-08
4.255893377e-08
4.22945919e-08
4.48302083e-08
4.45840957e-08
4.423076824e-08
4.379309247e-08
4.329904581e-08
4.278318581e-08
4.228899938e-08
4.187309219e-08
4.161200951e-08
4.41146773e-08
4.387145913e-08
4.352237107e-08
4.309008146e-08
4.260228652e-08
4.209313531e-08
4.160552781e-08
4.119524233e-08
4.093769383e-08
4.340477313e-08
4.316474218e-08
4.282030373e-08
4.2393889e-08
4.191287203e-08
4.141095129e-08
4.093039691e-08
4.052611378e-08
4.027233035e-08
4.270161879e-08
4.246501959e-08
4.212557612e-08
4.170544717e-08
4.123164907e-08
4.073739415e-08
4.026428713e-08
3.986632192e-08
3.96164948e-08
4.200617902e-08
4.177321895e-08
4.143905537e-08
4.102555277e-08
4.055933777e-08
4.007310656e-08
3.960776946e-08
3.921637939e-08
3.897066428e-08
4.13192733e-08
4.109012799e-08
4.076147914e-08
4.035488079e-08
3.98965443e-08
3.941862535e-08
3.896131661e-08
3.857670677e-08
3.833522759e-08
4.064160666e-08
4.041641656e-08
4.009347069e-08
3.969399699e-08
3.924377269e-08
3.877439249e-08
3.83253133e-08
3.794764225e-08
3.77104946e-08
3.997376869e-08
3.975263968e-08
3.943554762e-08
3.904336867e-08
3.860143518e-08
3.814076498e-08
3.77000656e-08
3.732945057e-08
3.70967049e-08
3.931624843e-08
3.909926078e-08
3.878813452e-08
3.840337494e-08
3.796986202e-08
3.751802403e-08
3.70858096e-08
3.672233122e-08
3.649403564e-08
3.866944338e-08
3.845665394e-08
3.815157164e-08
3.777431642e-08
3.734931045e-08
3.690638346e-08
3.64827192e-08
3.612642573e-08
3.590260868e-08
3.803366864e-08
3.78251127e-08
3.752611987e-08
3.71564225e-08
3.673997245e-08
3.630599715e-08
3.58909132e-08
3.554182447e-08
3.532249706e-08
3.740916653e-08
3.72048615e-08
3.691197943e-08
3.654986133e-08
3.614198238e-08
3.571696597e-08
3.531046172e-08
3.496857266e-08
3.475373084e-08
3.679611452e-08
3.659606212e-08
3.630929032e-08
3.595474726e-08
3.555542382e-08
3.513934403e-08
3.474139206e-08
3.440667592e-08
3.419630242e-08
3.619463279e-08
3.599882093e-08
3.571813914e-08
3.537114102e-08
3.498033475e-08
3.457314439e-08
3.418369408e-08
3.38561053e-08
3.365017136e-08
3.560479104e-08
3.54131957e-08
3.513856703e-08
3.479906479e-08
3.441671431e-08
3.401834422e-08
3.363732493e-08
3.331680172e-08
3.311526869e-08
3.502661476e-08
3.483920162e-08
3.457057478e-08
3.423850201e-08
3.386452718e-08
3.347488947e-08
3.310221335e-08
3.278868003e-08
3.259150078e-08
3.446009088e-08
3.427681686e-08
3.401412823e-08
3.368940338e-08
3.332370837e-08
3.29426991e-08
3.257826364e-08
3.227163267e-08
3.207875282e-08
3.39051728e-08
3.372598743e-08
3.346916319e-08
3.315169334e-08
3.279416741e-08
3.242166883e-08
3.206535908e-08
3.17655329e-08
3.157689196e-08
3.336178469e-08
3.318663097e-08
3.293558778e-08
3.262526671e-08
3.227579058e-08
3.191167419e-08
3.156336495e-08
3.127023768e-08
3.108577005e-08
3.282982561e-08
3.265864131e-08
3.241328865e-08
3.211000248e-08
3.176844616e-08
3.14125739e-08
3.10721314e-08
3.078559025e-08
3.060522615e-08
3.230917312e-08
3.214189166e-08
3.190213302e-08
3.160576081e-08
3.127198635e-08
3.092421236e-08
3.059149588e-08
3.031142248e-08
3.013508867e-08
3.179968641e-08
3.163623767e-08
3.140197164e-08
3.111238664e-08
3.078624977e-08
3.044642206e-08
3.012128531e-08
2.984755689e-08
2.967517743e-08
3.130120916e-08
3.114152021e-08
3.091264145e-08
3.062971233e-08
3.031106387e-08
2.997902569e-08
2.966131812e-08
2.939380846e-08
2.922530534e-08
3.081357219e-08
3.065756786e-08
3.043396806e-08
3.015755995e-08
2.984624701e-08
2.952183801e-08
2.921140593e-08
2.894998632e-08
2.878527996e-08
3.033659563e-08
3.018419918e-08
2.996576776e-08
2.969574325e-08
2.939161027e-08
2.907466762e-08
2.877135512e-08
2.851589515e-08
2.835490491e-08
2.987009102e-08
2.972122454e-08
2.950784945e-08
2.924406939e-08
2.89469591e-08
2.863731837e-08
2.834096822e-08
2.809133644e-08
2.793398109e-08
2.941386303e-08
2.926844793e-08
2.906001621e-08
2.880234049e-08
2.851209468e-08
2.820959068e-08
2.792004508e-08
2.767610967e-08
2.752230769e-08
2.896771102e-08
2.882566841e-08
2.862206673e-08
2.837035494e-08
2.80868152e-08
2.779128272e-08
2.750838397e-08
2.727001324e-08
2.711968322e-08
2.853143034e-08
2.839268138e-08
2.819379656e-08
2.794790855e-08
2.767091691e-08
2.738219133e-08
2.710578244e-08
2.687284535e-08
2.672590628e-08
2.810481349e-08
2.796927967e-08
2.777499908e-08
2.753479549e-08
2.7264195e-08
2.69821129e-08
2.671203812e-08
2.648440474e-08
2.634077627e-08
2.768765097e-08
2.755525441e-08
2.736546634e-08
2.713080908e-08
2.686644429e-08
2.659084398e-08
2.632694932e-08
2.610449124e-08
2.596409396e-08
2.727973193e-08
2.715039558e-08
2.696498963e-08
2.673574225e-08
2.647745974e-08
2.620818173e-08
2.595031542e-08
2.573290614e-08
2.559566188e-08
2.688084452e-08
2.67544924e-08
2.657335972e-08
2.634938784e-08
2.609703659e-08
2.583392407e-08
2.558193701e-08
2.536945238e-08
2.523528441e-08
2.649077586e-08
2.636733322e-08
2.61903668e-08
2.59715384e-08
2.572497021e-08
2.546786947e-08
2.522161568e-08
2.501393426e-08
2.488276761e-08
2.610931149e-08
2.598870497e-08
2.581579985e-08
2.560198556e-08
2.536105537e-08
2.510981618e-08
2.486915321e-08
2.466615671e-08
2.453791845e-08
2.573623431e-08
2.561839199e-08
2.544944539e-08
2.524051868e-08
2.500508485e-08
2.475956077e-08
2.452435008e-08
2.432592371e-08
2.420054325e-08
2.537132255e-08
2.525617401e-08
2.509108535e-08
2.488692261e-08
2.465684699e-08
2.441689558e-08
2.418700282e-08
2.399303565e-08
2.387044505e-08
2.501434678e-08
2.490182296e-08
2.474049377e-08
2.454097412e-08
2.431612205e-08
2.408160488e-08
2.385689998e-08
2.366728516e-08
2.354741931e-08
2.466506551e-08
2.455509846e-08
2.439743193e-08
2.420243685e-08
2.398267673e-08
2.375345903e-08
2.353381604e-08
2.334845075e-08
2.323124755e-08
2.432321912e-08
2.421574148e-08
2.406164168e-08
2.387105361e-08
2.365625654e-08
2.343220648e-08
2.321750288e-08
2.303628798e-08
2.292168818e-08
2.398852176e-08
2.3883466e-08
2.373283706e-08
2.354653924e-08
2.333657607e-08
2.311756284e-08
2.290767807e-08
2.2730517e-08
2.261846372e-08
2.36606507e-08
2.355794789e-08
2.341069204e-08
2.322856579e-08
2.302330508e-08
2.280919635e-08
2.26040094e-08
2.24308063e-08
2.232124397e-08
2.333923299e-08
2.323881087e-08
2.309482567e-08
2.291674647e-08
2.271605133e-08
2.250670945e-08
2.230609508e-08
2.213675167e-08
2.202962415e-08
2.302382904e-08
2.29256096e-08
2.27847843e-08
2.261061775e-08
2.241433995e-08
2.220961615e-08
2.201343934e-08
2.184785018e-08
2.174309788e-08
2.27139131e-08
2.261780926e-08
2.248002002e-08
2.230961516e-08
2.211758842e-08
2.191731503e-08
2.172542318e-08
2.156346901e-08
2.146102462e-08
2.240885044e-08
2.231476189e-08
2.217986565e-08
2.201304753e-08
2.182507768e-08
2.162905784e-08
2.144127057e-08
2.128280937e-08
2.118259206e-08
2.210787143e-08
2.201567941e-08
2.188350622e-08
2.172006649e-08
2.153591962e-08
2.134391453e-08
2.116001081e-08
2.10048663e-08
2.090677421e-08
2.181004338e-08
2.171960436e-08
2.158994769e-08
2.142963252e-08
2.124902218e-08
2.10607359e-08
2.088043839e-08
2.072838607e-08
2.063228691e-08
2.151424089e-08
2.142538006e-08
2.129798852e-08
2.114048354e-08
2.096305403e-08
2.077811562e-08
2.060107246e-08
2.045182311e-08
2.035754309e-08
2.121911594e-08
2.113161944e-08
2.100618514e-08
2.085110142e-08
2.067641016e-08
2.0494354e-08
2.032011849e-08
2.017329974e-08
2.008061102e-08
2.09230701e-08
2.083667729e-08
2.071282302e-08
2.055968269e-08
2.038718178e-08
2.020742669e-08
2.003543578e-08
1.989057245e-08
1.979917962e-08
2.062423496e-08
2.05386338e-08
2.041589568e-08
2.026411625e-08
2.009313369e-08
1.991496205e-08
1.974451482e-08
1.960100919e-08
1.951053571e-08
2.032045917e-08
2.023526728e-08
2.011309098e-08
1.996197051e-08
1.979169268e-08
1.961423122e-08
1.94444691e-08
1.93015829e-08
1.921155854e-08
2.000929175e-08
1.992406007e-08
1.980178901e-08
1.965049346e-08
1.94799509e-08
1.930215531e-08
1.913204655e-08
1.898888659e-08
1.889873741e-08
1.968800042e-08
1.960220577e-08
1.947907393e-08
1.932662937e-08
1.915468843e-08
1.897533457e-08
1.880366536e-08
1.86591756e-08
1.856821818e-08
1.935359116e-08
1.92666347e-08
1.914176533e-08
1.898705691e-08
1.881241919e-08
1.863010348e-08
1.845547918e-08
1.830844175e-08
1.821588381e-08
1.900285022e-08
1.891406074e-08
1.878647184e-08
1.86282517e-08
1.844946456e-08
1.82626165e-08
1.808347519e-08
1.793252364e-08
1.783747303e-08
1.863240962e-08
1.854105239e-08
1.840967031e-08
1.824657617e-08
1.806205614e-08
1.786896591e-08
1.768360819e-08
1.752725518e-08
1.742873915e-08
1.82388376e-08
1.814412943e-08
1.800781199e-08
1.783839825e-08
1.764646973e-08
1.744533304e-08
1.72519699e-08
1.708865212e-08
1.698564865e-08
1.781875425e-08
1.771988566e-08
1.757745579e-08
1.740023845e-08