/*--------------------------------*- C++ -*----------------------------------*\
| =========                 |                                                 |
| \\      /  F ield         | OpenFOAM: The Open Source CFD Toolbox           |
|  \\    /   O peration     | Version:  2212                                  |
|   \\  /    A nd           | Website:  www.openfoam.com                      |
|    \\/     M anipulation  |                                                 |
\*---------------------------------------------------------------------------*/
FoamFile
{
    version     2.0;
    format      ascii;
    arch        "LSB;label=32;scalar=64";
    class       volScalarField;
    location    "18.25000000";
    object      C2H6_0;
}
// * * * * * * * * * * * * * * * * * * * * * * * * * * * * * * * * * * * * * //

dimensions      [0 0 0 0 0 0 0];

internalField   nonuniform List<scalar> 
3000
(
3.490487003e-23
3.921021286e-23
4.570688321e-23
5.436417375e-23
6.509405006e-23
7.760512873e-23
9.114368717e-23
1.040620046e-22
1.131967966e-22
1.310446501e-22
1.478016481e-22
1.730767103e-22
2.068323365e-22
2.490348762e-22
2.994503347e-22
3.572037032e-22
4.193797334e-22
4.744577063e-22
2.935179812e-22
3.336482206e-22
3.947554358e-22
4.777238109e-22
5.840447535e-22
7.15260207e-22
8.708536815e-22
1.042089773e-21
1.188438053e-21
5.59034624e-22
6.421197702e-22
7.704896799e-22
9.484855868e-22
1.182411106e-21
1.47820809e-21
1.834260855e-21
2.222064862e-21
2.53507335e-21
9.926065362e-22
1.154114936e-21
1.407579101e-21
1.765868001e-21
2.245826584e-21
2.860899838e-21
3.600806864e-21
4.386540233e-21
4.98968304e-21
1.706667108e-21
2.009756681e-21
2.492230221e-21
3.184864344e-21
4.124589681e-21
5.335033956e-21
6.780029994e-21
8.277345163e-21
9.38507031e-21
2.896943387e-21
3.453613184e-21
4.35007613e-21
5.651562027e-21
7.430511937e-21
9.722257293e-21
1.243198299e-20
1.518503457e-20
1.717147517e-20
4.901963014e-21
5.909272057e-21
7.545885017e-21
9.940328651e-21
1.322610005e-20
1.7450456e-20
2.240142089e-20
2.735834562e-20
3.087533936e-20
8.308295876e-21
1.011182906e-20
1.306107496e-20
1.739786582e-20
2.335966443e-20
3.100371368e-20
3.989815468e-20
4.871074174e-20
5.489442211e-20
1.413171487e-20
1.733554752e-20
2.259869226e-20
3.036314449e-20
4.104367737e-20
5.47022617e-20
7.050727085e-20
8.605224419e-20
9.687908241e-20
2.413263613e-20
2.97908304e-20
3.911560239e-20
5.290009446e-20
7.186266756e-20
9.605883808e-20
1.239426222e-19
1.512277317e-19
1.701365832e-19
4.136307228e-20
5.131245098e-20
6.774543854e-20
9.2069123e-20
1.255240139e-19
1.681374456e-19
2.170989759e-19
2.648384863e-19
2.978092266e-19
7.111684596e-20
8.855587608e-20
1.174035202e-19
1.601383725e-19
2.18902078e-19
2.936529769e-19
3.793552628e-19
4.627098018e-19
5.201414616e-19
1.225790906e-19
1.530742244e-19
2.035738194e-19
2.784247017e-19
3.813275226e-19
5.120964075e-19
6.617922374e-19
8.071261218e-19
9.071008735e-19
2.116890846e-19
2.649235322e-19
3.531470926e-19
4.839614849e-19
6.637682143e-19
8.920987994e-19
1.153167307e-18
1.406103999e-18
1.580257389e-18
3.661062254e-19
4.58915925e-19
6.128112176e-19
8.41059712e-19
1.154743212e-18
1.552841134e-18
2.007166704e-18
2.437568702e-18
2.750211771e-18
6.338232915e-19
7.954639398e-19
1.063598197e-18
1.461345638e-18
2.007899138e-18
2.701290245e-18
3.49348027e-18
4.269911335e-18
4.785414028e-18
1.098113954e-18
1.379400573e-18
1.846131776e-18
2.538541098e-18
3.489865184e-18
4.696305898e-18
6.073101299e-18
7.405369389e-18
8.318017718e-18
1.9034913e-18
2.392672351e-18
3.204503444e-18
4.40893654e-18
6.063541818e-18
8.16125741e-18
1.055417019e-17
1.286810791e-17
1.44535591e-17
3.300791972e-18
4.151125781e-18
5.562487773e-18
7.656429708e-18
1.053269905e-17
1.417841006e-17
1.833584778e-17
2.235464436e-17
2.510732167e-17
5.725463921e-18
7.203113877e-18
9.655870141e-18
1.329485275e-17
1.829290329e-17
2.462675953e-17
3.18477711e-17
3.882596944e-17
4.360465923e-17
9.933487288e-18
1.250068828e-17
1.676215637e-17
2.30844077e-17
3.176686405e-17
4.276771244e-17
5.530630694e-17
6.742011647e-17
7.571393585e-17
1.723731116e-17
2.169675746e-17
2.90992643e-17
4.008075836e-17
5.515960327e-17
7.426058394e-17
9.602568991e-17
1.170474364e-16
1.314364334e-16
2.991521599e-17
3.766062171e-17
5.051705907e-17
6.958712503e-17
9.576735369e-17
1.289219027e-16
1.666884158e-16
2.03152585e-16
2.281038667e-16
5.192136419e-17
6.53721575e-17
8.769657322e-17
1.208046158e-16
1.66244652e-16
2.237695687e-16
2.892693783e-16
3.52482963e-16
3.957207718e-16
9.011635124e-17
1.134712906e-16
1.522273284e-16
2.096891536e-16
2.88525325e-16
3.882817272e-16
5.018063028e-16
6.113059742e-16
6.861635552e-16
1.56397188e-16
1.969393316e-16
2.642002099e-16
3.638886497e-16
5.005910447e-16
6.734621708e-16
8.700517552e-16
1.059527794e-15
1.188967287e-15
2.713788737e-16
3.417320352e-16
4.584113707e-16
6.312586818e-16
8.681274544e-16
1.167421847e-15
1.507458309e-15
1.834860818e-15
2.058309423e-15
4.707451451e-16
5.92767566e-16
7.950483442e-16
1.094509355e-15
1.504533634e-15
2.022063067e-15
2.609314153e-15
3.173998279e-15
3.558898791e-15
8.16176862e-16
1.027661978e-15
1.378041366e-15
1.896310939e-15
2.605134553e-15
3.498569046e-15
4.510746511e-15
5.482361807e-15
6.143538079e-15
1.414101205e-15
1.780269481e-15
2.386460367e-15
3.282142932e-15
4.505392548e-15
6.044520263e-15
7.784665155e-15
9.451438903e-15
1.058326739e-14
2.447743961e-15
3.080866556e-15
4.127989962e-15
5.67305071e-15
7.779371348e-15
1.042375868e-14
1.340592537e-14
1.6254594e-14
1.818388754e-14
4.231695915e-15
5.324428037e-15
7.129523405e-15
9.788434512e-15
1.340513805e-14
1.793338542e-14
2.302412904e-14
2.787082585e-14
3.11427334e-14
7.304365241e-15
9.186010346e-15
1.228969725e-14
1.685182067e-14
2.304040126e-14
3.076314425e-14
3.941257233e-14
4.76145563e-14
5.313027301e-14
1.258377958e-14
1.581455563e-14
2.113392113e-14
2.893294601e-14
3.947773516e-14
5.258472349e-14
6.719917323e-14
8.09927972e-14
9.022725577e-14
2.162857849e-14
2.715620225e-14
3.623744244e-14
4.951140449e-14
6.738893555e-14
8.950759136e-14
1.140427293e-13
1.370753276e-13
1.524163312e-13
3.707234537e-14
4.648960303e-14
6.192113307e-14
8.439633482e-14
1.145290599e-13
1.51611348e-13
1.9250274e-13
2.306575267e-13
2.559263279e-13
6.334123128e-14
7.930505566e-14
1.053851646e-13
1.43211397e-13
1.936618062e-13
2.553725012e-13
3.229744223e-13
3.856311183e-13
4.268700505e-13
1.078304658e-13
1.347356215e-13
1.785378481e-13
2.417661331e-13
3.256018829e-13
4.274600822e-13
5.382376701e-13
6.401715601e-13
7.068194763e-13
1.828171249e-13
2.27865121e-13
3.009152141e-13
4.057997431e-13
5.439644673e-13
7.105988134e-13
8.90420482e-13
1.054624642e-12
1.161249091e-12
3.085421832e-13
3.834137924e-13
5.04291711e-13
6.768233877e-13
9.02490839e-13
1.172517084e-12
1.461532785e-12
1.72336027e-12
1.892181432e-12
5.181295336e-13
6.415638238e-13
8.398817672e-13
1.121132668e-12
1.486216004e-12
1.919446451e-12
2.379225948e-12
2.792401876e-12
3.05693404e-12
8.65358158e-13
1.067070179e-12
1.389464386e-12
1.843554613e-12
2.42830453e-12
3.116270686e-12
3.840132572e-12
4.48539553e-12
4.895656573e-12
1.436813495e-12
1.763356561e-12
2.28238102e-12
3.008190665e-12
3.935168441e-12
5.016306185e-12
6.144117792e-12
7.141536607e-12
7.771446903e-12
2.370679306e-12
2.89408891e-12
3.721232588e-12
4.869397777e-12
6.323583672e-12
8.004928961e-12
9.744133388e-12
1.127053688e-11
1.222836314e-11
3.885477894e-12
4.715840109e-12
6.020332689e-12
7.817622178e-12
1.007505972e-11
1.26629797e-11
1.531825429e-11
1.76317456e-11
1.907476462e-11
6.32354015e-12
7.627032643e-12
9.662695379e-12
1.244661345e-11
1.591485565e-11
1.985825853e-11
2.387309009e-11
2.734734352e-11
2.950233603e-11
1.021604525e-11
1.224053958e-11
1.538373145e-11
1.965120352e-11
2.492599866e-11
3.087671082e-11
3.689136788e-11
4.206339156e-11
4.52551693e-11
1.637933094e-11
1.949037147e-11
2.429315119e-11
3.076851478e-11
3.871275428e-11
4.76094388e-11
5.654144078e-11
6.417782557e-11
6.886879272e-11
2.605614536e-11
3.078710525e-11
3.805117934e-11
4.778054963e-11
5.963363803e-11
7.281790182e-11
8.59732726e-11
9.71617791e-11
1.040065915e-10
4.112102e-11
4.824258037e-11
5.912157356e-11
7.360314047e-11
9.113180264e-11
1.105081734e-10
1.297347089e-10
1.460104618e-10
1.559314504e-10
6.437659885e-11
7.499256798e-11
9.113283934e-11
1.124960204e-10
1.382013018e-10
1.664567225e-10
1.943545057e-10
2.178734403e-10
2.321645053e-10
9.99783901e-11
1.15657559e-10
1.393906236e-10
1.706400946e-10
2.080405964e-10
2.48945737e-10
2.891562859e-10
3.229335947e-10
3.434026034e-10
1.540293923e-10
1.769843963e-10
2.115916714e-10
2.569459959e-10
3.109689367e-10
3.69791967e-10
4.273936709e-10
4.756290183e-10
5.047920505e-10
2.354292494e-10
2.687629352e-10
3.188373849e-10
3.841882973e-10
4.617006159e-10
5.457702062e-10
6.278177511e-10
6.963395375e-10
7.376868763e-10
3.570650294e-10
4.05105629e-10
4.770439566e-10
5.705821807e-10
6.811137626e-10
8.005854662e-10
9.168437336e-10
1.013713538e-09
1.072071356e-09
5.374755547e-10
6.062323788e-10
7.089041425e-10
8.419697562e-10
9.986955781e-10
1.167591833e-09
1.331530956e-09
1.467862339e-09
1.549882207e-09
8.031685626e-10
9.009504153e-10
1.046605548e-09
1.234840463e-09
1.455910413e-09
1.693526984e-09
1.923666081e-09
2.114728775e-09
2.229547365e-09
1.191833946e-09
1.330086234e-09
1.535582621e-09
1.800487859e-09
2.110821182e-09
2.443622074e-09
2.765337517e-09
3.032043231e-09
3.192170974e-09
1.756780902e-09
1.951215284e-09
2.239673658e-09
2.610705776e-09
3.044403102e-09
3.50856503e-09
3.9565193e-09
4.327420958e-09
4.549940413e-09
2.573035288e-09
2.845147764e-09
3.248173015e-09
3.765554487e-09
4.369128958e-09
5.013951793e-09
5.635354482e-09
6.149333793e-09
6.457510628e-09
3.745666199e-09
4.1247673e-09
4.685417239e-09
5.403892118e-09
6.240591465e-09
7.133067443e-09
7.992047089e-09
8.701914644e-09
9.127353298e-09
5.421072556e-09
5.946993196e-09
6.723737939e-09
7.717587354e-09
8.873173538e-09
1.010409764e-08
1.128754018e-08
1.226483692e-08
1.285035397e-08
7.802177595e-09
8.528874256e-09
9.600877058e-09
1.097061254e-08
1.256106925e-08
1.425317351e-08
1.587848328e-08
1.721985841e-08
1.80232976e-08
1.116877641e-08
1.216912961e-08
1.364327192e-08
1.552452694e-08
1.770627967e-08
2.002500479e-08
2.225037451e-08
2.408602024e-08
2.518529429e-08
1.590459637e-08
1.727675696e-08
1.929691719e-08
2.187217512e-08
2.4855559e-08
2.802324187e-08
3.106117213e-08
3.356591864e-08
3.506563445e-08
2.253287753e-08
2.440858408e-08
2.716779124e-08
3.068174078e-08
3.474862978e-08
3.906306722e-08
4.319804495e-08
4.660585503e-08
4.864595702e-08
3.176248374e-08
3.431786099e-08
3.807407208e-08
4.285353839e-08
4.838022049e-08
5.423874649e-08
5.985015807e-08
6.447289277e-08
6.7239834e-08
4.454666987e-08
4.80160889e-08
5.311243516e-08
5.959194793e-08
6.707845904e-08
7.500880345e-08
8.260027766e-08
8.885169646e-08
9.259269542e-08
6.215648747e-08
6.685008392e-08
7.374045042e-08
8.249453088e-08
9.260167388e-08
1.03300876e-07
1.135372471e-07
1.219631917e-07
1.270041157e-07
8.627024451e-08
9.259561728e-08
1.018763026e-07
1.136593858e-07
1.272544526e-07
1.416368611e-07
1.553896905e-07
1.667051773e-07
1.734724482e-07
1.190793081e-07
1.275676952e-07
1.400155507e-07
1.558099924e-07
1.740216314e-07
1.932763729e-07
2.116783096e-07
2.268116847e-07
2.358582483e-07
1.634087211e-07
1.747455117e-07
1.913622917e-07
2.124340172e-07
2.367155992e-07
2.623726779e-07
2.868797094e-07
3.070229728e-07
3.190577343e-07
2.228485856e-07
2.379073349e-07
2.599689369e-07
2.879288912e-07
3.201280346e-07
3.541303466e-07
3.865891174e-07
4.132519314e-07
4.291710978e-07
3.018891047e-07
3.217672752e-07
3.508751304e-07
3.877428293e-07
4.301725163e-07
4.749486154e-07
5.176635839e-07
5.527264698e-07
5.736440477e-07
4.060489685e-07
4.321025221e-07
4.702327633e-07
5.184961411e-07
5.740003988e-07
6.325302273e-07
6.88322912e-07
7.34083093e-07
7.613566139e-07
5.419840198e-07
5.758569229e-07
6.254014233e-07
6.88065271e-07
7.600702715e-07
8.359339313e-07
9.081845848e-07
9.673864729e-07
1.002633146e-06
7.175615754e-07
7.612055263e-07
8.249978862e-07
9.056120446e-07
9.981524077e-07
1.095551221e-06
1.188212833e-06
1.264055097e-06
1.309154103e-06
9.418860459e-07
9.975655748e-07
1.078885046e-06
1.181543661e-06
1.299254265e-06
1.422994366e-06
1.540570253e-06
1.636683472e-06
1.693761332e-06
1.225263938e-06
1.295542646e-06
1.398090064e-06
1.527394846e-06
1.675460624e-06
1.830891726e-06
1.978370867e-06
2.098761044e-06
2.170158172e-06
1.579100783e-06
1.666805925e-06
1.794647937e-06
1.955631273e-06
2.139691053e-06
2.332597133e-06
2.515342199e-06
2.664291441e-06
2.752488575e-06
2.015728311e-06
2.12389284e-06
2.281373884e-06
2.479382434e-06
2.705388197e-06
2.94183103e-06
3.165418839e-06
3.347336349e-06
3.454877954e-06
2.548165962e-06
2.679949989e-06
2.871574818e-06
3.112116723e-06
3.386152619e-06
3.672269344e-06
3.942281851e-06
4.161552573e-06
4.290954831e-06
3.189825942e-06
3.348420014e-06
3.57871067e-06
3.867272883e-06
4.195331901e-06
4.537095105e-06
4.858917482e-06
5.119734728e-06
5.273388245e-06
3.954169767e-06
4.14268469e-06
4.416015409e-06
4.757840694e-06
5.145587283e-06
5.548583142e-06
5.927193209e-06
6.23339191e-06
6.413465929e-06
4.854306445e-06
5.075638358e-06
5.396049833e-06
5.795940025e-06
6.248497652e-06
6.717705603e-06
7.157474084e-06
7.512375262e-06
7.720729425e-06
5.902536625e-06
6.159261557e-06
6.530313714e-06
6.992441598e-06
7.514187687e-06
8.053779093e-06
8.558291568e-06
8.964566596e-06
9.202675067e-06
7.109970382e-06
7.404241281e-06
7.828869384e-06
8.356609242e-06
8.950995936e-06
9.564162697e-06
1.013607228e-05
1.05956335e-05
1.086452501e-05
8.486148732e-06
8.819605818e-06
9.299997703e-06
9.895784006e-06
1.056519349e-05
1.125401463e-05
1.189493182e-05
1.240885396e-05
1.270907002e-05
1.003870037e-05
1.041239975e-05
1.094990044e-05
1.161512167e-05
1.236076242e-05
1.312611395e-05
1.383653747e-05
1.440501218e-05
1.473658453e-05
1.177304987e-05
1.218741393e-05
1.278246188e-05
1.351739392e-05
1.433924154e-05
1.518075221e-05
1.596004218e-05
1.658236598e-05
1.694481329e-05
1.369219155e-05
1.4146983e-05
1.479908026e-05
1.560286121e-05
1.649964502e-05
1.741569781e-05
1.826209025e-05
1.893668462e-05
1.932902724e-05
1.579653981e-05
1.629085995e-05
1.699857643e-05
1.78692224e-05
1.883845617e-05
1.982623312e-05
2.073689263e-05
2.146135316e-05
2.188214421e-05
1.808386265e-05
1.861617292e-05
1.937718298e-05
2.031164219e-05
2.134969524e-05
2.240526109e-05
2.3376367e-05
2.414753745e-05
2.459490766e-05
2.054930019e-05
2.111746487e-05
2.192861301e-05
2.292285348e-05
2.402505673e-05
2.5143475e-05
2.617033487e-05
2.698440114e-05
2.74561144e-05
2.318546528e-05
2.378681214e-05
2.464420306e-05
2.569332808e-05
2.685410788e-05
2.802958228e-05
2.910676585e-05
2.995936434e-05
3.045288085e-05
2.598261862e-05
2.661401389e-05
2.751312135e-05
2.861150573e-05
2.982453797e-05
3.105057128e-05
3.217205777e-05
3.305839252e-05
3.357093629e-05
2.892890771e-05
2.958684093e-05
3.05226296e-05
3.16640696e-05
3.292244615e-05
3.419200868e-05
3.535134052e-05
3.626630376e-05
3.679493157e-05
3.201065606e-05
3.269133079e-05
3.365838496e-05
3.483625474e-05
3.613265464e-05
3.74383551e-05
3.862879162e-05
3.956708302e-05
4.010875202e-05
3.521268809e-05
3.591211428e-05
3.690476802e-05
3.811217602e-05
3.943903464e-05
4.077328675e-05
4.198795237e-05
4.294419282e-05
4.349582461e-05
3.851867481e-05
3.923275928e-05
4.024522295e-05
4.14751626e-05
4.28248328e-05
4.418001231e-05
4.541203458e-05
4.638087122e-05
4.693941073e-05
4.191148617e-05
4.263611811e-05
4.366259714e-05
4.490808706e-05
4.627298768e-05
4.764157545e-05
4.888420957e-05
4.98604096e-05
5.042287728e-05
4.537353728e-05
4.610466635e-05
4.713946898e-05
4.839367916e-05
4.976642728e-05
5.114113532e-05
5.238787265e-05
5.336640441e-05
5.392994107e-05
4.888711766e-05
4.962082281e-05
5.065845457e-05
5.191481598e-05
5.328834063e-05
5.466221926e-05
5.590687843e-05
5.688297873e-05
5.744488256e-05
5.243469471e-05
5.316724275e-05
5.420248614e-05
5.545478232e-05
5.682241833e-05
5.818894345e-05
5.942574362e-05
6.039497119e-05
6.095272687e-05
5.599918498e-05
5.672707816e-05
5.775505698e-05
5.899749708e-05
6.035305892e-05
6.170619941e-05
6.292981582e-05
6.388809122e-05
6.443939148e-05
5.956418874e-05
6.028420146e-05
6.13004298e-05
6.252770334e-05
6.386553928e-05
6.519980537e-05
6.640540809e-05
6.734904082e-05
6.789180078e-05
6.311418558e-05
6.382339054e-05
6.482380704e-05
6.603112134e-05
6.734614925e-05
6.8656623e-05
6.98399002e-05
7.076560413e-05
7.129796921e-05
6.663469046e-05
6.733047488e-05
6.831146348e-05
6.949456504e-05
7.078229131e-05
7.206464113e-05
7.322180845e-05
7.412670688e-05
7.464705495e-05
7.01123709e-05
7.079244394e-05
7.175084228e-05
7.290602397e-05
7.416254767e-05
7.541302869e-05
7.654082659e-05
7.742244839e-05
7.792938699e-05
7.353512766e-05
7.419752001e-05
7.513061725e-05
7.625471312e-05
7.747671734e-05
7.869215987e-05
7.978784087e-05
8.064410916e-05
8.113646869e-05
7.689214159e-05
7.753519847e-05
7.844072411e-05
7.953109397e-05
8.071582667e-05
8.189361484e-05
8.295492257e-05
8.378413738e-05
8.426096099e-05
8.017389048e-05
8.079625922e-05
8.167236461e-05
8.272687026e-05
8.387211673e-05
8.50101595e-05
8.603530128e-05
8.683611769e-05
8.729664868e-05
8.33721396e-05
8.397275304e-05
8.481798728e-05
8.583496243e-05
8.693901136e-05
8.803570769e-05
8.90233226e-05
8.979472548e-05
9.023839295e-05
8.647991029e-05
8.705796701e-05
8.78712487e-05
8.884946424e-05
8.991106935e-05
9.096526955e-05
9.191439319e-05
9.265566979e-05
9.308207313e-05
8.949143043e-05
9.004637293e-05
9.08269591e-05
9.176558548e-05
9.278392429e-05
9.379488887e-05
9.470491648e-05
9.541562788e-05
9.582452062e-05
9.240207083e-05
9.293356242e-05
9.368101603e-05
9.457958397e-05
9.555421525e-05
9.652157283e-05
9.739222167e-05
9.807217382e-05
9.846344739e-05
9.520827121e-05
9.571617243e-05
9.64303292e-05
9.728869007e-05
9.821951107e-05
9.914321638e-05
9.997448848e-05
0.0001006237037
0.0001009973713
9.790745882e-05
9.839180403e-05
9.907273974e-05
9.989102646e-05
0.000100778231
0.0001016585239
0.0001024506699
0.0001030693591
0.0001034255405
0.0001004979629
0.0001009589375
0.0001016069362
0.0001023855255
0.0001032295639
0.00010406693
0.0001048204144
0.000105408951
0.0001057478573
0.0001029789271
0.0001034168459
0.0001040323697
0.0001047718465
0.0001055733868
0.0001063685209
0.0001070839899
0.0001076428848
0.000107964805
0.0001053502226
0.0001057655093
0.00010634917
0.0001070502935
0.000107810187
0.0001085639581
0.0001092422092
0.0001097720882
0.0001100773763
0.0001076123624
0.0001080055307
0.0001085580638
0.0001092217373
0.0001099409849
0.000110654405
0.0001112963598
0.0001117979426
0.0001120870058
0.0001097664196
0.0001101380563
0.0001106602969
0.0001112875392
0.0001119672623
0.0001126414581
0.0001132481367
0.0001137222181
0.0001139955063
0.0001118139496
0.0001121646987
0.0001126575602
0.0001132494807
0.0001138908944
0.0001145270811
0.0001150995807
0.0001155470133
0.0001158050095
0.0001137569173
0.0001140874663
0.0001145519214
0.0001151096973
0.000115714087
0.0001163135459
0.0001168530202
0.0001172746999
0.0001175179119
0.0001155976296
0.0001159086973
0.0001163457609
0.0001168706178
0.0001174393182
0.0001180033767
0.0001185110188
0.0001189078715
0.0001191368245
0.000117338674
0.0001176309998
0.0001180417144
0.0001185349091
0.000119069286
0.0001195993005
0.0001200763281
0.0001204492978
0.0001206645278
0.0001189828624
0.0001192571972
0.0001196426203
0.0001201054259
0.000120606861
0.0001211042016
0.0001215518435
0.0001219018832
0.0001221039317
0.0001205331807
0.000120790279
0.0001211514724
0.0001215851657
0.0001220550434
0.0001225210815
0.0001229405673
0.0001232686302
0.0001234580392
0.0001219927443
0.0001222333578
0.0001225713785
0.0001229772295
0.0001234169257
0.0001238530235
0.0001242455736
0.0001245526061
0.0001247299142
0.0001233647587
0.0001235896306
0.0001239055232
0.0001242847864
0.0001246956592
0.0001251031607
0.0001254699793
0.0001257569153
0.0001259226545
0.0001246524844
0.0001248623451
0.0001251571359
0.0001255110431
0.0001258944255
0.0001262746495
0.0001266169179
0.000126884674
0.0001270393668
0.0001258592075
0.000126054771
0.0001263294627
0.0001266592174
0.0001270164113
0.0001273706455
0.0001276895173
0.0001279389889
0.0001280831462
0.0001269882136
0.0001271701747
0.000127425743
0.0001277325156
0.0001280647872
0.0001283942837
0.0001286908809
0.0001289229391
0.0001290570584
0.0001280427663
0.0001282117983
0.0001284491887
0.0001287341134
0.0001290426893
0.0001293486615
0.0001296240715
0.0001298395609
0.000129964125
0.0001290260885
0.0001291828418
0.0001294029675
0.0001296671397
0.0001299532046
0.0001302368244
0.0001304920976
0.0001306918347
0.0001308073107
0.0001299413474
0.0001300864483
0.0001302901888
0.0001305346633
0.0001307993583
0.0001310617545
0.0001312979031
0.0001314826749
0.0001315895135
0.0001307916418
0.0001309256921
0.0001311138921
0.0001313396823
0.0001315841036
0.000131826361
0.0001320443578
0.0001322149214
0.0001323135562
0.0001315799927
0.000131703569
0.0001318770383
0.0001320851154
0.0001323103139
0.0001325334725
0.000132734251
0.0001328913328
0.0001329821804
0.0001323093351
0.000132422989
0.000132582502
0.0001327737953
0.0001329807766
0.0001331858319
0.0001333702857
0.0001335145818
0.0001335980416
0.000132982512
0.0001330867702
0.0001332330666
0.0001334084637
0.0001335981884
0.0001337860918
0.0001339550751
0.0001340872511
0.0001341637055
0.0001336022706
0.0001336976352
0.0001338314203
0.0001339917677
0.0001341651522
0.0001343368114
0.0001344911398
0.0001346118317
0.0001346816459
0.0001341712589
0.0001342582082
0.0001343801537
0.0001345262577
0.000134684175
0.0001348404553
0.0001349809062
0.0001350907205
0.0001351542435
0.0001346920243
0.0001347710132
0.0001348817581
0.0001350143858
0.000135157667
0.000135299392
0.000135426706
0.0001355262207
0.0001355837851
0.0001351670131
0.0001352384738
0.0001353386255
0.0001354585063
0.0001355879414
0.0001357158945
0.0001358307763
0.0001359205417
0.0001359724642
0.0001355985704
0.0001356629134
0.0001357530486
0.0001358608752
0.0001359772149
0.0001360921406
0.0001361952602
0.0001362757995
0.0001363223818
0.0001359889411
0.0001360465559
0.0001361272221
0.0001362236519
0.0001363276089
0.0001364302144
0.0001365222081
0.0001365940189
0.0001366355477
0.0001363402719
0.0001363915278
0.000136463244
0.0001365489007
0.0001366411512
0.0001367321075
0.0001368135797
0.0001368771346
0.0001369138824
0.0001366546127
0.0001366998597
0.000136763118
0.0001368385929
0.000136919778
0.0001369997218
0.000137071246
0.0001371269935
0.0001371592191
0.0001369339192
0.0001369734889
0.0001370287554
0.0001370946088
0.0001371653365
0.0001372348713
0.0001372969913
0.0001373453571
0.0001373733064
0.0001371800559
0.000137214262
0.0001372619781
0.0001373187408
0.0001373795869
0.0001374392849
0.0001374925164
0.0001375339043
0.0001375578104
0.0001373947978
0.0001374239376
0.0001374645213
0.0001375126959
0.0001375642059
0.000137614609
0.0001376594409
0.0001376942337
0.0001377143177
0.0001375798348
0.0001376041894
0.0001376380362
0.0001376780986
0.000137720789
0.0001377624108
0.0001377993062
0.0001378278666
0.0001378443383
0.0001377367735
0.0001377566091
0.0001377840935
0.000137816494
0.0001378508539
0.0001378841806
0.0001379135781
0.00013793625
0.0001379493083
0.0001378671415
0.0001378827098
0.000137904186
0.0001379293509
0.0001379558433
0.0001379813352
0.0001380036503
0.0001380207595
0.0001380305928
0.0001379723897
0.000137983929
0.0001379997322
0.0001380180647
0.0001380371277
0.0001380552207
0.000138070847
0.000138082702
0.0001380894888
0.0001380538961
0.0001380616316
0.0001380720789
0.0001380839609
0.0001380960092
0.0001381071158
0.0001381164258
0.0001381233189
0.0001381272284
0.0001381129686
0.0001381171136
0.000138122505
0.0001381282974
0.0001381337235
0.0001381382344
0.0001381415807
0.0001381437886
0.0001381449811
0.0001381508484
0.0001381516045
0.0001381522238
0.0001381522684
0.0001381514436
0.0001381497284
0.0001381474451
0.0001381452299
0.0001381438571
0.000138168713
0.0001381662708
0.0001381623866
0.0001381570067
0.0001381502826
0.000138142691
0.0001381350943
0.0001381287042
0.0001381249098
0.000138167679
0.0001381622191
0.0001381540853
0.0001381435869
0.0001381312959
0.0001381181593
0.0001381055483
0.0001380952183
0.0001380891386
0.0001381488053
0.0001381404983
0.0001381283554
0.0001381130279
0.0001380954848
0.0001380771166
0.0001380597747
0.0001380457273
0.0001380374912
0.0001381130957
0.0001381021032
0.0001380861786
0.0001380662959
0.0001380437987
0.0001380204954
0.000137998691
0.0001379811368
0.0001379708665
0.0001380615018
0.0001380479766
0.0001380284854
0.0001380043067
0.0001379771374
0.0001379491801
0.0001379231669
0.0001379023056
0.0001378901166
0.0001379949253
0.000137979012
0.0001379561581
0.0001379279288
0.0001378963541
0.0001378640086
0.0001378340273
0.0001378100476
0.0001377960496
0.0001379142211
0.0001378960565
0.0001378700325
0.0001378379848
0.0001378022575
0.0001377657756
0.0001377320537
0.0001377051347
0.0001376894314
0.0001378201989
0.0001377999127
0.000137770901
0.0001377352549
0.0001376956141
0.0001376552341
0.0001376179874
0.0001375882984
0.0001375709881
0.0001377136263
0.000137691341
0.0001376595144
0.000137620478
0.0001375771503
0.000137533098
0.0001374925306
0.0001374602323
0.000137441408
0.0001375952305
0.0001375710623
0.0001375365844
0.0001374943548
0.0001374475546
0.0001374000438
0.0001373563492
0.0001373215936
0.0001373013437
0.0001374657007
0.0001374397595
0.0001374027853
0.0001373575491
0.0001373074797
0.0001372567129
0.0001372100744
0.0001371730055
0.0001371514136
0.00013732569
0.00013729808
0.0001372587561
0.0001372106903
0.0001371575442
0.0001371037133
0.0001370543044
0.0001370150589
0.0001369922041
0.0001371758174
0.0001371466372
0.0001371051027
0.0001370543749
0.0001369983344
0.0001369416213
0.0001368896068
0.000136848314
0.0001368242716
0.0001370166697
0.0001369860128
0.0001369423995
0.0001368891684
0.0001368304066
0.0001367709836
0.0001367165195
0.0001366733022
0.0001366481433
0.000136848803
0.0001368167582
0.0001367711909
0.0001367156073
0.000136654288
0.0001365923188
0.0001365355531
0.0001364905278
0.00013646432
0.0001366727451
0.0001366393963
0.0001365919936
0.0001365342003
0.0001364704791
0.0001364061188
0.0001363471921
0.0001363004692
0.0001362732767
0.0001364889963
0.0001364544235
0.0001364052978
0.0001363454304
0.0001362794551
0.000136212851
0.0001361518966
0.0001361035812
0.0001360754649
0.000136298032
0.0001362623109
0.0001362115691
0.0001361497564
0.0001360816673
0.0001360129595
0.0001359501042
0.000135900296
0.0001358713139
0.0001361003035
0.0001360635062
0.0001360112498
0.0001359476145
0.000135877545
0.0001358068667
0.0001357422314
0.0001356910254
0.0001356612327
0.0001358962403
0.0001358584353
0.0001358047612
0.0001357394198
0.0001356674972
0.0001355949754
0.000135528675
0.0001354761618
0.0001354456111
0.0001356862514
0.0001356475042
0.0001355925045
0.0001355255685
0.0001354519142
0.0001353776701
0.0001353098146
0.0001352560808
0.0001352248225
0.0001354707272
0.0001354311004
0.0001353748634
0.0001353064393
0.0001352311694
0.0001351553192
0.0001350860139
0.0001350311426
0.0001349992249
0.0001352500414
0.0001352095949
0.0001351522053
0.0001350823954
0.0001350056216
0.0001349282769
0.0001348576232
0.0001348016943
0.0001347691636
0.0001350245531
0.0001349833447
0.000134924884
0.0001348537869
0.000134775617
0.0001346968856
0.0001346249815
0.0001345680724
0.0001345349739
0.0001347946089
0.0001347526946
0.0001346932419
0.0001346209533
0.0001345414919
0.0001344614787
0.0001343884196
0.0001343306057
0.0001342969832
0.0001345605457
0.00013451798
0.0001344576125
0.0001343842259
0.0001343035755
0.0001342223833
0.000134148263
0.0001340896184
0.0001340555153
0.0001343226935
0.0001342795301
0.0001342183239
0.0001341439316
0.0001340621934
0.0001339799241
0.0001339048355
0.000133845434
0.0001338108933
0.0001340813787
0.0001340376712
0.000133975702
0.0001339003962
0.0001338176715
0.0001337344272
0.0001336584639
0.0001335983797
0.0001335634448
0.0001338369283
0.0001337927305
0.0001337300749
0.0001336539488
0.0001335703404
0.000133486225
0.0001334094823
0.0001333487913
0.0001333135069
0.0001335896742
0.0001335450413
0.0001334817777
0.0001334049271
0.0001333205408
0.0001332356617
0.0001331582383
0.0001330970195
0.0001330614318
0.0001333399583
0.0001332949476
0.0001332311578
0.0001331536826
0.0001330686293
0.0001329830992
0.0001329050993
0.0001328434361
0.0001328075942
0.0001330881383
0.0001330428103
0.0001329785808
0.0001329005873
0.000132814985
0.0001327289243
0.0001326504595
0.0001325884414
0.0001325523982
0.0001328345941
0.000132789014
0.0001327244378
0.0001326460403
0.0001325600168
0.000132473556
0.0001323947475
0.0001323324723
0.0001322962855
0.0001325797349
0.0001325339736
0.0001324691522
0.000132390476
0.000132304171
0.0001322174536
0.000132138435
0.0001320760103
0.0001320397438
0.0001323240069
0.0001322781423
0.0001322131878
0.0001321343712
0.0001320479396
0.0001319611249
0.0001318820446
0.0001318195906
0.0001317833156
0.0001320679003
0.0001320220194
0.0001319570565
0.0001318782537
0.0001317918682
0.0001317051341
0.0001316261585
0.0001315638097
0.000131527606
0.0001318119578
0.0001317661577
0.0001317013259
0.0001316227094
0.0001315365639
0.0001314501099
0.0001313714255
0.0001313093332
0.0001312732907
0.0001315567815
0.0001315111709
0.0001314466266
0.0001313683899
0.0001312827016
0.0001311967515
0.0001311185678
0.0001310569014
0.000131021121
0.000131303039
0.0001312577396
0.0001311936578
0.0001311160175
0.0001310310293
0.0001309458336
0.0001308683845
0.0001308073337
0.0001307719278
0.0001310514686
0.0001310066161
0.0001309431916
0.0001308663888
0.0001307823711
0.000130698208
0.0001306217535
0.0001305615285
0.000130526622
0.0001308028815
0.000130758626
0.0001306960744
0.0001306203754
0.0001305376265
0.0001304548025
0.0001303796286
0.0001303204603
0.00013028619
0.0001305581614
0.0001305146676
0.0001304532249
0.0001303789207
0.0001302977661
0.0001302166152
0.0001301430325
0.0001300851714
0.0001300516856
0.0001303182604
0.0001302757064
0.0001302156278
0.0001301430327
0.0001300638228
0.0001299847034
0.0001299130445
0.0001298567581
0.0001298242147
0.00013008419
0.000130042766
0.0001299843233
0.0001299137709