/*--------------------------------*- C++ -*----------------------------------*\
| =========                 |                                                 |
| \\      /  F ield         | OpenFOAM: The Open Source CFD Toolbox           |
|  \\    /   O peration     | Version:  2212                                  |
|   \\  /    A nd           | Website:  www.openfoam.com                      |
|    \\/     M anipulation  |                                                 |
\*---------------------------------------------------------------------------*/
FoamFile
{
    version     2.0;
    format      ascii;
    arch        "LSB;label=32;scalar=64";
    class       volScalarField;
    location    "18.25000000";
    object      C4H2_0;
}
// * * * * * * * * * * * * * * * * * * * * * * * * * * * * * * * * * * * * * //

dimensions      [0 0 0 0 0 0 0];

internalField   nonuniform List<scalar> 
3000
(
2.835443619e-21
3.185180755e-21
3.712926622e-21
4.416186767e-21
5.287809865e-21
6.304125883e-21
7.403907445e-21
8.453304755e-21
9.195353823e-21
1.064520291e-20
1.20064289e-20
1.405960524e-20
1.68016857e-20
2.022993676e-20
2.432535032e-20
2.901684659e-20
3.406761044e-20
3.854177593e-20
2.384345418e-20
2.710336547e-20
3.206730554e-20
3.880709963e-20
4.74438998e-20
5.810296328e-20
7.074233403e-20
8.465240644e-20
9.654076019e-20
4.541225236e-20
5.216153223e-20
6.258944259e-20
7.704863627e-20
9.605117683e-20
1.200797407e-19
1.490030808e-19
1.805056792e-19
2.059323914e-19
8.063273336e-20
9.375259261e-20
1.143423218e-19
1.434473099e-19
1.824359276e-19
2.324003562e-19
2.925054441e-19
3.563331576e-19
4.053284378e-19
1.386382327e-19
1.632591978e-19
2.024521141e-19
2.587170679e-19
3.350540567e-19
4.333824386e-19
5.507642353e-19
6.723960884e-19
7.62380259e-19
2.353283055e-19
2.805484294e-19
3.533710724e-19
4.590950672e-19
6.036050409e-19
7.897710835e-19
1.009891052e-18
1.233530526e-18
1.394895661e-18
3.982026723e-19
4.800297119e-19
6.129771879e-19
8.074857547e-19
1.074399823e-18
1.417558221e-18
1.819741471e-18
2.222408862e-18
2.5081059e-18
6.749103491e-19
8.214173111e-19
1.060994307e-18
1.413286174e-18
1.897582802e-18
2.518534226e-18
3.241059121e-18
3.95693476e-18
4.459255608e-18
1.14796594e-18
1.408223871e-18
1.835766544e-18
2.466498719e-18
3.334113801e-18
4.443645891e-18
5.72753921e-18
6.990308979e-18
7.869808992e-18
1.960373897e-18
2.420007774e-18
3.177489927e-18
4.297249954e-18
5.83764272e-18
7.803178022e-18
1.006827047e-17
1.228473064e-17
1.382075954e-17
3.360059358e-18
4.168280423e-18
5.503186588e-18
7.47908032e-18
1.019673237e-17
1.365836322e-17
1.763567134e-17
2.151371077e-17
2.419203385e-17
5.777057152e-18
7.193687545e-18
9.53707763e-18
1.300857192e-17
1.778214343e-17
2.385440803e-17
3.08162904e-17
3.758745753e-17
4.225282277e-17
9.957506203e-18
1.24347274e-17
1.653697762e-17
2.261736411e-17
3.097650319e-17
4.159929569e-17
5.375958712e-17
6.556554307e-17
7.368682555e-17
1.719620703e-17
2.152061839e-17
2.868731193e-17
3.931380071e-17
5.392010041e-17
7.246815465e-17
9.367561898e-17
1.142225047e-16
1.283695687e-16
2.97400243e-17
3.727926496e-17
4.978069165e-17
6.832207644e-17
9.380363108e-17
1.261424495e-16
1.630488169e-16
1.980116771e-16
2.234088378e-16
5.148757072e-17
6.461817798e-17
8.639961519e-17
1.187099621e-16
1.631083197e-16
2.194347843e-16
2.837870218e-16
3.468592191e-16
3.88735092e-16
8.920344327e-17
1.120532901e-16
1.499674166e-16
2.062141265e-16
2.834933426e-16
3.814965294e-16
4.933381934e-16
6.015627617e-16
6.7570021e-16
1.546269205e-16
1.943647226e-16
2.603124597e-16
3.581525617e-16
4.925616455e-16
6.62966052e-16
8.573503073e-16
1.045319156e-15
1.174110624e-15
2.681342969e-16
3.372097377e-16
4.51859362e-16
6.219572233e-16
8.556061397e-16
1.15175936e-15
1.489481842e-15
1.815942044e-15
2.039551171e-15
4.650984573e-16
5.851328739e-16
7.843784166e-16
1.079985067e-15
1.485993324e-15
2.000513518e-15
2.58710029e-15
3.153962536e-15
3.542151392e-15
8.069301819e-16
1.015472451e-15
1.361645668e-15
1.875223158e-15
2.580527947e-15
3.47416343e-15
4.492715141e-15
5.476760158e-15
6.150494678e-15
1.400244073e-15
1.762499719e-15
2.363829956e-15
3.255893223e-15
4.48079792e-15
6.032434076e-15
7.800485988e-15
9.508152342e-15
1.06770184e-14
2.430112426e-15
3.05929748e-15
4.103668625e-15
5.652793477e-15
7.779500482e-15
1.047275471e-14
1.354065413e-14
1.650275981e-14
1.852963537e-14
4.217744996e-15
5.310397651e-15
7.123884154e-15
9.813360512e-15
1.350460571e-14
1.817754594e-14
2.349831321e-14
2.863336284e-14
3.214571379e-14
7.320450759e-15
9.217650124e-15
1.236593191e-14
1.7033747e-14
2.343787127e-14
3.154141545e-14
4.076339412e-14
4.965841643e-14
5.573934658e-14
1.270466344e-14
1.599803654e-14
2.146186128e-14
2.955988463e-14
4.06646746e-14
5.470757084e-14
7.067719627e-14
8.606896473e-14
9.658376505e-14
2.204500793e-14
2.776002909e-14
3.723827937e-14
5.127924101e-14
7.052087877e-14
9.483355715e-14
1.224558492e-13
1.490518433e-13
1.672033161e-13
3.824019263e-14
4.815247947e-14
6.458441944e-14
8.891063267e-14
1.222182677e-13
1.642589037e-13
2.119632612e-13
2.578344295e-13
2.891011773e-13
6.63007585e-14
8.348039737e-14
1.119428795e-13
1.540436394e-13
2.116237373e-13
2.842003904e-13
3.664229297e-13
4.45350469e-13
4.990600147e-13
1.148721382e-13
1.44617204e-13
1.938601042e-13
2.666193754e-13
3.659880067e-13
4.910164656e-13
6.323742176e-13
7.677717875e-13
8.597139762e-13
1.988383686e-13
2.502690206e-13
3.353303342e-13
4.608407525e-13
6.319441768e-13
8.467565463e-13
1.089007856e-12
1.320414673e-12
1.477137597e-12
3.437546973e-13
4.325209576e-13
5.791548511e-13
7.951470341e-13
1.088943879e-12
1.456788459e-12
1.870326478e-12
2.264039763e-12
2.529827683e-12
5.933577879e-13
7.46210069e-13
9.983328658e-13
1.368929307e-12
1.87164827e-12
2.498992346e-12
3.201614131e-12
3.867888545e-12
4.31594854e-12
1.022222016e-12
1.284668681e-12
1.716778407e-12
2.350319109e-12
3.206907374e-12
4.271631603e-12
5.458811941e-12
6.579313874e-12
7.329459641e-12
1.756960676e-12
2.205987901e-12
2.9436872e-12
4.021975247e-12
5.474226537e-12
7.270998526e-12
9.264069422e-12
1.113508403e-11
1.23812848e-11
3.011508004e-12
3.776503087e-12
5.030057523e-12
6.855792888e-12
9.303574442e-12
1.231589224e-11
1.563763633e-11
1.873707688e-11
2.078974585e-11
5.145413533e-12
6.442207921e-12
8.560781805e-12
1.163353258e-11
1.573178759e-11
2.074475352e-11
2.623628368e-11
3.13260968e-11
3.467607326e-11
8.75941228e-12
1.094500722e-11
1.450320768e-11
1.963945222e-11
2.644971085e-11
3.472399445e-11
4.372283074e-11
5.200326405e-11
5.74172988e-11
1.485080042e-11
1.85101982e-11
2.444430037e-11
3.296442199e-11
4.418800829e-11
5.772428099e-11
7.233180697e-11
8.567067069e-11
9.433213815e-11
2.506378712e-11
3.114585515e-11
4.096517165e-11
5.498050186e-11
7.331223888e-11
9.524740091e-11
1.187251488e-10
1.399943068e-10
1.537082373e-10
4.208904536e-11
5.211601891e-11
6.822604965e-11
9.107302139e-11
1.207300128e-10
1.559228568e-10
1.93272394e-10
2.268361656e-10
2.483250678e-10
7.02949686e-11
8.6680696e-11
1.128698651e-10
1.497572005e-10
1.972585483e-10
2.531445959e-10
3.119466431e-10
3.64363828e-10
3.976909061e-10
1.167144891e-10
1.432406404e-10
1.854027712e-10
2.443629208e-10
3.196648822e-10
4.074900503e-10
4.991068819e-10
5.801314407e-10
6.313017261e-10
1.925708641e-10
2.350890946e-10
3.022808662e-10
3.955507556e-10
5.136804276e-10
6.50263777e-10
7.915477299e-10
9.155450569e-10
9.93354046e-10
3.156104039e-10
3.830632983e-10
4.890319612e-10
6.35033444e-10
8.184161894e-10
1.028647188e-09
1.244351008e-09
1.432290366e-09
1.549515878e-09
5.136287158e-10
6.195152399e-10
7.84879948e-10
1.01103137e-09
1.292777811e-09
1.613128661e-09
1.939285627e-09
2.221528973e-09
2.396597749e-09
8.297415863e-10
9.941966148e-10
1.249531239e-09
1.596203911e-09
2.024718186e-09
2.508154086e-09
2.996794527e-09
3.416983708e-09
3.676293655e-09
1.330177828e-09
1.582894145e-09
1.973046386e-09
2.49909132e-09
3.144492557e-09
3.867302419e-09
4.593008581e-09
5.213465696e-09
5.594612697e-09
2.115679833e-09
2.499980427e-09
3.090079604e-09
3.880500833e-09
4.843526483e-09
5.914787052e-09
6.983774604e-09
7.892989147e-09
8.449241654e-09
3.338014203e-09
3.916490338e-09
4.800254817e-09
5.976808909e-09
7.401105991e-09
8.975750468e-09
1.053842224e-08
1.18614176e-08
1.266793178e-08
5.223651484e-09
6.085929539e-09
7.397099184e-09
9.132874181e-09
1.122189686e-08
1.35187024e-08
1.578698115e-08
1.769967457e-08
1.886214872e-08
8.107404733e-09
9.380811424e-09
1.130874921e-08
1.384802234e-08
1.688819281e-08
2.02145751e-08
2.348588611e-08
2.623505512e-08
2.790178766e-08
1.247888021e-08
1.434285285e-08
1.715395106e-08
2.083971404e-08
2.523244307e-08
3.00186685e-08
3.470904409e-08
3.863997466e-08
4.101868287e-08
1.904761354e-08
2.175341818e-08
2.58201845e-08
3.113136099e-08
3.74365428e-08
4.428248744e-08
5.097218803e-08
5.656710518e-08
5.994855758e-08
2.883208007e-08
3.272934481e-08
3.85696264e-08
4.617145065e-08
5.516651517e-08
6.490545113e-08
7.440157806e-08
8.233281731e-08
8.712381523e-08
4.327990358e-08
4.885209139e-08
5.718159209e-08
6.799321152e-08
8.07526362e-08
9.453751245e-08
1.079591964e-07
1.191620514e-07
1.259309576e-07
6.442792734e-08
7.233926638e-08
8.414110627e-08
9.942528387e-08
1.174263768e-07
1.368450028e-07
1.557375927e-07
1.715083879e-07
1.810466968e-07
9.511202278e-08
1.062687658e-07
1.228843222e-07
1.443646724e-07
1.696259703e-07
1.968518897e-07
2.233366791e-07
2.454614479e-07
2.58864576e-07
1.392373867e-07
1.548664237e-07
1.781118312e-07
2.081230277e-07
2.433813709e-07
2.81366503e-07
3.183313405e-07
3.492490002e-07
3.680183015e-07
2.021202226e-07
2.238678351e-07
2.561800104e-07
2.978554427e-07
3.467861935e-07
3.994989748e-07
4.50832131e-07
4.938329386e-07
5.199986234e-07
2.90910602e-07
3.209632842e-07
3.655778346e-07
4.230768344e-07
4.905583386e-07
5.632667472e-07
6.341314321e-07
6.935867348e-07
7.298481497e-07
4.151032963e-07
4.563308602e-07
5.174914342e-07
5.962641514e-07
6.886822324e-07
7.882747428e-07
8.854149811e-07
9.670283396e-07
1.016904332e-06
5.871377452e-07
6.432562411e-07
7.264506975e-07
8.335330232e-07
9.591143251e-07
1.094444131e-06
1.226505172e-06
1.33756877e-06
1.405547265e-06
8.230795913e-07
8.988280126e-07
1.011041466e-06
1.155365588e-06
1.324520797e-06
1.506750707e-06
1.684590094e-06
1.834225155e-06
1.925898393e-06
1.143364403e-06
1.244685084e-06
1.39465411e-06
1.587353361e-06
1.81300408e-06
2.055922861e-06
2.292883193e-06
2.492240088e-06
2.61441087e-06
1.573570273e-06
1.707779015e-06
1.906226107e-06
2.160907084e-06
2.458764924e-06
2.779042087e-06
3.091154659e-06
3.353548344e-06
3.514293418e-06
2.145171811e-06
2.321100912e-06
2.580924851e-06
2.913876736e-06
3.302641467e-06
3.719987647e-06
4.126078262e-06
4.467037905e-06
4.675717374e-06
2.896216271e-06
3.124312603e-06
3.460709755e-06
3.891021364e-06
4.392467469e-06
4.92967217e-06
5.451346468e-06
5.888564291e-06
6.155770133e-06
3.87185592e-06
4.16421748e-06
4.594711756e-06
5.14427152e-06
5.783199311e-06
6.466026323e-06
7.127521242e-06
7.680693814e-06
8.018135796e-06
5.124671403e-06
5.495009471e-06
6.039374626e-06
6.732737012e-06
7.536774816e-06
8.39370711e-06
9.221606224e-06
9.912170572e-06
1.033250312e-05
6.714729724e-06
7.178249469e-06
7.85831596e-06
8.722428728e-06
9.721685064e-06
1.078352364e-05
1.180634563e-05
1.265712127e-05
1.317371968e-05
8.709336964e-06
9.282536263e-06
1.012188473e-05
1.118568334e-05
1.24122608e-05
1.371159426e-05
1.495927407e-05
1.599402945e-05
1.662072758e-05
1.118246799e-05
1.188286137e-05
1.290641461e-05
1.420030146e-05
1.568769541e-05
1.725826722e-05
1.876155755e-05
2.000452446e-05
2.07553283e-05
1.421388022e-05
1.505966122e-05
1.629319507e-05
1.784843036e-05
1.963084452e-05
2.150685221e-05
2.329667777e-05
2.477204011e-05
2.566083251e-05
1.788794277e-05
1.889760284e-05
2.036720234e-05
2.221523981e-05
2.432685582e-05
2.654222002e-05
2.86490193e-05
3.038040294e-05
3.14206547e-05
2.229223301e-05
2.348415786e-05
2.521564835e-05
2.738745152e-05
2.986169108e-05
3.244933208e-05
3.490241975e-05
3.691241045e-05
3.811691613e-05
2.751596768e-05
2.890803258e-05
3.092641546e-05
3.345178912e-05
3.632060448e-05
3.931175871e-05
4.213873294e-05
4.444843027e-05
4.58290471e-05
3.364834412e-05
3.525752831e-05
3.7586449e-05
4.049341737e-05
4.378664203e-05
4.721024846e-05
5.043646852e-05
5.306509419e-05
5.463256084e-05
4.07768686e-05
4.261890624e-05
4.52801773e-05
4.859443471e-05
5.23392184e-05
5.622139335e-05
5.986953234e-05
6.283414322e-05
6.459790848e-05
4.898574364e-05
5.107482493e-05
5.408802109e-05
5.783247335e-05
6.20528147e-05
6.641641888e-05
7.050615157e-05
7.382139417e-05
7.578949832e-05
5.835437659e-05
6.070290674e-05
6.408503586e-05
6.827942019e-05
7.299582057e-05
7.786018448e-05
8.240793589e-05
8.608588891e-05
8.826488901e-05
6.89560518e-05
7.157445076e-05
7.53397284e-05
8.000039909e-05
8.522962819e-05
9.061033484e-05
9.562913728e-05
9.967922829e-05
0.0001020741629
8.085680065e-05
8.375342918e-05
8.79131361e-05
9.305289715e-05
9.880786305e-05
0.000104716658
0.000110216102
0.0001146450903
0.0001172594806
9.411456587e-05
9.72956493e-05
0.000101858069
0.0001074861245
0.0001137758471
0.0001202206455
0.0001262069105
0.0001310189294
0.0001338548117
0.0001087785316
0.0001122481626
0.0001172185944
0.0001233405887
0.0001301702672
0.0001371552429
0.0001436311979
0.0001488278463
0.0001518858311
0.0001248887105
0.0001286489028
0.0001340297464
0.0001406478792
0.0001480190339
0.0001555447785
0.0001625101393
0.0001680906145
0.0001713699669
0.000142475763
0.0001465265441
0.0001523174368
0.000159430639
0.0001673413147
0.0001754050519
0.0001828565842
0.0001888178461
0.0001923165818
0.0001615610139
0.0001659005495
0.0001720985468
0.000179702704
0.0001881477216
0.0001967435638
0.0002046753194
0.0002110122769
0.0002147272699
0.0001821566468
0.0001867813895
0.0001933811764
0.000201469388
0.0002104406288
0.0002195598633
0.0002279634387
0.000234669152
0.0002385962498
0.0002042660465
0.000209170901
0.0002161650254
0.0002247278864
0.000234214599
0.0002438459916
0.0002527108001
0.0002597766907
0.000263910833
0.0002278842645
0.0002330627622
0.0002404418804
0.0002494677754
0.0002594568929
0.0002695870004
0.0002789005497
0.0002863166126
0.000290651951
0.0002529985779
0.0002584430555
0.0002661961824
0.0002756715837
0.0002861480431
0.0002967615254
0.0003065096926
0.000314264707
0.0003187947224
0.0002795891172
0.0002852908948
0.0002934056514
0.0003033154134
0.00031426247
0.0003253423956
0.0003355096961
0.0003435914293
0.0003483090463
0.0003076295401
0.0003135790941
0.0003220419487
0.0003323695931
0.0003437691231
0.0003552972628
0.0003658671077
0.0003742625102
0.0003791602056
0.0003370877311
0.0003432748598
0.0003520713576
0.000362799344
0.0003746321327
0.000386589238
0.0003975441766
0.0004062395659
0.0004113094711
0.0003679265083
0.0003743404877
0.0003834554665
0.0003945654476
0.0004068114579
0.00041917752
0.0004304994667
0.0004394806983
0.0004447146943
0.0004001043251
0.0004067340531
0.0004161518432
0.0004276248993
0.0004402635207
0.00045301801
0.0004646884523
0.0004739410767
0.0004793308813
0.0004335759521
0.0004404100812
0.0004501146885
0.0004619315427
0.0004749418174
0.0004880639014
0.0005000640891
0.0005095734947
0.0005151107421
0.0004682931335
0.0004753201897
0.0004852954608
0.0004974366728
0.0005107975002
0.0005242662393
0.0005365773551
0.0005463288962
0.0005520052082
0.0005042052071
0.0005114136974
0.0005216434673
0.0005340896061
0.0005477799246
0.0005615744464
0.0005741777567
0.0005841568676
0.0005899639166
0.0005412596863
0.0005486381929
0.0005591064147
0.0005718382111
0.0005858371577
0.0005999368103
0.0006128137982
0.0006230060926
0.0006289356572
0.0005794027986
0.0005869400607
0.0005976309191
0.0006106293979
0.0006249164472
0.0006393009316
0.0006524334116
0.000662824769
0.0006688687818
0.0006185799789
0.0006262649636
0.0006371629718
0.000650409565
0.000664964648
0.0006796141313
0.0006929843468
0.000703560986
0.0007097115744
0.0006587363175
0.0006665582794
0.0006776483611
0.0006911250036
0.0007059286068
0.0007208238173
0.0007344145226
0.0007451630628
0.0007514125832
0.0006998169624
0.000707765493
0.0007190330498
0.0007327222579
0.0007477555058
0.0007628778105
0.0007766723378
0.0007875798488
0.000793920914
0.0007417674769
0.0007498325441
0.0007612635107
0.0007751484453
0.0007903931656
0.0008057246326
0.0008197069449
0.0008307609865
0.0008371864881
0.0007845341533
0.0007927061329
0.0008042870191
0.0008183515347
0.0008337903094
0.000849313755
0.000863468487
0.0008746571396
0.0008811602644
0.0008280642853
0.0008363339842
0.0008480519066
0.0008622805876
0.0008778967897
0.0008935958134
0.0009079083003
0.0009192201861
0.0009257944283
0.0008723064011
0.0008806650735
0.000892507777
0.0009068859622
0.0009226637805
0.0009385227876
0.0009529790843
0.0009644033813
0.0009710425499
0.000917210459
0.0009256498159
0.000937605687
0.0009521194837
0.0009680439367
0.0009840481504
0.0009986350413
0.00101016149
0.001016859713
0.0009627280084
0.0009712402219
0.0009832982933
0.0009979345826
0.001013991523
0.001030126987
0.001044831988
0.001056450894
0.001063202618
0.001008812319
0.001017390021
0.001029539971
0.001044286404
0.001060462514
0.00107671609
0.001091527443
0.001103229669
0.001110029658
0.001055418482
0.00106405476
0.001076286901
0.001091131892
0.001107414673
0.001123774025
0.001138680687
0.001150457648
0.001157300977
0.001102503479
0.001111191867
0.00112349714
0.001138429846
0.0011548076
0.001171261179
0.001186252807
0.001198096456
0.001204978507
0.001150026238
0.001158760703
0.001171130654
0.001186140958
0.001202602767
0.00121913979
0.001234206719
0.001246109534
0.001253025983
0.001197947653
0.001206722584
0.001219149348
0.001234227835
0.001250763532
0.001267373954
0.001282507176
0.001294462136
0.001301408947
0.0012462306
0.00125504079
0.001267517066
0.001282654993
0.001299255136
0.001315929619
0.001331120756
0.001343121329
0.00135009474
0.001294839925
0.001303680553
0.00131619958
0.00133138885
0.001348044686
0.001364774572
0.001380015849
0.001392055965
0.001399052479
0.001343742423
0.001352609035
0.001365164568
0.001380397694
0.00139710113
0.001413878406
0.001429162618
0.001441236651
0.00144825302
0.001392906801
0.001401795294
0.001414381573
0.00142965165
0.001446395215
0.001463212478
0.001478532968
0.001490635708
0.001497668925
0.001442303638
0.001451210237
0.001463821964
0.001479122634
0.001495899445
0.00151274987
0.00152810049
0.001540227127
0.001547274408
0.001491905331
0.001500826569
0.001513458875
0.001528784298
0.001545588024
0.001562465328
0.001577840417
0.001589986511
0.001597045287
0.001541686031
0.001550618732
0.001563267155
0.001578611969
0.001595436799
0.00161233521
0.001627729558
0.001639891022
0.001646958923
0.001591621582
0.00160056284
0.001613223296
0.001628582592
0.001645423199
0.00166233742
0.001677746242
0.001689919317
0.00169699416
0.001641689451
0.001650636613
0.001663305368
0.001678674658
0.001695526166
0.001712451345
0.001727870253
0.001740051486
0.001747131266
0.001691868659
0.001700819303
0.001713492952
0.001728868136
0.00174572609
0.001762657787
0.001778082762
0.001790268988
0.001797351863
0.001742139702
0.001751091625
0.001763767065
0.001779144407
0.00179600474
0.0018129389
0.001828366266
0.001840554586
0.001847638865
0.001792484484
0.00180143568
0.001814110089
0.001829486186
0.001846345193
0.001863278115
0.001878704514
0.001890892278
0.001897976416
0.001842886235
0.001851834886
0.001864505699
0.001879877458
0.001896731768
0.001913660082
0.001929082451
0.001941267237
0.001948349817
0.001893329449
0.001902273904
0.001914938795
0.001930303407
0.001947149954
0.001964070593
0.001979486143
0.001991665742
0.001998745473
0.0019437998
0.001952738567
0.001965395427
0.001980750346
0.001997586348
0.002014496526
0.002029902718
0.002042075118
0.002049150823
0.001994284081
0.002003215809
0.002015862733
0.002031205652
0.002048028589
0.002064925776
0.002080320304
0.002092483676
0.00209955428
0.002044770132
0.002053693602
0.002066328866
0.002081657702
0.002098465292
0.002115347198
0.00213072797
0.002142880651
0.002149945177
0.002095246775
0.002104160887
0.002116782939
0.002132095808
0.00214888599
0.002165750541
0.002181115663
0.002193256145
0.002200313707
0.002145703749
0.002154607515
0.002167214955
0.002182510162
0.002199281074
0.002216126399
0.002231474156
0.002243601073
0.002250650868
0.002196131652
0.002205024184
0.002217615753
0.002232891773
0.00224964174
0.00226646615
0.002281794994
0.002293907113
0.002300948412
0.002246521879
0.002255402381
0.002267976953
0.002283232415
0.002299959931
0.002316761906
0.002332070443
0.002344166649
0.002351198795
0.002296866573
0.002305734331
0.002318290896
0.002333524571
0.002350228285
0.002367006461
0.002382293438
0.002394372728
0.002401395128
0.002347158573
0.00235601295
0.002368550604
0.002383761394
0.002400440096
0.002417193249
0.002432457539
0.002444519013
0.002451531133
0.002397391361
0.002406231791
0.002418749728
0.002433936653
0.002450589261
0.002467316297
0.002482556892
0.00249459974
0.002501601101
0.00244755902
0.002456384998
0.002468882502
0.002484044688
0.002500670239
0.002517370181
0.002532586181
0.002544609681
0.002551599854
0.002497656182
0.002506467262
0.002518943699
0.002534080372
0.002550678011
0.002567349989
0.002582540592
0.002594544099
0.002601522703
0.002547677996
0.002556473783
0.002568928592
0.002584039068
0.002600608037
0.002617251284
0.002632415779
0.002644398721
0.002651365413
0.002597620081
0.00260640023
0.002618832919
0.002633916596
0.002650456228
0.002667070065
0.002682207823
0.002694169694
0.002701124174
0.002647478499
0.002656242708
0.002668652846
0.002683709195
0.002700218906
0.002716802737
0.002731913207
0.00274385356
0.002750795561
0.002697249716
0.002705997721
0.002718384933
0.002733413497
0.002749892776
0.002766446081
0.002781528779
0.002793447224
0.002800376513
0.002746930573
0.002755662147
0.002768026109
0.00278302649
0.002799474897
0.002815997224
0.00283105173
0.002842947926
0.002849864299
0.002796518254
0.002805233204
0.002817573639
0.002832545496
0.002848962651
0.002865453612
0.002880479564
0.002892353217
0.002899256498
0.002846010263
0.002854708425
0.002867025098
0.002881968143
0.002898353722
0.002914812986
0.002929810073
0.002941660932
0.002948550969
0.002895404398
0.002904085635
0.00291637835
0.002931292338
0.00294764607
0.002964073355
0.002979041317
0.002990869169
0.002997745833
0.002944698724
0.002953362922
0.002965631516
0.002980516247
0.002996837906
0.003013232983
0.003028171602
0.003039976269
0.003046839454
0.002993891551
0.00300253862
0.003014782962
0.003029638275
0.00304592768
0.00306229036
0.00307719946
0.003088980797
0.003095830414
0.003042981417
0.003051611286
0.003063831275
0.003078657044
0.003094914053
0.003111244189
0.003126123629
0.00313788152
0.003144717498
0.003091967067
0.003100579685
0.003112775246
0.003127571377
0.003143795884
0.003160093364
0.003174943037
0.003186677392
0.003193499676
0.00314084744
0.003149442771
0.003161613853
0.003176380282
0.003192572212
0.003208836956
0.003223656786
0.003235367541
0.00324217609
0.003189621646
0.003198199671
0.003210346245
0.003225082933
0.00324124224
0.003257474201
0.003272264138
0.003283951249
0.003290746036
0.003238288958
0.003246849671
0.003258971725
0.003273678658
0.003289805326
0.003306004479
0.0033207645
0.003332427945
0.003339208953
0.003286848793
0.003295392199
0.003307489743
0.003322166928
0.00333826096
0.003354427309
0.003369157411
0.003380797185
0.00338756441
0.003335300701
0.003343826819
0.003355899875
0.003370547339
0.003386608762
0.00340274233
0.003417442532
0.003429058648
0.003435812095
0.003383644354
0.003392153211
0.003404201817
0.003418819604
0.003434848465
0.003450949296
0.003465619635
0.003477212119
0.003483951802
0.003431879535
0.003440371165
0.003452395372
0.003466983543
0.003482979905
0.003499048059
0.003513688589
0.003525257481
0.003531983421
0.003480006122
0.003488480572
0.003500480441
0.003515039069
0.003531003011
0.003547038567
0.003561649355
0.003573194706
0.003579906933
0.003528024089
0.003536481409
0.003548457012
0.003562986182
0.003578917797
0.003594920845
0.003609501974
0.003621023847
0.003627722395
0.003575933485
0.003584373733
0.003596325151
0.003610824961
0.003626724353
0.003642694997
0.003657246556
0.003668745022
0.003675429932
0.003623734436
0.003632157673
0.003644084995
0.003658555549
0.003674422833
0.003690361186
0.003704883279
0.003716358417
0.003723029733
0.003671427126
0.003679833421
0.00369173674
0.003706178153
0.003722013452
0.003737919635
0.003752412371
0.003763864266
0.003770522037
0.003719011798
0.003727401221
0.003739280637
0.003753693028
0.00376949647
0.003785370613
0.003799834107
0.003811262849
0.003817907127
0.00376648874
0.003774861364
0.003786716979
0.003801100471
0.003816872192
0.003832714427
0.003847148799
0.00385855448
0.003865185319
0.003813858279
0.003822214177
0.003834046096
0.003848400815
0.00386414095
0.003879951412
0.003894356783
0.003905739499
0.003912356952
0.003861120766
0.003869460015
0.003881268342
0.003895594413
0.003911303098
0.003927081922
0.003941458412
0.003952818256
0.003959422377
0.003908276575
0.003916599246
0.003928384084
0.00394268163
0.003958358997
0.003974106313
0.00398845404
0.003999791102
0.004006381943
0.003955326083
0.003963632246
0.003975393692
0.00398966283
0.004005309004
0.004021024935
0.004035344006
0.004046658371
0.004053235979
0.004002269656
0.004010559376
0.00402229752
0.004036538356
0.004052153451
0.004067838106
0.004082128618
0.004093420359
0.004099984775
0.004049107637
0.00405738097
0.00406909589
0.004083308514
0.004098892624
0.004114546093
0.004128808125
0.004140077299
0.004146628555
0.004095840317
0.004104097307
0.004115789062
0.004129973543
0.004145526738
0.004161149085
0.004175382686
0.004186629329
0.004193167444
0.004142467911
0.004150708586
0.004162377213
0.004176533588
0.004192055901
0.00420764715
0.004221852336
0.004233076453
0.004239601427
0.004188990523
0.004197214887
0.004208860387
0.004222988652
0.004238480067
0.004254040193
0.004268216928
0.004279418484
0.00428593029
0.004235408093
0.004243616122
0.004255238453
0.004269338546
0.004284798983
0.004300327889
0.004314476071
0.004325654975
0.004332153557
0.004281720347
0.004289911974
0.004301511034
0.004315582817
0.004331012109
0.004346509607
0.004360629047
0.004371785134
0.004378270388
0.004327926712
0.004336101815
0.004347677423
0.004361720661
0.004377118525
0.004392584306
0.004406674698
0.004417807708
0.004424279474
0.004374026221
0.004382184609
0.00439373648
0.004407750804
0.004423116808
0.004438550404
0.00445261129
0.004463720836
0.004470178877
0.004420017388
0.004428158776
0.00443968649
0.004453671362
0.004469004876
0.004484405612
0.004498436336
0.004509521868
0.004515965849
0.004465898047
0.004474022032
0.004485524991
0.004499479651
0.004514779793
0.004530146726
0.004544146376
0.004555207134
0.004561636591
0.00451166516
0.00451977118
0.004531248564
0.004545171967
0.004560437527
0.004575769372
0.004589736708
0.00460077166
0.004607185968
0.004557314568
0.004565401864
0.004576852562
0.004590743298
0.00460597265
0.004621267684
0.004635201049
0.00464620882
0.004652607148
0.004602840696
0.004610908258
0.00462233079
0.00463618699
0.004651377984
0.004666633929
0.004680531141
0.004691509923
0.004697891176
0.004648236197
0.004656282697
0.004667675126
0.004681494342
0.004696644165
0.004711858054
0.004725716273
0.004736663717
0.004743026477
0.004693491531
0.004701515247
0.004712875062
0.004726654128
0.00474175915
0.004756927159
0.004770742729
0.004781655819
0.004787998268
0.004738594473
0.004746593196
0.004757917182
0.004771652051
0.004786707638
0.004801824891
0.004815593164
0.004826468067
0.004832787897
0.004783529553
0.004791500487
0.004802784571
0.004816470122
0.004831470423
0.004846530778
0.004860245901
0.004871077801
0.004877372114
0.004828277436
0.00483621707
0.004847456152
0.004861085982
0.004876023689
0.004891019483
0.004904674172
0.00491545708
0.004921722277
0.004872814234
0.004880718215
0.004891905976
0.004905472162
0.004920338246
0.00493526003
0.004948845313
0.004959571865
0.004965803528
0.004917110781
0.004924973772
0.004936102468
0.004949595315
0.004964378748
0.004979214998
0.004992719952
0.005003381195
0.005009573954
0.004961131889
0.004968947414
0.004980007666
0.004993415446
0.005008102908
0.005022839729
0.005036251207
0.005046836381
0.005052983795
0.005004835601
0.005012595899
0.005023576476
0.005036885166
0.005051460759
0.005066081596
0.005079383963
0.005089880293
0.00509597472
0.005048172499
0.005055868376
0.005066755988
0.005079949023
0.005094393998
0.00510887937
0.005122054259
0.005132446764
0.005138479258
0.005091085093
0.005098705792
0.005109484905
0.005122542955
0.005136835482
0.005151162749
0.005164188863
0.005174460204
0.005180420425
0.005133507345
0.005141040439
0.005151693137
0.005164593939
0.005178708918
0.005192852115
0.005205705087
0.005215835467
0.00522171163
0.005175364368
0.005182795695
0.005193301587
0.005206019852
0.005219928839
0.0052338586
0.005246510929
0.005256478063
0.005262256925
0.005216572413
0.005223886054
0.005234222251
0.005246729657
0.00526040087
0.00527408447
0.005286505591
0.005296284757
0.005301951661
0.005257039145
0.005264217462
0.005274358655
0.005286623948
0.00530002241
0.005313423936
0.005325580401
0.005335144622
0.005340683604
0.005296664278
0.005303688036
0.005313606668
0.005325595906
0.005338683735
0.005351764416
0.005363620231
0.005372940562
0.005378334538
0.00533534062
0.005342189182
0.005351855749
0.005363532686
0.005376269563
0.005388988274
0.005400505393
0.005409551342
0.005414782367
0.00537295554
0.005379607155
0.005388990632
0.005400317268
0.005412661072
0.005424975018
0.005436114014
0.005444854104
0.005449903715
0.005409392874
0.005415825059
0.005424893455
0.005435830743
0.005447738367
0.005459603953
0.005470324847
0.005478727305
0.005483576936
0.005444535242
0.00545072525
0.005459446296
0.005469955
0.005481383336
0.005492757195
0.005503020436
0.005511053998
0.005515685472
0.005478266741
0.00548419211
0.00549253405
0.005502575739
0.0055134828
0.005524322961
0.00553409053
0.005541725342
0.005546121401
0.005510475924
0.005516115091
0.005524047563
0.005533585703
0.005543931852
0.005554199003
0.005563435592
0.005570644162
0.005574789039
0.005541058961
0.005546391914
0.00555388689
0.005562887995
0.005572637222
0.005582296021