/*--------------------------------*- C++ -*----------------------------------*\
| =========                 |                                                 |
| \\      /  F ield         | OpenFOAM: The Open Source CFD Toolbox           |
|  \\    /   O peration     | Version:  2212                                  |
|   \\  /    A nd           | Website:  www.openfoam.com                      |
|    \\/     M anipulation  |                                                 |
\*---------------------------------------------------------------------------*/
FoamFile
{
    version     2.0;
    format      ascii;
    arch        "LSB;label=32;scalar=64";
    class       volScalarField;
    location    "18.25000000";
    object      C4H612;
}
// * * * * * * * * * * * * * * * * * * * * * * * * * * * * * * * * * * * * * //

dimensions      [0 0 0 0 0 0 0];

internalField   nonuniform List<scalar> 
3000
(
2.280216735e-23
2.561470051e-23
2.985875307e-23
3.551426505e-23
4.25237267e-23
5.069678728e-23
5.954106564e-23
6.798016194e-23
7.394761035e-23
8.560702215e-23
9.655379597e-23
1.130651303e-22
1.35116528e-22
1.626860069e-22
1.956207067e-22
2.333490143e-22
2.739664974e-22
3.099470623e-22
1.917453305e-22
2.179610461e-22
2.578803052e-22
3.120807165e-22
3.815365673e-22
4.672551579e-22
5.688990842e-22
6.807618035e-22
7.763661647e-22
3.651983374e-22
4.194750352e-22
5.033347307e-22
6.196134082e-22
7.724290085e-22
9.656631472e-22
1.198260355e-21
1.451599584e-21
1.656077442e-21
6.484361711e-22
7.539441326e-22
9.195236869e-22
1.153581706e-21
1.467122431e-21
1.868929035e-21
2.352285358e-21
2.865578517e-21
3.259591434e-21
1.114907824e-21
1.312906022e-21
1.628089736e-21
2.080564317e-21
2.694455331e-21
3.485198006e-21
4.429165564e-21
5.407311539e-21
6.130951435e-21
1.892475325e-21
2.25612906e-21
2.841758327e-21
3.691975634e-21
4.854104375e-21
6.351225475e-21
8.121399449e-21
9.919876983e-21
1.121755309e-20
3.20228774e-21
3.860329297e-21
4.929474336e-21
6.493685274e-21
8.640171536e-21
1.139980463e-20
1.463410803e-20
1.787230533e-20
2.016984311e-20
5.427532309e-21
6.605721378e-21
8.532367321e-21
1.136545164e-20
1.526010157e-20
2.025371259e-20
2.60641657e-20
3.182114769e-20
3.586074996e-20
9.231781419e-21
1.132474197e-20
1.476298561e-20
1.983525493e-20
2.681250947e-20
3.573523431e-20
4.606015501e-20
5.621520601e-20
6.328804776e-20
1.576506052e-20
1.94613805e-20
2.555296261e-20
3.455794508e-20
4.694561472e-20
6.275224241e-20
8.096788584e-20
9.879244078e-20
1.111450394e-19
2.702115626e-20
3.35207802e-20
4.425595309e-20
6.014589069e-20
8.200099013e-20
1.098391159e-19
1.418242901e-19
1.730111658e-19
1.945500294e-19
4.645836011e-20
5.785075708e-20
7.669607442e-20
1.046135226e-19
1.430021967e-19
1.918348949e-19
2.478218544e-19
3.022750652e-19
3.39793668e-19
8.007702813e-20
9.999860022e-20
1.329885248e-19
1.818864926e-19
2.491100697e-19
3.345378158e-19
4.323297021e-19
5.272702111e-19
5.925831916e-19
1.382897628e-19
1.730662479e-19
2.307001248e-19
3.161574232e-19
4.336200605e-19
5.827811979e-19
7.533192125e-19
9.184943057e-19
1.03232366e-18
2.39165504e-19
2.997952464e-19
4.003303781e-19
5.494382337e-19
7.543576306e-19
1.014411012e-18
1.311062051e-18
1.592745813e-18
1.796459983e-18
4.14056301e-19
5.196510169e-19
6.948146293e-19
9.546504123e-19
1.311696931e-18
1.764678292e-18
2.282327843e-18
2.788996809e-18
3.12631903e-18
7.173620936e-19
9.011175083e-19
1.206017789e-18
1.6583461e-18
2.279814781e-18
3.067943791e-18
3.967376355e-18
4.837792659e-18
5.433902115e-18
1.24348859e-18
1.563054523e-18
2.093397069e-18
2.880213444e-18
3.961112249e-18
5.331480254e-18
6.894691669e-18
8.406315493e-18
9.442033023e-18
2.156299232e-18
2.71179437e-18
3.633790731e-18
5.001694028e-18
6.880665979e-18
9.262288821e-18
1.197820607e-17
1.460355401e-17
1.640178764e-17
3.740257996e-18
4.705558226e-18
6.307863395e-18
8.685091289e-18
1.195015369e-17
1.608785424e-17
2.080510451e-17
2.53637331e-17
2.848549485e-17
6.489222022e-18
8.166290333e-18
1.095016785e-17
1.50802876e-17
2.075225207e-17
2.793874632e-17
3.612979999e-17
4.40433557e-17
4.94614368e-17
1.126057138e-17
1.417378173e-17
1.900959724e-17
2.618344808e-17
3.603396426e-17
4.851201033e-17
6.273044248e-17
7.646326231e-17
8.586312365e-17
1.954263217e-17
2.460245243e-17
3.300114253e-17
4.545899305e-17
6.256168044e-17
8.422046334e-17
1.088920918e-16
1.327129415e-16
1.490127981e-16
3.39185294e-17
4.270549288e-17
5.728930377e-17
7.891770551e-17
1.086021956e-16
1.461813431e-16
1.889702273e-16
2.302655955e-16
2.585114423e-16
5.887006576e-17
7.412708408e-17
9.944513651e-17
1.369830683e-16
1.884841616e-16
2.536517578e-16
3.278136515e-16
3.993462068e-16
4.482482167e-16
1.021691695e-16
1.286540264e-16
1.725933592e-16
2.377165577e-16
3.270197629e-16
4.399508176e-16
5.683763656e-16
6.921548667e-16
7.767134554e-16
1.772829455e-16
2.232423657e-16
2.994651607e-16
4.123806579e-16
5.671192825e-16
7.626385238e-16
9.847732266e-16
1.198654581e-15
1.344626248e-15
3.075224123e-16
3.8723567e-16
5.193790887e-16
7.150071759e-16
9.828626314e-16
1.320947688e-15
1.704579622e-15
2.073469298e-15
2.324912215e-15
5.331816585e-16
6.713379697e-16
9.002293677e-16
1.238797935e-15
1.701849225e-15
2.285500766e-15
2.946723208e-15
3.581447712e-15
4.013372549e-15
9.237860811e-16
1.162991843e-15
1.558996529e-15
2.144116662e-15
2.943225639e-15
3.948687449e-15
5.085467208e-15
6.174315999e-15
6.913702536e-15
1.599031096e-15
2.012629386e-15
2.69668087e-15
3.706018536e-15
5.082008938e-15
6.809500716e-15
8.757652708e-15
1.061859478e-14
1.187893916e-14
2.764428579e-15
3.478274745e-15
4.657484527e-15
6.394464213e-15
8.757138379e-15
1.171529433e-14
1.504091068e-14
1.820709924e-14
2.034452944e-14
4.771702983e-15
6.00092021e-15
8.028457381e-15
1.100874344e-14
1.50515408e-14
2.009655629e-14
2.574694485e-14
3.110503282e-14
3.470827018e-14
8.220571759e-15
1.033113212e-14
1.380609967e-14
1.890094764e-14
2.578951363e-14
3.435188057e-14
4.389902278e-14
5.290994636e-14
5.894251618e-14
1.412924317e-14
1.774025906e-14
2.367273635e-14
3.234418178e-14
4.402298835e-14
5.847238307e-14
7.450038661e-14
8.954683009e-14
9.956860614e-14
2.421815119e-14
3.037013775e-14
4.045105181e-14
5.513336636e-14
7.481809058e-14
9.904273716e-14
1.257557469e-13
1.506810218e-13
1.671883034e-13
4.13787557e-14
5.180740029e-14
6.884468287e-14
9.3555324e-14
1.265129271e-13
1.66826507e-13
2.109886323e-13
2.519202038e-13
2.7886025e-13
7.044211864e-14
8.801837741e-14
1.166329402e-13
1.57937912e-13
2.127050669e-13
2.792456991e-13
3.516130765e-13
4.182031551e-13
4.6174206e-13
1.194284532e-13
1.488568366e-13
1.965780746e-13
2.650957089e-13
3.553542069e-13
4.642109785e-13
5.816825972e-13
6.889518079e-13
7.586060746e-13
2.015605283e-13
2.504717034e-13
3.294372962e-13
4.421466007e-13
5.895677696e-13
7.659670889e-13
9.547715992e-13
1.125814937e-12
1.236100282e-12
3.384771064e-13
4.191126932e-13
5.486673221e-13
7.323993405e-13
9.70896347e-13
1.253911632e-12
1.554270545e-12
1.824184869e-12
1.99699508e-12
5.653102547e-13
6.970821227e-13
9.07691715e-13
1.204334009e-12
1.586332002e-12
2.035757785e-12
2.508633074e-12
2.930162251e-12
3.198172363e-12
9.386234573e-13
1.151943361e-12
1.491005058e-12
1.965152743e-12
2.570716973e-12
3.276988854e-12
4.013751234e-12
4.665332267e-12
5.076832019e-12
1.548687783e-12
1.890614144e-12
2.430960017e-12
3.181018702e-12
4.130990652e-12
5.229358352e-12
6.365523502e-12
7.36267277e-12
7.988389195e-12
2.538257091e-12
3.080705509e-12
3.932887703e-12
5.106997869e-12
6.581707537e-12
8.272310414e-12
1.000691376e-11
1.151824131e-11
1.2460918e-11
4.130966022e-12
4.982494844e-12
6.312326287e-12
8.130968077e-12
1.039665595e-11
1.297275028e-11
1.559550638e-11
1.786512059e-11
1.927290547e-11
6.673819475e-12
7.996354859e-12
1.004969805e-11
1.283749563e-11
1.628334305e-11
2.017074364e-11
2.409991664e-11
2.747862524e-11
2.956370585e-11
1.070011206e-11
1.273245164e-11
1.586994719e-11
2.010008411e-11
2.528978589e-11
3.110168532e-11
3.693665457e-11
4.192524069e-11
4.498968705e-11
1.702171122e-11
2.011228903e-11
2.485766254e-11
3.12135256e-11
3.895673436e-11
4.756954698e-11
5.616347949e-11
6.347252702e-11
6.794399526e-11
2.686324062e-11
3.1515515e-11
3.862238503e-11
4.808267859e-11
5.953351403e-11
7.219137176e-11
8.475133234e-11
9.538365067e-11
1.018646463e-10
4.205571059e-11
4.899075956e-11
5.953462503e-11
7.34903967e-11
9.028265445e-11
1.087407676e-10
1.269652065e-10
1.423291048e-10
1.516648331e-10
6.531410762e-11
7.555676796e-11
9.106070805e-11
1.114747508e-10
1.359068954e-10
1.626283309e-10
1.888959015e-10
2.109608847e-10
2.243322274e-10
1.006260966e-10
1.156218205e-10
1.382294499e-10
1.678575002e-10
2.031480781e-10
2.415739705e-10
2.792017223e-10
3.107108041e-10
3.297611221e-10
1.538072806e-10
1.755831225e-10
2.08294883e-10
2.509856762e-10
3.016202513e-10
3.565375071e-10
4.101331315e-10
4.548929006e-10
4.819016978e-10
2.33280167e-10
2.646638727e-10
3.116587572e-10
3.727630713e-10
4.449668929e-10
5.230090454e-10
5.989505215e-10
6.622262532e-10
7.003456866e-10
3.511635294e-10
3.960816186e-10
4.631548584e-10
5.500818098e-10
6.52462456e-10
7.627904545e-10
8.698779116e-10
9.589305978e-10
1.012506997e-09
5.247901633e-10
5.88672866e-10
6.83830324e-10
8.068025481e-10
9.512220164e-10
1.106447802e-09
1.2567877e-09
1.381602463e-09
1.456612582e-09
7.788135601e-10
8.691439362e-10
1.003407874e-09
1.176484829e-09
1.379240766e-09
1.59667783e-09
1.806880056e-09
1.981152594e-09
2.085794615e-09
1.148121396e-09
1.275178611e-09
1.463677933e-09
1.706139839e-09
1.989562399e-09
2.292915968e-09
2.585711892e-09
2.828182304e-09
2.973675608e-09
1.681850265e-09
1.859713625e-09
2.123156027e-09
2.461371821e-09
2.855978351e-09
3.2776259e-09
3.684051955e-09
4.020305163e-09
4.221970087e-09
2.448897098e-09
2.696799435e-09
3.06345518e-09
3.533398981e-09
4.080796451e-09
4.664859564e-09
5.227198326e-09
5.692088743e-09
5.97080066e-09
3.545455727e-09
3.889604018e-09
4.397974143e-09
5.048609435e-09
5.805396919e-09
6.611870237e-09
7.38760195e-09
8.028510301e-09
8.412652692e-09
5.105282569e-09
5.581302425e-09
6.283700537e-09
7.181521493e-09
8.224524196e-09
9.334809713e-09
1.040190609e-08
1.128310112e-08
1.181118082e-08
7.313623156e-09
7.969832761e-09
8.937180002e-09
1.017228702e-08
1.160555338e-08
1.312985407e-08
1.45938467e-08
1.580230626e-08
1.652644225e-08
1.042601365e-08
1.13277925e-08
1.265601225e-08
1.435020879e-08
1.631432889e-08
1.840148819e-08
2.040486835e-08
2.205801452e-08
2.304857063e-08
1.479350878e-08
1.602910056e-08
1.784760779e-08
2.016514211e-08
2.284960026e-08
2.570013365e-08
2.843478897e-08
3.069071127e-08
3.204241196e-08
2.089628235e-08
2.258446057e-08
2.506736959e-08
2.822910498e-08
3.188855867e-08
3.577180732e-08
3.949537058e-08
4.256624468e-08
4.440618946e-08
2.938797984e-08
3.168810384e-08
3.506892049e-08
3.937089191e-08
4.43464633e-08
4.96229961e-08
5.468015868e-08
5.884970514e-08
6.134777242e-08
4.115362219e-08
4.427871048e-08
4.886941488e-08
5.470690072e-08
6.145375204e-08
6.860432348e-08
7.545432403e-08
8.110026619e-08
8.448245634e-08
5.738417595e-08
6.16177042e-08
6.783324155e-08
7.573160691e-08
8.485420037e-08
9.4516687e-08
1.037682719e-07
1.113908016e-07
1.15956084e-07
7.967097756e-08
8.538813754e-08
9.377736464e-08
1.044309515e-07
1.167273895e-07
1.297430895e-07
1.421981709e-07
1.52455342e-07
1.585964983e-07
1.101228199e-07
1.178169001e-07
1.291009075e-07
1.434210563e-07
1.59937637e-07
1.774079953e-07
1.941148787e-07
2.078655169e-07
2.160942511e-07
1.515074104e-07
1.618217074e-07
1.769400437e-07
1.961127887e-07
2.182092338e-07
2.415632751e-07
2.638795204e-07
2.822335276e-07
2.932096607e-07
2.074167932e-07
2.21181948e-07
2.413464823e-07
2.668994105e-07
2.963239324e-07
3.273952455e-07
3.570587807e-07
3.814334683e-07
3.959972679e-07
2.82452933e-07
3.007287208e-07
3.274835762e-07
3.61359616e-07
4.003309324e-07
4.414407827e-07
4.806456523e-07
5.128248535e-07
5.320303916e-07
3.824248745e-07
4.065442184e-07
4.418283223e-07
4.864617857e-07
5.377522979e-07
5.917923321e-07
6.432624406e-07
6.854526171e-07
7.105982825e-07
5.14542907e-07
5.461542725e-07
5.923606938e-07
6.507478587e-07
7.177587037e-07
7.882630187e-07
8.553138212e-07
9.101889484e-07
9.428429256e-07
6.875885769e-07
7.286911293e-07
7.887148078e-07
8.644681501e-07
9.512832842e-07
1.042475972e-06
1.129050464e-06
1.19977624e-06
1.241783363e-06
9.120332609e-07
9.649975929e-07
1.042260903e-06
1.139633583e-06
1.251037642e-06
1.367839777e-06
1.478506667e-06
1.568725672e-06
1.622196586e-06
1.200073747e-06
1.267640093e-06
1.366084693e-06
1.48995069e-06
1.631395595e-06
1.779379901e-06
1.919272387e-06
2.033049248e-06
2.100322209e-06
1.565552468e-06
1.650798328e-06
1.774833641e-06
1.930616399e-06
2.108123646e-06
2.293394218e-06
2.468091363e-06
2.609807404e-06
2.693383714e-06
2.023734789e-06
2.130011399e-06
2.284410517e-06
2.47793815e-06
2.697928664e-06
2.926937319e-06
3.142280308e-06
3.316480745e-06
3.418931587e-06
2.590929172e-06
2.721749371e-06
2.911490097e-06
3.148794754e-06
3.417851359e-06
3.69714388e-06
3.958994691e-06
4.170189441e-06
4.294037661e-06
3.283931566e-06
3.442832279e-06
3.672891705e-06
3.959948197e-06
4.284519175e-06
4.620426791e-06
4.93437668e-06
5.186805576e-06
5.33438899e-06
4.119340337e-06
4.309712308e-06
4.584821931e-06
4.927245925e-06
5.313304713e-06
5.711593702e-06
6.082640128e-06
6.380017959e-06
6.553343645e-06
5.112760622e-06
5.337661315e-06
5.662039063e-06
6.06475647e-06
6.517436222e-06
6.982940882e-06
7.415156464e-06
7.760417194e-06
7.961018179e-06
6.277947891e-06
6.539904861e-06
6.91697726e-06
7.383889656e-06
7.907121471e-06
8.443389143e-06
8.939609197e-06
9.334670379e-06
9.563476696e-06
7.625931905e-06
7.926753261e-06
8.358891654e-06
8.892564867e-06
9.488749273e-06
1.009772695e-05
1.065928202e-05
1.110484954e-05
1.136208478e-05
9.164187253e-06
9.504795119e-06
9.993088144e-06
1.059449049e-05
1.12642303e-05
1.194601984e-05
1.257253636e-05
1.306796646e-05
1.335307881e-05
1.089591524e-05
1.127621676e-05
1.182029897e-05
1.248861207e-05
1.323053006e-05
1.398323341e-05
1.467251991e-05
1.521575049e-05
1.552738424e-05
1.281949661e-05
1.323830405e-05
1.383625606e-05
1.456877518e-05
1.537943272e-05
1.619910083e-05
1.694712957e-05
1.753468661e-05
1.787069645e-05
1.492816281e-05
1.538317023e-05
1.603149958e-05
1.682363264e-05
1.769755685e-05
1.85782469e-05
1.937923265e-05
2.000631119e-05
2.036381816e-05
1.720991681e-05
1.769773575e-05
1.839144078e-05
1.923680682e-05
2.016662446e-05
2.110056102e-05
2.194713052e-05
2.26077437e-05
2.298322817e-05
1.964771437e-05
2.016396612e-05
2.089667828e-05
2.178729787e-05
2.276396564e-05
2.374179319e-05
2.462523224e-05
2.531241665e-05
2.57018411e-05
2.221989604e-05
2.275935353e-05
2.352354727e-05
2.445011053e-05
2.546322434e-05
2.647433213e-05
2.738489171e-05
2.809095403e-05
2.848990683e-05
2.490084091e-05
2.545760973e-05
2.624486452e-05
2.719705712e-05
2.823521794e-05
2.926811406e-05
3.01953541e-05
3.091214189e-05
3.131599217e-05
2.766179763e-05
2.822952332e-05
2.90308194e-05
2.999768388e-05
3.104889537e-05
3.209160501e-05
3.30247533e-05
3.374393278e-05
3.414798675e-05
3.04718375e-05
3.104392526e-05
3.184995372e-05
3.282026292e-05
3.387233565e-05
3.49127992e-05
3.584110412e-05
3.655442875e-05
3.695407876e-05
3.329886936e-05
3.386870281e-05
3.467017123e-05
3.563279181e-05
3.667373113e-05
3.770018015e-05
3.861323846e-05
3.931279477e-05
3.970365365e-05
3.611065663e-05
3.667180336e-05
3.745972061e-05
3.840394772e-05
3.94223057e-05
4.042359876e-05
4.131164367e-05
4.199006365e-05
4.236807903e-05
3.887578185e-05
3.942217614e-05
4.018810297e-05
4.11039511e-05
4.20891278e-05
4.3055033e-05
4.39091719e-05
4.455980485e-05
4.492134978e-05
4.156451334e-05
4.209060864e-05
4.282686481e-05
4.370530463e-05
4.464778896e-05
4.556920487e-05
4.638160075e-05
4.699864102e-05
4.734057948e-05
4.414953955e-05
4.465042659e-05
4.535024903e-05
4.618338469e-05
4.707493012e-05
4.7944042e-05
4.870803686e-05
4.928660687e-05
4.960633411e-05
4.660654934e-05
4.707803815e-05
4.773568838e-05
4.851687422e-05
4.935060931e-05
5.016098149e-05
5.087116358e-05
5.140735435e-05
5.170281385e-05
4.891464801e-05
4.935331467e-05
4.996413728e-05
5.068803641e-05
5.14585138e-05
5.220512278e-05
5.285734255e-05
5.334821587e-05
5.361789532e-05
5.105661025e-05
5.145981107e-05
5.202024715e-05
5.268283754e-05
5.338602798e-05
5.406524341e-05
5.465658479e-05
5.510014265e-05
5.534305245e-05
5.301897977e-05
5.338483702e-05
5.389239866e-05
5.449093416e-05
5.512417392e-05
5.573369604e-05
5.626241128e-05
5.665753901e-05
5.687317674e-05
5.479203245e-05
5.511939651e-05
5.55726094e-05
5.610554424e-05
5.666744562e-05
5.720620865e-05
5.767162511e-05
5.801801458e-05
5.820631935e-05
5.636962419e-05
5.665801753e-05
5.70563391e-05
5.752322498e-05
5.801355923e-05
5.848161022e-05
5.888401752e-05
5.918207696e-05
5.934337699e-05
5.774894704e-05
5.799849522e-05
5.834221574e-05
5.874358002e-05
5.916314224e-05
5.956150423e-05
5.990202943e-05
6.015278553e-05
6.028774225e-05
5.893021754e-05
5.91415723e-05
5.943170561e-05
5.976891882e-05
6.011938295e-05
6.04499104e-05
6.073038808e-05
6.093538549e-05
6.104493679e-05
5.991632038e-05
6.009057896e-05
6.032874903e-05
6.060388834e-05
6.088765954e-05
6.115289285e-05
6.137573575e-05
6.153693803e-05
6.162224291e-05
6.071242791e-05
6.085105251e-05
6.103938059e-05
6.125509524e-05
6.147516548e-05
6.167818985e-05
6.18462646e-05
6.196595991e-05
6.202834623e-05
6.132561363e-05
6.143035377e-05
6.157135018e-05
6.17307331e-05
6.189054447e-05
6.203485741e-05
6.215136871e-05
6.223208258e-05
6.227299906e-05
6.176447418e-05
6.183729417e-05
6.193375769e-05
6.204022672e-05
6.21435457e-05
6.22329359e-05
6.23013214e-05
6.234573812e-05
6.236671144e-05
6.20387713e-05
6.208178434e-05
6.2136711e-05
6.219390189e-05
6.224470661e-05
6.228314607e-05
6.230698337e-05
6.23178769e-05
6.232047419e-05
6.215910186e-05
6.217451167e-05
6.219101428e-05
6.22026865e-05
6.220506821e-05
6.219661846e-05
6.21795447e-05
6.21597194e-05
6.214551635e-05
6.213660149e-05
6.212665181e-05
6.210789058e-05
6.207784659e-05
6.203592548e-05
6.198465796e-05
6.193030215e-05
6.188254313e-05
6.185309747e-05
6.198268455e-05
6.194961657e-05
6.189874079e-05
6.183075841e-05
6.17486136e-05
6.165854387e-05
6.157047118e-05
6.149750391e-05
6.1454334e-05
6.170882148e-05
6.165483885e-05
6.157493916e-05
6.14727165e-05
6.135432927e-05
6.122936404e-05
6.111103153e-05
6.101548984e-05
6.096005793e-05
6.132635272e-05
6.125359369e-05
6.114766408e-05
6.101477599e-05
6.086398534e-05
6.070788135e-05
6.056260374e-05
6.044700557e-05
6.038070525e-05
6.084633746e-05
6.075685331e-05
6.062776208e-05
6.046762708e-05
6.028809613e-05
6.010442945e-05
5.993535406e-05
5.980208387e-05
5.972623115e-05
6.027943436e-05
6.017517361e-05
6.00256421e-05
5.984149837e-05
5.963669044e-05
5.942883493e-05
5.923892441e-05
5.909022139e-05
5.900604895e-05
5.963581121e-05
5.951860873e-05
5.935119683e-05
5.914608613e-05
5.891924898e-05
5.869036256e-05
5.848238427e-05
5.832033548e-05
5.822898952e-05
5.892508002e-05
5.879665025e-05
5.861374761e-05
5.839050588e-05
5.814466292e-05
5.789768031e-05
5.767420125e-05
5.750073874e-05
5.740327798e-05
5.815625398e-05
5.80181877e-05
5.782200973e-05
5.758326311e-05
5.732121024e-05
5.705884109e-05
5.682222731e-05
5.663912857e-05
5.653652499e-05
5.733772313e-05
5.719148699e-05
5.698407465e-05
5.673223998e-05
5.645654699e-05
5.618127825e-05
5.593369784e-05
5.574258878e-05
5.563572971e-05
5.647724519e-05
5.63241835e-05
5.610740618e-05
5.584469496e-05
5.555771059e-05
5.527181214e-05
5.501524101e-05
5.481760092e-05
5.470729209e-05
5.558194902e-05
5.542328725e-05
5.519884792e-05
5.492727301e-05
5.46311326e-05
5.433666546e-05
5.407289509e-05
5.387006303e-05
5.375703249e-05
5.465834777e-05
5.449519732e-05
5.426463952e-05
5.398602368e-05
5.368265888e-05
5.338148518e-05
5.31121319e-05
5.290531414e-05
5.279021652e-05
5.371235964e-05
5.354572358e-05
5.331043947e-05
5.30264254e-05
5.271757522e-05
5.241136934e-05
5.213788458e-05
5.192816263e-05
5.181158381e-05
5.274933415e-05
5.258011347e-05
5.234135284e-05
5.2053414e-05
5.174063671e-05
5.143089724e-05
5.115457824e-05
5.094291728e-05
5.08253792e-05
5.177408232e-05
5.160308261e-05
5.136196223e-05
5.107141418e-05
5.075609966e-05
5.044416163e-05
5.016616252e-05
4.99534199e-05
4.983538536e-05
5.079090934e-05
5.061884756e-05
5.037636076e-05
5.008437267e-05
4.976775484e-05
4.945480206e-05
4.917614479e-05
4.896307851e-05
4.884495593e-05
4.980364858e-05
4.963115987e-05
4.938818603e-05
4.909579207e-05
4.877896123e-05
4.846603839e-05
4.818762354e-05
4.797490047e-05
4.785704852e-05
4.881569611e-05
4.864334039e-05
4.840065428e-05
4.810876479e-05
4.779267958e-05
4.7480704e-05
4.720332115e-05
4.6991525e-05
4.687425699e-05
4.783004485e-05
4.765831329e-05
4.741659405e-05
4.71260062e-05
4.681150512e-05
4.650127802e-05
4.62256157e-05
4.601525456e-05
4.589884268e-05
4.684931801e-05
4.667863914e-05
4.643847887e-05
4.614988696e-05
4.583769928e-05
4.552991644e-05
4.525657154e-05
4.5048085e-05
4.493276419e-05
4.587580117e-05
4.570654671e-05
4.546845857e-05
4.518246361e-05
4.487321974e-05
4.456848156e-05
4.429796814e-05
4.409173398e-05
4.39777057e-05
4.491147306e-05
4.474396335e-05
4.450838913e-05
4.422550789e-05
4.391974897e-05
4.361856988e-05
4.33513274e-05
4.314766781e-05
4.303510337e-05
4.395803459e-05
4.379254364e-05
4.355986087e-05
4.328053426e-05
4.297872115e-05
4.268153822e-05
4.241793915e-05
4.221712643e-05
4.21061702e-05
4.301693628e-05
4.285369644e-05
4.262422484e-05
4.234882563e-05
4.205134707e-05
4.175852806e-05
4.149888485e-05
4.130114669e-05
4.119191893e-05
4.208940389e-05
4.192861004e-05
4.170261743e-05
4.143145725e-05
4.113863742e-05
4.085048806e-05
4.059505956e-05
4.040058382e-05
4.029318336e-05
4.117646267e-05
4.101827582e-05
4.079598329e-05
4.052931897e-05
4.024142426e-05
3.995819486e-05
3.970719207e-05
3.951613118e-05
3.941063778e-05
4.027896047e-05
4.012351043e-05
3.990509667e-05
3.964313564e-05
3.936038069e-05
3.908227209e-05
3.883586343e-05
3.86483383e-05
3.854481477e-05
3.939759005e-05
3.924497624e-05
3.903058077e-05
3.877348579e-05
3.849603878e-05
3.822320767e-05
3.798152367e-05
3.779762723e-05
3.769612142e-05
3.853290434e-05
3.838319804e-05
3.817292451e-05
3.7920818e-05
3.764880559e-05
3.738136938e-05
3.714450694e-05
3.69643074e-05
3.68648539e-05
3.768532182e-05
3.753857608e-05
3.733249636e-05
3.708546506e-05
3.681897723e-05
3.655701864e-05
3.632504506e-05
3.614858882e-05
3.605121061e-05
3.685513806e-05
3.671139325e-05
3.650955492e-05
3.626765603e-05
3.600675129e-05
3.575032296e-05
3.55232797e-05
3.535059414e-05
3.525530401e-05
3.604254331e-05
3.59018261e-05
3.570426195e-05
3.546752836e-05
3.521223855e-05
3.49613672e-05
3.473927335e-05
3.457036933e-05
3.447717127e-05
3.524764359e-05
3.510996997e-05
3.491669559e-05
3.468513968e-05
3.443547379e-05
3.419016394e-05
3.397301935e-05
3.380789354e-05
3.371678395e-05
3.447046988e-05
3.433584473e-05
3.41468645e-05
3.392047862e-05
3.367642574e-05
3.343666289e-05
3.3224451e-05
3.306308791e-05
3.29740567e-05
3.371098734e-05
3.357940436e-05
3.339470591e-05
3.317347139e-05
3.293500541e-05
3.27007594e-05
3.249344981e-05
3.233582366e-05
3.224885523e-05
3.296910608e-05
3.28405504e-05
3.266011117e-05
3.24439948e-05
3.221107552e-05
3.198230261e-05
3.177985312e-05
3.162592939e-05
3.154100343e-05
3.224468915e-05
3.211913824e-05
3.194292475e-05
3.173188299e-05
3.150445807e-05
3.128110271e-05
3.108346096e-05
3.093319761e-05
3.085028988e-05
3.153755966e-05
3.141498457e-05
3.124295487e-05
3.103693531e-05
3.081494071e-05
3.059693696e-05
3.040404186e-05
3.025739053e-05
3.017647341e-05
3.084750637e-05
3.072787221e-05
3.055997572e-05
3.035891478e-05
3.014228008e-05
2.992955434e-05
2.974133785e-05
2.959824499e-05
2.951928813e-05
3.017428967e-05
3.005755686e-05
2.989373696e-05
2.969756524e-05
2.948621048e-05
2.927868155e-05
2.909506948e-05
2.895547714e-05
2.887844786e-05
2.951764597e-05
2.940377092e-05
2.924396553e-05
2.905260721e-05
2.884644595e-05
2.864402656e-05
2.846493968e-05
2.83287863e-05
2.825365007e-05
2.887729163e-05
2.876622716e-05
2.861036912e-05
2.842374213e-05
2.822268365e-05
2.802528202e-05
2.78506372e-05
2.771785838e-05
2.764457918e-05
2.825292679e-05
2.814462273e-05
2.799264068e-05
2.781065775e-05
2.761460797e-05
2.742212879e-05
2.725183982e-05
2.712236895e-05
2.705090963e-05
2.764423892e-05
2.753864291e-05
2.739046283e-05
2.721303479e-05
2.702189456e-05
2.68342391e-05
2.666821724e-05
2.654198599e-05
2.647230852e-05
2.705090561e-05
2.69479635e-05
2.680350886e-05
2.663054319e-05
2.64442114e-05
2.626127871e-05
2.609943337e-05
2.597637215e-05
2.590843791e-05
2.647259719e-05
2.637225345e-05
2.623144585e-05
2.606284793e-05
2.588122162e-05
2.570290911e-05
2.554514845e-05
2.542518683e-05
2.535895679e-05
2.590897894e-05
2.581117706e-05
2.567393681e-05
2.550961059e-05
2.533258546e-05
2.515878947e-05
2.500502084e-05
2.48880879e-05
2.482352282e-05
2.535971301e-05
2.526439586e-05
2.513064245e-05
2.497049097e-05
2.479796192e-05
2.462857816e-05
2.447870853e-05
2.436473316e-05
2.430179376e-05
2.482446013e-05
2.473157022e-05
2.460122269e-05
2.444514858e-05
2.427701015e-05
2.411193418e-05
2.396587051e-05
2.385478169e-05
2.379342878e-05
2.430288098e-05
2.421236075e-05
2.408533806e-05
2.393324391e-05
2.376939071e-05
2.360851828e-05
2.346616784e-05
2.335789489e-05
2.329808952e-05
2.37946375e-05
2.370642948e-05
2.358265081e-05
2.343443955e-05
2.327476661e-05
2.311799404e-05
2.29792647e-05
2.287373748e-05
2.281544101e-05
2.329939392e-05
2.321344097e-05
2.309282598e-05
2.294840113e-05
2.279280422e-05
2.264002868e-05
2.250482919e-05
2.240197825e-05
2.234515249e-05
2.281681772e-05
2.273306318e-05
2.26155322e-05
2.247479818e-05
2.23231741e-05
2.217429388e-05
2.204253403e-05
2.194229082e-05
2.188689806e-05
2.234658043e-05
2.226496824e-05
2.21504425e-05
2.201330486e-05
2.186555166e-05
2.172046636e-05
2.15920572e-05
2.149435415e-05
2.144035728e-05
2.18883583e-05
2.180883315e-05
2.169723496e-05
2.156360052e-05
2.141961772e-05
2.127822846e-05
2.115308245e-05
2.10578531e-05
2.100521563e-05
2.144183293e-05
2.136434034e-05
2.12555932e-05
2.112537028e-05
2.098505903e-05
2.08472686e-05
2.072529973e-05
2.063247883e-05
2.058116494e-05
2.100669176e-05
2.09311782e-05
2.082520692e-05
2.069830545e-05
2.056156867e-05
2.042728167e-05
2.030840555e-05
2.021792911e-05
2.016790369e-05
2.058262851e-05
2.050904145e-05
2.040577228e-05
2.028210392e-05
2.014884642e-05
2.001796934e-05
1.990210331e-05
1.981390864e-05
1.97651373e-05
2.01693436e-05
2.009763156e-05
1.999699226e-05
1.987647048e-05
1.974659905e-05
1.961904036e-05
1.950610351e-05
1.942012927e-05
1.937257832e-05
1.976654441e-05
1.969665704e-05
1.959857694e-05
1.948111712e-05
1.93545406e-05
1.923021078e-05
1.912012398e-05
1.903631014e-05
1.898994663e-05
1.937394564e-05
1.930583374e-05
1.92102438e-05
1.909576326e-05
1.897239259e-05
1.885120416e-05
1.874389006e-05
1.86621779e-05
1.861696953e-05
1.899126955e-05
1.892488511e-05
1.883171795e-05
1.872013598e-05
1.85998842e-05
1.848175173e-05
1.837713471e-05
1.829746677e-05
1.825338186e-05
1.86182462e-05
1.855354243e-05
1.846273235e-05
1.835397028e-05
1.823675253e-05
1.812159259e-05
1.801959871e-05
1.794191869e-05
1.789892614e-05
1.825461372e-05
1.819154506e-05
1.810302811e-05
1.799700926e-05
1.788274279e-05
1.777047389e-05
1.767103082e-05
1.759528349e-05
1.755335265e-05
1.790011853e-05
1.783864068e-05
1.775235469e-05
1.764900468e-05
1.753760855e-05
1.742815106e-05
1.733118799e-05
1.725731909e-05
1.721641971e-05
1.755451558e-05
1.749458548e-05
1.741046993e-05
1.730971606e-05
1.720111178e-05
1.709438806e-05
1.699983565e-05
1.692779181e-05
1.688789393e-05
1.721756869e-05
1.715914458e-05
1.707714068e-05
1.697891219e-05
1.687302355e-05
1.676895784e-05
1.667674816e-05
1.660647685e-05
1.656755078e-05
1.688905099e-05
1.683209247e-05
1.67521434e-05
1.665637192e-05
1.655312459e-05
1.645164294e-05
1.636170944e-05
1.629315892e-05
1.625517521e-05
1.656874519e-05
1.651321343e-05
1.643526456e-05
1.634188443e-05
1.624120584e-05
1.614223607e-05
1.605451367e-05
1.59876331e-05
1.595056259e-05
1.625644401e-05
1.620230169e-05
1.612630045e-05
1.603524823e-05
1.593706857e-05
1.584054079e-05
1.575496619e-05
1.568970591e-05
1.565352e-05
1.595195083e-05
1.589916232e-05
1.582505844e-05
1.573627333e-05
1.564052571e-05
1.554637269e-05
1.54628848e-05
1.539919678e-05
1.536386769e-05
1.565508071e-05
1.560361234e-05
1.553135839e-05
1.544478306e-05
1.535140332e-05
1.525956074e-05
1.517810124e-05
1.511593971e-05
1.508144102e-05
1.536566156e-05
1.53154819e-05
1.524503354e-05
1.516061347e-05
1.506954124e-05
1.49799486e-05
1.490046289e-05
1.483978525e-05
1.480609263e-05
1.508353597e-05
1.503461605e-05
1.496593238e-05
1.488361616e-05
1.479479509e-05
1.470739648e-05
1.462983467e-05
1.45706027e-05
1.453769478e-05
1.480856327e-05
1.476087685e-05
1.46939205e-05
1.461365965e-05
1.452703783e-05
1.444178286e-05
1.436610115e-05
1.43082824e-05
1.427614193e-05
1.454062211e-05
1.449414593e-05
1.442888013e-05
1.435062986e-05
1.426616091e-05
1.418300616e-05
1.410916854e-05
1.405273812e-05
1.40213533e-05
1.427961201e-05
1.423432157e-05
1.417071004e-05
1.409443064e-05
1.401207541e-05
1.393098638e-05
1.385896675e-05
1.380390943e-05
1.377327543e-05
1.402544263e-05
1.398131296e-05
1.39193251e-05
1.384498452e-05
1.376471345e-05
1.368566696e-05
1.361545162e-05
1.356176414e-05
1.353188481e-05
1.377803241e-05
1.373504488e-05
1.367465827e-05
1.360223452e-05
1.352403018e-05
1.344701704e-05
1.337860737e-05
1.33263009e-05
1.329719046e-05
1.353731848e-05
1.349546157e-05
1.343666351e-05
1.336614685e-05
1.329000649e-05
1.321503423e-05
1.314844942e-05
1.309755202e-05
1.306923668e-05
1.330326034e-05
1.326253035e-05
1.320531928e-05
1.313671418e-05
1.306265214e-05
1.298974775e-05
1.292502759e-05
1.287558651e-05
1.284810589e-05
1.307584315e-05
1.303624504e-05
1.298063212e-05
1.29139595e-05
1.284200982e-05
1.27712225e-05
1.270842984e-05
1.266051357e-05
1.263392188e-05
1.28550815e-05
1.281663005e-05
1.276264098e-05
1.269794057e-05
1.262815979e-05
1.255956367e-05
1.249878689e-05
1.245248676e-05
1.242685347e-05
1.264102402e-05
1.260374532e-05
1.255142249e-05
1.248875554e-05
1.242122554e-05
1.23549225e-05
1.229627764e-05
1.225170904e-05
1.222711904e-05
1.24337593e-05
1.239769246e-05
1.234709743e-05