/*--------------------------------*- C++ -*----------------------------------*\
| =========                 |                                                 |
| \\      /  F ield         | OpenFOAM: The Open Source CFD Toolbox           |
|  \\    /   O peration     | Version:  2212                                  |
|   \\  /    A nd           | Website:  www.openfoam.com                      |
|    \\/     M anipulation  |                                                 |
\*---------------------------------------------------------------------------*/
FoamFile
{
    version     2.0;
    format      ascii;
    arch        "LSB;label=32;scalar=64";
    class       volScalarField;
    location    "18.25000000";
    object      C5H5;
}
// * * * * * * * * * * * * * * * * * * * * * * * * * * * * * * * * * * * * * //

dimensions      [0 0 0 0 0 0 0];

internalField   nonuniform List<scalar> 
3000
(
8.741899763e-23
9.820169431e-23
1.144725536e-22
1.361546696e-22
1.63027561e-22
1.943614608e-22
2.282686769e-22
2.606225049e-22
2.835005231e-22
3.282003859e-22
3.701681548e-22
4.334693498e-22
5.180100533e-22
6.237059898e-22
7.499711227e-22
8.946140007e-22
1.050333406e-21
1.188275783e-21
7.351136688e-22
8.35619545e-22
9.886620996e-22
1.196455771e-21
1.462735782e-21
1.791363924e-21
2.181046655e-21
2.609906218e-21
2.976434447e-21
1.400098203e-21
1.60818434e-21
1.929685846e-21
2.375475323e-21
2.961340141e-21
3.702161644e-21
4.593893373e-21
5.565145906e-21
6.349073597e-21
2.48597606e-21
2.890472737e-21
3.525272026e-21
4.42260421e-21
5.624657376e-21
7.165104459e-21
9.018197034e-21
1.098606151e-20
1.249662911e-20
4.274336138e-21
5.033422087e-21
6.241774126e-21
7.976472189e-21
1.033000891e-20
1.33615599e-20
1.698054474e-20
2.073056284e-20
2.350485497e-20
7.255376118e-21
8.64955259e-21
1.089473932e-20
1.41543042e-20
1.860967574e-20
2.434934161e-20
3.113583805e-20
3.803084466e-20
4.300587775e-20
1.227693762e-20
1.479973865e-20
1.889862898e-20
2.489550384e-20
3.312470683e-20
4.370459312e-20
5.61042711e-20
6.851887736e-20
7.732718144e-20
2.080808442e-20
2.532502777e-20
3.271140632e-20
4.357288971e-20
5.850420486e-20
7.764871847e-20
9.992484217e-20
1.219959678e-19
1.374830004e-19
3.539282103e-20
4.341681643e-20
5.659836001e-20
7.604443326e-20
1.027938409e-19
1.370017945e-19
1.765854874e-19
2.155179329e-19
2.426338007e-19
6.044011603e-20
7.461107231e-20
9.796498709e-20
1.324882988e-19
1.79980159e-19
2.405796223e-19
3.104147706e-19
3.787505619e-19
4.261079622e-19
1.035937501e-19
1.285120148e-19
1.696685302e-19
2.305873854e-19
3.143754798e-19
4.211013013e-19
5.437260761e-19
6.632903309e-19
7.458660326e-19
1.781121235e-19
2.217883034e-19
2.940374929e-19
4.010674196e-19
5.482419325e-19
7.35456743e-19
9.500995575e-19
1.158862284e-18
1.302701107e-18
3.069994064e-19
3.83374741e-19
5.098515297e-19
6.973165756e-19
9.550383412e-19
1.282551246e-18
1.657465791e-18
2.021448734e-18
2.27184564e-18
5.30175446e-19
6.635015544e-19
8.844583397e-19
1.212084564e-18
1.66241286e-18
2.234266874e-18
2.888075609e-18
3.521324248e-18
3.95772298e-18
9.169129674e-19
1.149355316e-18
1.53478697e-18
2.106436759e-18
2.89205687e-18
3.889049737e-18
5.026351422e-18
6.106275829e-18
6.887270472e-18
1.587409497e-18
1.992238611e-18
2.663781022e-18
3.659939678e-18
5.02878495e-18
6.765425292e-18
8.749989999e-18
1.069245325e-17
1.198568435e-17
2.750223583e-18
3.454705276e-18
4.623632285e-18
6.357769034e-18
8.740356335e-18
1.176188621e-17
1.521013175e-17
1.854713434e-17
2.083249994e-17
4.767287918e-18
5.99244013e-18
8.025667949e-18
1.104216542e-17
1.518611644e-17
2.043983482e-17
2.643287647e-17
3.222814153e-17
3.619887654e-17
8.266822322e-18
1.039648017e-17
1.39312308e-17
1.917549991e-17
2.637910457e-17
3.550977275e-17
4.592205915e-17
5.598712085e-17
6.288119078e-17
1.433940506e-17
1.804017408e-17
2.418309331e-17
3.329691208e-17
4.581451168e-17
6.167763233e-17
7.976263124e-17
9.723950614e-17
1.092077195e-16
2.487838612e-17
3.130793233e-17
4.198076479e-17
5.781482211e-17
7.956000529e-17
1.071115943e-16
1.385144641e-16
1.68853462e-16
1.896253067e-16
4.317079007e-17
5.433945886e-17
7.287901328e-17
1.003821299e-16
1.381470488e-16
1.859853945e-16
2.40496034e-16
2.931449326e-16
3.291821305e-16
7.492256302e-17
9.432090704e-17
1.265198136e-16
1.742807336e-16
2.398490338e-16
3.228844976e-16
4.174706117e-16
5.087950094e-16
5.712854162e-16
1.300368921e-16
1.637243615e-16
2.196357905e-16
3.02554779e-16
4.163592072e-16
5.60430181e-16
7.244742488e-16
8.827924737e-16
9.910814299e-16
2.256961167e-16
2.84188489e-16
3.81252864e-16
5.25165825e-16
7.226107689e-16
9.724503655e-16
1.256772309e-15
1.531013893e-15
1.718494469e-15
3.916962625e-16
4.932339339e-16
6.616885922e-16
9.113579768e-16
1.253728696e-15
1.686683889e-15
2.179041887e-15
2.653584032e-15
2.977764836e-15
6.796675284e-16
8.558667996e-16
1.148089828e-15
1.580985376e-15
2.174222473e-15
2.923804341e-15
3.775424593e-15
4.595403151e-15
5.155029477e-15
1.178979714e-15
1.484584481e-15
1.991196052e-15
2.741195211e-15
3.768099729e-15
5.064250567e-15
6.535019069e-15
7.949268692e-15
8.913250809e-15
2.044112324e-15
2.573776125e-15
3.451300192e-15
4.749304702e-15
6.524551209e-15
8.762155082e-15
1.129715036e-14
1.373055782e-14
1.53864717e-14
3.541611854e-15
4.458679128e-15
5.976882274e-15
8.22011641e-15
1.12837412e-14
1.51384817e-14
1.94966691e-14
2.36710987e-14
2.650575956e-14
6.130366604e-15
7.716020093e-15
1.033853729e-14
1.420813698e-14
1.948341029e-14
2.610626996e-14
3.3575097e-14
4.070957856e-14
4.554148807e-14
1.059826792e-14
1.333501192e-14
1.785586735e-14
2.451510156e-14
3.357312388e-14
4.491410486e-14
5.766385596e-14
6.980239261e-14
7.79968745e-14
1.829375664e-14
2.300633043e-14
3.077950382e-14
4.22053267e-14
5.770460633e-14
7.704619081e-14
9.87086552e-14
1.192504973e-13
1.330645915e-13
3.151602824e-14
3.960749541e-14
5.292982758e-14
7.246245838e-14
9.887184663e-14
1.316982544e-13
1.683000944e-13
2.028461788e-13
2.259738485e-13
5.416868584e-14
6.801259862e-14
9.075653065e-14
1.240011197e-13
1.687753312e-13
2.241714251e-13
2.856195901e-13
3.433046493e-13
3.817261361e-13
9.284751904e-14
1.164330017e-13
1.550812053e-13
2.113702573e-13
2.868375474e-13
3.797099917e-13
4.821223217e-13
5.776808321e-13
6.4096644e-13
1.586377803e-13
1.986191028e-13
2.639366137e-13
3.586722391e-13
4.850250598e-13
6.395792164e-13
8.08887919e-13
9.658113208e-13
1.069094024e-12
2.700607284e-13
3.374445397e-13
4.47146973e-13
6.055018662e-13
8.154680446e-13
1.070571347e-12
1.348013196e-12
1.60330603e-12
1.770225325e-12
4.57864092e-13
5.706864845e-13
7.536399383e-13
1.016322521e-12
1.36235512e-12
1.779689669e-12
2.230051728e-12
2.641299783e-12
2.908339834e-12
7.727409246e-13
9.602561972e-13
1.26299386e-12
1.695097889e-12
2.260279951e-12
2.936558122e-12
3.660395056e-12
4.316139186e-12
4.738949822e-12
1.29764896e-12
1.606788659e-12
2.10347355e-12
2.807862974e-12
3.722209554e-12
4.807229426e-12
5.958740611e-12
6.993533315e-12
7.656049643e-12
2.167275272e-12
2.672459705e-12
3.479890593e-12
4.617151727e-12
6.081647312e-12
7.804645264e-12
9.617542198e-12
1.123358847e-11
1.226107694e-11
3.59846769e-12
4.416287267e-12
5.716171732e-12
7.533944044e-12
9.855535532e-12
1.25632143e-11
1.538778337e-11
1.788578458e-11
1.946337118e-11
5.937295249e-12
7.248157489e-12
9.319710788e-12
1.21952494e-11
1.5837202e-11
2.004806055e-11
2.440381725e-11
2.822661632e-11
3.062543809e-11
9.731019575e-12
1.181062294e-11
1.507766087e-11
1.957887876e-11
2.523250336e-11
3.171378764e-11
3.836373906e-11
4.415770038e-11
4.777161978e-11
1.583694655e-11
1.910145601e-11
2.419962954e-11
3.117174102e-11
3.985766556e-11
4.973355508e-11
5.978828879e-11
6.848916043e-11
7.388606951e-11
2.558527543e-11
3.065542578e-11
3.852722844e-11
4.921464078e-11
6.242472435e-11
7.73274785e-11
9.239027887e-11
1.053427439e-10
1.133359636e-10
4.102021218e-11
4.881137902e-11
6.083922976e-11
7.705573861e-11
9.695068051e-11
1.192306719e-10
1.415989012e-10
1.607223549e-10
1.72469622e-10
6.525352072e-11
7.710125397e-11
9.529256874e-11
1.196575113e-10
1.493405272e-10
1.823567434e-10
2.153001644e-10
2.433178055e-10
2.604579741e-10
1.029784069e-10
1.208122639e-10
1.480553109e-10
1.843195028e-10
2.282135186e-10
2.767336309e-10
3.248776333e-10
3.656319411e-10
3.904735103e-10
1.612106468e-10
1.877937883e-10
2.282097588e-10
2.817033457e-10
3.460683681e-10
4.16817219e-10
4.866687598e-10
5.455547549e-10
5.813353381e-10
2.503501935e-10
2.896087926e-10
3.490324242e-10
4.272742625e-10
5.209144661e-10
6.233260707e-10
7.239951594e-10
8.085552264e-10
8.597966851e-10
3.856659264e-10
4.431353831e-10
5.297752567e-10
6.433171613e-10
7.785554114e-10
9.258036345e-10
1.06998784e-09
1.190721047e-09
1.263712693e-09
5.894134234e-10
6.728517829e-10
7.981903099e-10
9.617593085e-10
1.155757072e-09
1.366153503e-09
1.571475981e-09
1.742938957e-09
1.846396109e-09
8.938000994e-10
1.014020309e-09
1.194035089e-09
1.428084757e-09
1.704632383e-09
2.003520267e-09
2.294339846e-09
2.536634422e-09
2.682586918e-09
1.345122013e-09
1.517119708e-09
1.773937538e-09
2.106746623e-09
2.498682017e-09
2.92099051e-09
3.330837791e-09
3.671608955e-09
3.876592373e-09
2.009510121e-09
2.253987172e-09
2.618116416e-09
3.088617415e-09
3.641080308e-09
4.234754177e-09
4.809596232e-09
5.286706489e-09
5.573357206e-09
2.980872225e-09
3.32628707e-09
3.83961832e-09
4.501193467e-09
5.275984969e-09
6.10657292e-09
6.909181294e-09
7.574297706e-09
7.973500615e-09
4.391804e-09
4.877117043e-09
5.596935898e-09
6.522486304e-09
7.603885604e-09
8.76066707e-09
9.876469384e-09
1.07998912e-08
1.135368029e-08
6.428464568e-09
7.106792662e-09
8.111117317e-09
9.399804903e-09
1.090231687e-08
1.250649128e-08
1.405142366e-08
1.532856921e-08
1.609401885e-08
9.350671657e-09
1.029413073e-08
1.168879146e-08
1.347500168e-08
1.555369424e-08
1.776934212e-08
1.99003579e-08
2.166041969e-08
2.271482307e-08
1.351881743e-08
1.482494081e-08
1.675298684e-08
1.921827475e-08
2.208258105e-08
2.51312755e-08
2.806030072e-08
3.047770852e-08
3.192542964e-08
1.942974943e-08
2.123002195e-08
2.388424326e-08
2.727322701e-08
3.120525075e-08
3.53853546e-08
3.939767038e-08
4.27071756e-08
4.468865953e-08
2.776446667e-08
3.023562979e-08
3.387510458e-08
3.851638679e-08
4.389490507e-08
4.960681905e-08
5.508508954e-08
5.960146276e-08
6.230498494e-08
3.94509603e-08
4.282977848e-08
4.780142604e-08
5.41347751e-08
6.146638032e-08
6.924527027e-08
7.670064991e-08
8.284413325e-08
8.652094165e-08
5.574563132e-08
6.034788206e-08
6.71141541e-08
7.572540065e-08
8.568443777e-08
9.624214374e-08
1.063540187e-07
1.146827385e-07
1.196662622e-07
7.833674746e-08
8.458129551e-08
9.375525008e-08
1.05420424e-07
1.188994152e-07
1.331772116e-07
1.468430424e-07
1.580934735e-07
1.648231689e-07
1.094730683e-07
1.179118153e-07
1.303006863e-07
1.460407174e-07
1.642126254e-07
1.834460792e-07
2.018423414e-07
2.169784561e-07
2.260285416e-07
1.521193942e-07
1.634735962e-07
1.801314653e-07
2.012780256e-07
2.256708007e-07
2.514669154e-07
2.761210066e-07
2.963917128e-07
3.085043627e-07
2.101379652e-07
2.253406799e-07
2.476297594e-07
2.759013832e-07
3.084834416e-07
3.429082199e-07
3.757790882e-07
4.027816943e-07
4.189030704e-07
2.88489747e-07
3.0873297e-07
3.383911671e-07
3.7597632e-07
4.192485946e-07
4.649197952e-07
5.084816491e-07
5.44226163e-07
5.655418351e-07
3.934426062e-07
4.202258165e-07
4.594354753e-07
5.090755987e-07
5.661614438e-07
6.263365129e-07
6.83655244e-07
7.306203207e-07
7.585842033e-07
5.327642335e-07
5.679386292e-07
6.193877199e-07
6.84448607e-07
7.591673682e-07
8.378106916e-07
9.125970454e-07
9.737638394e-07
1.010112103e-06
7.158674198e-07
7.616673611e-07
8.285903759e-07
9.131052259e-07
1.01000967e-06
1.11181759e-06
1.208435995e-06
1.287282295e-06
1.33402163e-06
9.538659858e-07
1.012916704e-06
1.099099111e-06
1.207762673e-06
1.332116515e-06
1.462475154e-06
1.585884748e-06
1.686320632e-06
1.745680099e-06
1.259494467e-06
1.334783904e-06
1.444512713e-06
1.582605066e-06
1.740277015e-06
1.905129611e-06
2.060737166e-06
2.186967385e-06
2.261306086e-06
1.646847292e-06
1.741651128e-06
1.879596543e-06
2.052819355e-06
2.250076741e-06
2.455686358e-06
2.649101942e-06
2.805411539e-06
2.897082908e-06
2.13090691e-06
2.248660269e-06
2.419680703e-06
2.633899326e-06
2.877098308e-06
3.12970871e-06
3.366413524e-06
3.556892234e-06
3.668083285e-06
2.726856331e-06
2.87097345e-06
3.07984813e-06
3.340748941e-06
3.635937492e-06
3.941355618e-06
4.226311805e-06
4.45455288e-06
4.587126834e-06
3.449207845e-06
3.622861151e-06
3.873969443e-06
4.186660413e-06
4.539130814e-06
4.902273435e-06
5.239517936e-06
5.508291493e-06
5.663495776e-06
4.310820048e-06
4.516700388e-06
4.81368138e-06
5.182280914e-06
5.596129286e-06
6.020599538e-06
6.412852211e-06
6.723686377e-06
6.90203623e-06
5.321910371e-06
5.561997139e-06
5.907434769e-06
6.334709428e-06
6.812465862e-06
7.300159494e-06
7.748374914e-06
8.10141304e-06
8.302597321e-06
6.489192902e-06
6.764571058e-06
7.159746298e-06
7.64684488e-06
8.189107061e-06
8.739830179e-06
9.243111963e-06
9.637033917e-06
9.859899098e-06
7.81527472e-06
8.126024999e-06
8.570740132e-06
9.116836275e-06
9.722042587e-06
1.033352758e-05
1.088912954e-05
1.132120456e-05
1.156381675e-05
9.298230033e-06
9.643220822e-06
1.01355761e-05
1.073792595e-05
1.140248483e-05
1.207049728e-05
1.267397739e-05
1.314023303e-05
1.340000454e-05
1.093115835e-05
1.130816812e-05
1.184476401e-05
1.249885515e-05
1.321733543e-05
1.393592025e-05
1.458141281e-05
1.5076887e-05
1.535074468e-05
1.270270778e-05
1.310854259e-05
1.368465683e-05
1.438446112e-05
1.514990152e-05
1.591172943e-05
1.659229113e-05
1.711132767e-05
1.739589783e-05
1.459766238e-05
1.502832856e-05
1.563817139e-05
1.637647421e-05
1.718076304e-05
1.797752812e-05
1.868551104e-05
1.922206049e-05
1.95138477e-05
1.659772435e-05
1.704863492e-05
1.768564579e-05
1.845441146e-05
1.928868974e-05
2.011151184e-05
2.083892325e-05
2.138681915e-05
2.168236243e-05
1.868239421e-05
1.914858589e-05
1.980573826e-05
2.059647377e-05
2.145152242e-05
2.229131887e-05
2.303013935e-05
2.358333099e-05
2.387932817e-05
2.082985789e-05
2.130619884e-05
2.197628654e-05
2.278037479e-05
2.364695871e-05
2.449476288e-05
2.523720772e-05
2.578994142e-05
2.608333937e-05
2.301780916e-05
2.349918367e-05
2.417507141e-05
2.498405617e-05
2.585321023e-05
2.670042737e-05
2.743914716e-05
2.798609669e-05
2.82741497e-05
2.522416171e-05
2.570562423e-05
2.638045343e-05
2.718626856e-05
2.804952152e-05
2.888812166e-05
2.961634577e-05
3.015269785e-05
3.043299933e-05
2.742763011e-05
2.790452633e-05
2.857187447e-05
2.936701775e-05
3.02165569e-05
3.103921087e-05
3.175084188e-05
3.227234486e-05
3.254283841e-05
2.960817848e-05
3.007623477e-05
3.073023122e-05
3.150788745e-05
3.233667114e-05
3.313683826e-05
3.382650636e-05
3.432949062e-05
3.458846618e-05
3.174734798e-05
3.220273251e-05
3.283813598e-05
3.359225662e-05
3.439408301e-05
3.516605943e-05
3.582914563e-05
3.631052297e-05
3.655660279e-05
3.382848032e-05
3.426784005e-05
3.488008375e-05
3.560543026e-05
3.637497042e-05
3.711390627e-05
3.774654171e-05
3.820378965e-05
3.843590781e-05
3.583685524e-05
3.625733291e-05
3.684254311e-05
3.753470097e-05
3.826750349e-05
3.896939562e-05
3.95684428e-05
3.999957822e-05
4.021695617e-05
3.775975847e-05
3.815899336e-05
3.871398656e-05
3.936935581e-05
4.006182889e-05
4.072349463e-05
4.128651507e-05
4.169006032e-05
4.189218042e-05
3.958649376e-05
3.996260957e-05
4.048487269e-05
4.110063995e-05
4.1750016e-05
4.236905236e-05
4.289426412e-05
4.326920806e-05
4.345578618e-05
4.130835017e-05
4.16599328e-05
4.214759019e-05
4.272168643e-05
4.332597312e-05
4.390070512e-05
4.438693296e-05
4.473268874e-05
4.49036468e-05
4.291853335e-05
4.324460103e-05
4.369637155e-05
4.42274192e-05
4.478534069e-05
4.531476167e-05
4.576138226e-05
4.60777431e-05
4.623318218e-05
4.441206819e-05
4.471203614e-05
4.512718314e-05
4.561443561e-05
4.612536697e-05
4.66090737e-05
4.701595763e-05
4.730305194e-05
4.74432263e-05
4.578567912e-05
4.605932054e-05
4.643759722e-05
4.688087373e-05
4.734477105e-05
4.778289589e-05
4.815034836e-05
4.84085951e-05
4.853388741e-05
4.70376537e-05
4.728505875e-05
4.762665097e-05
4.802626887e-05
4.844359764e-05
4.883673968e-05
4.91654413e-05
4.939550642e-05
4.950640456e-05
4.816769446e-05
4.838922855e-05
4.869469706e-05
4.905140383e-05
4.942306733e-05
4.977222432e-05
5.006317327e-05
5.026592795e-05
5.036300348e-05
4.91767637e-05
4.937302628e-05
4.964324977e-05
4.995815634e-05
5.028542594e-05
5.05919284e-05
5.084638497e-05
5.102286628e-05
5.110675476e-05
5.006692541e-05
5.023871022e-05
5.047483046e-05
5.074934721e-05
5.103379576e-05
5.129924442e-05
5.151867888e-05
5.167005326e-05
5.174143648e-05
5.084118796e-05
5.098944538e-05
5.119281554e-05
5.142859217e-05
5.167203155e-05
5.189823908e-05
5.20842834e-05
5.221181328e-05
5.227140342e-05
5.150335084e-05
5.1629153e-05
5.180128971e-05
5.200015958e-05
5.22045833e-05
5.239352082e-05
5.254792478e-05
5.265293859e-05
5.270146443e-05
5.205785803e-05
5.216236695e-05
5.230490671e-05
5.246883641e-05
5.263636755e-05
5.279011652e-05
5.291470833e-05
5.299857402e-05
5.303676902e-05
5.25096602e-05
5.259409931e-05
5.270875944e-05
5.283980369e-05
5.297264862e-05
5.309335819e-05
5.319000994e-05
5.325411185e-05
5.328270408e-05
5.286408739e-05
5.292971636e-05
5.301826069e-05
5.31185228e-05
5.321893071e-05
5.330878051e-05
5.337937822e-05
5.342509746e-05
5.344480128e-05
5.312673322e-05
5.317482622e-05
5.323903542e-05
5.331063321e-05
5.33808613e-05
5.344202969e-05
5.348844789e-05
5.35171458e-05
5.352865521e-05
5.330335133e-05
5.333517855e-05
5.3376825e-05
5.342186194e-05
5.34641461e-05
5.34987835e-05
5.352286411e-05
5.353586889e-05
5.353985222e-05
5.339976434e-05
5.341657664e-05
5.343740351e-05
5.345794484e-05
5.347447547e-05
5.348468253e-05
5.348821772e-05
5.348681365e-05
5.348390972e-05
5.342178523e-05
5.342480158e-05
5.342650593e-05
5.342455938e-05
5.341746191e-05
5.340527205e-05
5.338999075e-05
5.337541001e-05
5.336622532e-05
5.337515063e-05
5.33655483e-05
5.334976769e-05
5.33272683e-05
5.329858807e-05
5.326595404e-05
5.323351163e-05
5.320692831e-05
5.319203529e-05
5.326546558e-05
5.324437258e-05
5.321267496e-05
5.317147369e-05
5.312316454e-05
5.307194845e-05
5.302391944e-05
5.298644542e-05
5.296638153e-05
5.309815884e-05
5.306664847e-05
5.302052486e-05
5.296238037e-05
5.28962967e-05
5.282826316e-05
5.276613622e-05
5.271881874e-05
5.269408623e-05
5.287844786e-05
5.283753502e-05
5.277839465e-05
5.270496797e-05
5.262285954e-05
5.253967145e-05
5.246484666e-05
5.240866726e-05
5.237973353e-05
5.261131244e-05
5.25619515e-05
5.249111898e-05
5.240397052e-05
5.23074798e-05
5.22106963e-05
5.212448411e-05
5.206035873e-05
5.202765714e-05
5.230147606e-05
5.224455996e-05
5.216327428e-05
5.206386284e-05
5.195452431e-05
5.184560062e-05
5.17492223e-05
5.167800221e-05
5.164193325e-05
5.195339388e-05
5.188975433e-05
5.179916918e-05
5.16888526e-05
5.156809371e-05
5.144838245e-05
5.134297166e-05
5.126544525e-05
5.122637792e-05
5.157124645e-05
5.150165494e-05
5.140284021e-05
5.128287729e-05
5.115202076e-05
5.102277443e-05
5.090937977e-05
5.082627478e-05
5.078454817e-05
5.115893822e-05
5.108410765e-05
5.097805186e-05
5.084960531e-05
5.070987244e-05
5.057224682e-05
5.045183499e-05
5.036382117e-05
5.031974617e-05
5.072009999e-05
5.064068686e-05
5.052830017e-05
5.039244035e-05
5.024495503e-05
5.010001326e-05
4.997347279e-05
4.988116484e-05
4.983502591e-05
5.025809449e-05
5.017470144e-05
5.005681924e-05
4.991452838e-05
4.976032176e-05
4.960903883e-05
4.947718411e-05
4.938114482e-05
4.933320171e-05
4.977602458e-05
4.968920314e-05
4.956658991e-05
4.941876678e-05
4.925878219e-05
4.910204982e-05
4.896562532e-05
4.886636874e-05
4.881685827e-05
4.927674327e-05
4.918699679e-05
4.90603502e-05
4.890781491e-05
4.874291302e-05
4.858154466e-05
4.844122929e-05
4.833922394e-05
4.828836169e-05
4.876286513e-05
4.867065179e-05
4.854060685e-05
4.838410586e-05
4.821506994e-05
4.804980578e-05
4.790621724e-05
4.780188928e-05
4.774987125e-05
4.823677871e-05
4.81425145e-05
4.800964777e-05
4.784985877e-05
4.767739994e-05
4.750891197e-05
4.736261101e-05
4.725634733e-05
4.720335148e-05
4.770065945e-05
4.760472117e-05
4.746955487e-05
4.730709167e-05
4.713185402e-05
4.696075091e-05
4.681224552e-05
4.670439672e-05
4.665058445e-05
4.715648293e-05
4.705921108e-05
4.69222171e-05
4.675763438e-05
4.658019997e-05
4.640703181e-05
4.625678123e-05
4.614766447e-05
4.609318201e-05
4.660603814e-05
4.650773968e-05
4.636934348e-05
4.620314133e-05
4.602403494e-05
4.584929784e-05
4.569771638e-05
4.558761808e-05
4.553259778e-05
4.605094053e-05
4.595189159e-05
4.581247584e-05
4.564510409e-05
4.546479786e-05
4.528893822e-05
4.513639894e-05
4.502557727e-05
4.49701388e-05
4.549264478e-05
4.539309313e-05
4.525300126e-05
4.508486362e-05
4.490378133e-05
4.472719997e-05
4.457403804e-05
4.446272537e-05
4.440697684e-05
4.49324571e-05
4.483262459e-05
4.469216407e-05
4.4523622e-05
4.434214311e-05
4.416519911e-05
4.401171506e-05
4.390012013e-05
4.384415909e-05
4.437154692e-05
4.427163169e-05
4.413107712e-05
4.396245348e-05
4.378091702e-05
4.36039313e-05
4.345039402e-05
4.333870401e-05
4.328261841e-05
4.381095813e-05
4.371113668e-05
4.357073269e-05
4.340231512e-05
4.322102319e-05
4.30442819e-05
4.289093143e-05
4.277931388e-05
4.272318294e-05
4.325161948e-05
4.315204865e-05
4.301201265e-05
4.284405674e-05
4.266327784e-05
4.248703545e-05
4.233408555e-05
4.222269012e-05
4.21665851e-05
4.269435419e-05
4.259517312e-05
4.245569782e-05
4.228843012e-05
4.210840227e-05
4.19328845e-05
4.178052507e-05
4.166948515e-05
4.161347009e-05
4.213988797e-05
4.204122026e-05
4.190247649e-05
4.173609751e-05
4.155703124e-05
4.138243777e-05
4.123083708e-05
4.112027136e-05
4.106440373e-05
4.158885308e-05
4.149081088e-05
4.135295136e-05
4.118763901e-05
4.100972045e-05
4.083622771e-05
4.068553456e-05
4.057554839e-05
4.051987974e-05
4.104178005e-05
4.09444771e-05
4.080764428e-05
4.064355885e-05
4.04669534e-05
4.029471727e-05
4.014506312e-05
4.003574995e-05
3.998032648e-05
4.049904507e-05
4.040265332e-05
4.026699814e-05
4.010429053e-05
3.992914739e-05
3.975830634e-05
3.960980739e-05
3.950125003e-05
3.944611315e-05
3.996090459e-05
3.986568119e-05
3.973138215e-05
3.957020288e-05
3.939665977e-05
3.922733769e-05
3.908009688e-05
3.897236872e-05
3.89175556e-05
3.942774704e-05
3.933378968e-05
3.920109988e-05
3.904160854e-05
3.886979495e-05
3.870210322e-05
3.855621165e-05
3.844937768e-05
3.83949216e-05
3.890007044e-05
3.8807367e-05
3.867645107e-05
3.851878284e-05
3.834881329e-05
3.818285009e-05
3.803838774e-05
3.793250513e-05
3.787843586e-05
3.837820813e-05
3.828674005e-05
3.815766539e-05
3.80019548e-05
3.783393336e-05
3.766978509e-05
3.752682166e-05
3.742194043e-05
3.736828442e-05
3.786244223e-05
3.777221754e-05
3.76449592e-05
3.749132146e-05
3.732533832e-05
3.716307934e-05
3.70216747e-05
3.691783814e-05
3.686461882e-05
3.735298296e-05
3.726399215e-05
3.713850372e-05
3.698704776e-05
3.682317991e-05
3.666287247e-05
3.652307689e-05
3.642032186e-05
3.636755968e-05
3.685000519e-05
3.676224758e-05
3.663852155e-05
3.648928946e-05
3.632758606e-05
3.616927682e-05
3.60311304e-05
3.592948745e-05
3.587720006e-05
3.635364796e-05
3.626713125e-05
3.614518419e-05
3.599816895e-05
3.583865583e-05
3.568237782e-05
3.554591169e-05
3.54454057e-05
3.539360821e-05
3.586400921e-05
3.577873541e-05
3.565856575e-05
3.551375279e-05
3.535645293e-05
3.52022337e-05
3.506747319e-05
3.496812471e-05
3.49168301e-05
3.538115493e-05
3.529711773e-05
3.517870264e-05
3.503601907e-05
3.48810061e-05
3.472887898e-05
3.459584647e-05
3.449767264e-05
3.444689212e-05
3.490513215e-05
3.482232927e-05
3.47056677e-05
3.456513205e-05
3.441237233e-05
3.426234132e-05
3.413104827e-05
3.403406106e-05
3.398380366e-05
3.443596429e-05
3.435438947e-05
3.423946798e-05
3.410104924e-05
3.395055154e-05
3.380262309e-05
3.36730774e-05
3.357728553e-05
3.352755867e-05
3.397365649e-05
3.389330044e-05
3.378010043e-05
3.364376195e-05
3.349553433e-05
3.334971234e-05
3.322191848e-05
3.312732789e-05
3.307813756e-05
3.35182001e-05
3.343905338e-05
3.332755944e-05
3.319328061e-05
3.304730775e-05
3.290358715e-05
3.277754465e-05
3.268415828e-05
3.263550903e-05
3.306957357e-05
3.299162605e-05
3.288182126e-05
3.274957399e-05
3.260584243e-05
3.246421392e-05
3.233991839e-05
3.224773647e-05
3.219963155e-05
3.262774448e-05
3.255098693e-05
3.244285885e-05
3.231263247e-05
3.217110514e-05
3.203155065e-05
3.190899312e-05
3.181801321e-05
3.177045462e-05
3.219266912e-05
3.211709115e-05
3.201062451e-05
3.18823985e-05
3.174304445e-05
3.160554433e-05
3.148471336e-05
3.139493109e-05
3.134791981e-05
3.176429412e-05
3.168988396e-05
3.158506121e-05
3.145881202e-05
3.132160055e-05
3.118613383e-05
3.106701617e-05
3.097842568e-05
3.093196188e-05
3.13425582e-05
3.126930296e-05
3.116610495e-05
3.104180746e-05
3.090670725e-05
3.077325159e-05
3.065583251e-05
3.056842667e-05
3.05225098e-05
3.092739355e-05
3.085527942e-05
3.075368586e-05
3.063131382e-05
3.049829293e-05
3.036682479e-05
3.02510882e-05
3.01648588e-05
3.011948769e-05
3.051872692e-05
3.044773938e-05
3.034772907e-05
3.022725539e-05
3.009628139e-05
2.996677619e-05
2.985270487e-05
2.976764274e-05
2.972281568e-05
3.011648054e-05
3.00466045e-05
2.994815554e-05
2.982955248e-05
2.97005926e-05
2.957302491e-05
2.946060068e-05
2.937669584e-05
2.933241062e-05
2.972057292e-05
2.965179285e-05
2.95548828e-05
2.943812215e-05
2.931114342e-05
2.918548713e-05
2.907469101e-05
2.899193278e-05
2.894818675e-05
2.933091958e-05
2.926321959e-05
2.91678256e-05
2.905287882e-05
2.892784824e-05
2.880407672e-05
2.869488907e-05
2.861326618e-05
2.857005634e-05
2.894743366e-05
2.888079764e-05
2.878689658e-05
2.867373494e-05
2.855061956e-05
2.84287058e-05
2.83211065e-05
2.824060721e-05
2.819793022e-05
2.857002655e-05
2.850443822e-05
2.841200682e-05
2.830060152e-05
2.817936858e-05
2.805928536e-05
2.795325389e-05
2.787386607e-05
2.783171832e-05
2.819860846e-05
2.813405147e-05
2.804306637e-05
2.793338868e-05
2.781400568e-05
2.76957257e-05
2.75912413e-05
2.751295254e-05
2.74713302e-05
2.783308893e-05
2.776954691e-05
2.767998483e-05
2.757200616e-05
2.7454441e-05
2.733793697e-05
2.723497878e-05
2.715777648e-05
2.711667554e-05
2.747337737e-05
2.741083402e-05
2.732267182e-05
2.721636387e-05
2.710058491e-05
2.698582973e-05
2.688437686e-05
2.680824831e-05
2.676766465e-05
2.71193836e-05
2.70578228e-05
2.697103757e-05
2.686637241e-05
2.675234857e-05
2.66393154e-05
2.653934708e-05
2.646427959e-05
2.642420896e-05
2.677101844e-05
2.671042427e-05
2.662499347e-05
2.652194364e-05
2.640964447e-05
2.62983069e-05
2.619980259e-05
2.61257835e-05
2.608622164e-05
2.642819433e-05
2.636855116e-05
2.628445267e-05
2.618299131e-05
2.607238707e-05
2.596271919e-05
2.586565871e-05
2.579267555e-05
2.575361817e-05
2.609082601e-05
2.60321186e-05
2.594933087e-05
2.584943178e-05
2.57404935e-05
2.563247002e-05
2.553683366e-05
2.546487419e-05
2.542631701e-05
2.575883139e-05
2.570104499e-05
2.561954713e-05
2.552118489e-05
2.541388434e-05
2.530748072e-05
2.521324932e-05
2.514230161e-05
2.510424042e-05
2.543213249e-05
2.537525297e-05
2.529502494e-05
2.519817504e-05
2.509248465e-05
2.498767708e-05
2.489483216e-05
2.482488466e-05
2.478731529e-05
2.51106566e-05
2.505467067e-05
2.497569368e-05
2.488033298e-05
2.477622526e-05
2.467299052e-05
2.458151424e-05
2.451255586e-05
2.447547424e-05
2.479433744e-05
2.473923294e-05
2.466149035e-05
2.456760086e-05
2.446504429e-05
2.436335909e-05
2.427323437e-05
2.420525456e-05
2.416865674e-05
2.4483116e-05
2.442888101e-05
2.435235546e-05
2.425991439e-05
2.415888387e-05
2.405872766e-05
2.396993904e-05
2.39029282e-05
2.386681051e-05
2.417694257e-05
2.412356541e-05
2.40482392e-05
2.3957222e-05
2.385769538e-05
2.375905017e-05
2.36715842e-05
2.360553396e-05
2.356989313e-05
2.387577887e-05
2.382324813e-05
2.37491037e-05
2.365948719e-05
2.356144141e-05
2.346429148e-05
2.337813703e-05
2.33130406e-05
2.327787402e-05
2.357960023e-05
2.352790356e-05
2.345491867e-05
2.336666198e-05
2.327009212e-05
2.317442826e-05
2.308957776e-05
2.302543053e-05
2.299073654e-05
2.328839956e-05
2.32375259e-05
2.316568189e-05
2.307875783e-05
2.29836423e-05
2.288945439e-05
2.280590257e-05
2.274270225e-05
2.270848044e-05
2.300218785e-05
2.295212548e-05
2.288140068e-05
2.279577273e-05
2.270209588e-05
2.260937871e-05
2.252712467e-05
2.246487235e-05
2.243112424e-05
2.272099498e-05
2.267172893e-05
2.260209093e-05
2.25176876e-05
2.2425466e-05
2.233422653e-05
2.225327634e-05
2.219197794e-05
2.215870783e-05
2.244487042e-05
2.23963846e-05
2.232780546e-05
2.224457198e-05
2.215380139e-05
2.206404761e-05
2.198441269e-05
2.192407948e-05
2.189129523e-05
2.217386962e-05
2.212613117e-05
2.205854047e-05
2.197647146e-05
2.188716253e-05
2.179891205e-05
2.172061218e-05
2.166126261e-05
2.162897694e-05
2.190804197e-05
2.186099603e-05
2.17942812e-05
2.171343464e-05
2.16256255e-05
2.153891167e-05
2.146197828e-05
2.140364015e-05
2.137187208e-05
2.164738501e-05
2.160094449e-05
2.153505935e-05
2.145553782e-05
2.136929141e-05
2.128416417e-05
2.12086419e-05
2.115135415e-05
2.112013049e-05
2.13917125e-05
2.134579519e-05
2.128097565e-05
2.120289843e-05
2.11182932e-05
2.103481674e-05
2.096076368e-05
2.090457765e-05
2.087393437e-05
2.114092334e-05
2.10957972e-05
2.103220456e-05
2.095567846e-05
2.087279814e-05
2.079104766e-05
2.071853519e-05
2.06635157e-05
2.063349926e-05
2.089542286e-05
2.085121397e-05
2.078895607e-05
2.071407393e-05
2.063300493e-05
2.055306576e-05
2.048217892e-05
2.042840561e-05
2.039907437e-05
2.065551695e-05
2.061229933e-05
2.055145858e-05
2.04783069e-05
2.039914039e-05
2.0321109e-05
2.02519478e-05
2.019951674e-05
2.017094244e-05
2.042147566e-05
2.037930594e-05
2.031995633e-05
2.024862236e-05
2.017145735e-05
2.009544336e-05
2.002812478e-05
1.997715047e-05
1.994941982e-05
2.019356407e-05
2.015249502e-05
2.009471097e-05
2.00252878e-05
1.995023429e-05
1.987636289e-05
1.981102315e-05
1.976164088e-05
1.973485731e-05
1.997205652e-05
1.993214274e-05
1.987600389e-05
1.980859408e-05
1.973577612e-05
1.966419108e-05
1.960098869e-05
1.955335728e-05
1.952764276e-05
1.97572435e-05
1.971854438e-05
1.966413881e-05
1.95988577e-05
1.952841694e-05
1.945928441e-05
1.939840417e-05
1.935270951e-05
1.932820675e-05
1.954943602e-05
1.951201806e-05
1.945944545e-05
1.939642507e-05