/*--------------------------------*- C++ -*----------------------------------*\
| =========                 |                                                 |
| \\      /  F ield         | OpenFOAM: The Open Source CFD Toolbox           |
|  \\    /   O peration     | Version:  2212                                  |
|   \\  /    A nd           | Website:  www.openfoam.com                      |
|    \\/     M anipulation  |                                                 |
\*---------------------------------------------------------------------------*/
FoamFile
{
    version     2.0;
    format      ascii;
    arch        "LSB;label=32;scalar=64";
    class       volScalarField;
    location    "18.25000000";
    object      C6H5;
}
// * * * * * * * * * * * * * * * * * * * * * * * * * * * * * * * * * * * * * //

dimensions      [0 0 0 0 0 0 0];

internalField   nonuniform List<scalar> 
3000
(
5.403022635e-29
6.069517114e-29
7.075246218e-29
8.415459e-29
1.007652923e-28
1.201334938e-28
1.41092366e-28
1.610910841e-28
1.752325933e-28
2.028495008e-28
2.287907004e-28
2.67918699e-28
3.201755657e-28
3.855092952e-28
4.635576549e-28
5.529659507e-28
6.492208615e-28
7.344869071e-28
4.543560025e-28
5.16482018e-28
6.110830833e-28
7.395283718e-28
9.041270584e-28
1.107266413e-27
1.348146765e-27
1.613244162e-27
1.83981149e-27
8.653862157e-28
9.940142567e-28
1.192750764e-27
1.468317602e-27
1.830474757e-27
2.288422023e-27
2.839658454e-27
3.44005353e-27
3.924651675e-27
1.536599798e-27
1.786646085e-27
2.179060081e-27
2.73376805e-27
3.476852332e-27
4.429131475e-27
5.574690225e-27
6.791206038e-27
7.72502904e-27
2.642088296e-27
3.111346252e-27
3.858340529e-27
4.930727254e-27
6.385692063e-27
8.259824546e-27
1.049713267e-26
1.281546446e-26
1.453059435e-26
4.484929764e-27
5.34682739e-27
6.734841806e-27
8.749982942e-27
1.150442981e-26
1.50529043e-26
1.924861014e-26
2.351143951e-26
2.658726975e-26
7.589352716e-27
9.149048281e-27
1.168316796e-26
1.539074892e-26
2.04785324e-26
2.701972629e-26
3.468612346e-26
4.23618273e-26
4.780787013e-26
1.286374174e-26
1.565642522e-26
2.022323536e-26
2.693869559e-26
3.617057954e-26
4.80075956e-26
6.178104851e-26
7.5427898e-26
8.500380409e-26
2.188124884e-26
2.684247485e-26
3.499269242e-26
4.701645571e-26
6.355619469e-26
8.470800494e-26
1.091841138e-25
1.332578067e-25
1.500249262e-25
3.736842556e-26
4.613075461e-26
6.057134302e-26
8.19186681e-26
1.112854553e-25
1.487579194e-25
1.919419699e-25
2.341993614e-25
2.634844368e-25
6.40525262e-26
7.946104335e-26
1.049109739e-25
1.425818514e-25
1.9439533e-25
2.60394176e-25
3.36225922e-25
4.101659238e-25
4.612322337e-25
1.101335904e-25
1.37142732e-25
1.818218078e-25
2.480103114e-25
3.390260527e-25
4.548052757e-25
5.8754866e-25
7.166571592e-25
8.056145728e-25
1.898399991e-25
2.370726863e-25
3.152904697e-25
4.312272415e-25
5.906163574e-25
7.931711812e-25
1.025045491e-24
1.250161696e-24
1.405028697e-24
3.278640673e-25
4.103212198e-25
5.469762667e-25
7.496060497e-25
1.028128742e-24
1.38181907e-24
1.786203962e-24
2.177877028e-24
2.447798612e-24
5.670566195e-25
7.10821273e-25
9.492120692e-25
1.302784574e-24
1.788707953e-24
2.405379537e-24
3.108846308e-24
3.776828275e-24
4.259919054e-24
9.817737083e-25
1.232172609e-24
1.647546686e-24
2.263717065e-24
3.110424664e-24
4.184650801e-24
5.412252434e-24
6.613828453e-24
7.413803842e-24
1.70103994e-24
2.136806848e-24
2.859871632e-24
3.932574741e-24
5.40641982e-24
7.275537527e-24
9.408652319e-24
1.147297738e-23
1.288675601e-23
2.948776884e-24
3.706653405e-24
4.964419106e-24
6.830468223e-24
9.39401684e-24
1.264414511e-23
1.635169765e-23
1.993694253e-23
2.239346486e-23
5.113674205e-24
6.431148352e-24
8.617884411e-24
1.1862244e-23
1.631881417e-23
2.196766666e-23
2.840950931e-23
3.463661137e-23
3.890191138e-23
8.870525544e-24
1.116006469e-23
1.496052538e-23
2.059908648e-23
2.834363063e-23
3.815817767e-23
4.934756958e-23
6.016084691e-23
6.756588544e-23
1.53908979e-23
1.936885561e-23
2.597221487e-23
3.576900859e-23
4.922332938e-23
6.627049724e-23
8.570087871e-23
1.044732357e-22
1.173260156e-22
2.670883461e-23
3.361926124e-23
4.509044428e-23
6.210800987e-23
8.547544942e-23
1.150764017e-22
1.488064737e-22
1.813849591e-22
2.036845567e-22
4.635538982e-23
5.835843577e-23
7.828229784e-23
1.078359962e-22
1.484092911e-22
1.997920075e-22
2.583232016e-22
3.148367356e-22
3.53507556e-22
8.045926986e-23
1.013050493e-22
1.359034579e-22
1.872151706e-22
2.576405367e-22
3.467971888e-22
4.483155271e-22
5.462917272e-22
6.13307677e-22
1.396543083e-22
1.758511919e-22
2.359184609e-22
3.249789905e-22
4.471699824e-22
6.017887054e-22
7.777504009e-22
9.47475809e-22
1.063506815e-21
2.423810977e-22
3.052187671e-22
4.094702899e-22
5.639859648e-22
7.758768267e-22
1.043834808e-21
1.348562573e-21
1.642267827e-21
1.842912784e-21
4.205934633e-22
5.296409685e-22
7.104970785e-22
9.784203798e-22
1.345588367e-21
1.809531123e-21
2.336638443e-21
2.844168234e-21
3.190554629e-21
7.296014565e-22
9.187429773e-22
1.232295124e-21
1.696495037e-21
2.332095948e-21
3.134364358e-21
4.044731829e-21
4.920127544e-21
5.516819555e-21
1.265007428e-21
1.592827994e-21
2.135958002e-21
2.939357826e-21
4.038175304e-21
5.423210344e-21
6.992356482e-21
8.498639483e-21
9.52365618e-21
2.191758689e-21
2.759351117e-21
3.699020372e-21
5.087474659e-21
6.983765591e-21
9.369795415e-21
1.206750465e-20
1.465149258e-20
1.6406153e-20
3.793808865e-21
4.775167828e-21
6.398277866e-21
8.793290606e-21
1.205841151e-20
1.615772e-20
2.078072247e-20
2.519677909e-20
2.818755715e-20
6.558663486e-21
8.252276972e-21
1.105002943e-20
1.517122455e-20
2.077708304e-20
2.779593701e-20
3.568668389e-20
4.319901863e-20
4.827024265e-20
1.132067201e-20
1.423650706e-20
1.904607573e-20
2.611573038e-20
3.570582695e-20
4.767320156e-20
6.10761697e-20
7.378503829e-20
8.23308374e-20
1.950274122e-20
2.450773761e-20
3.274808906e-20
4.482930628e-20
6.116307465e-20
8.146417403e-20
1.040977531e-19
1.254570574e-19
1.397540737e-19
3.352215764e-20
4.208131503e-20
5.61416729e-20
7.66909239e-20
1.043623655e-19
1.385912693e-19
1.765498965e-19
2.12172949e-19
2.358920106e-19
5.746904677e-20
7.2040632e-20
9.591268825e-20
1.306701445e-19
1.772515447e-19
2.345488915e-19
2.976965442e-19
3.565813722e-19
3.955545965e-19
9.823702737e-20
1.229125975e-19
1.632052253e-19
2.216062469e-19
2.994337927e-19
3.945384562e-19
4.986050089e-19
5.949420002e-19
6.58274528e-19
1.67405029e-19
2.089321293e-19
2.764746506e-19
3.738454239e-19
5.027428953e-19
6.590500356e-19
8.286765043e-19
9.844047844e-19
1.08600803e-18
2.843741695e-19
3.537672888e-19
4.660988587e-19
6.269969806e-19
8.383125314e-19
1.092262622e-18
1.36520984e-18
1.613404888e-18
1.773944241e-18
4.816238745e-19
5.966651334e-19
7.818274383e-19
1.044994611e-18
1.387368724e-18
1.794421759e-18
2.226950708e-18
2.615826522e-18
2.864820934e-18
8.135982876e-19
1.002664784e-18
1.304866137e-18
1.730351882e-18
2.277570403e-18
2.919707932e-18
3.592551633e-18
4.189105071e-18
4.566299983e-18
1.371906359e-18
1.679754256e-18
2.167658388e-18
2.846708648e-18
3.707700763e-18
4.70161565e-18
5.724658138e-18
6.615391651e-18
7.169256607e-18
2.311622623e-18
2.808035615e-18
3.586650125e-18
4.654866893e-18
5.985207285e-18
7.488780588e-18
9.000133327e-18
1.028345162e-17
1.106243278e-17
3.897118321e-18
4.689715161e-18
5.917098557e-18
7.571067292e-18
9.584032792e-18
1.179610499e-17
1.394754551e-17
1.570833774e-17
1.67374403e-17
6.581741414e-18
7.834707815e-18
9.744887417e-18
1.226177025e-17
1.523494e-17
1.837990087e-17
2.12963797e-17
2.354942805e-17
2.478224864e-17
1.11441203e-17
1.31049764e-17
1.603824525e-17
1.979643142e-17
2.406708102e-17
2.835256671e-17
3.205151065e-17
3.464093514e-17
3.587913001e-17
1.891357438e-17
2.194969721e-17
2.639006135e-17
3.188636067e-17
3.7826158e-17
4.336208098e-17
4.762411991e-17
5.007800041e-17
5.086151882e-17
3.212285613e-17
3.676721239e-17
4.338308019e-17
5.123810839e-17
5.919731551e-17
6.58732122e-17
7.007708464e-17
7.144508494e-17
7.09386067e-17
5.441669938e-17
6.141715543e-17
7.109554477e-17
8.203700311e-17
9.22578329e-17
9.960270917e-17
1.025792134e-16
1.013225007e-16
9.82464709e-17
9.150339558e-17
1.018642133e-16
1.157269591e-16
1.305526098e-16
1.430873035e-16
1.501954737e-16
1.502186325e-16
1.442604663e-16
1.369218154e-16
1.518600716e-16
1.668690931e-16
1.862813178e-16
2.058556534e-16
2.206108781e-16
2.263169201e-16
2.214247409e-16
2.084949924e-16
1.949661463e-16
2.473434457e-16
2.686197796e-16
2.952790208e-16
3.207372521e-16
3.379062288e-16
3.415023745e-16
3.303866206e-16
3.088031034e-16
2.873105899e-16
3.936721075e-16
4.23377731e-16
4.597382487e-16
4.932526327e-16
5.14514829e-16
5.173074036e-16
5.009300604e-16
4.708792411e-16
4.404466213e-16
6.113639637e-16
6.528926049e-16
7.033574694e-16
7.499179541e-16
7.807237009e-16
7.884770269e-16
7.721724941e-16
7.370680858e-16
6.980595823e-16
9.288416223e-16
9.884289044e-16
1.061827164e-15
1.132417684e-15
1.185375544e-15
1.211124316e-15
1.206025734e-15
1.172226568e-15
1.125241176e-15
1.390754167e-15
1.480414148e-15
1.594131198e-15
1.710384429e-15
1.809297778e-15
1.875267123e-15
1.896811512e-15
1.868943479e-15
1.810110524e-15
2.075201225e-15
2.217126351e-15
2.402827282e-15
2.602631599e-15
2.785891213e-15
2.922409017e-15
2.984060262e-15
2.956687775e-15
2.872656419e-15
3.122920311e-15
3.354855384e-15
3.664665953e-15
4.006531734e-15
4.326631912e-15
4.565620296e-15
4.670678278e-15
4.626743225e-15
4.499966277e-15
4.778658683e-15
5.158226759e-15
5.667736752e-15
6.228861838e-15
6.744145024e-15
7.110436728e-15
7.255483171e-15
7.184898426e-15
7.011024739e-15
7.43639031e-15
8.039995999e-15
8.84249537e-15
9.707740987e-15
1.047399154e-14
1.099558468e-14
1.120395327e-14
1.113844774e-14
1.094298397e-14
1.166633436e-14
1.258083056e-14
1.377685891e-14
1.503719388e-14
1.613326218e-14
1.689784258e-14
1.727826869e-14
1.732474337e-14
1.717434707e-14
1.821464882e-14
1.953899814e-14
2.1255565e-14
2.306276555e-14
2.46806151e-14
2.592696796e-14
2.673365515e-14
2.710616296e-14
2.712323795e-14
2.805678282e-14
2.995215015e-14
3.24343632e-14
3.512753803e-14
3.769895449e-14
3.991242137e-14
4.161335669e-14
4.268353101e-14
4.307336639e-14
4.266065392e-14
4.545503821e-14
4.920949294e-14
5.346601272e-14
5.779689781e-14
6.18314263e-14
6.522250988e-14
6.761133929e-14
6.871113239e-14
6.448149159e-14
6.878990277e-14
7.473868745e-14
8.174665008e-14
8.921067239e-14
9.649955492e-14
1.029101539e-13
1.076506968e-13
1.100146033e-13
9.760512726e-14
1.044731437e-13
1.141653181e-13
1.259040401e-13
1.387818413e-13
1.517132406e-13
1.633669592e-13
1.721873607e-13
1.767361279e-13
1.48650872e-13
1.597935817e-13
1.757710597e-13
1.954996295e-13
2.175760431e-13
2.401430552e-13
2.607808203e-13
2.765995518e-13
2.848882392e-13
2.282347051e-13
2.464459878e-13
2.728741777e-13
3.059757896e-13
3.435544084e-13
3.824641924e-13
4.184205659e-13
4.462166269e-13
4.609171254e-13
3.533774634e-13
3.832261929e-13
4.269556289e-13
4.823486017e-13
5.459610511e-13
6.125218767e-13
6.745800127e-13
7.229180929e-13
7.486853916e-13
5.514501264e-13
6.004249299e-13
6.727443899e-13
7.652285057e-13
8.724975586e-13
9.858095723e-13
1.092374204e-12
1.176052191e-12
1.221059738e-12
8.665430407e-13
9.46925944e-13
1.06644123e-12
1.220568909e-12
1.400961767e-12
1.593255006e-12
1.775710807e-12
1.920284926e-12
1.998894157e-12
1.369678413e-12
1.501582503e-12
1.69889515e-12
1.955284867e-12
2.257900085e-12
2.583328667e-12
2.894930854e-12
3.144294599e-12
3.281587346e-12
2.175005285e-12
2.391233931e-12
2.716435205e-12
3.141903151e-12
3.64800007e-12
4.196843114e-12
4.7271445e-12
5.155913132e-12
5.395177006e-12
3.465096414e-12
3.818776777e-12
4.353220511e-12
5.056701429e-12
5.8994035e-12
6.820431219e-12
7.718067707e-12
8.45123147e-12
8.865935946e-12
5.529701275e-12
6.106001189e-12
6.980349687e-12
8.137263458e-12
9.531673248e-12
1.106630769e-11
1.257381848e-11
1.381685657e-11
1.45291188e-11
8.823714954e-12
9.757320766e-12
1.117838352e-11
1.306674086e-11
1.535438949e-11
1.788694833e-11
2.039187098e-11
2.247494308e-11
2.368274627e-11
1.405147824e-11
1.555178728e-11
1.784101628e-11
2.089287716e-11
2.460461758e-11
2.873288364e-11
3.283905762e-11
3.627843703e-11
3.829339904e-11
2.228541354e-11
2.467141344e-11
2.831781861e-11
3.3189354e-11
3.913002325e-11
4.575907101e-11
5.238029424e-11
5.79581797e-11
6.125535965e-11
3.512674896e-11
3.887311046e-11
4.460252403e-11
5.226456735e-11
6.162075133e-11
7.20804469e-11
8.255574634e-11
9.141865128e-11
9.66984801e-11
5.491369468e-11
6.070848945e-11
6.956929524e-11
8.141782205e-11
9.588716952e-11
1.120711921e-10
1.283025813e-10
1.420798169e-10
1.503341117e-10
8.497667779e-11
9.37892608e-11
1.072517829e-10
1.252337576e-10
1.4717155e-10
1.716971945e-10
1.963089457e-10
2.172442232e-10
2.298529803e-10
1.299302666e-10
1.430849993e-10
1.631495103e-10
1.899002412e-10
2.224814398e-10
2.588662246e-10
2.95378502e-10
3.264951213e-10
3.453209751e-10
1.959794648e-10
2.152330659e-10
2.445429581e-10
2.83535177e-10
3.309283479e-10
3.837825958e-10
4.368104027e-10
4.820628229e-10
5.095442676e-10
2.912234842e-10
3.188471594e-10
3.608148143e-10
4.165168141e-10
4.840770453e-10
5.593019045e-10
6.347214353e-10
6.991298151e-10
7.383629337e-10
4.259840929e-10
4.648599916e-10
5.238015134e-10
6.018448715e-10
6.962756437e-10
8.01207413e-10
9.062836007e-10
9.960325004e-10
1.050829577e-09
6.131987047e-10
6.669020385e-10
7.481436866e-10
8.554276068e-10
9.84881771e-10
1.128380558e-09
1.271834598e-09
1.394317546e-09
1.469231087e-09
8.687423302e-10
9.415829076e-10
1.051510921e-09
1.196251754e-09
1.370366157e-09
1.562826932e-09
1.754823434e-09
1.91861669e-09
2.01891859e-09
1.211612481e-09
1.308642901e-09
1.454703028e-09
1.646413181e-09
1.876256899e-09
2.129524109e-09
2.381561324e-09
2.596313941e-09
2.727922077e-09
1.66397909e-09
1.790959374e-09
1.981591076e-09
2.230972618e-09
2.52889423e-09
2.856067089e-09
3.180760061e-09
3.45699324e-09
3.62634159e-09
2.251059406e-09
2.414370844e-09
2.658866945e-09
2.977610762e-09
3.356977168e-09
3.772100878e-09
4.182855796e-09
4.531671973e-09
4.745525158e-09
3.000788624e-09
3.207293461e-09
3.515581875e-09
3.916070681e-09
4.390898813e-09
4.908546717e-09
5.419134443e-09
5.85184488e-09
6.117063248e-09
3.943271347e-09
4.200119522e-09
4.582470465e-09
5.077392524e-09
5.661885147e-09
6.296647172e-09
6.920693806e-09
7.448381681e-09
7.771648132e-09
5.110016937e-09
5.424406084e-09
5.891075302e-09
6.492964523e-09
7.200971026e-09
7.966873536e-09
8.717294786e-09
9.350337806e-09
9.737861832e-09
6.532981821e-09
6.911881582e-09
7.472706917e-09
8.193432914e-09
9.037864339e-09
9.947754423e-09
1.083616721e-08
1.158374885e-08
1.204096615e-08
8.243461541e-09
8.693317343e-09
9.357291387e-09
1.020752923e-08
1.119976266e-08
1.226469484e-08
1.330084329e-08
1.417048401e-08
1.47017712e-08
1.027089214e-08
1.079732637e-08
1.157217149e-08
1.256088424e-08
1.371019433e-08
1.493885905e-08
1.613009212e-08
1.712723127e-08
1.773565457e-08
1.264163217e-08
1.32491618e-08
1.414093477e-08
1.527490214e-08
1.658795656e-08
1.798618764e-08
1.933702224e-08
2.046467767e-08
2.115179182e-08
1.537780144e-08
1.606959041e-08
1.708234226e-08
1.83657659e-08
1.984621711e-08
2.141660929e-08
2.292840631e-08
2.418693293e-08
2.495264268e-08
1.849625013e-08
1.927391246e-08
2.040942517e-08
2.184363529e-08
2.349183369e-08
2.523349321e-08
2.690426515e-08
2.829122567e-08
2.913371754e-08
2.200772259e-08
2.287118803e-08
2.412880389e-08
2.571208421e-08
2.752492848e-08
2.943336943e-08
3.125772837e-08
3.27678814e-08
3.36836279e-08
2.591626467e-08
2.686371439e-08
2.824026662e-08
2.996780576e-08
3.193873608e-08
3.400592467e-08
3.597516939e-08
3.760057173e-08
3.858440519e-08
3.021890496e-08
3.124677915e-08
3.273662532e-08
3.460059383e-08
3.671972371e-08
3.893426264e-08
4.103659461e-08
4.276680719e-08
4.381205625e-08
3.490561984e-08
3.600869452e-08
3.760384709e-08
3.959359094e-08
4.184796474e-08
4.419540146e-08
4.641625184e-08
4.823863317e-08
4.933731139e-08
3.995957266e-08
4.113109846e-08
4.282144118e-08
4.492377592e-08
4.729773213e-08
4.976096832e-08
5.208341315e-08
5.398348019e-08
5.512651397e-08
4.535760052e-08
4.658949302e-08
4.836306728e-08
5.056265228e-08
5.303826814e-08
5.559804395e-08
5.800328123e-08
5.996511578e-08
6.114259798e-08
5.107090882e-08
5.235397785e-08
5.419732061e-08
5.647708994e-08
5.903468058e-08
6.167010551e-08
6.413796779e-08
6.614464606e-08
6.734610174e-08
5.706592539e-08
5.839012968e-08
6.028864339e-08
6.263026926e-08
6.524891461e-08
6.793801751e-08
7.044749421e-08
7.248151903e-08
7.369617066e-08
6.330526183e-08
6.465997551e-08
6.659831104e-08
6.898267681e-08
7.164075096e-08
7.43610242e-08
7.689077093e-08
7.893448831e-08
8.015150952e-08
6.974873e-08
7.112300858e-08
7.308544363e-08
7.549310568e-08
7.816878676e-08
8.08977029e-08
8.342651873e-08
8.546250388e-08
8.667125293e-08
7.635436529e-08
7.773720021e-08
7.970799844e-08
8.211961955e-08
8.479136208e-08
8.750684601e-08
9.001410382e-08
9.202550532e-08
9.321573179e-08
8.30794145e-08
8.445996751e-08
8.642370654e-08
8.882044735e-08
9.146740335e-08
9.414824734e-08
9.66142669e-08
9.858510143e-08
9.974712169e-08
8.988125402e-08
9.124906494e-08
9.319092448e-08
9.555478358e-08
9.815716326e-08
1.00783377e-07
1.031897346e-07
1.051051281e-07
1.062299675e-07
9.671821254e-08
9.806337602e-08
9.996938085e-08
1.022834776e-07
1.048228447e-07
1.073759365e-07
1.097057089e-07
1.115520828e-07
1.126315841e-07
1.035502808e-07
1.048635899e-07
1.06720805e-07
1.089696031e-07
1.114291034e-07
1.138922925e-07
1.161302356e-07
1.178954401e-07
1.189223394e-07
1.10339699e-07
1.116127554e-07
1.13409433e-07
1.155789056e-07
1.179434302e-07
1.203017927e-07
1.224344594e-07
1.241078564e-07
1.250758284e-07
1.170514195e-07
1.182767108e-07
1.200023918e-07
1.220801305e-07
1.243364187e-07
1.26576972e-07
1.285927731e-07
1.301652742e-07
1.310689505e-07
1.236534475e-07
1.248243947e-07
1.264699675e-07
1.284452405e-07
1.305819266e-07
1.326936597e-07
1.345828756e-07
1.360469402e-07
1.368819039e-07
1.301170677e-07
1.312280452e-07
1.327857662e-07
1.346495316e-07
1.366571442e-07
1.386309999e-07
1.403857497e-07
1.4173535e-07
1.424981102e-07
1.364169672e-07
1.374632991e-07
1.389267809e-07
1.40671661e-07
1.425425811e-07
1.443713991e-07
1.459855747e-07
1.472161332e-07
1.479040839e-07
1.425312676e-07
1.435092041e-07
1.448733757e-07
1.464935999e-07
1.482219857e-07
1.499004134e-07
1.513695861e-07
1.524778924e-07
1.530892584e-07
1.484414797e-07
1.493481572e-07
1.506092029e-07
1.521005247e-07
1.536822103e-07
1.552065901e-07
1.565278967e-07
1.575120079e-07
1.580457821e-07
1.541323945e-07
1.549657834e-07
1.561210645e-07
1.574806598e-07
1.589130354e-07
1.602812738e-07
1.614532874e-07
1.62312419e-07
1.627682939e-07
1.595919249e-07
1.603507683e-07
1.613987323e-07
1.626250848e-07
1.639069626e-07
1.651183884e-07
1.661409814e-07
1.668753911e-07
1.672536868e-07
1.648109089e-07
1.654946548e-07
1.664347379e-07
1.675275148e-07
1.686589891e-07
1.697142054e-07
1.705884076e-07
1.711992774e-07
1.715008687e-07
1.697828872e-07
1.703916175e-07
1.712241417e-07
1.721840674e-07
1.731663701e-07
1.740671046e-07
1.74794962e-07
1.752842807e-07
1.75510525e-07
1.745038637e-07
1.750382226e-07
1.757642922e-07
1.765930202e-07
1.774283781e-07
1.78177336e-07
1.787617715e-07
1.791322212e-07
1.792848886e-07
1.789720591e-07
1.79433181e-07
1.800545812e-07
1.807545688e-07
1.814460644e-07
1.82046786e-07
1.824914669e-07
1.827463135e-07
1.828275208e-07
1.831876626e-07
1.835771032e-07
1.840962008e-07
1.846705894e-07
1.852220282e-07
1.856787536e-07
1.859879659e-07
1.861309574e-07
1.861431055e-07
1.871525886e-07
1.874722587e-07
1.878919094e-07
1.883444104e-07
1.887601958e-07
1.890777389e-07
1.892562702e-07
1.892915419e-07
1.892372584e-07
1.908702434e-07
1.911223468e-07
1.914458069e-07
1.917805965e-07
1.920656142e-07
1.922492455e-07
1.923022784e-07
1.92234266e-07
1.921163532e-07
1.943453024e-07
1.945322788e-07
1.947631251e-07
1.949847467e-07
1.951442585e-07
1.951995996e-07
1.95132614e-07
1.949659756e-07
1.947873631e-07
1.97583504e-07
1.977079765e-07
1.978500326e-07
1.979633086e-07
1.98002857e-07
1.979357847e-07
1.977544707e-07
1.974940173e-07
1.972577196e-07
2.005914583e-07
2.006561862e-07
2.007134562e-07
2.007234088e-07
2.006487311e-07
2.004652926e-07
2.001754737e-07
1.99826107e-07
1.995351872e-07
2.033764734e-07
2.033843097e-07
2.033609195e-07
2.032727008e-07
2.030896537e-07
2.027959918e-07
2.024035569e-07
2.01970216e-07
2.016277529e-07
2.05946398e-07
2.059002526e-07
2.05800398e-07
2.05619228e-07
2.053337216e-07
2.049360097e-07
2.044468549e-07
2.039344698e-07
2.035435309e-07
2.083094819e-07
2.082122891e-07
2.080401906e-07
2.077713042e-07
2.073892449e-07
2.068936313e-07
2.0631361e-07
2.05727062e-07
2.052906794e-07
2.104742521e-07
2.103289424e-07
2.100888067e-07
2.097374079e-07
2.092646502e-07
2.086772106e-07
2.080120912e-07
2.073561801e-07
2.068773311e-07
2.124494047e-07
2.122588813e-07
2.119548684e-07
2.115260916e-07
2.10968397e-07
2.102950953e-07
2.095505263e-07
2.088299429e-07
2.08311534e-07
2.142437115e-07
2.140108301e-07
2.136470257e-07
2.131459039e-07
2.125089073e-07
2.117555631e-07
2.109370444e-07
2.101563486e-07
2.096012021e-07
2.158659401e-07
2.155934925e-07
2.151738855e-07
2.146053236e-07
2.138945058e-07
2.130667682e-07
2.121796287e-07
2.113432317e-07
2.107540757e-07
2.173247867e-07
2.170154872e-07
2.165439511e-07
2.159127051e-07
2.151333712e-07
2.142366979e-07
2.132860778e-07
2.12398229e-07
2.117776896e-07
2.186288218e-07
2.18285296e-07
2.17765574e-07
2.170762338e-07
2.16233496e-07
2.152731383e-07
2.142639754e-07
2.133287525e-07
2.126793479e-07
2.197864499e-07
2.194112239e-07
2.188469159e-07
2.181038916e-07
2.172026557e-07
2.16183646e-07
2.151206667e-07
2.141419683e-07
2.134661055e-07
2.208058906e-07
2.204013755e-07
2.197959229e-07
2.190034314e-07
2.180483857e-07
2.169755286e-07
2.158632409e-07
2.148447826e-07
2.141447543e-07
2.216952075e-07
2.212636548e-07
2.206203127e-07
2.197823606e-07
2.187779647e-07
2.176558302e-07
2.164985189e-07
2.154438305e-07
2.147218143e-07
2.224624714e-07
2.22005799e-07
2.213275747e-07
2.204479318e-07
2.193984043e-07
2.18231321e-07
2.170330453e-07
2.159454698e-07
2.152035283e-07
2.231156617e-07
2.226353631e-07
2.219249575e-07
2.210071309e-07
2.199164381e-07
2.187084899e-07
2.174730827e-07
2.163557774e-07
2.155958587e-07
2.236618982e-07
2.231597499e-07
2.224194393e-07
2.214666543e-07
2.203385092e-07
2.19093537e-07
2.17824608e-07
2.166805472e-07
2.159044872e-07
2.241073906e-07
2.235854513e-07
2.228175451e-07
2.218328564e-07
2.206707516e-07
2.193923666e-07
2.180933101e-07
2.169252905e-07
2.161348156e-07
2.244583312e-07
2.239185626e-07
2.231255248e-07
2.221117826e-07
2.209189954e-07
2.196105889e-07
2.182845917e-07
2.170952385e-07
2.162919697e-07
2.247206485e-07
2.241648276e-07
2.233492316e-07
2.223091495e-07
2.21088765e-07
2.197535214e-07
2.184035728e-07
2.171953474e-07
2.163808042e-07
2.249000763e-07
2.243299259e-07
2.234943092e-07
2.224303772e-07
2.21185287e-07
2.198261946e-07
2.184550969e-07
2.172303046e-07
2.164059099e-07
2.250020468e-07
2.244191419e-07
2.235657382e-07
2.224804986e-07
2.212134768e-07
2.198333554e-07
2.184437383e-07
2.172045375e-07
2.163716222e-07
2.250317237e-07
2.244375074e-07
2.235683396e-07
2.224642931e-07
2.21177984e-07
2.19779489e-07
2.183738162e-07
2.171222245e-07
2.162820318e-07
2.249940366e-07
2.243898645e-07
2.235068579e-07
2.223863649e-07
2.210832323e-07
2.196688394e-07
2.182494084e-07
2.169873068e-07
2.161409956e-07
2.248936716e-07
2.242808264e-07
2.233858306e-07
2.222512518e-07
2.209334355e-07
2.195054171e-07
2.180743598e-07
2.168034974e-07
2.15952146e-07
2.24735046e-07
2.241147042e-07
2.232093714e-07
2.220626453e-07
2.207324227e-07
2.192929627e-07
2.178522802e-07
2.16574288e-07
2.157188999e-07
2.245223411e-07
2.238956046e-07
2.229815042e-07
2.218245762e-07
2.204839212e-07
2.190350248e-07
2.175865722e-07
2.163029643e-07
2.15444471e-07
2.242595e-07
2.236273966e-07
2.227059952e-07
2.215406812e-07
2.201914171e-07
2.18734939e-07
2.172804349e-07
2.159926142e-07
2.151318792e-07
2.239502274e-07
2.233137052e-07
2.223863451e-07
2.212142706e-07
2.198581516e-07
2.183958284e-07
2.169368699e-07
2.156461369e-07
2.147839599e-07
2.23598004e-07
2.229579375e-07
2.220258573e-07
2.20848536e-07
2.194871819e-07
2.180206261e-07
2.165586942e-07
2.15266253e-07
2.144033738e-07
2.232060974e-07
2.225632898e-07
2.216276207e-07
2.204464107e-07
2.19081366e-07
2.176120829e-07
2.161485504e-07
2.148555145e-07
2.139926169e-07
2.227775776e-07
2.221327702e-07
2.211945589e-07
2.200107303e-07
2.186434067e-07
2.171727846e-07
2.157089192e-07
2.144163157e-07
2.135540301e-07
2.223153266e-07
2.216692041e-07
2.207294178e-07
2.195441448e-07
2.18175841e-07
2.167051585e-07
2.15242127e-07
2.139509013e-07
2.13089808e-07
2.218220469e-07
2.211752409e-07
2.202347713e-07
2.19049136e-07
2.176810466e-07
2.162114792e-07
2.147503544e-07
2.134613751e-07
2.126020073e-07
2.213002705e-07
2.206533623e-07
2.197130305e-07
2.185280279e-07
2.171612503e-07
2.156938776e-07
2.142356436e-07
2.129497074e-07
2.12092554e-07
2.207523672e-07
2.201058916e-07
2.191664518e-07
2.179829957e-07
2.166185363e-07
2.151543477e-07
2.136999063e-07
2.124177426e-07
2.115632514e-07
2.201805538e-07
2.195350015e-07
2.185971457e-07
2.174160735e-07
2.160548543e-07
2.145947555e-07
2.131449311e-07
2.118672066e-07
2.110157868e-07
2.195869019e-07
2.189427227e-07
2.180070848e-07
2.168291631e-07
2.154720267e-07
2.140168451e-07
2.125723906e-07
2.112997135e-07
2.104517385e-07
2.189733465e-07
2.18330952e-07
2.173981115e-07
2.162240405e-07
2.148717561e-07
2.134222464e-07
2.119838477e-07
2.10716772e-07
2.098725819e-07
2.183416928e-07
2.177014588e-07
2.16771945e-07
2.156023634e-07
2.142556317e-07
2.128124809e-07
2.113807621e-07
2.101197914e-07
2.092796953e-07
2.176936228e-07
2.170558923e-07
2.161301873e-07
2.149656767e-07
2.136251351e-07
2.121889678e-07
2.107644955e-07
2.095100866e-07
2.086743652e-07
2.170307014e-07
2.163957865e-07
2.15474329e-07
2.14315418e-07
2.129816452e-07
2.115530279e-07
2.101363156e-07
2.088888827e-07
2.080577902e-07
2.163543799e-07
2.157225643e-07
2.148057526e-07
2.136529208e-07
2.123264413e-07
2.109058872e-07
2.094974001e-07
2.082573178e-07
2.074310846e-07
2.156659987e-07
2.150375394e-07
2.141257347e-07
2.129794163e-07
2.116607046e-07
2.102486781e-07
2.088488367e-07
2.076164441e-07
2.067952789e-07
2.149667863e-07
2.14341916e-07
2.134354444e-07
2.122960319e-07
2.109855168e-07
2.095824371e-07
2.081916216e-07
2.069672256e-07
2.06151318e-07
2.142578551e-07
2.136367832e-07
2.127359388e-07
2.116037856e-07
2.103018533e-07
2.08908099e-07
2.075266529e-07
2.063105319e-07
2.055000547e-07
2.135401911e-07
2.129231052e-07
2.120281512e-07
2.109035743e-07
2.096105717e-07
2.082264832e-07
2.068547171e-07
2.056471244e-07
2.048422364e-07
2.128146368e-07
2.122017029e-07
2.113128727e-07
2.101961533e-07
2.0891239e-07
2.075382722e-07
2.061764663e-07
2.049776332e-07
2.041784817e-07
2.120818622e-07
2.114732245e-07
2.105907209e-07
2.094821049e-07
2.082078528e-07
2.068439757e-07
2.054923813e-07
2.043025192e-07
2.035092425e-07
2.113423239e-07
2.107381023e-07
2.098620949e-07
2.087617891e-07
2.074972807e-07
2.06143877e-07
2.048027153e-07
2.036220165e-07
2.02834745e-07
2.105962042e-07
2.099964903e-07
2.091271088e-07
2.080352737e-07
2.067806961e-07
2.054379554e-07
2.041074127e-07
2.029360474e-07
2.021549042e-07
2.098433289e-07
2.09248178e-07
2.083855007e-07
2.073022306e-07
2.060577206e-07
2.047257774e-07
2.034059939e-07
2.022441029e-07
2.014692003e-07
2.090830567e-07
2.084924786e-07
2.07636522e-07
2.065618454e-07
2.05327446e-07
2.040063513e-07
2.026973985e-07
2.015450774e-07
2.007765097e-07
2.08314132e-07
2.077280746e-07
2.068787685e-07
2.058126116e-07
2.045882441e-07
2.032779295e-07
2.019797764e-07
2.008370486e-07
2.000748774e-07
2.075344975e-07
2.069528232e-07
2.061099763e-07
2.050521139e-07
2.038375335e-07
2.025377568e-07
2.012502175e-07
2.001169927e-07
1.99361223e-07
2.067410602e-07
2.061635165e-07
2.053267817e-07
2.042768298e-07
2.030714998e-07
2.017817569e-07
2.005044145e-07
1.993804263e-07
1.986309689e-07
2.059294004e-07
2.05355569e-07
2.045243544e-07
2.034815987e-07
2.022846933e-07
2.010041379e-07
1.997362484e-07
1.9862097e-07
1.978775889e-07
2.050934428e-07
2.045226871e-07
2.036960874e-07
2.026594302e-07
2.014696583e-07
2.001969536e-07
1.98937309e-07
1.978298369e-07
1.970920755e-07
2.042250769e-07
2.036564792e-07
2.02833195e-07
2.018010943e-07
2.006164657e-07
1.99349594e-07
1.980963462e-07
1.969952504e-07
1.962623352e-07
2.033137357e-07
2.027460072e-07
2.019241808e-07
2.008943504e-07
1.997121206e-07
1.984482051e-07
1.971986651e-07
1.961018074e-07
1.95372528e-07
2.023459826e-07
2.017774045e-07
2.009545945e-07
1.999237225e-07
1.987400762e-07
1.974751167e-07
1.962255041e-07
1.951298201e-07
1.944023845e-07
2.013050813e-07
2.007334034e-07
1.999064082e-07
1.988699041e-07
1.976796725e-07
1.964082586e-07
1.951534221e-07
1.940546736e-07
1.933265428e-07
2.001706684e-07
1.995930156e-07
1.987573569e-07
1.977091887e-07
1.965055966e-07
1.952206198e-07
1.939537445e-07
1.928462573e-07
1.921139665e-07
1.989186713e-07
1.983312381e-07
1.974804828e-07
1.96413012e-07
1.951874408e-07
1.938798185e-07
1.925921396e-07
1.91468542e-07
1.907275202e-07
1.97520124e-07
1.969172582e-07
1.960437782e-07
1.949476456e-07
1.936894299e-07
1.923478604e-07
1.910284073e-07
1.898793943e-07
1.891237983e-07
1.959399689e-07
1.953153583e-07
1.94410164e-07
1.932741419e-07
1.919703985e-07
1.905811717e-07
1.892165727e-07
1.880307255e-07
1.872533103e-07
1.941386831e-07
1.934850747e-07
1.925376701e-07
1.91348558e-07
1.8998409e-07
1.885309926e-07
1.871053825e-07
1.858690821e-07
1.85061134e-07
1.920724556e-07
1.913815623e-07
1.903799052e-07
1.891225286e-07
1.876798518e-07
1.861442166e-07
1.846392979e-07
1.833367785e-07
1.824881434e-07
1.896937822e-07
1.889563155e-07
1.878869061e-07
1.865442646e-07
1.850038117e-07
1.833647631e-07
1.817600689e-07
1.803736597e-07
1.794728999e-07
1.869525117e-07
1.861583274e-07
1.850064468e-07
1.835600484e-07
1.819005916e-07
1.80135538e-07
1.784089522e-07
1.769195521e-07
1.759542643e-07
1.83797375e-07
1.829357386e-07
1.816858572e-07
1.801162682e-07
1.783155995e-07
1.764010124e-07
1.745295865e-07
1.729174108e-07
1.718747309e-07
1.80178015e-07
1.792379931e-07
1.778743645e-07
1.761619975e-07