/*--------------------------------*- C++ -*----------------------------------*\
| =========                 |                                                 |
| \\      /  F ield         | OpenFOAM: The Open Source CFD Toolbox           |
|  \\    /   O peration     | Version:  2212                                  |
|   \\  /    A nd           | Website:  www.openfoam.com                      |
|    \\/     M anipulation  |                                                 |
\*---------------------------------------------------------------------------*/
FoamFile
{
    version     2.0;
    format      ascii;
    arch        "LSB;label=32;scalar=64";
    class       volScalarField;
    location    "18.25000000";
    object      C9H8_0;
}
// * * * * * * * * * * * * * * * * * * * * * * * * * * * * * * * * * * * * * //

dimensions      [0 0 0 0 0 0 0];

internalField   nonuniform List<scalar> 
3000
(
1.310470998e-22
1.472111089e-22
1.716022533e-22
2.041052452e-22
2.443895676e-22
2.913612487e-22
3.421905071e-22
3.906911283e-22
4.249868556e-22
4.919949905e-22
5.549075802e-22
6.498004494e-22
7.76532807e-22
9.349783158e-22
1.124258465e-21
1.341088114e-21
1.574522238e-21
1.781307365e-21
1.101986037e-21
1.252651286e-21
1.482072639e-21
1.793569682e-21
2.192741768e-21
2.68537798e-21
3.269539206e-21
3.912429182e-21
4.461880189e-21
2.098843616e-21
2.410779064e-21
2.892731944e-21
3.561001013e-21
4.439252609e-21
5.549794867e-21
6.886561854e-21
8.342535925e-21
9.517697184e-21
3.726649073e-21
4.333017331e-21
5.284624957e-21
6.629787304e-21
8.431747159e-21
1.074098249e-20
1.351889462e-20
1.64688575e-20
1.87333011e-20
6.407523127e-21
7.545444744e-21
9.356846785e-21
1.19572772e-20
1.548538863e-20
2.002988917e-20
2.545499254e-20
3.107652325e-20
3.523537444e-20
1.087630483e-20
1.296626986e-20
1.63319567e-20
2.121826462e-20
2.789716687e-20
3.650131207e-20
4.667472575e-20
5.701080248e-20
6.446870949e-20
1.840396487e-20
2.218581317e-20
2.833032467e-20
3.732004118e-20
4.96561652e-20
6.551611807e-20
8.410405704e-20
1.027143718e-19
1.159185992e-19
3.119272569e-20
3.796392385e-20
4.903659433e-20
6.531867399e-20
8.770169505e-20
1.164005707e-19
1.49793927e-19
1.828799706e-19
2.060960273e-19
5.305621293e-20
6.508470619e-20
8.484469634e-20
1.139956146e-19
1.540946888e-19
2.053745828e-19
2.647130315e-19
3.230752006e-19
3.637235671e-19
9.060374682e-20
1.118469147e-19
1.468559106e-19
1.986085148e-19
2.698017482e-19
3.606440424e-19
4.65331144e-19
5.677705787e-19
6.387621237e-19
1.552938279e-19
1.926478534e-19
2.543439918e-19
3.45665027e-19
4.712683395e-19
6.312565541e-19
8.150781252e-19
9.943117369e-19
1.118097358e-18
2.67001626e-19
3.324748601e-19
4.407806877e-19
6.012247656e-19
8.218477052e-19
1.1024931e-18
1.424254477e-18
1.737201456e-18
1.95282336e-18
4.602118773e-19
5.74703054e-19
7.642991444e-19
1.045319912e-18
1.431659114e-18
1.922618904e-18
2.484638176e-18
3.030280917e-18
3.405626955e-18
7.947671291e-19
9.946309678e-19
1.325858217e-18
1.816988837e-18
2.492056692e-18
3.349302909e-18
4.329460629e-18
5.279088023e-18
5.93293108e-18
1.374512029e-18
1.722957501e-18
2.300743211e-18
3.157681176e-18
4.335377003e-18
5.829998977e-18
7.535722069e-18
9.15162165e-18
1.032541622e-17
2.379631021e-18
2.98649593e-18
3.993181272e-18
5.486487349e-18
7.538472033e-18
1.014174496e-17
1.311594962e-17
1.603099323e-17
1.79663955e-17
4.122767408e-18
5.178832052e-18
6.931131257e-18
9.530718106e-18
1.31023765e-17
1.763184667e-17
2.280089776e-17
2.780277539e-17
3.122922889e-17
7.146482237e-18
8.983067306e-18
1.203101215e-17
1.655294493e-17
2.276500755e-17
3.064068689e-17
3.962465679e-17
4.831212213e-17
5.426455211e-17
1.239251852e-17
1.558501825e-17
2.088384647e-17
2.874535801e-17
3.954404554e-17
5.32315307e-17
6.884024657e-17
8.392844708e-17
9.42631198e-17
2.14957254e-17
2.704342566e-17
3.625207249e-17
4.991429655e-17
6.867901564e-17
9.245889386e-17
1.195695149e-16
1.45768516e-16
1.637096655e-16
3.729436048e-17
4.693267951e-17
6.293196783e-17
8.666827655e-17
1.19265757e-16
1.605674263e-16
2.076424213e-16
2.531226004e-16
2.842609793e-16
6.471589266e-17
8.145847194e-17
1.092505002e-16
1.504795054e-16
2.070916359e-16
2.788045038e-16
3.605195839e-16
4.394437897e-16
4.934659498e-16
1.123139155e-16
1.413933259e-16
1.896616325e-16
2.612584339e-16
3.595496843e-16
4.840253762e-16
6.258162617e-16
7.627176168e-16
8.563948993e-16
1.949339664e-16
2.454337275e-16
3.292486843e-16
4.53549772e-16
6.241501908e-16
8.401221773e-16
1.086035162e-15
1.323364726e-15
1.485697086e-15
3.383335173e-16
4.260174799e-16
5.715234438e-16
7.872585589e-16
1.083241682e-15
1.457767879e-15
1.883985411e-15
2.295091811e-15
2.576137684e-15
5.871787964e-16
7.393905295e-16
9.919152836e-16
1.366186322e-15
1.879422835e-15
2.528451507e-15
3.26652894e-15
3.977899221e-15
4.463867841e-15
1.018866914e-15
1.283001359e-15
1.721063145e-15
2.370002405e-15
3.259304327e-15
4.382977473e-15
5.659612952e-15
6.88881542e-15
7.727732561e-15
1.767369161e-15
2.225491067e-15
2.984935559e-15
4.109234254e-15
5.648632525e-15
7.591648961e-15
9.7964289e-15
1.191648327e-14
1.336155668e-14
3.064260628e-15
3.858261956e-15
5.173728991e-15
7.119524215e-15
9.780736975e-15
1.313505422e-14
1.693518097e-14
2.058302082e-14
2.306534603e-14
5.309112328e-15
6.683857285e-15
8.959744954e-15
1.232250237e-14
1.691508002e-14
2.269359279e-14
2.922680597e-14
3.548455397e-14
3.973389943e-14
9.189828556e-15
1.156682883e-14
1.54981569e-14
2.12989447e-14
2.920693088e-14
3.913503873e-14
5.033130798e-14
6.102637107e-14
6.826972536e-14
1.588751136e-14
1.999007314e-14
2.676713689e-14
3.674977292e-14
5.032835213e-14
6.73292384e-14
8.644196485e-14
1.046384401e-13
1.169225146e-13
2.742356452e-14
3.44880272e-14
4.61405329e-14
6.326860368e-14
8.650305764e-14
1.154973825e-13
1.47970861e-13
1.787644519e-13
1.994727005e-13
4.724463815e-14
5.937428833e-14
7.934535461e-14
1.08626073e-13
1.482155095e-13
1.974244861e-13
2.522930873e-13
3.040799741e-13
3.387498956e-13
8.120250083e-14
1.019554536e-13
1.360501311e-13
1.858859954e-13
2.530055343e-13
3.360479843e-13
4.281628933e-13
5.14636656e-13
5.722330371e-13
1.391846992e-13
1.745409235e-13
2.324771781e-13
3.168582476e-13
4.299887812e-13
5.692108075e-13
7.227337631e-13
8.659823869e-13
9.608517681e-13
2.378088114e-13
2.977435167e-13
3.956588787e-13
5.376739772e-13
7.270853819e-13
9.587724908e-13
1.212577665e-12
1.447816449e-12
1.602644215e-12
4.048395509e-13
5.058524772e-13
6.703038973e-13
9.076886621e-13
1.222442252e-12
1.604859469e-12
2.020763708e-12
2.403465101e-12
2.653688561e-12
6.863700852e-13
8.554986373e-13
1.129758482e-12
1.523537784e-12
2.042264512e-12
2.667877815e-12
3.34300171e-12
3.959491111e-12
4.359802794e-12
1.158393333e-12
1.439491904e-12
1.893316932e-12
2.541071242e-12
3.38831893e-12
4.402107635e-12
5.487190517e-12
6.470197755e-12
7.104021308e-12
1.945270019e-12
2.408692735e-12
3.153259253e-12
4.209189947e-12
5.579861822e-12
7.206385783e-12
8.932585748e-12
1.048381692e-11
1.147697872e-11
3.248908692e-12
4.006218025e-12
5.216617575e-12
6.921457777e-12
9.116847826e-12
1.169975383e-11
1.441742714e-11
1.684000803e-11
1.838029575e-11
5.394387234e-12
6.620363436e-12
8.568993474e-12
1.129397962e-11
1.477423317e-11
1.883326634e-11
2.306753242e-11
2.681225081e-11
2.917719199e-11
8.900506008e-12
1.086559998e-11
1.397103595e-11
1.8281718e-11
2.374132699e-11
3.005378545e-11
3.658347111e-11
4.231421533e-11
4.591028799e-11
1.45876925e-11
1.770521286e-11
2.260281283e-11
2.935057412e-11
3.782591956e-11
4.754203169e-11
5.751102123e-11
6.619681715e-11
7.161450354e-11
2.374121112e-11
2.863505784e-11
3.627777186e-11
4.672974267e-11
5.975094623e-11
7.455609784e-11
8.962942307e-11
1.02673198e-10
1.10763927e-10
3.835536286e-11
4.595614941e-11
5.775698536e-11
7.377882846e-11
9.358257287e-11
1.159239854e-10
1.385054746e-10
1.57923376e-10
1.699066241e-10
6.149510938e-11
7.317524365e-11
9.120685991e-11
1.155180351e-10
1.453439623e-10
1.787457498e-10
2.122801319e-10
2.409502431e-10
2.585620588e-10
9.782647962e-11
1.155884736e-10
1.428608119e-10
1.793888589e-10
2.238901766e-10
2.733892357e-10
3.227798007e-10
3.647859645e-10
3.904841585e-10
1.543878429e-10
1.811251761e-10
2.219694328e-10
2.763391515e-10
3.421487933e-10
4.148953609e-10
4.870793034e-10
5.481848181e-10
5.854320882e-10
2.417029705e-10
2.815598651e-10
3.421571961e-10
4.223632521e-10
5.188709741e-10
6.24952557e-10
7.29691132e-10
8.179897637e-10
8.71643645e-10
3.753769219e-10
4.342434727e-10
5.233475099e-10
6.406706479e-10
7.810863002e-10
9.34658646e-10
1.085622398e-09
1.212433224e-09
1.289280468e-09
5.783311411e-10
6.64515091e-10
7.944461883e-10
9.647247656e-10
1.167546469e-09
1.388386821e-09
1.604639708e-09
1.785727522e-09
1.895212995e-09
8.839970367e-10
1.009149415e-09
1.197153248e-09
1.44250847e-09
1.733517453e-09
2.049138776e-09
2.357163553e-09
2.614406776e-09
2.769632106e-09
1.340797612e-09
1.521172862e-09
1.791271005e-09
2.142459868e-09
2.557439473e-09
3.005971838e-09
3.442429753e-09
3.806094136e-09
4.025179011e-09
2.01841779e-09
2.276589347e-09
2.662098407e-09
3.161715805e-09
3.750151246e-09
4.384262122e-09
4.999747872e-09
5.511581282e-09
5.819517126e-09
3.016546028e-09
3.3837388e-09
3.930694756e-09
4.637525193e-09
5.467630727e-09
6.359851523e-09
7.223995779e-09
7.941434739e-09
8.372605622e-09
4.477017759e-09
4.99627542e-09
5.76808263e-09
6.763006986e-09
7.928548514e-09
9.178503326e-09
1.038689847e-08
1.138877967e-08
1.199038612e-08
6.600629451e-09
7.331110482e-09
8.414846305e-09
9.808850683e-09
1.143839532e-08
1.318260118e-08
1.486619223e-08
1.626049934e-08
1.709720564e-08
9.670348867e-09
1.069314772e-08
1.220810407e-08
1.415312875e-08
1.642257367e-08
1.884771594e-08
2.118552386e-08
2.311988684e-08
2.428012249e-08
1.408326185e-08
1.550928966e-08
1.761853532e-08
2.032215934e-08
2.347169009e-08
2.683259314e-08
3.006894215e-08
3.274485864e-08
3.434935755e-08
2.039441924e-08
2.237506403e-08
2.530108438e-08
2.904638832e-08
3.340341865e-08
3.804735966e-08
4.251519285e-08
4.620728398e-08
4.842065248e-08
2.937684265e-08
3.21183785e-08
3.616421551e-08
4.133663195e-08
4.734681962e-08
5.374641246e-08
5.989883943e-08
6.498091809e-08
6.802730456e-08
4.210339224e-08
4.588643995e-08
5.146424669e-08
5.858783541e-08
6.685699874e-08
7.565465592e-08
8.410763323e-08
9.10879948e-08
9.527231637e-08
6.005808369e-08
6.526386987e-08
7.293344843e-08
8.271987128e-08
9.407060844e-08
1.061386376e-07
1.177287015e-07
1.272978996e-07
1.330345999e-07
8.528686785e-08
9.243261464e-08
1.029533707e-07
1.163679483e-07
1.31916055e-07
1.484378373e-07
1.643001635e-07
1.773956707e-07
1.852476734e-07
1.206009534e-07
1.303874902e-07
1.447883584e-07
1.63139029e-07
1.843964936e-07
2.069760026e-07
2.286498357e-07
2.465434712e-07
2.572748979e-07
1.698495356e-07
1.832251867e-07
2.028985021e-07
2.279553236e-07
2.569688057e-07
2.877780154e-07
3.173487369e-07
3.417646136e-07
3.564119653e-07
2.382833128e-07
2.565292921e-07
2.833563169e-07
3.175113689e-07
3.570476475e-07
3.990241342e-07
4.393139133e-07
4.725868765e-07
4.925547259e-07
3.330353327e-07
3.578792448e-07
3.943970623e-07
4.408771407e-07
4.946699399e-07
5.517800724e-07
6.066019889e-07
6.518889492e-07
6.790776323e-07
4.637512143e-07
4.975167211e-07
5.471383203e-07
6.102854491e-07
6.833610082e-07
7.609471666e-07
8.354405249e-07
8.969993354e-07
9.339734391e-07
6.43406022e-07
6.892080789e-07
7.565093428e-07
8.421463778e-07
9.412475375e-07
1.046480097e-06
1.147546593e-06
1.231098518e-06
1.281305688e-06
8.893489592e-07
9.51344878e-07
1.042433274e-06
1.158332969e-06
1.292462388e-06
1.434917608e-06
1.571777897e-06
1.684969218e-06
1.753018301e-06
1.224617927e-06
1.308324328e-06
1.431303529e-06
1.587778208e-06
1.768879222e-06
1.961261119e-06
2.146147565e-06
2.299122114e-06
2.391127051e-06
1.679561559e-06
1.792245289e-06
1.957786604e-06
2.168410605e-06
2.412197475e-06
2.671213414e-06
2.920205642e-06
3.126291581e-06
3.250282024e-06
2.29379378e-06
2.444940258e-06
2.666964439e-06
2.949431272e-06
3.276367499e-06
3.623751905e-06
3.957745674e-06
4.234245474e-06
4.400635601e-06
3.118482269e-06
3.320336784e-06
3.616797522e-06
3.993897152e-06
4.430300143e-06
4.893957753e-06
5.339734291e-06
5.708786272e-06
5.930881244e-06
4.218935262e-06
4.487101154e-06
4.88084415e-06
5.381522981e-06
5.960746187e-06
6.575956643e-06
7.167290169e-06
7.656746544e-06
7.951250884e-06
5.67740038e-06
6.031463361e-06
6.551113209e-06
7.211551955e-06
7.975163996e-06
8.785756107e-06
9.564467792e-06
1.020870837e-05
1.059618349e-05
7.595927438e-06
8.060059018e-06
8.740862727e-06
9.605478249e-06
1.060432758e-05
1.166370376e-05
1.268054437e-05
1.352112996e-05
1.402636505e-05
1.009908102e-05
1.070255809e-05
1.158709302e-05
1.270934791e-05
1.40043796e-05
1.53762478e-05
1.66914768e-05
1.777755698e-05
1.842975525e-05
1.333622831e-05
1.411379704e-05
1.525244039e-05
1.669533145e-05
1.835800811e-05
2.011668322e-05
2.180024143e-05
2.318856875e-05
2.402131238e-05
1.748309143e-05
1.847510168e-05
1.992615274e-05
2.176224797e-05
2.387446674e-05
2.61046368e-05
2.823574344e-05
2.999024702e-05
3.104119497e-05
2.274224402e-05
2.399448108e-05
2.582385439e-05
2.813482749e-05
3.078822095e-05
3.358402405e-05
3.625017487e-05
3.844104585e-05
3.975134705e-05
2.934230319e-05
3.09055161e-05
3.318597866e-05
3.606148925e-05
3.935601467e-05
4.281944518e-05
4.611479187e-05
4.881708683e-05
5.043051909e-05
3.753569381e-05
3.946471448e-05
4.227455158e-05
4.581051748e-05
4.985239901e-05
5.409106735e-05
5.811422997e-05
6.140604717e-05
6.336791984e-05
4.759469007e-05
4.994722076e-05
5.336844677e-05
5.766475825e-05
6.256384472e-05
6.768818904e-05
7.25396085e-05
7.649993267e-05
7.88558134e-05
5.980596098e-05
6.264106673e-05
6.675723646e-05
7.191502046e-05
7.778169515e-05
8.390179606e-05
8.968077654e-05
9.438711777e-05
9.718145877e-05
7.446378399e-05
7.784016953e-05
8.273390944e-05
8.885249627e-05
9.579431581e-05
0.0001030165005
0.0001098181165
0.0001153440833
0.0001186188284
9.186225175e-05
9.583642268e-05
0.0001015868266
0.0001087605975
0.0001168788583
0.000125302294
0.0001332143425
0.0001396272886
0.0001434205403
0.0001122868845
0.0001169113019
0.0001235913448
0.0001319066454
0.0001412930759
0.0001510065455
0.000160106712
0.0001674655843
0.0001718104003
0.0001360061049
0.00014132744
0.0001490015578
0.0001585338495
0.0001692676094
0.0001803466397
0.0001907000221
0.000199053513
0.0002039768887
0.0001632630311
0.0001693206146
0.0001780425786
0.0001888539757
0.0002009991096
0.0002135035873
0.0002251606868
0.0002345457692
0.000240067846
0.0001942680049
0.000201092547
0.0002109037329
0.0002230410361
0.0002366444906
0.00025061686
0.0002636121117
0.0002740530033
0.0002801865252
0.0002291922022
0.000236804835
0.0002477329551
0.0002612262532
0.0002763165222
0.0002917806149
0.0003061314918
0.0003176390669
0.0003243890927
0.000268162584
0.0002765742557
0.0002886325874
0.0003034944581
0.0003200808785
0.0003370413863
0.0003527480764
0.0003653197176
0.0003726835815
0.0003112583495
0.0003204695751
0.0003336566882
0.000349881993
0.0003679546756
0.0003863972415
0.0004034428666
0.0004170627286
0.00042503023
0.0003585089593
0.0003685099125
0.0003828098699
0.0004003761068
0.0004199064553
0.0004397983276
0.0004581496507
0.000472789289
0.0004813430844
0.0004098937057
0.0004206646212
0.0004360476063
0.0004549157584
0.0004758575051
0.0004971486817
0.0005167572303
0.000532376538
0.0005414927016
0.0004653427357
0.0004768545787
0.0004932778863
0.0005133936892
0.0005356843605
0.0005583091318
0.000579112658
0.0005956610471
0.0006053097629
0.0005247393732
0.0005369547238
0.0005543640426
0.0005756595829
0.0005992222984
0.0006231010948
0.0006450252844
0.000662443045
0.0006725893936
0.0005879235424
0.0006007976432
0.0006191285534
0.0006415241056
0.0006662696125
0.0006913110608
0.0007142714077
0.0007324911804
0.0007430959847
0.0006546960753
0.0006681779851
0.0006873575957
0.00071076361
0.0007365924583
0.0007626955535
0.0007865993194
0.0008055476216
0.0008165683167
0.0007248236703
0.0007388574745
0.0007588061293
0.0007831252863
0.0008099300568
0.0008369863682
0.0008617345554
0.0008813333067
0.0008927248059
0.0007980442766
0.0008125703077
0.0008332032966
0.0008583325545
0.0008860000639
0.0009138959016
0.0009393851779
0.0009595531797
0.0009712687108
0.0008740726912
0.0008890287189
0.0009102579401
0.0009360905134
0.000964503932
0.000993122414
0.001019246938
0.001039901271
0.001051893163
0.000952606177
0.000967928536
0.0009896640658
0.001016091284
0.001045132114
0.001074355087
0.001101008198
0.001122065505
0.001134285911
0.001033329937
0.001048954568
0.001071106103
0.001098019111
0.001127568988
0.00115727877
0.001184354505
0.001205732149
0.001218133693
0.001115922311
0.001131785693
0.001154263842
0.001181555119
0.001211497413
0.001241578328
0.001268972763
0.001290589836
0.001303126176
0.001200059585
0.001216099555
0.001238816968
0.001266381644
0.00129660284
0.00132694254
0.001354554932
0.001376333117
0.001388959428
0.001285420341
0.001301576791
0.001324449111
0.00135218608
0.001382576939
0.001413067508
0.00144080125
0.001462665529
0.001475338899
0.0013716893
0.001387904748
0.001410851398
0.001438664226
0.001469120727
0.00149965957
0.001527422944
0.001549302174
0.001561981919
0.001458560625
0.001474780668
0.001497725469
0.001525523104
0.001555947175
0.001586437706
0.001614144473
0.001635971812
0.001648619716
0.001545740683
0.001561914345
0.001584785976
0.001612483277
0.001642783335
0.00167313547
0.001700705284
0.001722418499
0.001734998983
0.001632950288
0.001649030251
0.001671762573
0.00169928067
0.001729371977
0.001759502463
0.001786861141
0.001808402801
0.001820883029
0.001719926428
0.001735869184
0.001758401431
0.001785667932
0.001815472798
0.001845305388
0.001872385043
0.001893702618
0.001906052546
0.001806423536
0.001822189451
0.001844466307
0.001871415382
0.00190086323
0.001930328724
0.00195706779
0.001978113652
0.001990306034
0.001892214334
0.001907767643
0.00192973923
0.001956311571
0.001985338882
0.002014375061
0.00204071822
0.002061449584
0.002073459933
0.001977090293
0.001992399035
0.002014020815
0.002040163516
0.002068713684
0.002097265146
0.002123163172
0.002143541974
0.002155348489
0.002060861768
0.002075897681
0.002097130297
0.002122796649
0.002150819748
0.002178837675
0.002204247222
0.002224239943
0.002235823415
0.00214335785
0.002158096218
0.002178905281
0.002204054513
0.002231507012
0.002258948882
0.002283832214
0.002303409676
0.002314753372
0.002224425982
0.002238845462
0.002259201302
0.002283798276
0.002310642703
0.002337471952
0.002361796645
0.002380933778
0.002392023301
0.002303931381
0.002318013805
0.002337891192
0.002361906069
0.002388110647
0.002414296307
0.002438034921
0.002456710509
0.002467533664
0.002381756313
0.002395486479
0.002414864329
0.002438272211
0.002463810474
0.002489326791
0.00251245653
0.002530652947
0.002541199588
0.002457799248
0.002471164703
0.002490025771
0.002512806341
0.002537656735
0.002562482779
0.002584985143
0.002602688088
0.002612949965
0.002531973934
0.002544964756
0.002563295334
0.00258543248
0.002609577971
0.002633697248
0.002655557686
0.002672755911
0.002682726521
0.002604208425
0.002616817005
0.002634606611
0.00265608807
0.002679515749
0.002702915816
0.002724123382
0.002740808432
0.002750482869
0.002674444064
0.002686664893
0.002703905981
0.002724722982
0.002747423686
0.002770095775
0.0027906428
0.002806808755
0.002816183565
0.002742634475
0.002754463941
0.002771151609
0.002791298531
0.00281326648
0.002835205139
0.002855086908
0.00287073014
0.002879803183
0.002808744544
0.002820180736
0.00283631246
0.002855786509
0.002877018953
0.002898221708
0.002917436159
0.002932555096
0.002941325412
0.002872749437
0.002883791963
0.002899367334
0.002918168236
0.002938665129
0.00295913216
0.002977679596
0.002992274503
0.003000742189
0.002934633643
0.002945283454
0.00296030394
0.002978433656
0.002998197346
0.003017931186
0.00303581401
0.003049886782
0.003058052872
0.002994390055
0.003004649287
0.003019118008
0.003036580463
0.00305561541
0.003074620663
0.003091843127
0.003105397098
0.003113263456
0.003052019098
0.003061890923
0.003075812446
0.003092613286
0.003110925796
0.003129208879
0.003145776857
0.003158816621
0.003166385836
0.003107527916
0.003117016405
0.00313039655
0.003146542916
0.003164140896
0.003181709804
0.003197630574
0.003210161822
0.00321743712
0.003160929593
0.003170039593
0.003182885262
0.003198385581
0.003215278321
0.003232142404
0.003247424461
0.003259453832
0.003266438987
0.003212242445
0.003220979464
0.003233298484
0.003248162283
0.00326436025
0.003280530021
0.003295182897
0.003306717841
0.003313417097
0.003261489356
0.003269859461
0.003281660437
0.00329589817
0.003311412831
0.003326899781
0.003340933888
0.00335198254
0.003358400542
0.003308697171
0.003316706898
0.003327999085
0.003341621981
0.003356465633
0.003371282072
0.003384708553
0.003395279626
0.003401421353
0.003353896137
0.003361552403
0.003372345594
0.003385365519
0.00339955114
0.003413710051
0.003426540654
0.003436643333
0.003442514041
0.003397119391
0.003404429425
0.003414733843
0.003427163175
0.003440704297
0.003454219204
0.003466466164
0.003476110016
0.003481715189
0.00343840249
0.003445373766
0.003455199976
0.0034670515
0.003479962086
0.003492846941
0.003504522876
0.003513717773
0.003519063071
0.003477782996
0.003484423174
0.003493782003
0.00350506881
0.003517363155
0.003529632235
0.003540750056
0.003549506101
0.003554597322
0.003515300085
0.003521616967
0.003530519431
0.003541254841
0.00355294748
0.003564615296
0.003575188125
0.003583515588
0.003588358631
0.003550994197
0.003556995687
0.003565452939
0.003575650425
0.003586756054
0.003597837276
0.003607878377
0.00361578764
0.003620388472
0.003584906716
0.003590600798
0.003598624084
0.003608297216
0.003618830628
0.003629340014
0.003638862729
0.00364636424
0.003650728869
0.003617079728
0.003622474433
0.00363007505
0.003639237443
0.003649213467
0.003659165806
0.003668183502
0.00367528773
0.003679422179
0.003647555851
0.003652659192
0.003659848439
0.003668513701
0.003677947149
0.003687357208
0.003695883233
0.00370260063
0.003706510916
0.003676378055
0.003681197987
0.003687987108
0.003696168781
0.003705074395
0.003713956868
0.003722004501
0.003728345472
0.003732037587
0.003703589509
0.003708133908
0.003714534006
0.003722245512
0.003730637909
0.003739007371
0.003746589791
0.00375256466
0.003756044553
0.003729233322
0.003733509939
0.003739531997
0.003746786601
0.003754680241
0.003762551113
0.003769681358
0.003775300347
0.003778573909
0.003753352425
0.003757368903
0.003763023718
0.003769834517
0.003777243666
0.003784630182
0.003791321124
0.003796594325
0.003799667378
0.00377598945
0.003779753322
0.003785051543
0.003791431388
0.003798370083
0.003805286254
0.003811550574
0.003816487935
0.003819366218
0.003797186602
0.003800705263
0.00380565733
0.003811618871
0.003818100906
0.003824560508
0.003830410674
0.003835021981
0.003837711142
0.003816985564
0.003820266275
0.003824882439
0.003830438071
0.003836476983
0.003842493537
0.003847941794
0.003852236658
0.003854742249
0.003835427423
0.003838477299
0.003842767604
0.003847929468
0.003853538529
0.003859125295
0.00386418365
0.003868171499
0.003870498969
0.003852552604
0.003855378614
0.003859352901
0.003864132894
0.003869325085
0.00387449504
0.003879175252
0.003882865326
0.003885020013
0.003868400815
0.003871009774
0.003874677666
0.003879087415
0.003883875445
0.003888641287
0.003892954863
0.003896356203
0.003898343337
0.003883011007
0.003885409575
0.003888780474
0.003892831344
0.003897227633
0.003901601778
0.003905559967
0.003908681413
0.003910506107
0.003896421342
0.003898616027
0.003901699119
0.003905402213
0.003909418885
0.003913413451
0.003917027241
0.00391987743
0.003921544681
0.003908669168
0.003910666321
0.003913470578
0.003916836745
0.003920485615
0.003924112427
0.003927392538
0.003929979902
0.00393149459
0.003919790994
0.003921596809
0.003924130973
0.00392717077
0.003930463386
0.00393373398
0.003936690871
0.003939023634
0.003940390521
0.003929822479
0.003931442993
0.003933715585
0.003936439312
0.003939386921
0.00394231254
0.003944956406
0.003947042587
0.003948266316
0.00393879842
0.003940239516
0.003942258839
0.003944676529
0.003947290084
0.003949881681
0.003952222455
0.003954069868
0.003955154964
0.003946752751
0.003948020154
0.003949794295
0.003951915718
0.003954205885
0.003956474124
0.003958521478
0.003960137733
0.003961088604
0.003953718536
0.003954817822
0.003956354649
0.003958189315
0.003960166475
0.003962121737
0.003963885085
0.00396527759
0.00396609853
0.003959727981
0.003960664571
0.00396197174
0.003963528903
0.003965203155
0.003966855539
0.003968344044
0.003969520008
0.003970215194
0.00396481243
0.0039655916
0.003966676558
0.003967965215
0.003969346383
0.003970705713
0.003971928285
0.003972894723
0.00397346822
0.003969002382
0.003969629259
0.003970499246
0.003971528147
0.003972625783
0.003973701612
0.003974666916
0.003975430649
0.003975886411
0.003972327497
0.003972807066
0.003973469119
0.00397424677
0.003975070159
0.003975871772
0.003976588234
0.003977155892
0.003977497763
0.00397481661
0.003975153716
0.003975614673
0.003976149339
0.003976707506
0.003977243928
0.003977719735
0.003978097765
0.003978329483
0.003976497744
0.003976697092
0.003976963599
0.003977263312
0.003977565024
0.003977845024
0.003978088133
0.003978282798
0.003978407995
0.003977398124
0.003977464287
0.0039775428
0.00397761536
0.003977669135
0.003977701233
0.003977719372
0.003977736759
0.003977758963
0.003977544197
0.003977481615
0.003977378401
0.003977231388
0.003977045499
0.003976837967
0.003976638644
0.003976484664
0.003976407304
0.00397696164
0.003976774625
0.003976495774
0.003976136544
0.003975719025
0.003975279899
0.003974870404
0.003974550796
0.003974377202
0.003975675386
0.003975368124
0.003974919546
0.003974355243
0.003973713894
0.003973050973
0.003972438385
0.003971958722
0.003971692126
0.003973709633
0.003973286189
0.003972673621
0.00397191118
0.00397105357
0.003970174427
0.003969365613
0.003968731305
0.003968374844
0.003971087867
0.003970552184
0.003969781194
0.003968827344
0.003967760821
0.003966672801
0.003965674427
0.003964890721
0.003964447438
0.003967832876
0.003967188781
0.003966264772
0.003965126041
0.003963857731
0.00396256796
0.00396138649
0.003960458475
0.003959931321
0.003963966771
0.003963217974
0.003962146186
0.003960828906
0.00395936572
0.003957881108
0.00395652281
0.003955455418
0.003954847252
0.003959511
0.003958661102
0.003957446615
0.003955956926
0.003954305564
0.003952632808
0.003951103754
0.003949901763
0.003949215355
0.003954486376
0.003953538866
0.003952186605
0.003950530456
0.003948697413
0.003946843002
0.003945149075
0.003943817111
0.003943055139
0.003948913097
0.003947871357
0.003946386093
0.003944569246
0.003942560818
0.003940531039
0.003938677934
0.003937220474
0.003936385531
0.003942810776
0.003941678084
0.003940064446
0.003938092489
0.003935914769
0.003933715711
0.003931708942
0.00393013032
0.003929224911
0.003936198475
0.003934978013
0.003933240488
0.003931118843
0.003928777736
0.003926415296
0.003924260206
0.003922564616
0.003921591165
0.003929094755
0.003927789607
0.00392593255
0.003923666477
0.003921167716
0.003918647623
0.003916349398
0.00391454091
0.003913501767
0.003921517727
0.003920130894
0.003918158537
0.003915753147
0.003913102321
0.003910430156
0.003907993847
0.003906076423
0.003904973873
0.003913485144
0.003912019553
0.00390993603
0.003907396318
0.003904598891
0.003901780115
0.003899210669
0.003897188191
0.003896024473
0.003905014497
0.003903473022
0.003901282393
0.003898613277
0.003895674628
0.003892714629
0.003890016934
0.003887893243
0.003886670575
0.003896123147
0.003894508632
0.003892214922
0.003889421281
0.003886346775
0.003883250939
0.003880429891
0.003878208842
0.003876929452
0.003886828492
0.003885143788
0.003882751036
0.003879837802
0.003876632867
0.00387340666
0.00387046725
0.003868152789
0.003866818967
0.003877148183
0.003875396199
0.003872908544
0.003869880786
0.003866551027
0.003863200121
0.00386014755
0.003857743809
0.003856357968
0.003867100389
0.003865284155
0.003862705934
0.003859569002
0.003856120352
0.003852650778
0.003849490608
0.003847002037
0.003845566791
0.003856704142
0.003854826902
0.003852162816
0.003848922501
0.003845361401
0.003841779736
0.003838518075
0.003835949594
0.003834467858
0.00384597981
0.003844045194
0.003841300458
0.003837963174
0.003834296782
0.003830610379
0.003827254097
0.003824611284
0.003823086388
0.003834949835
0.003832961951
0.003830142434
0.003826715414
0.003822951847
0.003819169092
0.003815726079
0.003813015387
0.003811451213
0.00382363942
0.00382160293
0.003818715324
0.003815206863
0.003811355476
0.003807486091
0.003803965549
0.003801194546
0.003799595678
0.003812077194
0.003809997462
0.003807049502
0.003803469232
0.003799540943
0.003795596324
0.003792009086
0.003789186725
0.00378755861
0.003800296006
0.003798179274
0.003795179988
0.00379153919
0.003787546824
0.003783540407
0.003779899287
0.003777036185
0.003775385299
0.003788333783
0.003786187364
0.003783147346
0.003779459279
0.003775417943
0.003771365573
0.003767685702
0.003764794414
0.003763128424
0.003776234427
0.003774066893
0.003770998573
0.003767278805
0.003763206238
0.003759126524
0.003755425669
0.003752520929
0.003750848825
0.00376404865
0.003761870017
0.003758787908
0.003755054606
0.00375097149
0.003746886103
0.003743184913
0.003740283808
0.003738615989
0.003751834694
0.00374965656
0.003746577454
0.003742851603
0.003738781779
0.003734715629
0.00373103777
0.003728159812
0.003726508109
0.003739658787
0.003737494416
0.003734437484
0.003730742983
0.003726713514
0.003722694768
0.003719066878
0.003716233916
0.003714611506
0.003727595219
0.003725459535
0.003722446291
0.003718809868
0.003714850886
0.003710910745
0.003707362153
0.00370459809
0.003703019282
0.003715725888
0.00371363534
0.00371068942
0.003707140306
0.003703284586
0.003699456756
0.003696018908
0.003693349155
0.003691829029
0.003704139164
0.003702111434
0.003699258145
0.003695827463
0.003692109648
0.003688429461
0.003685135006
0.00368258567
0.003681139543
0.003692927958
0.003690981491
0.003688247098
0.003684966916
0.003681422386
0.003677925537
0.003674807055
0.003672403836
0.003671046565
0.003682186931
0.003680340273
0.003677751008
0.003674653067
0.003671316428
0.003668037349
0.003665125757