/*--------------------------------*- C++ -*----------------------------------*\
| =========                 |                                                 |
| \\      /  F ield         | OpenFOAM: The Open Source CFD Toolbox           |
|  \\    /   O peration     | Version:  2212                                  |
|   \\  /    A nd           | Website:  www.openfoam.com                      |
|    \\/     M anipulation  |                                                 |
\*---------------------------------------------------------------------------*/
FoamFile
{
    version     2.0;
    format      ascii;
    arch        "LSB;label=32;scalar=64";
    class       volScalarField;
    location    "18.25000000";
    object      CH2CO;
}
// * * * * * * * * * * * * * * * * * * * * * * * * * * * * * * * * * * * * * //

dimensions      [0 0 0 0 0 0 0];

internalField   nonuniform List<scalar> 
3000
(
5.823787095e-21
6.5421221e-21
7.626074302e-21
9.070520286e-21
1.086077178e-20
1.294821224e-20
1.520708508e-20
1.736247239e-20
1.888658851e-20
2.186445987e-20
2.466032055e-20
2.887739777e-20
3.450943482e-20
4.155081737e-20
4.996250411e-20
5.959850225e-20
6.997241021e-20
7.916202614e-20
4.897271288e-20
5.566833757e-20
6.586391569e-20
7.970697145e-20
9.744634268e-20
1.193392989e-19
1.452996655e-19
1.738699628e-19
1.982877943e-19
9.327347618e-20
1.07136016e-19
1.285542013e-19
1.582523567e-19
1.972822249e-19
2.466351899e-19
3.060416798e-19
3.707457856e-19
4.229704532e-19
1.656138333e-19
1.925610943e-19
2.348509406e-19
2.946305294e-19
3.747103995e-19
4.773338167e-19
6.007854407e-19
7.318830829e-19
8.325159547e-19
2.847530255e-19
3.353227565e-19
4.158222549e-19
5.313865285e-19
6.88177368e-19
8.901370082e-19
1.131231052e-18
1.381054436e-18
1.565875693e-18
4.833476575e-19
5.762266434e-19
7.25799293e-19
9.429490547e-19
1.239762562e-18
1.622134799e-18
2.074246111e-18
2.533586297e-18
2.865019289e-18
8.178803123e-19
9.859474264e-19
1.259012433e-18
1.658519756e-18
2.206743121e-18
2.911567269e-18
3.7376246e-18
4.564676457e-18
5.151479151e-18
1.38621894e-18
1.687134344e-18
2.179209394e-18
2.90279336e-18
3.897506522e-18
5.172899877e-18
6.656918816e-18
8.127280971e-18
9.159015711e-18
2.357843271e-18
2.892395916e-18
3.770540628e-18
5.06602372e-18
6.848049628e-18
9.126958452e-18
1.176399517e-17
1.435764633e-17
1.616408573e-17
4.026475601e-18
4.970534323e-18
6.526355051e-18
8.826272908e-18
1.199014612e-17
1.602723845e-17
2.067960557e-17
2.523208674e-17
2.838700269e-17
6.901339096e-18
8.561375782e-18
1.130319301e-17
1.536156315e-17
2.09434657e-17
2.805346338e-17
3.622263817e-17
4.418792351e-17
4.968905794e-17
1.186569883e-17
1.477537443e-17
1.958856348e-17
2.67188205e-17
3.652348148e-17
4.899559894e-17
6.329495084e-17
7.720257565e-17
8.678501612e-17
2.045207599e-17
2.554014593e-17
3.396593904e-17
4.645472662e-17
6.362396734e-17
8.544264466e-17
1.104191858e-16
1.346674707e-16
1.513487355e-16
3.531990168e-17
4.420199132e-17
5.892197411e-17
8.07481991e-17
1.107487491e-16
1.488452559e-16
1.924015244e-16
2.34588073e-16
2.636606672e-16
6.108407413e-17
7.6569216e-17
1.022463955e-16
1.403292935e-16
1.926667405e-16
2.590856845e-16
3.348518477e-16
4.067952529e-16
4.588249254e-16
1.057520647e-16
1.327214873e-16
1.774591567e-16
2.438225251e-16
3.350140052e-16
4.507077277e-16
5.829180383e-16
7.123238903e-16
7.984776397e-16
1.832178919e-16
2.301499508e-16
3.080230189e-16
4.235499484e-16
5.822761807e-16
7.835683007e-16
1.01328791e-15
1.235596623e-15
1.387845977e-15
3.175932496e-16
3.992119991e-16
5.346641576e-16
7.356210241e-16
1.011688025e-15
1.361686918e-15
1.76093899e-15
2.147015331e-15
2.411542807e-15
5.507296869e-16
6.926059441e-16
9.280884606e-16
1.277457856e-15
1.75735676e-15
2.365635235e-15
3.059294186e-15
3.729821283e-15
4.189099214e-15
9.55280737e-16
1.20182328e-15
1.611060095e-15
2.21821608e-15
3.052129472e-15
4.108919048e-15
5.313728542e-15
6.478025259e-15
7.275338945e-15
1.657380003e-15
2.085711702e-15
2.79672805e-15
3.851581451e-15
5.300229767e-15
7.135696624e-15
9.227733019e-15
1.124889504e-14
1.263270026e-14
2.876006677e-15
3.620055284e-15
4.855146942e-15
6.687384608e-15
9.203256099e-15
1.239021197e-14
1.602167122e-14
1.952910264e-14
2.192987461e-14
4.99128675e-15
6.283590351e-15
8.42865814e-15
1.161045597e-14
1.597856855e-14
2.15103309e-14
2.781158919e-14
3.389555431e-14
3.805861987e-14
8.662963364e-15
1.090719814e-14
1.463197697e-14
2.015597982e-14
2.773754826e-14
3.7335452e-14
4.826394879e-14
5.881099407e-14
6.602512576e-14
1.503571151e-14
1.893243092e-14
2.539878917e-14
3.498616623e-14
4.813980515e-14
6.478393783e-14
8.372525946e-14
1.019950348e-13
1.144848548e-13
2.609452081e-14
3.285888683e-14
4.408121398e-14
6.071400728e-14
8.352249623e-14
1.123656571e-13
1.451661898e-13
1.767798432e-13
1.983765332e-13
4.527895765e-14
5.701722532e-14
7.648491154e-14
1.05324099e-13
1.448451241e-13
1.947817244e-13
2.515160479e-13
3.061424246e-13
3.434243245e-13
7.854277322e-14
9.890194122e-14
1.326520368e-13
1.826164369e-13
2.510280712e-13
3.373767e-13
4.353582309e-13
5.29574515e-13
5.937943044e-13
1.361772797e-13
1.714630983e-13
2.299231156e-13
3.163952352e-13
4.346608706e-13
5.837284184e-13
7.526079659e-13
9.147198062e-13
1.025035588e-12
2.359396102e-13
2.970339678e-13
3.981755617e-13
5.47618195e-13
7.517146592e-13
1.008514679e-12
1.298853965e-12
1.57695144e-12
1.765794493e-12
4.084005661e-13
5.140356543e-13
6.88745853e-13
9.465357846e-13
1.297970676e-12
1.739180796e-12
2.236748649e-12
2.712042648e-12
3.033940964e-12
7.060488831e-13
8.883687917e-13
1.189544916e-12
1.633178292e-12
2.236617202e-12
2.992145171e-12
3.84152439e-12
4.650184943e-12
5.196095415e-12
1.218716663e-12
1.532664935e-12
2.050508152e-12
2.811688256e-12
3.844239129e-12
5.132761597e-12
6.575899425e-12
7.944382206e-12
8.864667258e-12
2.099574484e-12
2.638622225e-12
3.526146459e-12
4.827396371e-12
6.586770987e-12
8.773642903e-12
1.121203146e-11
1.351346708e-11
1.505421603e-11
3.608677054e-12
4.530948665e-12
6.046133283e-12
8.260864326e-12
1.124369081e-11
1.493413977e-11
1.902777361e-11
2.287071207e-11
2.543032481e-11
6.185429534e-12
7.756677764e-12
1.033139407e-11
1.408133171e-11
1.910891075e-11
2.529600974e-11
3.21186499e-11
3.84846936e-11
4.270073839e-11
1.056831863e-11
1.323184658e-11
1.758325453e-11
2.389447832e-11
3.231202003e-11
4.26083179e-11
5.388755572e-11
6.434169385e-11
7.122232295e-11
1.799120278e-11
2.248026653e-11
2.978857037e-11
4.033807275e-11
5.432589119e-11
7.132072287e-11
8.980374057e-11
1.068112071e-10
1.17931279e-10
3.050243083e-11
3.801858429e-11
5.020682965e-11
6.770659152e-11
9.075909895e-11
1.185617219e-10
1.485646374e-10
1.759618064e-10
1.937519039e-10
5.147901357e-11
6.397116216e-11
8.413937377e-11
1.129259343e-10
1.50578136e-10
1.956315689e-10
2.438533994e-10
2.875389364e-10
3.15706503e-10
8.644718184e-11
1.070418809e-10
1.401307869e-10
1.870569705e-10
2.479705685e-10
3.202545464e-10
3.969683148e-10
4.659063804e-10
5.100433593e-10
1.443787008e-10
1.78033791e-10
2.318245352e-10
3.075887435e-10
4.051536794e-10
5.199405427e-10
6.407169275e-10
7.483792584e-10
8.168314656e-10
2.397170961e-10
2.941997488e-10
3.807977619e-10
5.018981837e-10
6.565643093e-10
8.369531602e-10
1.025130575e-09
1.191552282e-09
1.296654418e-09
3.955099243e-10
4.82838675e-10
6.20845475e-10
8.124160494e-10
1.055048909e-09
1.3355869e-09
1.625781782e-09
1.880471563e-09
2.0402912e-09
6.481961491e-10
7.86737382e-10
1.004387939e-09
1.304265945e-09
1.680927757e-09
2.112740996e-09
2.555801337e-09
2.941837254e-09
3.182625511e-09
1.054839641e-09
1.272316236e-09
1.611957885e-09
2.076457972e-09
2.655159845e-09
3.31317113e-09
3.983125798e-09
4.562892139e-09
4.922514092e-09
1.703934485e-09
2.041693587e-09
2.566113884e-09
3.27815149e-09
4.158319084e-09
5.15134005e-09
6.155100825e-09
7.018292845e-09
7.551015739e-09
2.731366313e-09
3.25037215e-09
4.051659053e-09
5.132092209e-09
6.457751734e-09
7.942522064e-09
9.433373593e-09
1.070813124e-08
1.149129194e-08
4.34373734e-09
5.132914242e-09
6.344767528e-09
7.968128648e-09
9.946174371e-09
1.214680273e-08
1.434308867e-08
1.621143578e-08
1.735469225e-08
6.85210497e-09
8.039868943e-09
9.854595385e-09
1.227078541e-08
1.519615583e-08
1.843091874e-08
2.164181975e-08
2.436097516e-08
2.601908846e-08
1.072031496e-08
1.249042033e-08
1.518226134e-08
1.874630553e-08
2.303648715e-08
2.775457494e-08
3.241550833e-08
3.634714617e-08
3.873751387e-08
1.663361731e-08
1.92468412e-08
2.320368292e-08
2.841607657e-08
3.465813826e-08
4.148994502e-08
4.821105335e-08
5.386141143e-08
5.728804102e-08
2.55934507e-08
2.941674274e-08
3.518337053e-08
4.274560232e-08
5.176060119e-08
6.158621908e-08
7.121819441e-08
7.929263635e-08
8.417913945e-08
3.905068652e-08
4.459677794e-08
5.293311904e-08
6.382181795e-08
7.675079979e-08
9.079153307e-08
1.04513935e-07
1.159907324e-07
1.229253962e-07
5.908866797e-08
6.706883439e-08
7.902744603e-08
9.459288329e-08
1.130106904e-07
1.329498692e-07
1.523875115e-07
1.686143983e-07
1.784081473e-07
8.867257252e-08
1.000662609e-07
1.170943048e-07
1.391895654e-07
1.652535899e-07
1.933937249e-07
2.207659815e-07
2.435805495e-07
2.573366745e-07
1.319858314e-07
1.481316089e-07
1.722037896e-07
2.033527715e-07
2.399955001e-07
2.794589942e-07
3.177658816e-07
3.496417039e-07
3.688387936e-07
1.948799979e-07
2.175935366e-07
2.513842081e-07
2.949979524e-07
3.461718789e-07
4.011519154e-07
4.544042746e-07
4.986335159e-07
5.252328651e-07
2.854715527e-07
3.171968779e-07
3.642991337e-07
4.249479788e-07
4.959298626e-07
5.720013069e-07
6.455114734e-07
7.064452464e-07
7.430384939e-07
4.149206595e-07
4.589186972e-07
5.241152091e-07
6.078630038e-07
7.056286674e-07
8.101386931e-07
9.108975729e-07
9.942638276e-07
1.04426649e-06
5.984173402e-07
6.58994781e-07
7.485869513e-07
8.634010241e-07
9.970948358e-07
1.139664742e-06
1.276829882e-06
1.390137184e-06
1.458028753e-06
8.563958532e-07
9.391832788e-07
1.061396477e-06
1.217662417e-06
1.399197231e-06
1.592363146e-06
1.777869217e-06
1.930902413e-06
2.022519296e-06
1.216017984e-06
1.328317302e-06
1.493812846e-06
1.704988478e-06
1.949800406e-06
2.209802488e-06
2.459102105e-06
2.664522175e-06
2.787412845e-06
1.713001605e-06
1.864223778e-06
2.086739543e-06
2.370160309e-06
2.698120595e-06
3.045846222e-06
3.378794406e-06
3.652856295e-06
3.816707096e-06
2.393856781e-06
2.596051513e-06
2.893166912e-06
3.270995555e-06
3.707479782e-06
4.169569489e-06
4.6114628e-06
4.974859445e-06
5.191994545e-06
3.318512053e-06
3.586978281e-06
3.980992365e-06
4.481307739e-06
5.058421467e-06
5.668538396e-06
6.251306899e-06
6.730134943e-06
7.016086972e-06
4.563259635e-06
4.917227373e-06
5.436138772e-06
6.094149629e-06
6.852095474e-06
7.652336715e-06
8.41586327e-06
9.042687407e-06
9.416823625e-06
6.223918552e-06
6.687284171e-06
7.365847021e-06
8.225197227e-06
9.213734748e-06
1.025612805e-05
1.124963728e-05
1.20646024e-05
1.255077411e-05
8.419055317e-06
9.021138816e-06
9.90194287e-06
1.101603344e-05
1.229594276e-05
1.364392906e-05
1.49273452e-05
1.597924898e-05
1.66064096e-05
1.129302785e-05
1.206929263e-05
1.320377889e-05
1.463699271e-05
1.628140442e-05
1.801115452e-05
1.965627698e-05
2.100347369e-05
2.180618573e-05
1.50185245e-05
1.601117831e-05
1.746046862e-05
1.928913934e-05
2.138454309e-05
2.358590448e-05
2.567720053e-05
2.738816708e-05
2.840689522e-05
1.979820951e-05
2.105658297e-05
2.28919704e-05
2.520489963e-05
2.7851603e-05
3.062843268e-05
3.326321216e-05
3.541658202e-05
3.669765644e-05
2.586505566e-05
2.744564091e-05
2.974857005e-05
3.264687778e-05
3.595867078e-05
3.942829989e-05
4.27160338e-05
4.539990827e-05
4.6995048e-05
3.348097084e-05
3.544700418e-05
3.830837581e-05
4.190448278e-05
4.600728802e-05
5.029890051e-05
5.435949155e-05
5.766988408e-05
5.963520191e-05
4.293341987e-05
4.535391528e-05
4.887258856e-05
5.328818628e-05
5.831755193e-05
6.356935469e-05
6.853027129e-05
7.256863617e-05
7.496311018e-05
5.452991018e-05
5.747809762e-05
6.175853705e-05
6.712150371e-05
7.321892608e-05
7.957413785e-05
8.556647974e-05
9.043641557e-05
9.33198985e-05
6.859043384e-05
7.21416247e-05
7.729074248e-05
8.373109941e-05
9.103932593e-05
9.864119428e-05
0.0001057949418
0.0001115983178
0.0001150292372
8.5438208e-05
8.966718826e-05
9.579054708e-05
0.0001034356933
0.0001120933181
0.0001210795438
0.000129518413
0.0001363513514
0.0001403846327
0.0001053892861
0.0001103674113
0.0001175650523
0.0001265346282
0.0001366703945
0.0001471674041
0.0001570037231
0.0001649529783
0.0001696383753
0.0001287417806
0.0001345339992
0.0001428962246
0.000153297016
0.0001650242654
0.0001771417083
0.0001884716336
0.0001976103724
0.0002029872948
0.0001557655068
0.000162427558
0.0001720310028
0.000183952258
0.00019736406
0.0002111902105
0.000224088947
0.0002344704053
0.0002405674967
0.0001866927944
0.000194268747
0.0002051731246
0.000218682906
0.0002338482277
0.0002494451278
0.0002639605317
0.0002756175273
0.0002824515059
0.0002217111032
0.0002302316627
0.0002424773041
0.0002576197494
0.0002745785511
0.0002919767687
0.0003081295324
0.000321073349
0.000328648492
0.0002609580791
0.0002704394764
0.0002840451797
0.0003008350194
0.0003195954014
0.0003387951442
0.0003565783905
0.0003707987094
0.000379106935
0.0003045156726
0.0003149562253
0.0003299157233
0.0003483398423
0.0003688800341
0.0003898517286
0.000409231811
0.0004246975594
0.0004337190158
0.0003524014574
0.0003637836633
0.0003800686666
0.000400087342
0.0004223569414
0.0004450428548
0.0004659611198
0.0004826220463
0.000492326096
0.0004045735577
0.0004168649992
0.000434426443
0.0004559752221
0.0004798974448
0.000504214207
0.0005265895094
0.0005443783013
0.0005547247912
0.0004609327043
0.0004740873685
0.0004928573551
0.0005158496104
0.0005413242771
0.0005671660684
0.000590897819
0.0006097325851
0.0006206733009
0.0005213256779
0.0005352856289
0.0005551798645
0.0005795098681
0.0006064169012
0.0006336590746
0.0006586306139
0.0006784175738
0.0006898977912
0.0005855499628
0.0006002472614
0.0006211678138
0.0006467141427
0.0006749173574
0.0007034202874
0.0007295024018
0.000750138646
0.0007620987047
0.0006533593885
0.000668718148
0.0006905563688
0.0007171854599
0.0007465364612
0.0007761494363
0.0008032038646
0.0008245800724
0.0008369569141
0.0007244705101
0.0007404089892
0.0007630484629
0.000790618161
0.0008209601839
0.0008515251947
0.0008794079984
0.0009014110258
0.0009141396475
0.0007985694705
0.0008150021187
0.0008383215241
0.0008666844925
0.0008978560544
0.0009292113579
0.0009577760596
0.0009802913275
0.0009933061158
0.0008753190876
0.0008921584746
0.0009160342673
0.0009450411595
0.0009768794261
0.001008862796
0.001037963216
0.00106087685
0.001074112772
0.0009543659237
0.0009715245018
0.0009958333506
0.001025335669
0.001057679462
0.001090131067
0.001119623809
0.001142824505
0.001156218136
0.001035347118
0.001052738783
0.001077359715
0.001107212311
0.001139904712
0.001172669585
0.001202416153
0.001225796746
0.001239287138
0.001117896804
0.001135438229
0.00116025446
0.001190317648
0.001223208182
0.00125613827
0.001286006802
0.001309465544
0.001322994925
0.001201651958
0.001219263708
0.001244164144
0.001274305422
0.001307251822
0.001340207616
0.001370074253
0.001393515811
0.001407030123
0.0012862576
0.001303865003
0.001328745427
0.001358840825
0.001391710383
0.001424562159
0.00145431206
0.001477648245
0.001491097543
0.00137137126
0.001388905071
0.001413669025
0.001443604087
0.001476274633
0.001508903317
0.001538431363
0.001561581622
0.001574920329
0.001456666703
0.001474063567
0.001498622954
0.001528293399
0.001560653928
0.001592951642
0.001622162842
0.00164505453
0.001658241582
0.00154183692
0.001559039644
0.001583315086
0.001612627171
0.001644578171
0.001676448477
0.001705258138
0.001727826608
0.001740825488
0.001626596398
0.001643554074
0.001667475039
0.001696345676
0.001727799187
0.001759157089
0.001787490759
0.001809679294
0.001822457985
0.001710682724
0.001727350708
0.001750855466
0.001779212113
0.001810091568
0.0018408633
0.001868656547
0.001890416157
0.001902947021
0.001793857588
0.00181019737
0.00183323278
0.001861013163
0.001891253041
0.001921375692
0.001948573728
0.001969862849
0.00198212245
0.001875907239
0.001891886216
0.001914407394
0.001941559083
0.001971104422
0.00200052542
0.002027082623
0.002047866728
0.002059835608
0.001956642465
0.001972233645
0.001994203539
0.002020683412
0.002049489207
0.002078165708
0.002104045057
0.002124296211
0.002135958636
0.002035898179
0.002051079831
0.002072468715
0.002098242344
0.002126272873
0.002154171075
0.002179343525
0.002199039901
0.002210383587
0.002113532662
0.002128287928
0.002149072855
0.00217411384
0.002201341929
0.002228436343
0.002252880172
0.002272005538
0.002283021359
0.002189426548
0.00220374303
0.002223907251
0.002248196521
0.002274602787
0.002300875484
0.002324575617
0.002343118819
0.002353800514
0.002263481592
0.002277350936
0.002296883308
0.002320408411
0.002345980493
0.002371420349
0.002394367683
0.002412322125
0.002422666004
0.002335619297
0.002349036768
0.002367931164
0.00239068556
0.002415417363
0.002440019311
0.002462210057
0.002479573191
0.002489577854
0.002405779437
0.002418743504
0.002436998239
0.002458980612
0.002482871567
0.002506635878
0.002528070921
0.002544843762
0.002554509817
0.002473918519
0.002486430461
0.00250404773
0.00252526133
0.002548315688
0.002571247284
0.002591931575
0.002608118234
0.002617448041
0.00254000823
0.002552071756
0.002569057112
0.00258950913
0.002611735298
0.0026338431
0.002653785087
0.002669392336
0.00267838976
0.002604033898
0.002615654793
0.002632016653
0.002651717634
0.002673127553
0.002694423881
0.002713634976
0.002728671846
0.002737342029
0.002665992982
0.002677178778
0.002692927969
0.002711891278
0.002732499851
0.002752999867
0.002771493962
0.002785971368
0.00279432052
0.002725893631
0.002736653307
0.002751802645
0.002770043973
0.002789868541
0.002809589745
0.002827382766
0.00284131317
0.002849348382
0.002783753306
0.002794097016
0.00280866093
0.002826197847
0.002845257719
0.002864219491
0.002881328998
0.002894726106
0.002902455175
0.002839597495
0.002849536321
0.002863530515
0.002880382071
0.0028986981
0.002916921291
0.002933366121
0.002946244612
0.002953675886
0.00289345851
0.002903004247
0.002916445395
0.002932631767
0.002950225976
0.002967732549
0.002983532499
0.002995907778
0.003003050027
0.002945374389
0.00295453935
0.002967444837
0.002982987015
0.002999882265
0.003016694973
0.003031870523
0.003043758513
0.003050620802
0.002995387889
0.00300418474
0.003016572423
0.00303149194
0.003047711646
0.003063853757
0.003078425824
0.003089842785
0.003096434372
0.003043545575
0.003051987189
0.003063875204
0.003078193899
0.003093761779
0.003109256838
0.003123246571
0.003134208932
0.003140539182
0.003089897007
0.003097996342
0.003109402927
0.003123142745
0.003138082611
0.003152954234
0.003166382833
0.003176907064
0.003182985365
0.003134494013
0.003142264004
0.003153207357
0.003166390181
0.003180725758
0.003194997459
0.003207886026
0.003217988517
0.003223824219
0.003177390045
0.003184843519
0.003195341678
0.003207989182
0.003221743959
0.003235439009
0.003247808419
0.003257505388
0.003263107747
0.003218639623
0.003225789224
0.003235859963
0.0032479935
0.003261190606
0.003274331913
0.003286202712
0.003295510122
0.003300888252
0.00325829784
0.003265155972
0.003274816724
0.003286457227
0.003299119332
0.003311729341
0.003323121662
0.003332055156
0.003337217997
0.003296419946
0.003302998725
0.003312266513
0.003323434423
0.003335583655
0.003347684275
0.003358617768
0.003367192621
0.003372148905
0.003333060989
0.003339372205
0.003348263595
0.003358978796
0.003370636683
0.003382249226
0.003392743007
0.003400974081
0.003405732309
0.003368275507
0.003374330598
0.003382861657
0.003393143438
0.003404330858
0.003415475993
0.003425548604
0.00343345032
0.003438018745
0.003402117279
0.00340792731
0.003416113583
0.003425980599
0.003436717747
0.003447415468
0.00345708485
0.003464671165
0.00346905778
0.003434639113
0.003440214763
0.003448071249
0.003457541506
0.003467847871
0.003478117477
0.003487400949
0.003494685341
0.003498897869
0.003465892678
0.00347124423
0.003478785375
0.003487876212
0.003497770567
0.003507630647
0.003516544895
0.003523540355
0.003527586243
0.003495928366
0.003501065706
0.003508305397
0.003517033484
0.003526533877
0.003536002307
0.003544563381
0.003551282409
0.003555168826
0.003524795189
0.003529727804
0.003536679371
0.00354506071
0.003554184468
0.003563278411
0.003571501726
0.003577956332
0.003581690169
0.003552540697
0.003557277682
0.0035639539
0.003572003829
0.003580767564
0.003589503481
0.003597403823
0.003603605529
0.003607193403
0.003579210931
0.00358376099
0.00359017409
0.003597907296
0.003606326915
0.003614720571
0.003622312106
0.003628271957
0.003631720211
0.003604850378
0.003609221834
0.003615383514
0.003622814044
0.003630904766
0.003638971245
0.003646267532
0.003651996103
0.003655310815
0.003629501952
0.00363370276
0.003639624197
0.003646765476
0.003654541846
0.00366229557
0.003669309575
0.003674816983
0.003678003968
0.00365320699
0.003657244744
0.00366293661
0.003669801458
0.00367727737
0.003684732118
0.003691476232
0.003696772148
0.003699836969
0.003676005256
0.003679887201
0.003685359681
0.003691960334
0.003699149049
0.003706317976
0.003712804035
0.003717897696
0.003720845669
0.003697934958
0.003701668004
0.00370693081
0.003713278938
0.003720193111
0.00372708877
0.003733328069
0.003738228299
0.003741064502
0.00371903277
0.003722623503
0.003727685896
0.003733792627
0.003740444322
0.003747078689
0.003753082005
0.003757797224
0.003760526505
0.003739333866
0.003742788561
0.003747659363
0.003753535303
0.003759936025
0.003766320515
0.003772098129
0.003776636369
0.003779263356
0.003758871948
0.003762196583
0.003766884202
0.003772539457
0.003778700166
0.003784845664
0.003790407376
0.003794776299
0.003797305405
0.003777679293
0.003780879562
0.003785392004
0.0037908362
0.003796767341
0.003802684219
0.003808039372
0.003812246283
0.003814681719
0.003795786791
0.003798868114
0.003803213004
0.00380845531
0.003814166834
0.003819864974
0.003825022471
0.003829074334
0.003831420115
0.003813223988
0.003816191529
0.003820376128
0.003825425276
0.003830926659
0.003836415476
0.003841383802
0.003845287254
0.003847547209
0.003830019138
0.003832877811
0.003836909031
0.003841773337
0.003847073604
0.003852362067
0.003857149308
0.003860910676
0.003863088454
0.003846199244
0.003848953727
0.003852838151
0.003857525531
0.003862633279
0.003867729933
0.00387234379
0.003875969104
0.003878068183
0.003861790107
0.003864444853
0.003868188748
0.003872706742
0.00387763016
0.003882543141
0.003886990956
0.00389048596
0.003892509657
0.003876816373
0.003879375623
0.003882984956
0.003887340744
0.003892087628
0.003896824692
0.003901113455
0.003904483625
0.003906435102
0.003891301582
0.003893769372
0.003897249825
0.003901450246
0.003906028024
0.003910596554
0.003914732929
0.003917983484
0.003919865752
0.003905268211
0.003907648386
0.003911005368
0.003915056934
0.003919472681
0.003923879715
0.003927870051
0.003931005963
0.003932821896
0.003918737721
0.003921033941
0.003924272606
0.00392818152
0.003932441976
0.003936694218
0.003940544566
0.003943570576
0.003945322912
0.003931730598
0.003933946352
0.003937071609
0.00394084378
0.003944955366
0.003949059206
0.003952775332
0.00395569596
0.003957387309
0.003944266404
0.003946405012
0.003949421537
0.003953062597
0.003957031434
0.003960992959
0.003964580361
0.003967399915
0.003969032767
0.003956363809
0.003958428436
0.003961340686
0.003964856
0.00396868792
0.003972512937
0.003975976855
0.003978699442
0.003980276171
0.003968040638
0.0039700343
0.003972846522
0.003976241205
0.003979941768
0.00398363581
0.003986981242
0.00398961078
0.003991133652
0.003979313907
0.00398123948
0.003983955722
0.00398723465
0.003990809158
0.003994377502
0.003997609213
0.004000149441
0.004001620614
0.003990199864
0.003992060088
0.003994684211
0.003997852033
0.004001305541
0.00400475322
0.004007875757
0.004010330239
0.004011751776
0.004000714019
0.004002511509
0.004005047192
0.004008108343
0.004011445674
0.00401477749
0.004017795191
0.004020167329
0.004021541197
0.004010871184
0.004012608433
0.00401505919
0.0040180179
0.004021243654
0.004024464189
0.004027381193
0.004029674233
0.004031002309
0.004020685506
0.004022364892
0.004024734072
0.004027594378
0.004030712947
0.004033826572
0.00403664683
0.004038863873
0.004040147951
0.004030170494
0.004031794287
0.004034085088
0.004036850842
0.004039866416
0.004042877307
0.004045604591
0.004047748596
0.004048990386
0.004039339054
0.004040909421
0.004043124895
0.004045799775
0.004048716355
0.004051628497
0.004054266409
0.004056340202
0.00405754134
0.004048203515
0.004049722524
0.004051865585
0.004054453104
0.004057274511
0.00406009171
0.00406264369
0.004064649972
0.004065812019
0.004056775657
0.004058245285
0.004060318716
0.004062822228
0.004065552111
0.004068278002
0.004070747338
0.004072688687
0.004073813136
0.00406506674
0.004066488872
0.004068495332
0.00407091804
0.004073559886
0.004076197944
0.004078587775
0.004080466656
0.004081554933
0.004073087521
0.004074463961
0.00407640599
0.004078750955
0.004081308096
0.00408386164
0.004086174967
0.004087993734
0.004089047202
0.004080848284
0.004082180754
0.004084060779
0.004086330928
0.004088806547
0.004091278749
0.00409351844
0.004095279346
0.004096299307
0.00408835886
0.004089649007
0.004091469347
0.004093667474
0.004096064614
0.004098458506
0.004100627303
0.0041023325
0.004103320199
0.004095628645
0.004096878041
0.004098640913
0.004100769691
0.004103091259
0.00410540974
0.004107510263
0.004109161806
0.004110118434
0.004102666618
0.004103876767
0.00410558429
0.004107646272
0.004109895048
0.004112140886
0.004114175638
0.004115775494
0.004116702188
0.004109481361
0.004110653699
0.004112307896
0.004114305523
0.004116484161
0.004118660003
0.004120631376
0.004122181421
0.004123079268
0.004116081068
0.004117216968
0.004118819773
0.004120755374
0.004122866411
0.004124974782
0.00412688506
0.004128387087
0.004129257122
0.004122473563
0.004123574334
0.004125127593
0.004127003392
0.004129049247
0.004131092558
0.00413294392
0.004134399638
0.004135242851
0.004128666305
0.004129733197
0.004131238668
0.004133056786
0.004135039766
0.004137020314
0.004138814835
0.004140225872
0.004141043205
0.004134666397
0.0041357006
0.004137159959
0.004138922414
0.004140844713
0.004142764683
0.004144504337
0.00414587224
0.004146664587
0.004140480587
0.00414148323
0.00414289807
0.00414460678
0.004146470481
0.004148331947
0.004150018605
0.004151344843
0.00415211305
0.004146115269
0.004147087425
0.004148459254
0.004150116033
0.00415192311
0.004153728032
0.004155363463
0.004156649418
0.004157394287
0.004151576479
0.00415251916
0.004153849401
0.004155455961
0.00415720827
0.004158958493
0.00416054436
0.004161791333
0.004162513613
0.004156869883
0.004157784038
0.004159074027
0.004160631973
0.004162331254
0.004164028503
0.004165566356
0.00416677556
0.004167475949
0.004162000765
0.004162887281
0.004164138261
0.004165649085
0.004167296953
0.004168942826
0.004170434102
0.004171606654
0.004172285795
0.004166974008
0.004167833701
0.00416904682
0.004170511895
0.004172109832
0.004173705794
0.004175151802
0.004176288721
0.004176947198
0.004171794067
0.004172627683
0.004173803982
0.004175224554
0.004176773901
0.00417832127
0.004179723186
0.004180825383
0.004181463717
0.004176464943
0.004177273149
0.004178413559
0.004179790737
0.004181292679
0.004182792617
0.004184151471
0.004185219738
0.004185838379
0.004180990152
0.004181773528
0.004182878859
0.004184213599
0.004185669158
0.004187122655
0.004188439317
0.004189474319
0.004190073642
0.004185372685
0.004186131721
0.00418720265
0.004188495748
0.004189905761
0.004191313621
0.00419258879
0.004193591053
0.004194171351
0.004189614976
0.004190350062
0.004191387123
0.0041926392
0.004194004309
0.004195367136
0.004196601323
0.004197571222
0.004198132699
0.004193718867
0.004194430286
0.00419543386
0.004196645345
0.004197965983
0.004199284165
0.004200477682
0.004201415431
0.004201958196
0.004197685579
0.004198373498
0.004199343801
0.004200514925
0.004201791299
0.004203064997
0.004204217944
0.004205123588
0.004205647651
0.004201515684
0.004202180151
0.004203117229
0.004204248011
0.004205480094
0.00420670923
0.004207821488
0.004208694898
0.004209200166
0.004205209098
0.004205850036
0.004206753758
0.004207843999
0.004209031527
0.004210215781
0.004211287008
0.004212127876
0.004212614152
0.004208765084
0.00420938229
0.004210252344
0.004211301631
0.0042124441
0.00421358291
0.004214612544
0.004215420388
0.004215887374
0.00421218227
0.004212775418
0.00421361132
0.004214619025
0.004215715699
0.004216808273
0.004217795545
0.00421856972
0.004219017022
0.004215458694
0.004216027343
0.004216828444
0.004217793746
0.004218843676
0.004219889012
0.004220832961
0.004221572677
0.004221999819
0.004218591877
0.00421913548
0.004219900988
0.004220822892
0.004221824947
0.004222821864
0.004223721374
0.004224425719
0.004224832158
0.004221578919
0.004222096846
0.004222825848
0.004223703223
0.004224656129
0.004225603312
0.004226457154
0.004227125136
0.004227510286
0.00422441663
0.004224908188
0.004225599695
0.00422643132
0.004227333715
0.004228229773
0.004229036662
0.004229667252
0.00423003051
0.004227101691
0.00422756616
0.004228219145
0.004229003767
0.004229854269
0.004230697808
0.004231456468
0.004232048658
0.00423238944
0.00422963084
0.004230067509
0.004230680967
0.00423141737
0.004232214656
0.004233004358
0.004233713604
0.004234266471
0.004234584249
0.004232001085
0.004232409295
0.004232982306
0.004233669393
0.004234412285
0.004235147002
0.004235805824
0.004236318601
0.004236612945
0.004234209933
0.004234589128
0.004235120921
0.004235757795
0.00423644536
0.004237124212
0.004237731867
0.004238204014
0.004238474636
0.004236255628
0.0042366054
0.004237095432
0.004237681484
0.004238313127
0.0042389356
0.004239491701
0.004239922978
0.004240169774
0.004238137385
0.004238457527
0.004238905546
0.004239440541
0.004240016099
0.004240582135
0.004241086737
0.00424147727
0.004241700356
0.004239855604
0.004240146154
0.004240552267
0.004241036419
0.00424155624
0.004242066324
0.004242519991
0.004242870322
0.004243070065
0.004241412053
0.004241673334
0.004242038055
0.004242472091
0.004242937103
0.004243392313
0.00424379617
0.004244107298