/*--------------------------------*- C++ -*----------------------------------*\
| =========                 |                                                 |
| \\      /  F ield         | OpenFOAM: The Open Source CFD Toolbox           |
|  \\    /   O peration     | Version:  2212                                  |
|   \\  /    A nd           | Website:  www.openfoam.com                      |
|    \\/     M anipulation  |                                                 |
\*---------------------------------------------------------------------------*/
FoamFile
{
    version     2.0;
    format      ascii;
    arch        "LSB;label=32;scalar=64";
    class       volScalarField;
    location    "18.25000000";
    object      CH2CO_0;
}
// * * * * * * * * * * * * * * * * * * * * * * * * * * * * * * * * * * * * * //

dimensions      [0 0 0 0 0 0 0];

internalField   nonuniform List<scalar> 
3000
(
5.823799663e-21
6.542136559e-21
7.626091589e-21
9.0705413e-21
1.086079735e-20
1.294824305e-20
1.520712147e-20
1.736251405e-20
1.888663382e-20
2.186450754e-20
2.466037548e-20
2.887746353e-20
3.450951486e-20
4.155091497e-20
4.996262235e-20
5.95986437e-20
6.997257632e-20
7.916221381e-20
4.897282092e-20
5.566846236e-20
6.586406568e-20
7.970715504e-20
9.744656848e-20
1.193395758e-19
1.453000019e-19
1.738703637e-19
1.982882495e-19
9.327368211e-20
1.071362545e-19
1.285544893e-19
1.582527117e-19
1.972826658e-19
2.466357366e-19
3.060423509e-19
3.707465892e-19
4.229713612e-19
1.656141922e-19
1.925615106e-19
2.348514447e-19
2.946311533e-19
3.747111785e-19
4.77334787e-19
6.007866333e-19
7.318845031e-19
8.325175426e-19
2.84753613e-19
3.353234364e-19
4.158230766e-19
5.313875437e-19
6.881786318e-19
8.901385737e-19
1.131232957e-18
1.38105667e-18
1.565878152e-18
4.833485678e-19
5.762276884e-19
7.258005418e-19
9.429505753e-19
1.239764419e-18
1.622137043e-18
2.074248758e-18
2.533589297e-18
2.865022498e-18
8.178816395e-19
9.859489165e-19
1.259014154e-18
1.658521754e-18
2.206745409e-18
2.911569808e-18
3.737627289e-18
4.564679152e-18
5.15148173e-18
1.386220706e-18
1.687136207e-18
2.179211326e-18
2.902795232e-18
3.89750806e-18
5.172900653e-18
6.656918317e-18
8.127278823e-18
9.159012102e-18
2.357845206e-18
2.892397549e-18
3.770541521e-18
5.066023068e-18
6.848046156e-18
9.126950466e-18
1.176398095e-17
1.435762501e-17
1.616405876e-17
4.02647663e-18
4.970533719e-18
6.526351106e-18
8.826262809e-18
1.199012573e-17
1.602720264e-17
2.067954958e-17
2.523200896e-17
2.838690843e-17
6.901336441e-18
8.561368031e-18
1.130317523e-17
1.536152751e-17
2.094340106e-17
2.805335651e-17
3.622247791e-17
4.418770795e-17
4.968880185e-17
1.186568708e-17
1.477535018e-17
1.958851491e-17
2.671872911e-17
3.652332134e-17
4.899534071e-17
6.329457425e-17
7.720209144e-17
8.678443456e-17
2.045204748e-17
2.554009215e-17
3.396583619e-17
4.645453768e-17
6.362364185e-17
8.544213589e-17
1.10418548e-16
1.346671794e-16
1.513477415e-16
3.531985061e-17
4.420189874e-17
5.892180169e-17
8.074788907e-17
1.107482375e-16
1.48844682e-16
1.924033758e-16
2.346052988e-16
2.63662396e-16
6.108400514e-17
7.656909542e-17
1.022461798e-16
1.403289289e-16
1.92666317e-16
2.590880625e-16
3.348912759e-16
4.067030206e-16
4.58866681e-16
1.05751999e-16
1.327213791e-16
1.774589795e-16
2.438222492e-16
3.35013477e-16
4.50704231e-16
5.828793541e-16
7.124250082e-16
7.984356139e-16
1.832178579e-16
2.301499009e-16
3.080229578e-16
4.235499043e-16
5.822762007e-16
7.835681367e-16
1.013283371e-15
1.235569318e-15
1.387842659e-15
3.175932671e-16
3.992120312e-16
5.346642334e-16
7.356212021e-16
1.011688393e-15
1.361687549e-15
1.760939697e-15
2.147015032e-15
2.411544018e-15
5.507297588e-16
6.92606053e-16
9.280886447e-16
1.277458174e-15
1.757357281e-15
2.365636009e-15
3.059295196e-15
3.729822416e-15
4.189100469e-15
9.552808496e-16
1.20182344e-15
1.611060336e-15
2.218216444e-15
3.052129998e-15
4.108919745e-15
5.313729374e-15
6.478026157e-15
7.275339859e-15
1.657380134e-15
2.085711878e-15
2.796728296e-15
3.85158179e-15
5.30023021e-15
7.135697158e-15
9.227733603e-15
1.124889563e-14
1.263270084e-14
2.876006807e-15
3.620055448e-15
4.855147156e-15
6.687384878e-15
9.203256423e-15
1.239021232e-14
1.602167157e-14
1.952910296e-14
2.192987492e-14
4.991286867e-15
6.283590486e-15
8.428658304e-15
1.161045616e-14
1.597856875e-14
2.151033109e-14
2.781158935e-14
3.389555442e-14
3.805861997e-14
8.662963459e-15
1.090719824e-14
1.463197707e-14
2.015597992e-14
2.773754833e-14
3.733545204e-14
4.826394878e-14
5.881099401e-14
6.602512571e-14
1.503571158e-14
1.893243098e-14
2.53987892e-14
3.498616623e-14
4.813980511e-14
6.478393773e-14
8.372525928e-14
1.019950346e-13
1.144848546e-13
2.609452084e-14
3.285888682e-14
4.408121393e-14
6.071400717e-14
8.352249605e-14
1.123656568e-13
1.451661894e-13
1.767798427e-13
1.983765327e-13
4.527895759e-14
5.701722523e-14
7.648491139e-14
1.053240987e-13
1.448451237e-13
1.947817238e-13
2.515160471e-13
3.061424235e-13
3.434243236e-13
7.854277304e-14
9.890194103e-14
1.326520364e-13
1.826164363e-13
2.510280703e-13
3.373766989e-13
4.353582295e-13
5.295745132e-13
5.937943029e-13
1.361772793e-13
1.714630979e-13
2.299231149e-13
3.163952342e-13
4.346608691e-13
5.837284165e-13
7.526079635e-13
9.147198032e-13
1.025035586e-12
2.359396095e-13
2.97033967e-13
3.981755604e-13
5.476181932e-13
7.517146567e-13
1.008514675e-12
1.298853961e-12
1.576951435e-12
1.765794488e-12
4.084005648e-13
5.140356527e-13
6.887458505e-13
9.465357814e-13
1.297970672e-12
1.73918079e-12
2.236748641e-12
2.712042639e-12
3.033940955e-12
7.060488805e-13
8.883687883e-13
1.189544912e-12
1.633178286e-12
2.236617194e-12
2.992145161e-12
3.841524376e-12
4.650184927e-12
5.196095401e-12
1.218716658e-12
1.532664928e-12
2.050508145e-12
2.811688245e-12
3.844239114e-12
5.132761578e-12
6.5758994e-12
7.944382176e-12
8.864667233e-12
2.099574475e-12
2.638622213e-12
3.526146446e-12
4.827396351e-12
6.586770961e-12
8.77364287e-12
1.121203142e-11
1.351346703e-11
1.505421599e-11
3.608677039e-12
4.530948646e-12
6.046133261e-12
8.260864293e-12
1.124369077e-11
1.493413971e-11
1.902777353e-11
2.287071198e-11
2.543032473e-11
6.18542951e-12
7.756677731e-12
1.033139402e-11
1.408133165e-11
1.910891067e-11
2.529600963e-11
3.211864976e-11
3.848469343e-11
4.270073825e-11
1.056831858e-11
1.323184652e-11
1.758325445e-11
2.389447821e-11
3.231201988e-11
4.260831771e-11
5.388755548e-11
6.434169357e-11
7.122232271e-11
1.79912027e-11
2.248026643e-11
2.978857022e-11
4.033807255e-11
5.432589093e-11
7.132072255e-11
8.980374016e-11
1.068112066e-10
1.179312786e-10
3.05024307e-11
3.801858411e-11
5.020682939e-11
6.770659118e-11
9.075909852e-11
1.185617214e-10
1.485646367e-10
1.759618056e-10
1.937519032e-10
5.147901334e-11
6.397116183e-11
8.413937333e-11
1.129259337e-10
1.505781353e-10
1.95631568e-10
2.438533982e-10
2.87538935e-10
3.157065019e-10
8.644718142e-11
1.070418803e-10
1.401307862e-10
1.870569697e-10
2.479705673e-10
3.202545449e-10
3.969683128e-10
4.659063781e-10
5.100433575e-10
1.443787e-10
1.780337901e-10
2.318245341e-10
3.075887421e-10
4.051536775e-10
5.199405401e-10
6.407169242e-10
7.483792547e-10
8.168314628e-10
2.397170948e-10
2.941997473e-10
3.8079776e-10
5.018981812e-10
6.565643059e-10
8.369531559e-10
1.02513057e-09
1.191552276e-09
1.296654413e-09
3.955099222e-10
4.828386725e-10
6.208454717e-10
8.124160451e-10
1.055048903e-09
1.335586892e-09
1.625781772e-09
1.880471553e-09
2.040291193e-09
6.481961454e-10
7.867373776e-10
1.004387933e-09
1.304265937e-09
1.680927747e-09
2.112740983e-09
2.555801321e-09
2.941837237e-09
3.182625498e-09
1.054839634e-09
1.272316229e-09
1.611957875e-09
2.076457959e-09
2.655159828e-09
3.313171108e-09
3.983125773e-09
4.562892112e-09
4.922514071e-09
1.703934475e-09
2.041693574e-09
2.566113868e-09
3.278151469e-09
4.158319057e-09
5.151340016e-09
6.155100784e-09
7.018292802e-09
7.551015707e-09
2.731366296e-09
3.250372128e-09
4.051659026e-09
5.132092174e-09
6.45775169e-09
7.94252201e-09
9.433373528e-09
1.070813117e-08
1.14912919e-08
4.34373731e-09
5.132914205e-09
6.344767483e-09
7.968128591e-09
9.946174301e-09
1.214680265e-08
1.434308857e-08
1.621143568e-08
1.735469218e-08
6.85210492e-09
8.039868882e-09
9.854595311e-09
1.227078532e-08
1.519615572e-08
1.84309186e-08
2.16418196e-08
2.436097501e-08
2.601908835e-08
1.072031488e-08
1.249042023e-08
1.518226123e-08
1.874630539e-08
2.303648697e-08
2.775457474e-08
3.24155081e-08
3.634714595e-08
3.873751371e-08
1.663361719e-08
1.924684105e-08
2.320368273e-08
2.841607636e-08
3.4658138e-08
4.148994471e-08
4.821105299e-08
5.386141108e-08
5.728804078e-08
2.559345051e-08
2.94167425e-08
3.518337026e-08
4.2745602e-08
5.176060081e-08
6.158621862e-08
7.121819387e-08
7.929263584e-08
8.417913907e-08
3.905068623e-08
4.459677759e-08
5.293311863e-08
6.382181746e-08
7.675079921e-08
9.079153236e-08
1.045139342e-07
1.159907317e-07
1.229253957e-07
5.908866753e-08
6.706883386e-08
7.902744541e-08
9.459288254e-08
1.130106895e-07
1.329498681e-07
1.523875103e-07
1.686143972e-07
1.784081465e-07
8.867257187e-08
1.000662601e-07
1.170943038e-07
1.391895643e-07
1.652535885e-07
1.933937233e-07
2.207659797e-07
2.435805479e-07
2.573366733e-07
1.319858304e-07
1.481316077e-07
1.722037881e-07
2.033527698e-07
2.399954981e-07
2.794589919e-07
3.177658791e-07
3.496417015e-07
3.688387919e-07
1.948799964e-07
2.175935348e-07
2.51384206e-07
2.949979499e-07
3.461718761e-07
4.01151912e-07
4.544042709e-07
4.986335125e-07
5.252328627e-07
2.854715505e-07
3.171968752e-07
3.642991305e-07
4.249479753e-07
4.959298585e-07
5.72001302e-07
6.455114681e-07
7.064452416e-07
7.430384904e-07
4.149206562e-07
4.589186932e-07
5.241152046e-07
6.078629987e-07
7.056286614e-07
8.101386862e-07
9.108975654e-07
9.942638209e-07
1.044266485e-06
5.984173354e-07
6.589947754e-07
7.485869449e-07
8.634010167e-07
9.970948272e-07
1.139664732e-06
1.276829871e-06
1.390137175e-06
1.458028746e-06
8.563958465e-07
9.391832709e-07
1.061396468e-06
1.217662407e-06
1.399197219e-06
1.592363132e-06
1.777869203e-06
1.9309024e-06
2.022519287e-06
1.216017975e-06
1.328317291e-06
1.493812833e-06
1.704988463e-06
1.94980039e-06
2.209802469e-06
2.459102085e-06
2.664522158e-06
2.787412833e-06
1.713001593e-06
1.864223763e-06
2.086739526e-06
2.370160289e-06
2.698120573e-06
3.045846197e-06
3.378794379e-06
3.652856271e-06
3.816707079e-06
2.393856763e-06
2.596051492e-06
2.893166888e-06
3.270995528e-06
3.707479752e-06
4.169569454e-06
4.611462763e-06
4.974859413e-06
5.191994521e-06
3.31851203e-06
3.586978252e-06
3.980992332e-06
4.481307702e-06
5.058421425e-06
5.668538349e-06
6.25130685e-06
6.730134901e-06
7.016086941e-06
4.563259602e-06
4.917227334e-06
5.436138728e-06
6.094149579e-06
6.852095418e-06
7.652336653e-06
8.415863206e-06
9.042687352e-06
9.416823584e-06
6.223918507e-06
6.687284118e-06
7.365846962e-06
8.225197161e-06
9.213734675e-06
1.025612797e-05
1.12496372e-05
1.206460232e-05
1.255077405e-05
8.419055257e-06
9.021138746e-06
9.901942792e-06
1.101603336e-05
1.229594267e-05
1.364392896e-05
1.49273451e-05
1.597924889e-05
1.660640953e-05
1.129302777e-05
1.206929254e-05
1.320377879e-05
1.46369926e-05
1.62814043e-05
1.801115439e-05
1.965627684e-05
2.100347357e-05
2.180618564e-05
1.50185244e-05
1.60111782e-05
1.746046849e-05
1.92891392e-05
2.138454293e-05
2.358590431e-05
2.567720035e-05
2.738816693e-05
2.840689511e-05
1.979820938e-05
2.105658283e-05
2.289197024e-05
2.520489945e-05
2.785160281e-05
3.062843247e-05
3.326321194e-05
3.541658183e-05
3.66976563e-05
2.58650555e-05
2.744564073e-05
2.974856985e-05
3.264687756e-05
3.595867054e-05
3.942829962e-05
4.271603352e-05
4.539990804e-05
4.699504782e-05
3.348097065e-05
3.544700396e-05
3.830837557e-05
4.190448251e-05
4.600728772e-05
5.029890016e-05
5.43594912e-05
5.766988378e-05
5.963520169e-05
4.293341964e-05
4.5353915e-05
4.887258826e-05
5.328818594e-05
5.831755155e-05
6.356935427e-05
6.853027086e-05
7.256863582e-05
7.496310991e-05
5.452990988e-05
5.747809729e-05
6.175853667e-05
6.712150329e-05
7.321892562e-05
7.957413735e-05
8.556647924e-05
9.043641516e-05
9.331989819e-05
6.859043349e-05
7.214162429e-05
7.729074201e-05
8.37310989e-05
9.103932538e-05
9.86411937e-05
0.0001057949412
0.0001115983173
0.0001150292368
8.543820758e-05
8.966718777e-05
9.579054653e-05
0.0001034356927
0.0001120933175
0.0001210795431
0.0001295184123
0.0001363513509
0.0001403846322
0.0001053892856
0.0001103674107
0.0001175650517
0.0001265346275
0.0001366703938
0.0001471674033
0.0001570037223
0.0001649529776
0.0001696383748
0.00012874178
0.0001345339986
0.0001428962239
0.0001532970152
0.0001650242645
0.0001771417074
0.0001884716327
0.0001976103717
0.0002029872943
0.0001557655061
0.0001624275573
0.0001720310019
0.0001839522571
0.000197364059
0.0002111902094
0.0002240889459
0.0002344704044
0.0002405674961
0.0001866927937
0.0001942687461
0.0002051731236
0.0002186829049
0.0002338482265
0.0002494451266
0.0002639605305
0.0002756175264
0.0002824515051
0.0002217111023
0.0002302316617
0.0002424773029
0.0002576197482
0.0002745785498
0.0002919767673
0.0003081295311
0.0003210733479
0.0003286484912
0.0002609580781
0.0002704394753
0.0002840451784
0.0003008350181
0.0003195954
0.0003387951426
0.000356578389
0.0003707987082
0.0003791069342
0.0003045156715
0.000314956224
0.0003299157218
0.0003483398408
0.0003688800325
0.0003898517269
0.0004092318094
0.0004246975581
0.0004337190149
0.0003524014561
0.0003637836619
0.000380068665
0.0004000873403
0.0004223569397
0.000445042853
0.0004659611181
0.0004826220449
0.0004923260951
0.0004045735563
0.0004168649977
0.0004344264413
0.0004559752204
0.000479897443
0.0005042142051
0.0005265895075
0.0005443782998
0.0005547247902
0.0004609327028
0.0004740873668
0.0004928573532
0.0005158496085
0.0005413242751
0.0005671660663
0.000590897817
0.0006097325835
0.0006206732998
0.0005213256763
0.0005352856271
0.0005551798625
0.0005795098661
0.0006064168991
0.0006336590725
0.0006586306118
0.0006784175722
0.00068989779
0.0005855499611
0.0006002472595
0.0006211678118
0.0006467141406
0.0006749173552
0.0007034202851
0.0007295023997
0.0007501386442
0.0007620987034
0.0006533593868
0.000668718146
0.0006905563667
0.0007171854577
0.0007465364589
0.0007761494339
0.0008032038623
0.0008245800706
0.0008369569127
0.0007244705083
0.0007404089872
0.0007630484608
0.0007906181588
0.0008209601815
0.0008515251923
0.0008794079961
0.000901411024
0.0009141396462
0.0007985694686
0.0008150021166
0.0008383215218
0.0008666844902
0.0008978560519
0.0009292113553
0.0009577760572
0.0009802913256
0.0009933061145
0.0008753190856
0.0008921584724
0.0009160342649
0.000945041157
0.0009768794235
0.001008862793
0.001037963213
0.001060876848
0.00107411277
0.0009543659216
0.0009715244995
0.0009958333481
0.001025335667
0.001057679459
0.001090131064
0.001119623807
0.001142824503
0.001156218135
0.001035347116
0.00105273878
0.001077359712
0.001107212309
0.001139904709
0.001172669582
0.00120241615
0.001225796744
0.001239287137
0.001117896802
0.001135438227
0.001160254458
0.001190317645
0.001223208179
0.001256138267
0.001286006799
0.001309465542
0.001322994923
0.001201651956
0.001219263705
0.001244164141
0.00127430542
0.001307251819
0.001340207614
0.00137007425
0.001393515808
0.001407030122
0.001286257598
0.001303865
0.001328745424
0.001358840822
0.00139171038
0.001424562156
0.001454312057
0.001477648243
0.001491097542
0.001371371257
0.001388905068
0.001413669022
0.001443604084
0.00147627463
0.001508903315
0.00153843136
0.001561581619
0.001574920328
0.0014566667
0.001474063564
0.001498622951
0.001528293396
0.001560653925
0.001592951639
0.00162216284
0.001645054528
0.001658241581
0.001541836918
0.001559039642
0.001583315083
0.001612627169
0.001644578168
0.001676448474
0.001705258135
0.001727826606
0.001740825486
0.001626596395
0.001643554071
0.001667475036
0.001696345673
0.001727799184
0.001759157086
0.001787490756
0.001809679292
0.001822457983
0.001710682721
0.001727350705
0.001750855463
0.00177921211
0.001810091565
0.001840863297
0.001868656544
0.001890416155
0.00190294702
0.001793857586
0.001810197368
0.001833232777
0.00186101316
0.001891253038
0.001921375689
0.001948573725
0.001969862847
0.001982122448
0.001875907237
0.001891886213
0.001914407392
0.001941559081
0.001971104419
0.002000525417
0.002027082621
0.002047866726
0.002059835606
0.001956642463
0.001972233643
0.001994203537
0.002020683409
0.002049489204
0.002078165706
0.002104045054
0.002124296209
0.002135958635
0.002035898177
0.002051079828
0.002072468713
0.002098242341
0.00212627287
0.002154171072
0.002179343523
0.002199039899
0.002210383586
0.00211353266
0.002128287925
0.002149072852
0.002174113837
0.002201341926
0.00222843634
0.002252880169
0.002272005536
0.002283021358
0.002189426545
0.002203743028
0.002223907248
0.002248196519
0.002274602785
0.002300875482
0.002324575614
0.002343118817
0.002353800512
0.002263481589
0.002277350934
0.002296883305
0.002320408408
0.002345980491
0.002371420346
0.00239436768
0.002412322123
0.002422666003
0.002335619295
0.002349036765
0.002367931162
0.002390685558
0.002415417361
0.002440019309
0.002462210055
0.00247957319
0.002489577853
0.002405779435
0.002418743502
0.002436998236
0.00245898061
0.002482871564
0.002506635876
0.002528070919
0.00254484376
0.002554509816
0.002473918517
0.002486430459
0.002504047727
0.002525261328
0.002548315686
0.002571247281
0.002591931573
0.002608118232
0.00261744804
0.002540008228
0.002552071754
0.00256905711
0.002589509128
0.002611735295
0.002633843097
0.002653785084
0.002669392334
0.002678389759
0.002604033896
0.002615654791
0.002632016651
0.002651717632
0.002673127551
0.002694423879
0.002713634974
0.002728671845
0.002737342028
0.00266599298
0.002677178776
0.002692927967
0.002711891276
0.002732499849
0.002752999865
0.00277149396
0.002785971366
0.002794320519
0.002725893629
0.002736653305
0.002751802643
0.002770043971
0.002789868539
0.002809589743
0.002827382764
0.002841313168
0.002849348381
0.002783753305
0.002794097015
0.002808660928
0.002826197845
0.002845257717
0.002864219489
0.002881328996
0.002894726105
0.002902455174
0.002839597493
0.00284953632
0.002863530513
0.002880382069
0.002898698098
0.002916921289
0.00293336612
0.002946244611
0.002953675885
0.002893458509
0.002903004245
0.002916445393
0.002932631766
0.002950225974
0.002967732547
0.002983532498
0.002995907777
0.003003050026
0.002945374388
0.002954539348
0.002967444835
0.002982987013
0.002999882263
0.003016694971
0.003031870521
0.003043758512
0.003050620801
0.002995387888
0.003004184738
0.003016572421
0.003031491939
0.003047711644
0.003063853755
0.003078425822
0.003089842783
0.003096434372
0.003043545574
0.003051987188
0.003063875202
0.003078193898
0.003093761777
0.003109256836
0.003123246569
0.003134208931
0.003140539181
0.003089897006
0.00309799634
0.003109402925
0.003123142744
0.00313808261
0.003152954232
0.003166382831
0.003176907063
0.003182985364
0.003134494011
0.003142264002
0.003153207356
0.003166390179
0.003180725756
0.003194997457
0.003207886024
0.003217988516
0.003223824218
0.003177390044
0.003184843518
0.003195341676
0.00320798918
0.003221743957
0.003235439008
0.003247808418
0.003257505387
0.003263107746
0.003218639621
0.003225789223
0.003235859962
0.003247993499
0.003261190605
0.003274331912
0.003286202711
0.003295510121
0.003300888252
0.003258297839
0.003265155971
0.003274816722
0.003286457226
0.00329911933
0.00331172934
0.003323121661
0.003332055155
0.003337217997
0.003296419945
0.003302998724
0.003312266512
0.003323434422
0.003335583654
0.003347684274
0.003358617767
0.00336719262
0.003372148904
0.003333060988
0.003339372204
0.003348263593
0.003358978795
0.003370636682
0.003382249225
0.003392743006
0.00340097408
0.003405732308
0.003368275506
0.003374330597
0.003382861656
0.003393143437
0.003404330857
0.003415475991
0.003425548603
0.003433450319
0.003438018745
0.003402117278
0.003407927309
0.003416113582
0.003425980598
0.003436717746
0.003447415467
0.003457084849
0.003464671164
0.00346905778
0.003434639112
0.003440214762
0.003448071248
0.003457541505
0.00346784787
0.003478117476
0.003487400947
0.00349468534
0.003498897868
0.003465892677
0.003471244229
0.003478785374
0.003487876211
0.003497770566
0.003507630646
0.003516544894
0.003523540354
0.003527586242
0.003495928365
0.003501065705
0.003508305396
0.003517033483
0.003526533876
0.003536002306
0.00354456338
0.003551282408
0.003555168825
0.003524795188
0.003529727803
0.00353667937
0.003545060709
0.003554184467
0.00356327841
0.003571501725
0.003577956331
0.003581690168
0.003552540697
0.003557277681
0.003563953899
0.003572003828
0.003580767563
0.00358950348
0.003597403822
0.003603605529
0.003607193403
0.003579210931
0.003583760989
0.003590174089
0.003597907295
0.003606326914
0.00361472057
0.003622312105
0.003628271956
0.003631720211
0.003604850377
0.003609221834
0.003615383513
0.003622814044
0.003630904765
0.003638971244
0.003646267531
0.003651996102
0.003655310814
0.003629501951
0.00363370276
0.003639624196
0.003646765475
0.003654541845
0.00366229557
0.003669309574
0.003674816982
0.003678003968
0.003653206989
0.003657244743
0.003662936609
0.003669801458
0.003677277369
0.003684732117
0.003691476232
0.003696772147
0.003699836968
0.003676005255
0.003679887201
0.00368535968
0.003691960333
0.003699149049
0.003706317975
0.003712804034
0.003717897696
0.003720845669
0.003697934957
0.003701668003
0.003706930809
0.003713278938
0.00372019311
0.003727088769
0.003733328068
0.003738228299
0.003741064502
0.00371903277
0.003722623503
0.003727685895
0.003733792626
0.003740444322
0.003747078688
0.003753082004
0.003757797224
0.003760526505
0.003739333865
0.00374278856
0.003747659362
0.003753535302
0.003759936024
0.003766320514
0.003772098128
0.003776636369
0.003779263355
0.003758871948
0.003762196583
0.003766884201
0.003772539456
0.003778700165
0.003784845664
0.003790407375
0.003794776299
0.003797305405
0.003777679293
0.003780879561
0.003785392003
0.003790836199
0.00379676734
0.003802684219
0.003808039371
0.003812246282
0.003814681718
0.00379578679
0.003798868114
0.003803213003
0.00380845531
0.003814166834
0.003819864974
0.003825022471
0.003829074334
0.003831420115
0.003813223988
0.003816191529
0.003820376127
0.003825425276
0.003830926658
0.003836415475
0.003841383802
0.003845287254
0.003847547209
0.003830019138
0.003832877811
0.003836909031
0.003841773336
0.003847073603
0.003852362067
0.003857149307
0.003860910675
0.003863088453
0.003846199243
0.003848953726
0.00385283815
0.00385752553
0.003862633279
0.003867729932
0.00387234379
0.003875969103
0.003878068183
0.003861790106
0.003864444852
0.003868188747
0.003872706742
0.003877630159
0.003882543141
0.003886990955
0.003890485959
0.003892509657
0.003876816373
0.003879375622
0.003882984955
0.003887340744
0.003892087628
0.003896824691
0.003901113455
0.003904483625
0.003906435101
0.003891301582
0.003893769372
0.003897249824
0.003901450245
0.003906028023
0.003910596553
0.003914732929
0.003917983483
0.003919865752
0.003905268211
0.003907648386
0.003911005368
0.003915056934
0.00391947268
0.003923879714
0.003927870051
0.003931005963
0.003932821896
0.00391873772
0.003921033941
0.003924272606
0.00392818152
0.003932441975
0.003936694217
0.003940544565
0.003943570576
0.003945322912
0.003931730598
0.003933946351
0.003937071608
0.00394084378
0.003944955366
0.003949059205
0.003952775332
0.003955695959
0.003957387309
0.003944266404
0.003946405011
0.003949421537
0.003953062596
0.003957031433
0.003960992959
0.003964580361
0.003967399914
0.003969032767
0.003956363809
0.003958428435
0.003961340686
0.003964856
0.00396868792
0.003972512936
0.003975976854
0.003978699442
0.003980276171
0.003968040638
0.0039700343
0.003972846522
0.003976241205
0.003979941768
0.003983635809
0.003986981241
0.00398961078
0.003991133651
0.003979313907
0.00398123948
0.003983955722
0.00398723465
0.003990809158
0.003994377501
0.003997609213
0.00400014944
0.004001620614
0.003990199863
0.003992060088
0.00399468421
0.003997852032
0.00400130554
0.004004753219
0.004007875757
0.004010330238
0.004011751776
0.004000714018
0.004002511508
0.004005047192
0.004008108343
0.004011445674
0.00401477749
0.004017795191
0.004020167329
0.004021541196
0.004010871184
0.004012608433
0.004015059189
0.004018017899
0.004021243654
0.004024464188
0.004027381192
0.004029674233
0.004031002309
0.004020685506
0.004022364891
0.004024734072
0.004027594378
0.004030712946
0.004033826572
0.00403664683
0.004038863873
0.00404014795
0.004030170494
0.004031794287
0.004034085088
0.004036850842
0.004039866416
0.004042877306
0.004045604591
0.004047748596
0.004048990386
0.004039339053
0.00404090942
0.004043124894
0.004045799775
0.004048716355
0.004051628496
0.004054266409
0.004056340202
0.00405754134
0.004048203514
0.004049722524
0.004051865585
0.004054453104
0.004057274511
0.004060091709
0.00406264369
0.004064649972
0.004065812019
0.004056775657
0.004058245284
0.004060318716
0.004062822227
0.004065552111
0.004068278002
0.004070747338
0.004072688686
0.004073813136
0.004065066739
0.004066488872
0.004068495332
0.004070918039
0.004073559886
0.004076197944
0.004078587775
0.004080466655
0.004081554933
0.00407308752
0.00407446396
0.00407640599
0.004078750955
0.004081308096
0.004083861639
0.004086174966
0.004087993734
0.004089047202
0.004080848284
0.004082180754
0.004084060779
0.004086330927
0.004088806546
0.004091278748
0.00409351844
0.004095279346
0.004096299307
0.00408835886
0.004089649006
0.004091469347
0.004093667474
0.004096064613
0.004098458506
0.004100627303
0.004102332499
0.004103320199
0.004095628645
0.004096878041
0.004098640913
0.004100769691
0.004103091259
0.00410540974
0.004107510262
0.004109161806
0.004110118434
0.004102666618
0.004103876767
0.004105584289
0.004107646272
0.004109895048
0.004112140886
0.004114175638
0.004115775493
0.004116702188
0.00410948136
0.004110653699
0.004112307896
0.004114305522
0.004116484161
0.004118660002
0.004120631376
0.004122181421
0.004123079267
0.004116081068
0.004117216968
0.004118819773
0.004120755374
0.004122866411
0.004124974782
0.00412688506
0.004128387087
0.004129257122
0.004122473563
0.004123574334
0.004125127592
0.004127003392
0.004129049247
0.004131092558
0.00413294392
0.004134399638
0.004135242851
0.004128666305
0.004129733197
0.004131238668
0.004133056786
0.004135039766
0.004137020313
0.004138814835
0.004140225872
0.004141043204
0.004134666397
0.004135700599
0.004137159959
0.004138922414
0.004140844712
0.004142764682
0.004144504336
0.00414587224
0.004146664587
0.004140480587
0.00414148323
0.00414289807
0.004144606779
0.004146470481
0.004148331947
0.004150018605
0.004151344842
0.00415211305
0.004146115269
0.004147087425
0.004148459254
0.004150116033
0.00415192311
0.004153728031
0.004155363463
0.004156649418
0.004157394287
0.004151576479
0.00415251916
0.004153849401
0.004155455961
0.00415720827
0.004158958493
0.004160544359
0.004161791333
0.004162513612
0.004156869883
0.004157784038
0.004159074027
0.004160631973
0.004162331254
0.004164028503
0.004165566356
0.00416677556
0.004167475949
0.004162000765
0.004162887281
0.004164138261
0.004165649085
0.004167296952
0.004168942826
0.004170434102
0.004171606654
0.004172285795
0.004166974008
0.004167833701
0.004169046819
0.004170511895
0.004172109831
0.004173705794
0.004175151801
0.004176288721
0.004176947198
0.004171794067
0.004172627683
0.004173803982
0.004175224554
0.004176773901
0.00417832127
0.004179723186
0.004180825383
0.004181463716
0.004176464943
0.004177273149
0.004178413559
0.004179790736
0.004181292679
0.004182792617
0.00418415147
0.004185219738
0.004185838378
0.004180990152
0.004181773528
0.004182878859
0.004184213599
0.004185669158
0.004187122654
0.004188439317
0.004189474319
0.004190073642
0.004185372684
0.004186131721
0.00418720265
0.004188495748
0.004189905761
0.004191313621
0.00419258879
0.004193591053
0.004194171351
0.004189614976
0.004190350062
0.004191387123
0.0041926392
0.004194004309
0.004195367136
0.004196601323
0.004197571221
0.004198132698
0.004193718867
0.004194430286
0.00419543386
0.004196645345
0.004197965983
0.004199284165
0.004200477682
0.00420141543
0.004201958196
0.004197685579
0.004198373498
0.004199343801
0.004200514925
0.004201791298
0.004203064997
0.004204217943
0.004205123588
0.004205647651
0.004201515683
0.00420218015
0.004203117229
0.00420424801
0.004205480094
0.00420670923
0.004207821488
0.004208694897
0.004209200166
0.004205209098
0.004205850036
0.004206753757
0.004207843999
0.004209031527
0.004210215781
0.004211287008
0.004212127876
0.004212614152
0.004208765084
0.00420938229
0.004210252344
0.00421130163
0.004212444099
0.00421358291
0.004214612544
0.004215420388
0.004215887374
0.00421218227
0.004212775418
0.00421361132
0.004214619025
0.004215715699
0.004216808273
0.004217795545
0.00421856972
0.004219017022
0.004215458694
0.004216027343
0.004216828444
0.004217793746
0.004218843676
0.004219889012
0.004220832961
0.004221572677
0.004221999819
0.004218591877
0.00421913548
0.004219900988
0.004220822892
0.004221824947
0.004222821864
0.004223721373
0.004224425718
0.004224832158
0.004221578919
0.004222096845
0.004222825848
0.004223703223
0.004224656129
0.004225603312
0.004226457154
0.004227125136
0.004227510286
0.00422441663
0.004224908188
0.004225599695
0.004226431319
0.004227333715
0.004228229773
0.004229036662
0.004229667252
0.00423003051
0.004227101691
0.00422756616
0.004228219145
0.004229003766
0.004229854269
0.004230697808
0.004231456468
0.004232048658
0.00423238944
0.00422963084
0.004230067509
0.004230680967
0.00423141737
0.004232214656
0.004233004358
0.004233713604
0.004234266471
0.004234584249
0.004232001085
0.004232409295
0.004232982306
0.004233669392
0.004234412285
0.004235147002
0.004235805824
0.004236318601
0.004236612945
0.004234209933
0.004234589127
0.004235120921
0.004235757795
0.00423644536
0.004237124212
0.004237731867
0.004238204014
0.004238474636
0.004236255628
0.0042366054
0.004237095432
0.004237681484
0.004238313127
0.004238935599
0.004239491701
0.004239922978
0.004240169774
0.004238137385
0.004238457527
0.004238905546
0.004239440541
0.004240016098
0.004240582135
0.004241086737
0.00424147727
0.004241700356
0.004239855604
0.004240146154
0.004240552266
0.004241036419
0.00424155624
0.004242066324
0.004242519991
0.004242870322
0.004243070065
0.004241412053
0.004241673334
0.004242038055
0.004242472091
0.004242937103
0.004243392313