/*--------------------------------*- C++ -*----------------------------------*\
| =========                 |                                                 |
| \\      /  F ield         | OpenFOAM: The Open Source CFD Toolbox           |
|  \\    /   O peration     | Version:  2212                                  |
|   \\  /    A nd           | Website:  www.openfoam.com                      |
|    \\/     M anipulation  |                                                 |
\*---------------------------------------------------------------------------*/
FoamFile
{
    version     2.0;
    format      ascii;
    arch        "LSB;label=32;scalar=64";
    class       volScalarField;
    location    "18.25000000";
    object      CH3;
}
// * * * * * * * * * * * * * * * * * * * * * * * * * * * * * * * * * * * * * //

dimensions      [0 0 0 0 0 0 0];

internalField   nonuniform List<scalar> 
3000
(
5.863795061e-24
6.586028769e-24
7.675816279e-24
9.127967613e-24
1.092769074e-23
1.302610942e-23
1.529682458e-23
1.746350284e-23
1.899560158e-23
2.20111804e-23
2.482163337e-23
2.906050088e-23
3.472131157e-23
4.179830816e-23
5.025227326e-23
5.993668139e-23
7.036307574e-23
7.959987995e-23
4.92873129e-23
5.601562193e-23
6.626032815e-23
8.016909478e-23
9.799148626e-23
1.199857895e-22
1.460656058e-22
1.747673378e-22
1.992980376e-22
9.383475213e-23
1.077586267e-22
1.292698584e-22
1.590942343e-22
1.982862858e-22
2.47840128e-22
3.074843016e-22
3.724440519e-22
4.248733418e-22
1.665238887e-22
1.935750104e-22
2.360235318e-22
2.960200997e-22
3.763803366e-22
4.793503349e-22
6.032050311e-22
7.347181081e-22
8.356620686e-22
2.861377432e-22
3.36868327e-22
4.176137972e-22
5.335136528e-22
6.90734351e-22
8.932152383e-22
1.134895186e-21
1.385292062e-21
1.570516962e-21
4.8534401e-22
5.784475571e-22
7.283598538e-22
9.459638946e-22
1.243341189e-21
1.626366067e-21
2.079166363e-21
2.539130867e-21
2.870969185e-21
8.205879994e-22
9.889207339e-22
1.262371963e-21
1.662363576e-21
2.211131857e-21
2.916502127e-21
3.743027229e-21
4.570392184e-21
5.157326688e-21
1.389572709e-21
1.690693717e-21
2.183015445e-21
2.906801839e-21
3.90155532e-21
5.17669396e-21
6.660077576e-21
8.12950925e-21
9.160419202e-21
2.361314359e-21
2.895727535e-21
3.77347204e-21
5.068057576e-21
6.848392942e-21
9.124555052e-21
1.175777176e-20
1.43471027e-20
1.615021611e-20
4.028420363e-21
4.971307196e-21
6.524877706e-21
8.820895863e-21
1.197855451e-20
1.600663115e-20
2.064742533e-20
2.51875534e-20
2.833333531e-20
6.897636647e-21
8.553939489e-21
1.128900612e-20
1.533633478e-20
2.090149729e-20
2.798819456e-20
3.612845537e-20
4.40636989e-20
4.954306244e-20
1.184698345e-20
1.474712203e-20
1.954348192e-20
2.664691476e-20
3.641189156e-20
4.88299765e-20
6.30635491e-20
7.690390745e-20
8.64381918e-20
2.03982332e-20
2.546431705e-20
3.385182096e-20
4.628047555e-20
6.336205739e-20
8.506302174e-20
1.098980253e-19
1.340030984e-19
1.505826544e-19
3.518929963e-20
4.402364654e-20
5.866117485e-20
8.035915158e-20
1.101745941e-19
1.480248895e-19
1.912877264e-19
2.331800291e-19
2.620440114e-19
6.079276395e-20
7.61782344e-20
1.016842702e-19
1.39502792e-19
1.914613744e-19
2.573799456e-19
3.325546424e-19
4.039214522e-19
4.555196924e-19
1.051340185e-19
1.319010877e-19
1.762927893e-19
2.421244585e-19
3.325580964e-19
4.472560433e-19
5.782916186e-19
7.065152385e-19
7.918666149e-19
1.819496168e-19
2.284793152e-19
3.05666749e-19
4.201441829e-19
5.773809039e-19
7.767241614e-19
1.004155713e-18
1.22419586e-18
1.374861877e-18
3.150518184e-19
3.958832402e-19
5.299973495e-19
7.289126658e-19
1.002092077e-18
1.348325611e-18
1.743170942e-18
2.124891238e-18
2.386382333e-18
5.45726901e-19
6.860819476e-19
9.18984868e-19
1.264428828e-18
1.738791189e-18
2.339870154e-18
3.025124911e-18
3.687363031e-18
4.140872928e-18
9.455677727e-19
1.189201094e-18
1.593513705e-18
2.193193125e-18
3.016586402e-18
4.059728055e-18
5.248640545e-18
6.397287642e-18
7.183726023e-18
1.638728221e-18
2.061542834e-18
2.763235728e-18
3.803960311e-18
5.232769122e-18
7.042550193e-18
9.104724619e-18
1.109653784e-17
1.245997398e-17
2.840507961e-18
3.574167037e-18
4.791725863e-18
6.597439453e-18
9.076134246e-18
1.221504577e-17
1.579074444e-17
1.924345539e-17
2.160629462e-17
4.924220208e-18
6.197074195e-18
8.309361605e-18
1.144164528e-17
1.574047371e-17
2.118284852e-17
2.738052764e-17
3.336298846e-17
3.745576949e-17
8.537033442e-18
1.074504073e-17
1.440883402e-17
1.984085279e-17
2.729391275e-17
3.672628585e-17
4.746326649e-17
5.782289124e-17
6.490739272e-17
1.480047471e-17
1.863000597e-17
2.498338769e-17
3.440060178e-17
4.731687843e-17
6.365575476e-17
8.224445002e-17
1.00169631e-16
1.124213908e-16
2.565701795e-17
3.229723769e-17
4.331104777e-17
5.963021742e-17
8.200191793e-17
1.102842833e-16
1.424380639e-16
1.734206691e-16
1.945819705e-16
4.446828799e-17
5.597790168e-17
7.506197917e-17
1.033250315e-16
1.420449971e-16
1.909549464e-16
2.46507408e-16
2.999826178e-16
3.364714636e-16
7.70453726e-17
9.69845776e-17
1.30030959e-16
1.78940104e-16
2.458871642e-16
3.303624954e-16
4.261919706e-16
5.183163055e-16
5.810974783e-16
1.33418789e-16
1.679351471e-16
2.251074952e-16
3.096519793e-16
4.252476896e-16
5.709079327e-16
7.358825301e-16
8.942075067e-16
1.001924654e-15
2.308694349e-16
2.905569741e-16
3.89347693e-16
5.352777971e-16
7.345203545e-16
9.85142152e-16
1.268420837e-15
1.539690643e-15
1.723860494e-15
3.99099287e-16
5.021670408e-16
6.725940094e-16
9.239980945e-16
1.266631948e-15
1.696674106e-15
2.181521523e-15
2.644556404e-15
2.958090126e-15
6.890135878e-16
8.666559023e-16
1.160042379e-15
1.592091018e-15
2.179612854e-15
2.915015428e-15
3.741561753e-15
4.528306039e-15
5.059318464e-15
1.187562106e-15
1.492999944e-15
1.996699859e-15
2.736905667e-15
3.740740811e-15
4.99310679e-15
6.395412894e-15
7.724888721e-15
8.618774778e-15
2.042679466e-15
2.566262033e-15
3.428144269e-15
4.69148926e-15
6.399178944e-15
8.52128561e-15
1.08869239e-14
1.311924215e-14
1.461345372e-14
3.504941939e-15
4.399139543e-15
5.867893544e-15
8.014232732e-15
1.090422752e-14
1.44789811e-14
1.844344061e-14
2.216442279e-14
2.464240189e-14
5.996700582e-15
7.517033555e-15
1.00077669e-14
1.363446871e-14
1.849559843e-14
2.447648586e-14
3.107042834e-14
3.722205564e-14
4.129551781e-14
1.022608025e-14
1.279735559e-14
1.699699605e-14
2.308637447e-14
3.120580641e-14
4.113508729e-14
5.201018334e-14
6.20882584e-14
6.87206062e-14
1.737385477e-14
2.169597074e-14
2.873025415e-14
3.888061591e-14
5.233467473e-14
6.867638765e-14
8.644536333e-14
1.027935322e-13
1.134816414e-13
2.939838669e-14
3.661300864e-14
4.830705876e-14
6.508880286e-14
8.718482726e-14
1.138232012e-13
1.425615123e-13
1.687996663e-13
1.858362704e-13
4.953220372e-14
6.148166451e-14
8.076031799e-14
1.082551871e-13
1.441896742e-13
1.871588204e-13
2.331272084e-13
2.747600498e-13
3.016028588e-13
8.309227377e-14
1.027166205e-13
1.342103827e-13
1.788136912e-13
2.366317071e-13
3.051563558e-13
3.778095376e-13
4.430604795e-13
4.848315424e-13
1.388122053e-13
1.707527955e-13
2.217046209e-13
2.932999191e-13
3.852622399e-13
4.931941878e-13
6.065251306e-13
7.074100725e-13
7.715219804e-13
2.31062667e-13
2.825796985e-13
3.6419788e-13
4.778613942e-13
6.223521944e-13
7.900697166e-13
9.642632106e-13
1.117797187e-12
1.214594335e-12
3.836186341e-13
4.66006904e-13
5.955112243e-13
7.740048435e-13
9.981704414e-13
1.254961054e-12
1.518120736e-12
1.747181113e-12
1.890115701e-12
6.361567133e-13
7.670070544e-13
9.708461534e-13
1.248417288e-12
1.591930941e-12
1.978877341e-12
2.368183239e-12
2.700622189e-12
2.904368663e-12
1.055534118e-12
1.262527945e-12
1.581766006e-12
2.010446984e-12
2.531518962e-12
3.105412073e-12
3.666836872e-12
4.129877186e-12
4.402189133e-12
1.755127668e-12
2.082688325e-12
2.582609589e-12
3.243767164e-12
4.030662153e-12
4.872134389e-12
5.660617731e-12
6.269404798e-12
6.592102296e-12
2.926753656e-12
3.447848837e-12
4.235537184e-12
5.262283369e-12
6.458506993e-12
7.69650688e-12
8.795819875e-12
9.568344159e-12
9.914402203e-12
4.889891e-12
5.726327829e-12
6.981905766e-12
8.601603891e-12
1.04608913e-11
1.234694524e-11
1.399164526e-11
1.520379896e-11
1.614414579e-11
8.160261242e-12
9.515527608e-12
1.154434694e-11
1.415461099e-11
1.715549581e-11
2.02715794e-11
2.333352453e-11
2.65859194e-11
2.895916953e-11
1.35328369e-11
1.574327781e-11
1.906315086e-11
2.3378572e-11
2.85115848e-11
3.448199952e-11
4.187918366e-11
4.947076915e-11
5.499845758e-11
2.216865073e-11
2.579139872e-11
3.13140739e-11
3.877042393e-11
4.860674957e-11
6.204813982e-11
7.828617142e-11
9.497537766e-11
1.072884171e-10
3.572404616e-11
4.175253424e-11
5.135977594e-11
6.570775958e-11
8.66603899e-11
1.146432662e-10
1.484834419e-10
1.836703494e-10
2.101050463e-10
5.702011829e-11
6.769187229e-11
8.670981006e-11
1.157942557e-10
1.573671888e-10
2.127371494e-10
2.80036495e-10
3.506383929e-10
4.042820056e-10
9.437889281e-11
1.157295264e-10
1.520251515e-10
2.072801809e-10
2.859041749e-10
3.903738634e-10
5.169759301e-10
6.489553678e-10
7.482700776e-10
1.641411902e-10
2.037841383e-10
2.704889652e-10
3.714421475e-10
5.140077873e-10
7.012220813e-10
9.236639355e-10
1.148619366e-09
1.311769284e-09
2.925337602e-10
3.637573966e-10
4.82723402e-10
6.60904472e-10
9.08424705e-10
1.224984592e-09
1.586377369e-09
1.933257853e-09
2.171285221e-09
5.271306807e-10
6.518210264e-10
8.57769853e-10
1.160631751e-09
1.569484644e-09
2.07095451e-09
2.613288738e-09
3.104180164e-09
3.42380481e-09
9.509888199e-10
1.162685576e-09
1.506143288e-09
1.997184314e-09
2.634061187e-09
3.376899286e-09
4.138775055e-09
4.798030649e-09
5.213313617e-09
1.698272027e-09
2.04238424e-09
2.587086488e-09
3.33871319e-09
4.271853235e-09
5.312493912e-09
6.341994979e-09
7.212872472e-09
7.7534431e-09
2.959344731e-09
3.487938228e-09
4.302375171e-09
5.388303869e-09
6.690141631e-09
8.102849988e-09
9.479128079e-09
1.063535519e-08
1.13491535e-08
4.966861197e-09
5.733333001e-09
6.88880451e-09
8.39385337e-09
1.016533653e-08
1.206914057e-08
1.391863046e-08
1.547163188e-08
1.642849785e-08
7.985282494e-09
9.051957865e-09
1.064129798e-08
1.269120885e-08
1.509196713e-08
1.767077434e-08
2.017999904e-08
2.229001113e-08
2.358978062e-08
1.234439417e-08
1.380347076e-08
1.596991791e-08
1.875967192e-08
2.202944408e-08
2.554987472e-08
2.898486706e-08
3.188045047e-08
3.366661838e-08
1.850619536e-08
2.049809991e-08
2.345598711e-08
2.726954666e-08
3.174958697e-08
3.658793654e-08
4.132537286e-08
4.533332182e-08
4.781376756e-08
2.711913395e-08
2.984464001e-08
3.389624204e-08
3.912988359e-08
4.529545763e-08
5.197824588e-08
5.855034489e-08
6.413838666e-08
6.761492568e-08
3.905584741e-08
4.279026817e-08
4.83494118e-08
5.554658616e-08
6.405267415e-08
7.331190477e-08
8.246698905e-08
9.030118334e-08
9.520931037e-08
5.545270433e-08
6.056648838e-08
6.819126148e-08
7.808813624e-08
8.982833393e-08
1.026717532e-07
1.154507431e-07
1.264677458e-07
1.33426492e-07
7.775536499e-08
8.473948371e-08
9.517206714e-08
1.087526406e-07
1.249292459e-07
1.427231945e-07
1.605491281e-07
1.760400682e-07
1.859093881e-07
1.07763055e-07
1.172579182e-07
1.314692612e-07
1.500261468e-07
1.722264894e-07
1.967849241e-07
2.215577307e-07
2.43255656e-07
2.57195421e-07
1.476655653e-07
1.604903971e-07
1.797249854e-07
2.049192457e-07
2.351891932e-07
2.688572485e-07
3.030402561e-07
3.331977651e-07
3.52718913e-07
2.000647018e-07
2.172430966e-07
2.430568987e-07
2.769669249e-07
3.178681327e-07
3.635835514e-07
4.102630703e-07
4.517023518e-07
4.786980719e-07
2.679719007e-07
2.907478744e-07
3.250304153e-07
3.701770957e-07
4.248114602e-07
4.861241684e-07
5.490209938e-07
6.051369325e-07
6.418811672e-07
3.547742677e-07
3.846123488e-07
4.295829279e-07
4.889175886e-07
5.609022305e-07
6.4193328e-07
7.253471642e-07
8.000471818e-07
8.4915023e-07
4.641634886e-07
5.027268859e-07
5.6089616e-07
6.377402216e-07
7.311206012e-07
8.364481335e-07
9.451245337e-07
1.042697462e-06
1.107014604e-06
6.000262e-07
6.491292595e-07
7.232213066e-07
8.211528004e-07
9.402506172e-07
1.074722524e-06
1.213645244e-06
1.338566209e-06
1.421066726e-06
7.663002349e-07
8.278351974e-07
9.206714561e-07
1.043362769e-06
1.192567753e-06
1.36105627e-06
1.535187369e-06
1.691883e-06
1.795496035e-06
9.668076198e-07
1.042650443e-06
1.157004342e-06
1.308025718e-06
1.49155332e-06
1.698682735e-06
1.91269196e-06
2.105321684e-06
2.232842383e-06
1.205080787e-06
1.296985379e-06
1.435423083e-06
1.618034399e-06
1.839679391e-06
2.089564165e-06
2.347592503e-06
2.579920269e-06
2.734033726e-06
1.484201937e-06
1.593695607e-06
1.75842288e-06
1.975380958e-06
2.238299295e-06
2.534322007e-06
2.839792346e-06
3.114933751e-06
3.297340093e-06
1.806676823e-06
1.934971621e-06
2.127709184e-06
2.381121085e-06
2.687683828e-06
3.03237911e-06
3.387745269e-06
3.707255308e-06
3.918961846e-06
2.174366053e-06
2.322299714e-06
2.544210457e-06
2.83547148e-06
3.187239227e-06
3.581983314e-06
3.987852284e-06
4.35213997e-06
4.59340062e-06
2.588509894e-06
2.756538516e-06
3.008221967e-06
3.338066796e-06
3.735281574e-06
4.17960113e-06
4.635268933e-06
5.043575609e-06
5.313874522e-06
3.049940316e-06
3.238224228e-06
3.519648006e-06
3.887249475e-06
4.328555947e-06
4.820723027e-06
5.324213784e-06
5.774649074e-06
6.072723033e-06
3.55881701e-06
3.766564585e-06
4.076397264e-06
4.479952082e-06
4.96296263e-06
5.50008601e-06
6.048243416e-06
6.537869626e-06
6.861762859e-06
4.113190583e-06
4.339176874e-06
4.675494211e-06
5.112366375e-06
5.633728312e-06
6.21186464e-06
6.800480409e-06
7.325433615e-06
7.672577845e-06
4.710276963e-06
4.95288257e-06
5.313190761e-06
5.780008428e-06
6.33551987e-06
6.949818549e-06
7.573792295e-06
8.129431007e-06
8.496744141e-06
5.346460238e-06
5.60371732e-06
5.98502135e-06
6.477787205e-06
7.062539825e-06
7.707412872e-06
8.360933942e-06
8.942005932e-06
9.326002986e-06
6.017318403e-06
6.286969031e-06
6.685863238e-06
7.20008157e-06
7.808620434e-06
8.477927125e-06
9.154668204e-06
9.7554863e-06
1.015239635e-05
6.717687317e-06
6.997250616e-06
7.410021117e-06
7.940835127e-06
8.56732667e-06
9.254563316e-06
9.947876205e-06
1.056249449e-05
1.096837797e-05
7.441764852e-06
7.728608409e-06
8.151340188e-06
8.693672104e-06
9.33207197e-06
1.00305581e-05
1.07336631e-05
1.1356046e-05
1.176690714e-05
8.183249558e-06
8.474661061e-06
8.903343942e-06
9.452031347e-06
1.009624485e-05
1.079929835e-05
1.150546006e-05
1.212963796e-05
1.254152828e-05
8.935503651e-06
9.228759404e-06
9.659388277e-06
1.020931116e-05
1.085334047e-05
1.155443571e-05
1.225711962e-05
1.287732632e-05
1.328643586e-05
9.691727975e-06
9.984155712e-06
1.041282143e-05
1.095901584e-05
1.159708951e-05
1.228999426e-05
1.298300036e-05
1.359378914e-05
1.399652338e-05
1.04451367e-05
1.073417082e-05
1.115713927e-05
1.169489468e-05
1.23215768e-05
1.300046539e-05
1.367803672e-05
1.427437358e-05
1.466741499e-05
1.11891211e-05
1.147234922e-05
1.18861271e-05
1.241106607e-05
1.30213436e-05
1.368088552e-05
1.433779132e-05
1.491512517e-05
1.529547944e-05
1.191739453e-05
1.219259475e-05
1.259398149e-05
1.310212124e-05
1.36914697e-05
1.43268941e-05
1.495848838e-05
1.551279932e-05
1.587782692e-05
1.262411341e-05
1.288928242e-05
1.327540852e-05
1.376320491e-05
1.432763344e-05
1.493477107e-05
1.553702856e-05
1.606485605e-05
1.641229035e-05
1.330397197e-05
1.355734447e-05
1.392569699e-05
1.439007226e-05
1.492614976e-05
1.550145458e-05
1.607098649e-05
1.656943979e-05
1.68973934e-05
1.39522707e-05
1.419233066e-05
1.45407671e-05
1.497912303e-05
1.548398762e-05
1.602454075e-05
1.655859321e-05
1.702534667e-05
1.733230763e-05
1.456495976e-05
1.47904447e-05
1.511719662e-05
1.552741501e-05
1.599876917e-05
1.650226786e-05
1.699870588e-05
1.743198173e-05
1.771680149e-05
1.513866006e-05
1.53485591e-05
1.565222699e-05
1.603265941e-05
1.646875334e-05
1.693348771e-05
1.739076756e-05
1.778930876e-05
1.805118349e-05
1.567066481e-05
1.586421158e-05
1.614375253e-05
1.649320136e-05
1.689280665e-05
1.731762688e-05
1.773475943e-05
1.809779494e-05
1.833624187e-05
1.615892487e-05
1.633558624e-05
1.659029567e-05
1.690798822e-05
1.72703643e-05
1.76546405e-05
1.803114797e-05
1.835835257e-05
1.857318279e-05
1.660202086e-05
1.676148235e-05
1.699097132e-05
1.727652876e-05
1.760138381e-05
1.794496081e-05
1.828082906e-05
1.857227956e-05
1.876356848e-05
1.699912508e-05
1.714127384e-05
1.734544301e-05
1.759884552e-05
1.788629382e-05
1.818944269e-05
1.848507086e-05
1.874120045e-05
1.890925709e-05
1.73499558e-05
1.747486183e-05
1.765387323e-05
1.787542291e-05
1.812594002e-05
1.838930792e-05
1.864545699e-05
1.886700894e-05
1.901234492e-05
1.765472634e-05
1.77626227e-05
1.791687021e-05
1.810715273e-05
1.832152985e-05
1.854608967e-05
1.876383133e-05
1.89518133e-05
1.90751123e-05
1.791409094e-05
1.800535348e-05
1.813543288e-05
1.829527897e-05
1.847457767e-05
1.866157846e-05
1.884224525e-05
1.899788506e-05
1.90999734e-05
1.81290892e-05
1.820421633e-05
1.831089559e-05
1.844134325e-05
1.858685132e-05
1.873777058e-05
1.888290827e-05
1.900761193e-05
1.908943067e-05
1.830109062e-05
1.83606835e-05
1.844487395e-05
1.854713198e-05
1.866032128e-05
1.877681968e-05
1.88881425e-05
1.898345495e-05
1.904603393e-05
1.843174034e-05
1.847648389e-05
1.853921269e-05
1.861462611e-05
1.869711298e-05
1.878099219e-05
1.886034137e-05
1.892791036e-05
1.897234441e-05
1.85229072e-05
1.855355219e-05
1.859593646e-05
1.86459543e-05
1.869946284e-05
1.875262678e-05
1.880193275e-05
1.884347612e-05
1.887090352e-05
1.857663479e-05
1.859398119e-05
1.86172041e-05
1.864334978e-05
1.86696784e-05
1.869409816e-05
1.87153466e-05
1.873262303e-05
1.874420638e-05
1.859509611e-05
1.859997783e-05
1.860526682e-05
1.860911133e-05
1.861010269e-05
1.860778524e-05
1.860298702e-05
1.859777029e-05
1.859467977e-05
1.858055215e-05
1.857382331e-05
1.856243053e-05
1.854556855e-05
1.852308291e-05
1.849604364e-05
1.84672086e-05
1.844126538e-05
1.842466425e-05
1.85353147e-05
1.85178374e-05
1.849102249e-05
1.845505137e-05
1.841094342e-05
1.836118239e-05
1.83102969e-05
1.826536774e-05
1.823640015e-05
1.846171339e-05
1.843434709e-05
1.839336213e-05
1.833986377e-05
1.827596276e-05
1.820544456e-05
1.813445265e-05
1.807223621e-05
1.803201699e-05
1.836206709e-05
1.832565943e-05
1.827173612e-05
1.82022616e-05
1.812035465e-05
1.803099163e-05
1.794177944e-05
1.786391958e-05
1.781352606e-05
1.823865936e-05
1.819403845e-05
1.812837739e-05
1.804443422e-05
1.794625259e-05
1.783989127e-05
1.773427458e-05
1.764235017e-05
1.758281569e-05
1.809371791e-05
1.804168599e-05
1.796544787e-05
1.786848966e-05
1.77556978e-05
1.763410815e-05
1.751382274e-05
1.740933988e-05
1.734164888e-05
1.792939778e-05
1.787072611e-05
1.778502476e-05
1.76764431e-05
1.755063018e-05
1.741549752e-05
1.728219204e-05
1.716657838e-05
1.709166299e-05
1.774776792e-05
1.768319286e-05
1.75890899e-05
1.747020827e-05
1.733288197e-05
1.718580121e-05
1.704103226e-05
1.691563328e-05
1.683437099e-05
1.755080093e-05
1.748102104e-05
1.737952201e-05
1.725159148e-05
1.710417377e-05
1.694664565e-05
1.679187481e-05
1.66579517e-05
1.65711642e-05
1.734036557e-05
1.72660396e-05
1.715809142e-05
1.702228792e-05
1.686611258e-05
1.669954171e-05
1.653613424e-05
1.639486319e-05
1.630331608e-05
1.711822178e-05
1.703996751e-05
1.692645701e-05
1.678388e-05
1.662019159e-05
1.644588601e-05
1.627511093e-05
1.612758363e-05
1.603198685e-05
1.68860178e-05
1.680441156e-05
1.668616506e-05
1.653783727e-05
1.636779142e-05
1.618696343e-05
1.600999479e-05
1.585721983e-05
1.575822876e-05
1.664528921e-05
1.656086598e-05
1.64386496e-05
1.628551787e-05
1.611018258e-05
1.592395055e-05
1.57418697e-05
1.558477479e-05
1.548299179e-05
1.639745946e-05
1.631071348e-05
1.618523421e-05
1.602817104e-05
1.584852885e-05
1.565791994e-05
1.547171847e-05
1.53111533e-05
1.520712966e-05
1.614384178e-05
1.605522751e-05
1.592713479e-05
1.576694054e-05
1.55838914e-05
1.538984489e-05
1.520042824e-05
1.503716774e-05
1.493140595e-05
1.588564204e-05
1.57955755e-05
1.566546323e-05
1.550286889e-05
1.531723348e-05
1.512060464e-05
1.492879609e-05
1.476354411e-05
1.465650025e-05
1.562396252e-05
1.553282285e-05
1.540123175e-05
1.523690201e-05
1.504942551e-05
1.485098978e-05
1.465753475e-05
1.449092791e-05
1.438301428e-05
1.535980627e-05
1.526793746e-05
1.513535766e-05
1.49698943e-05
1.478125043e-05
1.458170786e-05
1.438727842e-05
1.421989011e-05
1.411147786e-05
1.509408196e-05
1.50017947e-05
1.486866852e-05
1.470261394e-05
1.45134091e-05
1.431338894e-05
1.41185884e-05
1.395093285e-05
1.384235467e-05
1.4827609e-05
1.473518268e-05
1.460190744e-05
1.443574833e-05
1.42465259e-05
1.404659117e-05
1.385195871e-05
1.368449501e-05
1.357604781e-05
1.456112294e-05
1.446880756e-05
1.433573854e-05
1.416990951e-05
1.39811541e-05
1.378180625e-05
1.358782142e-05
1.342095756e-05
1.331290505e-05
1.429528082e-05
1.420329903e-05
1.407075232e-05
1.390563961e-05
1.371778126e-05
1.351946464e-05
1.332655186e-05
1.316064859e-05
1.305322387e-05
1.403066665e-05
1.393921572e-05
1.380747108e-05
1.364341611e-05
1.345683441e-05
1.325994069e-05
1.306847358e-05
1.290384812e-05
1.279725611e-05
1.376779668e-05
1.367705038e-05
1.354635405e-05
1.338365692e-05
1.319868504e-05
1.300355742e-05
1.28138629e-05
1.26507926e-05
1.254521237e-05
1.350712463e-05
1.341723514e-05
1.328780248e-05
1.312672531e-05
1.294365377e-05
1.275059105e-05
1.256295335e-05
1.240167907e-05
1.229726611e-05
1.324904674e-05
1.316014638e-05
1.303216448e-05
1.287293462e-05
1.269201497e-05
1.25012754e-05
1.231593977e-05
1.215666911e-05
1.205355738e-05
1.299390651e-05
1.290610952e-05
1.277973964e-05
1.262255271e-05
1.244400096e-05
1.225580587e-05
1.207298211e-05
1.191589246e-05
1.181419641e-05
1.274199934e-05
1.265540342e-05
1.253078331e-05
1.23758061e-05
1.2199806e-05
1.201434318e-05
1.183420897e-05
1.167945034e-05
1.157926672e-05
1.249357668e-05
1.24082646e-05
1.228551073e-05
1.213288388e-05
1.195958995e-05
1.177701692e-05
1.15997209e-05
1.144741858e-05
1.134882815e-05
1.224884994e-05
1.21648911e-05
1.204410075e-05
1.189394136e-05
1.172348176e-05
1.15439287e-05
1.136959334e-05
1.121985036e-05
1.112291952e-05
1.200799394e-05
1.192544601e-05
1.180669938e-05
1.165910339e-05
1.149158265e-05
1.131515519e-05
1.114387946e-05
1.099677886e-05
1.09015611e-05
1.177115075e-05
1.169006105e-05
1.157342311e-05
1.14284676e-05
1.126396901e-05
1.10907508e-05
1.092261264e-05
1.077821956e-05
1.068475682e-05
1.153843445e-05
1.145884004e-05
1.134436217e-05
1.120210729e-05
1.104069521e-05
1.087075025e-05
1.070580882e-05
1.056417243e-05
1.047249634e-05
1.130993474e-05
1.123186287e-05
1.111958375e-05
1.098007435e-05
1.082179613e-05
1.065517089e-05
1.049346858e-05
1.035462385e-05
1.026475685e-05
1.108571854e-05
1.100918832e-05
1.089913451e-05
1.076240163e-05
1.060728945e-05
1.044401476e-05
1.02855791e-05
1.014954834e-05
1.006150473e-05
1.086583173e-05
1.079085499e-05
1.06830428e-05
1.054910515e-05
1.039717767e-05
1.023727049e-05
1.00821158e-05
9.948910176e-06
9.862697058e-06
1.06503016e-05
1.05768839e-05
1.047132017e-05
1.034018595e-05
1.019144994e-05
1.003491502e-05
9.883044e-06
9.752664813e-06
9.668282936e-06
1.043913921e-05
1.03672808e-05
1.026396509e-05
1.013563234e-05
9.990083878e-06
9.83691511e-06
9.688320226e-06
9.560760138e-06
9.47820468e-06
1.023234118e-05
1.016203755e-05
1.006096244e-05
9.93542098e-06
9.793046906e-06
9.643228745e-06
9.497893509e-06
9.373137622e-06
9.292398892e-06
1.002989142e-05
9.961133912e-06
9.862286176e-06
9.739518413e-06
9.600297572e-06
9.453806293e-06
9.311706467e-06
9.189733324e-06
9.110797403e-06
9.831762838e-06
9.76453914e-06
9.667900366e-06
9.547882285e-06
9.411786803e-06
9.268591668e-06
9.12969633e-06
9.010478816e-06
8.933328136e-06
9.637918827e-06
9.572213581e-06
9.4777611e-06
9.360463705e-06
9.227459378e-06
9.087523446e-06
8.95179588e-06
8.835302008e-06
8.75991586e-06
9.448314589e-06
9.384109749e-06
9.291817054e-06
9.177206522e-06
9.047254376e-06
8.910535602e-06
8.777934207e-06
8.664127852e-06
8.59048286e-06
9.262898346e-06
9.200173594e-06
9.110010977e-06
8.998049631e-06
8.871106424e-06
8.737558404e-06
8.60803745e-06
8.496878998e-06
8.42494953e-06
9.081612456e-06
9.020345593e-06
8.932280723e-06
8.822927781e-06
8.698946547e-06
8.568519163e-06
8.442029447e-06
8.333476362e-06
8.2632349e-06
8.904394345e-06
8.844561608e-06
8.758559973e-06
8.651772066e-06
8.530702761e-06
8.403342836e-06
8.279832288e-06
8.173839623e-06
8.105257097e-06
8.731177337e-06
8.67275366e-06
8.588778888e-06
8.484510281e-06
8.366300627e-06
8.241952558e-06
8.121366799e-06
8.017887663e-06
7.950933745e-06
8.56189141e-06
8.50485068e-06
8.422864948e-06
8.321068222e-06
8.205663941e-06
8.084270161e-06
7.966552982e-06
7.865538946e-06
7.80018231e-06
8.39646386e-06
8.34077914e-06
8.260743479e-06
8.161369855e-06
8.048715171e-06
7.930216609e-06
7.815310397e-06
7.716711854e-06
7.652920415e-06
8.234819898e-06
8.180463623e-06
8.102338194e-06
8.005337867e-06
7.895375898e-06
7.779712381e-06
7.667558498e-06
7.571324986e-06
7.509066102e-06
8.076883174e-06
8.023827326e-06
7.94757167e-06
7.852894108e-06
7.745567213e-06
7.632677811e-06
7.52321693e-06
7.429297412e-06
7.368538066e-06
7.922576248e-06
7.870792509e-06
7.796365763e-06
7.703959981e-06
7.599210049e-06
7.489033388e-06
7.382205782e-06
7.290548894e-06
7.231255854e-06
7.771820991e-06
7.72128088e-06
7.648641975e-06
7.558456765e-06
7.456225484e-06
7.34870001e-06
7.244445809e-06
7.155000079e-06
7.097140039e-06
7.624538942e-06
7.575213939e-06
7.504321766e-06
7.416305907e-06
7.316534987e-06
7.211599207e-06
7.109858624e-06
7.022572661e-06
6.966112366e-06
7.480651612e-06
7.43251326e-06
7.363326822e-06
7.277429261e-06
7.180060641e-06
7.077653328e-06
6.97836686e-06
6.893189525e-06
6.838095877e-06
7.340080743e-06
7.293100741e-06
7.225579284e-06
7.141749296e-06
7.046725317e-06
6.946785698e-06
6.849894301e-06
6.76677486e-06
6.713015019e-06
7.202748512e-06
7.156898799e-06
7.091001928e-06
7.009189259e-06
6.916452829e-06
6.818920749e-06
6.724365996e-06
6.643254252e-06
6.590795725e-06
7.068577699e-06
7.023830525e-06
6.959518307e-06
6.879673302e-06
6.789168033e-06
6.693984104e-06
6.601708335e-06
6.522554757e-06
6.471365479e-06
6.93749179e-06
6.893819782e-06
6.83105284e-06
6.753126553e-06
6.664796895e-06
6.571902634e-06
6.481849089e-06
6.404604933e-06
6.354653349e-06
6.809415015e-06
6.766791231e-06
6.705530826e-06
6.62947513e-06
6.54326649e-06
6.452604453e-06
6.364717404e-06
6.28933483e-06
6.240589976e-06
6.684272301e-06
6.642670286e-06
6.582878391e-06
6.50864607e-06
6.424504922e-06
6.336018827e-06
6.250243714e-06
6.176675909e-06
6.1291075e-06
6.561989117e-06
6.521382942e-06
6.463022305e-06
6.390567141e-06
6.308441134e-06
6.222075984e-06
6.138359542e-06
6.066560853e-06
6.020139372e-06
6.442491161e-06
6.402855457e-06
6.345889657e-06
6.275166495e-06
6.195004546e-06
6.110706744e-06
6.02899714e-06
5.958923204e-06
5.913620013e-06
6.325703853e-06
6.28701383e-06
6.231407304e-06
6.162372109e-06
6.08412447e-06
6.001841918e-06
5.922088878e-06
5.853696765e-06
5.809484212e-06
6.211551558e-06
6.173782999e-06
6.119501043e-06
6.052110909e-06
5.975729209e-06
5.895411376e-06
5.817566282e-06
5.750814625e-06
5.707666164e-06
6.099956456e-06
6.063085682e-06
6.010094403e-06
5.944307507e-06
5.869744719e-06
5.791342649e-06
5.715358604e-06
5.650207694e-06
5.608097988e-06
5.990836976e-06
5.95484075e-06
5.903106944e-06
5.838882406e-06
5.766092723e-06
5.689558943e-06
5.615390726e-06
5.551802548e-06
5.510707536e-06
5.884105662e-06
5.848961028e-06
5.79845194e-06
5.735749522e-06
5.664688106e-06
5.589976371e-06
5.517580253e-06
5.455518389e-06
5.415415285e-06
5.779666379e-06
5.745350396e-06
5.696033358e-06
5.634813074e-06
5.565435464e-06
5.49250025e-06
5.421833564e-06
5.361262901e-06
5.322130069e-06
5.677410719e-06
5.643900052e-06
5.595741891e-06
5.535963252e-06
5.468224584e-06
5.39702026e-06
5.328040647e-06
5.268926788e-06
5.230743425e-06
5.577213514e-06
5.544483843e-06
5.497450014e-06
5.439070918e-06
5.372924756e-06
5.303404331e-06
5.236068531e-06
5.178376809e-06
5.141122356e-06
5.478927397e-06
5.446952609e-06
5.401006002e-06
5.343981207e-06
5.279377873e-06
5.21149117e-06
5.145753234e-06
5.089447186e-06
5.05310038e-06
5.382376373e-06
5.351127522e-06
5.306226952e-06
5.250506196e-06
5.18739033e-06
5.121081437e-06
5.056890213e-06
5.001929399e-06
4.966466866e-06
5.287348404e-06
5.25679236e-06
5.212890582e-06
5.15841602e-06
5.0967236e-06
5.031927585e-06
4.969223405e-06
4.915560473e-06
4.880954794e-06
5.193587147e-06
5.163684934e-06
5.120726158e-06
5.06742914e-06
5.007083865e-06
4.943722702e-06
4.882433203e-06
4.830010122e-06
4.796227303e-06
5.100783102e-06
5.071487942e-06
5.029404957e-06
4.977202465e-06
4.918111229e-06
4.856088836e-06
4.796123875e-06
4.744867326e-06
4.711863657e-06
5.008564483e-06
4.979819561e-06
4.938530442e-06
4.887320882e-06
4.829368775e-06
4.768565368e-06
4.709811165e-06
4.659627158e-06
4.627345513e-06
4.916488384e-06
4.888224439e-06
4.847629026e-06
4.7972877e-06
4.740332525e-06
4.680598433e-06
4.622911115e-06
4.573679029e-06
4.542044705e-06
4.824032859e-06
4.796165696e-06
4.75614243e-06
4.706516743e-06
4.650383283e-06
4.591532513e-06
4.5347314e-06
4.486297736e-06
4.455214069e-06
4.730590973e-06
4.703019768e-06
4.663422256e-06
4.614327062e-06
4.558801535e-06
4.50060557e-06
4.444466697e-06
4.396639028e-06
4.365983096e-06
4.635469632e-06
4.608074819e-06
4.568728075e-06
4.519941518e-06
4.464766762e-06
4.406949238e-06
4.351199807e-06
4.303741559e-06
4.273360426e-06
4.537891005e-06
4.510531807e-06
4.471229876e-06
4.422490502e-06
4.367362668e-06
4.309595758e-06
4.253910371e-06
4.206537247e-06
4.176245315e-06
4.4369975e-06
4.409511349e-06
4.370016457e-06
4.321022272e-06
4.26558988e-06
4.207493336e-06
4.151493027e-06
4.103872012e-06
4.073450157e-06
4.331864298e-06
4.304067607e-06
4.26411135e-06
4.21452146e-06
4.158387556e-06
4.099531415e-06
4.042786621e-06
3.994538638e-06
3.963735863e-06
4.221519522e-06
4.193210092e-06
4.152497131e-06
4.101936804e-06
4.044665338e-06
3.98457731e-06
3.926615711e-06
3.877322941e-06
3.84586132e-06
4.104972906e-06
4.075934345e-06
4.034149167e-06
3.982218913e-06
3.923346022e-06
3.861524565e-06
3.801844984e-06
3.751063734e-06
3.718647266e-06
3.981253414e-06
3.951261884e-06
3.908079044e-06
3.854368301e-06
3.79341918e-06
3.729352904e-06
3.667445862e-06
3.614725695e-06
3.581053529e-06
3.849455722e-06
3.818289199e-06
3.773387317e-06
3.717493018e-06
3.654004665e-06
3.587198342e-06
3.522573505e-06