/*--------------------------------*- C++ -*----------------------------------*\
| =========                 |                                                 |
| \\      /  F ield         | OpenFOAM: The Open Source CFD Toolbox           |
|  \\    /   O peration     | Version:  2212                                  |
|   \\  /    A nd           | Website:  www.openfoam.com                      |
|    \\/     M anipulation  |                                                 |
\*---------------------------------------------------------------------------*/
FoamFile
{
    version     2.0;
    format      ascii;
    arch        "LSB;label=32;scalar=64";
    class       volScalarField;
    location    "18.25000000";
    object      CH3COCH2;
}
// * * * * * * * * * * * * * * * * * * * * * * * * * * * * * * * * * * * * * //

dimensions      [0 0 0 0 0 0 0];

internalField   nonuniform List<scalar> 
3000
(
6.582019582e-24
7.39372858e-24
8.618572212e-24
1.025075433e-23
1.227367252e-23
1.463239e-23
1.718480858e-23
1.962028699e-23
2.134245582e-23
2.471063876e-23
2.78698434e-23
3.263492712e-23
3.899878948e-23
4.695506503e-23
5.645963772e-23
6.734757164e-23
7.906932583e-23
8.945300915e-23
5.534574429e-23
6.291120873e-23
7.443121087e-23
9.007234776e-23
1.101157041e-22
1.348519281e-22
1.641836733e-22
1.964642689e-22
2.240532052e-22
1.054063586e-22
1.210689446e-22
1.452680146e-22
1.788216838e-22
2.229179817e-22
2.786767742e-22
3.457933835e-22
4.188946842e-22
4.778967362e-22
1.87144799e-22
2.175890691e-22
2.653663331e-22
3.329016889e-22
4.233695682e-22
5.393035098e-22
6.787651324e-22
8.26862557e-22
9.405436563e-22
3.21748281e-22
3.788759373e-22
4.698132209e-22
6.003593459e-22
7.774730283e-22
1.005605539e-21
1.277938891e-21
1.560127918e-21
1.768890622e-21
5.460959168e-22
6.510098722e-22
8.199605313e-22
1.065237765e-21
1.400489473e-21
1.832369562e-21
2.343006556e-21
2.861797569e-21
3.236120484e-21
9.23965734e-22
1.113791244e-21
1.422201485e-21
1.873409121e-21
2.492561218e-21
3.288553186e-21
4.221435423e-21
5.155419071e-21
5.818078501e-21
1.565852797e-21
1.90568854e-21
2.461395774e-21
3.278526559e-21
4.40180521e-21
5.841998484e-21
7.517727338e-21
9.177993123e-21
1.034295696e-20
2.663079076e-21
3.266701499e-21
4.258287407e-21
5.721081159e-21
7.733189991e-21
1.030625353e-20
1.328358104e-20
1.621184576e-20
1.825129447e-20
4.547178718e-21
5.613092694e-21
7.369687144e-21
9.966320847e-21
1.353824994e-20
1.809586736e-20
2.334792454e-20
2.848707708e-20
3.204848304e-20
7.792855121e-21
9.66693317e-21
1.276219111e-20
1.734356651e-20
2.364459338e-20
3.167030372e-20
4.089130565e-20
4.988191027e-20
5.609103044e-20
1.339682446e-20
1.66812586e-20
2.211422402e-20
3.016234913e-20
4.122875544e-20
5.530539132e-20
7.144380244e-20
8.71396582e-20
9.795395991e-20
2.308823615e-20
2.883091844e-20
3.83404772e-20
5.243515564e-20
7.181143185e-20
9.64339361e-20
1.246191875e-19
1.519818721e-19
1.708051958e-19
3.986736282e-20
4.989094069e-20
6.650220757e-20
9.113192331e-20
1.249847058e-19
1.67971501e-19
2.171174189e-19
2.647172227e-19
2.975182597e-19
6.893990969e-20
8.641297081e-20
1.153856777e-19
1.583548738e-19
2.174054849e-19
2.923412969e-19
3.778219576e-19
4.58998797e-19
5.176823683e-19
1.193373208e-19
1.497651991e-19
2.002384713e-19
2.751074959e-19
3.779831797e-19
5.084959048e-19
6.576343241e-19
8.035944334e-19
9.007879207e-19
2.06728304e-19
2.596721468e-19
3.475179983e-19
4.778355365e-19
6.56876763e-19
8.839238503e-19
1.143027056e-18
1.393763247e-18
1.565479457e-18
3.583008185e-19
4.503629741e-19
6.031425204e-19
8.297987876e-19
1.141159613e-18
1.535890252e-18
1.98615402e-18
2.421545938e-18
2.719856148e-18
6.212398818e-19
7.812494393e-19
1.04682183e-18
1.440820414e-18
1.982003346e-18
2.667935899e-18
3.450122847e-18
4.206203698e-18
4.724069693e-18
1.077447143e-18
1.355465107e-18
1.816935398e-18
2.501563764e-18
3.441850045e-18
4.633400178e-18
5.991800578e-18
7.304485275e-18
8.203394322e-18
1.869092984e-18
2.35204705e-18
3.153712767e-18
4.343012864e-18
5.976241259e-18
8.045502002e-18
1.040393524e-17
1.268240279e-17
1.424233769e-17
3.242964307e-18
4.081789248e-18
5.474168099e-18
7.53967079e-18
1.037574202e-17
1.396818223e-17
1.806154693e-17
2.201499348e-17
2.4720991e-17
5.627398067e-18
7.084126717e-18
9.502055266e-18
1.308847329e-17
1.801189497e-17
2.4246683e-17
3.134853048e-17
3.820527966e-17
4.289702684e-17
9.765701391e-18
1.229515043e-17
1.649319129e-17
2.271886245e-17
3.126316187e-17
4.207946804e-17
5.439488329e-17
6.628009796e-17
7.440934084e-17
1.694732913e-17
2.133869355e-17
2.862569585e-17
3.942946747e-17
5.425147269e-17
7.300606865e-17
9.434846214e-17
1.149336007e-16
1.290059499e-16
2.940793926e-17
3.702993772e-17
4.967479388e-17
6.841537662e-17
9.411343925e-17
1.266096477e-16
1.635633045e-16
1.99178817e-16
2.235087882e-16
5.102067022e-17
6.42453527e-17
8.617771477e-17
1.186671198e-16
1.631890187e-16
2.194427251e-16
2.833522121e-16
3.448855142e-16
3.868803474e-16
8.848816032e-17
1.114220588e-16
1.494395648e-16
2.05720083e-16
2.827776508e-16
3.800363797e-16
4.903948272e-16
5.965097208e-16
6.688382204e-16
1.533927708e-16
1.931348335e-16
2.589765787e-16
3.563653816e-16
4.89558336e-16
6.574369444e-16
8.476231551e-16
1.030183633e-15
1.15441186e-15
2.657116632e-16
3.34509901e-16
4.484037853e-16
6.166860524e-16
8.465082492e-16
1.13567204e-15
1.46259604e-15
1.775729774e-15
1.988360098e-15
4.598202202e-16
5.787528302e-16
7.754548659e-16
1.065692694e-15
1.46136e-15
1.958098256e-15
2.518282081e-15
3.053382586e-15
3.415779552e-15
7.946984421e-16
9.999229326e-16
1.338937888e-15
1.838312736e-15
2.51757935e-15
3.368054474e-15
4.324180958e-15
5.234471021e-15
5.84898316e-15
1.37118945e-15
1.724481679e-15
2.307236525e-15
3.163859402e-15
4.325922816e-15
5.776117265e-15
7.400377207e-15
8.940642458e-15
9.976449829e-15
2.360999193e-15
2.967388471e-15
3.965844954e-15
5.429843931e-15
7.409423845e-15
9.870205203e-15
1.261420483e-14
1.520422539e-14
1.693821225e-14
4.055067881e-15
5.092074579e-15
6.795930961e-15
9.286768084e-15
1.264195252e-14
1.679372444e-14
2.139973083e-14
2.57241476e-14
2.860462522e-14
6.943563426e-15
8.709151671e-15
1.160282369e-14
1.581824241e-14
2.147133373e-14
2.843006092e-14
3.610554358e-14
4.326886842e-14
4.801354307e-14
1.184684551e-14
1.483708648e-14
1.97236086e-14
2.681352609e-14
3.627362108e-14
4.785036391e-14
6.053786894e-14
7.230172883e-14
8.004634531e-14
2.01273594e-14
2.516037945e-14
3.33578124e-14
4.519754083e-14
6.090670272e-14
8.000699098e-14
1.00795239e-13
1.199366027e-13
1.32457825e-13
3.40277444e-14
4.243816179e-14
5.608547948e-14
7.569736564e-14
1.015595022e-13
1.327875463e-13
1.665281341e-13
1.973732571e-13
2.174194528e-13
5.720168321e-14
7.113944568e-14
9.366309045e-14
1.258536687e-13
1.680261295e-13
2.185816181e-13
2.727988667e-13
3.220086299e-13
3.537861538e-13
9.553217483e-14
1.184106922e-13
1.552184908e-13
2.075170846e-13
2.755661791e-13
3.565444018e-13
4.427501215e-13
5.204558298e-13
5.703352489e-13
1.583680527e-13
1.955163344e-13
2.549977954e-13
3.389949897e-13
4.475276559e-13
5.757431855e-13
7.112775594e-13
8.326770315e-13
9.101938809e-13
2.603570029e-13
3.199342455e-13
4.148460368e-13
5.480203457e-13
7.188789066e-13
9.192902656e-13
1.129753335e-12
1.317218955e-12
1.436405126e-12
4.241246758e-13
5.183462271e-13
6.676335112e-13
8.756915315e-13
1.140680873e-12
1.449303799e-12
1.771377783e-12
2.056827369e-12
2.237677524e-12
6.841821453e-13
8.308775282e-13
1.061908755e-12
1.381503771e-12
1.785310273e-12
2.251972943e-12
2.735629253e-12
3.161908017e-12
3.430937274e-12
1.092721632e-12
1.317205774e-12
1.668279049e-12
2.149677576e-12
2.75200488e-12
3.441095009e-12
4.148192605e-12
4.765524177e-12
5.151897662e-12
1.728511724e-12
2.06573469e-12
2.588592184e-12
3.297452918e-12
4.172376224e-12
5.157556534e-12
6.149918437e-12
6.997756441e-12
7.515788541e-12
2.710985383e-12
3.207977294e-12
3.970018655e-12
4.987065267e-12
6.216410956e-12
7.562500639e-12
8.86731592e-12
9.924072254e-12
1.052477042e-11
4.222394712e-12
4.941027799e-12
6.02680177e-12
7.443774149e-12
9.100477867e-12
1.082451721e-11
1.2364481e-11
1.344997921e-11
1.392912338e-11
6.539741303e-12
7.55904347e-12
9.069224838e-12
1.097766031e-11
1.309404585e-11
1.510190636e-11
1.659749537e-11
1.726073543e-11
1.717376637e-11
1.007052619e-11
1.148417079e-11
1.352422611e-11
1.59857923e-11
1.849638518e-11
2.050201472e-11
2.140597982e-11
2.094494455e-11
1.972033519e-11
1.536451543e-11
1.725995636e-11
1.989615247e-11
2.286569802e-11
2.550358731e-11
2.695397287e-11
2.652999199e-11
2.433413197e-11
2.172265551e-11
2.303019674e-11
2.542319867e-11
2.856953667e-11
3.173830808e-11
3.389022934e-11
3.397567555e-11
3.162212732e-11
2.769670252e-11
2.410164427e-11
3.344197824e-11
3.614635886e-11
3.937700842e-11
4.199138469e-11
4.268066698e-11
4.06582203e-11
3.641299433e-11
3.148148488e-11
2.758690204e-11
4.617127523e-11
4.866215168e-11
5.110217368e-11
5.2064333e-11
5.044608858e-11
4.633020145e-11
4.100785968e-11
3.586853533e-11
3.202469903e-11
5.944887357e-11
6.095627354e-11
6.164239653e-11
6.027672982e-11
5.653531499e-11
5.129001118e-11
4.572680438e-11
4.055083266e-11
3.656876544e-11
7.069337663e-11
7.078674056e-11
6.958351404e-11
6.649053115e-11
6.182167882e-11
5.636856905e-11
5.064449528e-11
4.495360205e-11
4.037462248e-11
7.879215957e-11
7.794614331e-11
7.58466097e-11
7.231439153e-11
6.75986321e-11
6.194861022e-11
5.546981313e-11
4.866521153e-11
4.323093394e-11
8.563446895e-11
8.468866262e-11
8.263212657e-11
7.919157191e-11
7.423341685e-11
6.76794054e-11
5.980627114e-11
5.170404653e-11
4.552546911e-11
9.387862321e-11
9.305230073e-11
9.098485737e-11
8.711379815e-11
8.107217045e-11
7.294289298e-11
6.355856869e-11
5.444506258e-11
4.78022361e-11
1.041419638e-10
1.029816809e-10
1.001622238e-10
9.498790793e-11
8.725390867e-11
7.752878893e-11
6.70507096e-11
5.736835821e-11
5.050256676e-11
1.149369249e-10
1.128597348e-10
1.086514762e-10
1.018191118e-10
9.256492774e-11
8.18031006e-11
7.079638946e-11
6.089764342e-11
5.395151742e-11
1.243098904e-10
1.211596877e-10
1.156271041e-10
1.075791497e-10
9.751112658e-11
8.638140757e-11
7.52850765e-11
6.538021549e-11
5.841741817e-11
1.315615513e-10
1.277128873e-10
1.214872641e-10
1.130060538e-10
1.028419201e-10
9.184433015e-11
8.092798649e-11
7.112455588e-11
6.416486453e-11
1.374565374e-10
1.334567347e-10
1.272268731e-10
1.189736979e-10
1.092190342e-10
9.866473388e-11
8.808541156e-11
7.844104668e-11
7.148703855e-11
1.432334298e-10
1.395133728e-10
1.337716954e-10
1.261823731e-10
1.171505912e-10
1.072379939e-10
9.710630466e-11
8.76680359e-11
8.072361677e-11
1.498987813e-10
1.467328013e-10
1.417848385e-10
1.351303029e-10
1.270369922e-10
1.179260001e-10
1.083526737e-10
9.918392563e-11
9.22673672e-11
1.58107777e-10
1.556628749e-10
1.51708038e-10
1.461894019e-10
1.392226016e-10
1.310818154e-10
1.222073852e-10
1.134060194e-10
1.065594269e-10
1.682560592e-10
1.666551889e-10
1.638557457e-10
1.596599052e-10
1.540209663e-10
1.470544103e-10
1.390663287e-10
1.307759012e-10
1.24071843e-10
1.805986186e-10
1.799526188e-10
1.784677313e-10
1.757953796e-10
1.717179399e-10
1.661765167e-10
1.593161748e-10
1.517309442e-10
1.452760956e-10
1.953093388e-10
1.957310249e-10
1.957302787e-10
1.948048177e-10
1.925581633e-10
1.887389527e-10
1.83299362e-10
1.766626166e-10
1.705978234e-10
2.125063434e-10
2.141130776e-10
2.157765397e-10
2.168398158e-10
2.167202944e-10
2.149552055e-10
2.112694144e-10
2.05864515e-10
2.003606625e-10
2.322567381e-10
2.35165716e-10
2.386750031e-10
2.419734915e-10
2.442863199e-10
2.449213098e-10
2.433419882e-10
2.394760863e-10
2.347255203e-10
2.54570531e-10
2.588894527e-10
2.644128106e-10
2.70177027e-10
2.752108583e-10
2.78577693e-10
2.794494736e-10
2.77430988e-10
2.736349292e-10
2.793902236e-10
2.852053988e-10
2.928794268e-10
3.012995379e-10
3.092969829e-10
3.156808336e-10
3.19308536e-10
3.194209041e-10
3.167742842e-10
3.065807582e-10
3.139446303e-10
3.23855479e-10
3.350566757e-10
3.461849748e-10
3.557924695e-10
3.624097973e-10
3.648853002e-10
3.63561196e-10
3.359234809e-10
3.448436192e-10
3.570107011e-10
3.710323243e-10
3.853590768e-10
3.982925993e-10
4.080379832e-10
4.130390964e-10
4.131771281e-10
3.671168265e-10
3.775483251e-10
3.919134243e-10
4.086956432e-10
4.261743641e-10
4.424187471e-10
4.553272172e-10
4.629480636e-10
4.646847519e-10
3.997852261e-10
4.116280633e-10
4.280521345e-10
4.474332488e-10
4.679026339e-10
4.873300469e-10
5.033483843e-10
5.136734672e-10
5.172270511e-10
4.334964021e-10
4.465988403e-10
4.648681144e-10
4.865955528e-10
5.097954673e-10
5.321897227e-10
5.512308903e-10
5.643291975e-10
5.695878691e-10
4.67786442e-10
4.819557955e-10
5.017975674e-10
5.255496965e-10
5.51166545e-10
5.76306415e-10
5.982436208e-10
6.137763175e-10
6.206057365e-10
5.021929224e-10
5.172081005e-10
5.383234558e-10
5.637739047e-10
5.915405653e-10
6.191261079e-10
6.434151205e-10
6.610219831e-10
6.692577266e-10
5.363068369e-10
5.519610665e-10
5.740813153e-10
6.010079242e-10
6.304806018e-10
6.598543531e-10
6.859597319e-10
7.052562688e-10
7.147051374e-10
5.699287292e-10
5.861109917e-10
6.090089619e-10
6.368203815e-10
6.673338682e-10
6.978870131e-10
7.252793856e-10
7.458640951e-10
7.563100517e-10
6.029669648e-10
6.193194357e-10
6.424806366e-10
6.706411384e-10
7.016215898e-10
7.327873303e-10
7.609511384e-10
7.824171525e-10
7.936295446e-10
6.347757911e-10
6.510137864e-10
6.740376437e-10
7.020772218e-10
7.330089529e-10
7.642614707e-10
7.927050938e-10
8.146526486e-10
8.263951274e-10
6.649097495e-10
6.807950046e-10
7.03343142e-10
7.308493633e-10
7.612709448e-10
7.921309404e-10
8.203973904e-10
8.424456036e-10
8.544847839e-10
6.930292139e-10
7.08360217e-10
7.301438986e-10
7.567593955e-10
7.862659351e-10
8.163071983e-10
8.439834455e-10
8.657803724e-10
8.778935637e-10
7.188619047e-10
7.334707348e-10
7.542478515e-10
7.796703757e-10
8.079162067e-10
8.367706913e-10
8.634945952e-10
8.84725e-10
8.967065819e-10
7.42187233e-10
7.559381478e-10
7.755120014e-10
7.994943205e-10
8.261942568e-10
8.535548277e-10
8.790193681e-10
8.994100236e-10
9.110762514e-10
7.62830521e-10
7.756185698e-10
7.938362977e-10
8.161849093e-10
8.411136106e-10
8.667343986e-10
8.906893028e-10
9.100118868e-10
9.212040818e-10
7.806614212e-10
7.92410588e-10
8.091607344e-10
8.29733245e-10
8.527228006e-10
8.764174309e-10
8.98668507e-10
9.167403275e-10
9.27326538e-10
7.955937013e-10
8.062545455e-10
8.214638253e-10
8.401651899e-10
8.611012472e-10
8.827393479e-10
9.031459336e-10
9.198288176e-10
9.297041291e-10
8.075848813e-10
8.17131799e-10
8.307612616e-10
8.475391941e-10
8.663560267e-10
8.858584638e-10
9.043294436e-10
9.195271788e-10
9.286129114e-10
8.166349602e-10
8.250632235e-10
8.371040614e-10
8.519439381e-10
8.686188449e-10
8.859521222e-10
9.024409623e-10
9.16095694e-10
9.243377483e-10
8.227839621e-10
8.301066882e-10
8.405759136e-10
8.534954648e-10
8.680428557e-10
8.832130783e-10
8.977122928e-10
9.098002531e-10
9.171668639e-10
8.261083598e-10
8.323535346e-10
8.412897144e-10
8.523337507e-10
8.647992138e-10
8.77845951e-10
8.903813525e-10
9.009082549e-10
9.073873848e-10
8.267166219e-10
8.319242758e-10
8.39383468e-10
8.4861883e-10
8.590734139e-10
8.700637254e-10
8.806887417e-10
8.896851084e-10
8.952816782e-10
8.247442103e-10
8.289638114e-10
8.350158035e-10
8.425266702e-10
8.510615435e-10
8.600843585e-10
8.688746223e-10
8.763912495e-10
8.811243589e-10
8.203483552e-10
8.236364586e-10
8.283613693e-10
8.342450057e-10
8.409665977e-10
8.481275703e-10
8.551759213e-10
8.612796249e-10
8.651798772e-10
8.137028855e-10
8.161210562e-10
8.196063259e-10
8.239693099e-10
8.289949861e-10
8.344118951e-10
8.398238748e-10
8.445936067e-10
8.477006162e-10
8.049933249e-10
8.066063333e-10
8.089441078e-10
8.118990436e-10
8.153533295e-10
8.191520455e-10
8.230419233e-10
8.26565308e-10
8.289254356e-10
7.944123936e-10
7.95286673e-10
7.965715641e-10
7.982342678e-10
8.002456092e-10
8.025566246e-10
8.050439578e-10
8.074142649e-10
8.090786095e-10
7.821559964e-10
7.823583434e-10
7.826855434e-10
7.831726704e-10
7.838707003e-10
7.848261946e-10
7.860329059e-10
7.873464551e-10
7.883691067e-10
7.684197306e-10
7.680162277e-10
7.674799457e-10
7.669070254e-10
7.664202989e-10
7.661517016e-10
7.661996399e-10
7.665536189e-10
7.669901685e-10
7.533959151e-10
7.524510534e-10
7.511432431e-10
7.496230803e-10
7.480772323e-10
7.467132385e-10
7.457221867e-10
7.452128511e-10
7.45119146e-10
7.372711236e-10
7.358471027e-10
7.338564492e-10
7.314978532e-10
7.290141359e-10
7.266791285e-10
7.247652106e-10
7.234864343e-10
7.229175596e-10
7.202241888e-10
7.18380374e-10
7.157915101e-10
7.126983137e-10
7.093924678e-10
7.062053e-10
7.034797461e-10
7.015218841e-10
7.005313509e-10
7.024246413e-10
7.00217159e-10
6.971100819e-10
6.933804139e-10
6.89361834e-10
6.854349265e-10
6.82003152e-10
6.794521799e-10
6.780912965e-10
6.84031542e-10
6.815129951e-10
6.77962658e-10
6.736884363e-10
6.690595908e-10
6.644983032e-10
6.604592587e-10
6.573961529e-10
6.557135576e-10
6.651926657e-10
6.624119531e-10
6.58488009e-10
6.537546236e-10
6.486106926e-10
6.435129282e-10
6.389586828e-10
6.354590069e-10
6.335003401e-10
6.460439979e-10
6.430462235e-10
6.388128965e-10
6.336990538e-10
6.28127752e-10
6.225837602e-10
6.175992809e-10
6.137329472e-10
6.115406424e-10
6.267095015e-10
6.235359578e-10
6.190520236e-10
6.136297258e-10
6.077112795e-10
6.018036231e-10
5.964667177e-10
5.922978937e-10
5.899110679e-10
6.073011156e-10
6.039893303e-10
5.993081863e-10
5.936428224e-10
5.874500738e-10
5.812537303e-10
5.756351228e-10
5.712222572e-10
5.686766831e-10
5.879189494e-10
5.845027831e-10
5.796725914e-10
5.738231179e-10
5.674217304e-10
5.61004301e-10
5.551678143e-10
5.505637574e-10
5.478919019e-10
5.686516366e-10
5.651614205e-10
5.602253088e-10
5.542445015e-10
5.476932447e-10
5.411152464e-10
5.351180663e-10
5.30370265e-10
5.276013788e-10
5.495768174e-10
5.460395223e-10
5.410358279e-10
5.349705867e-10
5.283216804e-10
5.216369007e-10
5.155299018e-10
5.106806497e-10
5.078408971e-10
5.307617181e-10
5.272011458e-10
5.22163692e-10
5.160553837e-10
5.093548845e-10
5.026107795e-10
4.964388947e-10
4.91525622e-10
4.886382392e-10
5.12263802e-10
5.087007917e-10
5.036591843e-10
4.975440108e-10
4.90832226e-10
4.840703471e-10
4.778729645e-10
4.729285538e-10
4.700140272e-10
4.94131466e-10
4.905841099e-10
4.855640466e-10
4.79473427e-10
4.727853429e-10
4.660417783e-10
4.598531534e-10
4.549062711e-10
4.519825275e-10
4.76404765e-10
4.728886267e-10
4.679122104e-10
4.618731668e-10
4.552388815e-10
4.485447021e-10
4.423943749e-10
4.374698074e-10
4.345524105e-10
4.591161427e-10
4.556444753e-10
4.507305251e-10
4.447660664e-10
4.382112185e-10
4.315929184e-10
4.255061262e-10
4.206251149e-10
4.177274626e-10
4.422911574e-10
4.388751163e-10
4.340394721e-10
4.281689679e-10
4.217151535e-10
4.151950798e-10
4.091931591e-10
4.043737273e-10
4.015072464e-10
4.259491888e-10
4.225980374e-10
4.17853853e-10
4.120933933e-10
4.057585681e-10
3.993553325e-10
3.934561058e-10
3.887133741e-10
3.858877081e-10
4.101041167e-10
4.068254227e-10
4.021834454e-10
3.965461832e-10
3.903450431e-10
3.840739139e-10
3.782920564e-10
3.736385422e-10
3.708617319e-10
3.947649659e-10
3.915647862e-10
3.870336201e-10
3.815300938e-10
3.754744338e-10
3.693477037e-10
3.63695088e-10
3.59140988e-10
3.564196414e-10
3.799365105e-10
3.768195644e-10
3.724059163e-10
3.670443507e-10
3.611433995e-10
3.551707281e-10
3.496567457e-10
3.452101991e-10
3.425496509e-10
3.65619836e-10
3.625896655e-10
3.582985732e-10
3.530851579e-10
3.473458868e-10
3.415346174e-10
3.361664759e-10
3.318338078e-10
3.292382673e-10
3.51812857e-10
3.488719743e-10
3.44707016e-10
3.396461614e-10
3.340735681e-10
3.284290188e-10
3.23212014e-10
3.189979596e-10
3.164706469e-10
3.385107892e-10
3.356608118e-10
3.316242974e-10
3.267188682e-10
3.213162362e-10
3.158419647e-10
3.107797293e-10
3.066876379e-10
3.042309085e-10
3.257065779e-10
3.229483512e-10
3.190414963e-10
3.142930234e-10
3.090621564e-10
3.037601999e-10
2.988549289e-10
2.948869493e-10
2.925024073e-10
3.133912834e-10
3.107249909e-10
3.069480736e-10
3.02356945e-10
2.972983786e-10
2.921694706e-10
2.874221242e-10
2.835793718e-10
2.812679723e-10
3.015544245e-10
2.989796876e-10
2.95332189e-10
2.908978214e-10
2.860110127e-10
2.81054777e-10
2.764652623e-10
2.727479691e-10
2.705101105e-10
2.901842847e-10
2.877002508e-10
2.841809806e-10
2.799019722e-10
2.751854691e-10
2.704005925e-10
2.659679265e-10
2.623755749e-10
2.60211181e-10
2.792681806e-10
2.768736019e-10
2.734808102e-10
2.693550763e-10
2.648066676e-10
2.601910539e-10
2.559135068e-10
2.52444949e-10
2.503535427e-10
2.687926977e-10
2.664860014e-10
2.632174767e-10
2.592423697e-10
2.548592178e-10
2.504101231e-10
2.462853466e-10
2.429389096e-10
2.409196775e-10
2.587438959e-10
2.565232444e-10
2.533764007e-10
2.495488156e-10
2.453275731e-10
2.410417252e-10
2.37066864e-10
2.338404427e-10
2.318922929e-10
2.491074856e-10
2.469708312e-10
2.439427838e-10
2.402592503e-10
2.361961622e-10
2.32069865e-10
2.282416551e-10
2.251327932e-10
2.232544056e-10
2.398689791e-10
2.3781411e-10
2.349017416e-10
2.313585052e-10
2.274494977e-10
2.234787225e-10
2.19793577e-10
2.167995383e-10
2.149894088e-10
2.310138202e-10
2.290384011e-10
2.262384192e-10
2.228315098e-10
2.190722677e-10
2.15252732e-10
2.117068154e-10
2.088246461e-10
2.070811251e-10
2.225274928e-10
2.206291002e-10
2.179380861e-10
2.146633791e-10
2.11049412e-10
2.073766473e-10
2.039659399e-10
2.011925213e-10
1.995138471e-10
2.143956128e-10
2.125717641e-10
2.099862158e-10
2.068394828e-10
2.03366182e-10
1.998355928e-10
1.965559453e-10
1.938880401e-10
1.922723678e-10
2.066040015e-10
2.048521816e-10
2.023685493e-10
1.993455026e-10
1.9600819e-10
1.92615103e-10
1.894622842e-10
1.868965759e-10
1.85342002e-10
1.99138747e-10
1.974564292e-10
1.950711468e-10
1.921674765e-10
1.889614459e-10
1.857011527e-10
1.826708892e-10
1.802040159e-10
1.787085996e-10
1.919862529e-10
1.903709171e-10
1.880804277e-10
1.852918337e-10
1.822123854e-10
1.790801787e-10
1.761681891e-10
1.737967716e-10
1.72358553e-10
1.85133285e-10
1.835824253e-10
1.813832024e-10
1.787054202e-10
1.75747891e-10
1.727390939e-10
1.699411171e-10
1.676617833e-10
1.662787981e-10
1.78566998e-10
1.770781321e-10
1.749666954e-10
1.723955181e-10
1.695553047e-10
1.66665296e-10
1.63977115e-10
1.617865193e-10
1.604568124e-10
1.722749205e-10
1.708456469e-10
1.68818565e-10
1.663498589e-10
1.636224371e-10
1.608466712e-10
1.58264132e-10
1.561589724e-10
1.548806077e-10
1.662449977e-10
1.648729732e-10
1.629269081e-10
1.605566299e-10
1.579375705e-10
1.552715934e-10
1.52790621e-10
1.50767652e-10
1.495387213e-10
1.604656536e-10
1.591485828e-10
1.572802805e-10
1.550044798e-10
1.524894589e-10
1.499289205e-10
1.475455305e-10
1.456015736e-10
1.444202039e-10
1.549257401e-10
1.536613742e-10
1.518676833e-10
1.496825143e-10
1.472673224e-10
1.448079859e-10
1.425182946e-10
1.406502472e-10
1.395146062e-10
1.496145469e-10
1.484007055e-10
1.466785538e-10
1.445802882e-10
1.422608395e-10
1.398985898e-10
1.376988213e-10
1.359036632e-10
1.348119636e-10
1.445217957e-10
1.433563677e-10
1.417027781e-10
1.396878039e-10
1.374601396e-10
1.351909877e-10
1.330774795e-10
1.313522775e-10
1.303027807e-10
1.396376321e-10
1.385185754e-10
1.369306598e-10
1.349954959e-10
1.328557897e-10
1.306758773e-10
1.28645084e-10
1.269869957e-10
1.259780141e-10
1.349526208e-10
1.338779667e-10
1.323529439e-10
1.304942261e-10
1.284387834e-10
1.263443843e-10
1.243928803e-10
1.227991564e-10
1.218290553e-10
1.304577352e-10
1.294255887e-10
1.279607821e-10
1.261752753e-10
1.242005275e-10
1.221880484e-10
1.203125288e-10
1.187805148e-10
1.178477134e-10
1.261443478e-10
1.251528864e-10
1.237457195e-10
1.220302994e-10
1.201328246e-10
1.181988079e-10
1.163960893e-10
1.149232257e-10
1.140261981e-10
1.22004219e-10
1.210516918e-10
1.196996897e-10
1.180513577e-10
1.162278635e-10
1.143689845e-10
1.126360044e-10
1.112198267e-10
1.103571017e-10
1.180294849e-10
1.171142122e-10
1.15815e-10
1.142308782e-10
1.12478203e-10
1.106912686e-10
1.090250837e-10
1.076632217e-10
1.068333827e-10
1.142126453e-10
1.13333017e-10
1.12084318e-10
1.105616461e-10
1.08876758e-10
1.071587036e-10
1.055564882e-10
1.042466642e-10
1.034483487e-10
1.105465501e-10
1.097010243e-10
1.085006585e-10
1.070367946e-10
1.054167842e-10
1.03764671e-10
1.022237141e-10
1.009637418e-10
1.001956404e-10
1.070243857e-10
1.062114862e-10
1.050573648e-10
1.036497724e-10
1.020918608e-10
1.005028745e-10
9.902057759e-11
9.780835973e-11
9.706921526e-11
1.036396616e-10
1.028579764e-10
1.017481017e-10
1.003943565e-10
9.889588048e-11
9.73673261e-11
9.594120008e-11
9.477472632e-11
9.406333262e-11
1.003861966e-10
9.963437576e-11
9.856683794e-11
9.726462224e-11
9.582303339e-11
9.435233162e-11
9.297999339e-11
9.185733789e-11
9.117253849e-11
9.725810583e-11
9.653485939e-11
9.55078331e-11
9.425493126e-11
9.286779286e-11
9.145247669e-11
9.013164588e-11
8.905096475e-11
8.839165149e-11
9.424978743e-11
9.355388311e-11
9.256562451e-11
9.13599195e-11
9.002490256e-11
8.86626134e-11
8.739110897e-11
8.635063763e-11
8.571574916e-11
9.135590992e-11
9.068617098e-11
8.973501464e-11
8.85744843e-11
8.728936365e-11
8.597784744e-11
8.475358416e-11
8.375163463e-11
8.314015492e-11
8.857139982e-11
8.792670286e-11
8.701105871e-11
8.589377208e-11
8.465642247e-11
8.339352574e-11
8.221451069e-11
8.124946883e-11
8.06604256e-11
8.589142954e-11
8.527070241e-11
8.438905275e-11
8.331316649e-11
8.212155861e-11
8.090522458e-11
7.97695536e-11
7.88398764e-11
7.827233957e-11
8.331140584e-11
8.271362548e-11
8.186452203e-11
8.082827681e-11
7.968047348e-11
7.850873825e-11
7.741459249e-11
7.651880536e-11
7.597188551e-11
8.082695848e-11
8.025114894e-11
7.943320991e-11
7.843492702e-11
7.73290794e-11
7.620006817e-11
7.514571074e-11
7.428240487e-11
7.375525174e-11
7.843392948e-11
7.787915989e-11
7.709106723e-11
7.612914516e-11
7.506348913e-11
7.39754126e-11
7.295918527e-11
7.21270151e-11
7.161881608e-11
7.612836264e-11
7.55937453e-11
7.483424202e-11
7.390715324e-11
7.28800059e-11
7.183115679e-11
7.085147688e-11
7.004915762e-11
6.95591364e-11
7.39064935e-11
7.339118206e-11
7.265906961e-11
7.176535752e-11
7.077511383e-11
6.976386356e-11
6.881922096e-11
6.804552629e-11
6.75729415e-11
7.176473953e-11
7.126792723e-11
7.05620631e-11
6.970033904e-11
6.87454687e-11
6.777026429e-11
6.685921866e-11
6.611297856e-11
6.565712256e-11
6.969969061e-11
6.922060863e-11
6.853990398e-11
6.770884451e-11
6.678788894e-11
6.584725006e-11
6.496842827e-11
6.424852706e-11
6.380872481e-11
6.770809953e-11
6.72460154e-11
6.658943289e-11
6.578777715e-11
6.489934672e-11
6.3991863e-11
6.314395672e-11
6.244933122e-11
6.202493932e-11
6.578687242e-11
6.534108854e-11
6.470764021e-11
6.393418741e-11
6.307695882e-11
6.22012873e-11
6.138305082e-11
6.071268881e-11
6.030309462e-11
6.393305888e-11
6.3502911e-11
6.289165627e-11
6.214526337e-11
6.131797711e-11
6.047283986e-11
5.968308808e-11
5.903602678e-11
5.864064772e-11
6.214384141e-11
6.172869726e-11
6.11387409e-11
6.041832018e-11
5.961977809e-11
5.880395987e-11
5.804156633e-11
5.741689109e-11
5.703517395e-11
6.041652401e-11
6.001578174e-11
5.94462718e-11
5.875078844e-11
5.797985114e-11
5.7192197e-11
5.645609187e-11
5.585293474e-11
5.548435506e-11
5.874851929e-11
5.836160585e-11
5.781173132e-11
5.714020063e-11
5.639578479e-11
5.563519735e-11
5.492436517e-11
5.434190332e-11
5.39859646e-11
5.713733382e-11
5.676370307e-11
5.62326911e-11
5.558417449e-11
5.486525036e-11
5.413068673e-11
5.344416352e-11
5.288161711e-11
5.253784975e-11
5.558055136e-11
5.521968196e-11
5.470679524e-11
5.408039861e-11
5.338598342e-11
5.267645042e-11
5.201331977e-11
5.146994899e-11
5.113790865e-11
5.407581315e-11
5.372720581e-11
5.323173851e-11
5.262660663e-11
5.195575986e-11
5.127030852e-11
5.062969633e-11
5.010479716e-11
4.978406229e-11
5.262079532e-11
5.228396918e-11
5.180524153e-11
5.12205506e-11
5.057236822e-11
4.99100866e-11
4.9291154e-11
4.878405219e-11
4.847422031e-11
5.121318315e-11
5.088767144e-11
5.042502347e-11
4.985997391e-11
4.923357832e-11
4.859358164e-11
4.799551524e-11
4.750555797e-11
4.720624041e-11
4.985064216e-11
4.953598695e-11
4.908877067e-11
4.854257637e-11
4.793710539e-11
4.731852312e-11
4.674052217e-11
4.626706683e-11
4.597788146e-11
4.853078595e-11
4.822653167e-11
4.779410184e-11
4.726597934e-11
4.668057003e-11
4.608252958e-11
4.552378967e-11
4.506618941e-11
4.478675107e-11
4.725114123e-11
4.69568268e-11
4.653852926e-11
4.60276832e-11
4.546145434e-11
4.488306172e-11
4.434275495e-11
4.390034076e-11
4.363024933e-11
4.600911123e-11
4.572426081e-11
4.531941798e-11
4.482502297e-11
4.427705701e-11
4.371737433e-11
4.319462575e-11
4.276668506e-11
4.250551091e-11
4.480193858e-11
4.4526052e-11
4.413395084e-11
4.365513089e-11
4.312444951e-11
4.258246887e-11
4.207632952e-11
4.166208157e-11
4.140934878e-11
4.362666888e-11
4.335921112e-11
4.297908792e-11
4.251489586e-11
4.200043473e-11
4.147504976e-11
4.098446706e-11
4.05830357e-11
4.033820344e-11
4.248011744e-11
4.222050716e-11
4.185153262e-11
4.140092958e-11
4.090151187e-11
4.039148775e-11
3.991527427e-11
3.952565926e-11
3.928810201e-11
4.135884797e-11
4.110645751e-11
4.074770691e-11
4.030954113e-11
3.982385076e-11
3.932779397e-11
3.886459612e-11
3.848564438e-11
3.825463215e-11
4.025916795e-11
4.001328826e-11
3.966373834e-11
3.923672278e-11
3.876327841e-11
3.827960823e-11
3.782787694e-11
3.74582558e-11
3.723293572e-11
3.917709839e-11
3.893694616e-11
3.85954561e-11
3.817814844e-11
3.771528101e-11
3.724220512e-11
3.680017112e-11
3.643834594e-11
3.621772699e-11
3.810839644e-11
3.787310117e-11
3.753839957e-11
3.712918763e-11
3.667502443e-11
3.621052176e-11
3.577617835e-11
3.542039734e-11
3.520334014e-11
3.70485682e-11
3.681716709e-11
3.648784575e-11
3.608494e-11
3.563739631e-11
3.517920959e-11
3.475030674e-11
3.439859614e-11
3.418381014e-11
3.599290347e-11
3.576434155e-11
3.543885611e-11
3.504029157e-11
3.459707443e-11
3.41427156e-11
3.37167669e-11
3.336693975e-11
3.31529902e-11
3.493653193e-11
3.470966752e-11
3.438634638e-11
3.398999538e-11
3.35486208e-11
3.309539274e-11
3.266970074e-11
3.231938188e-11
3.210470866e-11
3.38745008e-11
3.364811743e-11
3.332518035e-11
3.292877855e-11
3.248660518e-11
3.203164267e-11
3.160334462e-11
3.125001586e-11
3.103296638e-11
3.280187515e-11
3.257470097e-11
3.225028924e-11
3.185147695e-11
3.140575876e-11