/*--------------------------------*- C++ -*----------------------------------*\
| =========                 |                                                 |
| \\      /  F ield         | OpenFOAM: The Open Source CFD Toolbox           |
|  \\    /   O peration     | Version:  2212                                  |
|   \\  /    A nd           | Website:  www.openfoam.com                      |
|    \\/     M anipulation  |                                                 |
\*---------------------------------------------------------------------------*/
FoamFile
{
    version     2.0;
    format      ascii;
    arch        "LSB;label=32;scalar=64";
    class       volScalarField;
    location    "18.25000000";
    object      CH4_0;
}
// * * * * * * * * * * * * * * * * * * * * * * * * * * * * * * * * * * * * * //

dimensions      [0 0 0 0 0 0 0];

internalField   nonuniform List<scalar> 
3000
(
0.0004199879352
0.0004199879352
0.0004199879352
0.0004199879352
0.0004199879352
0.0004199879352
0.0004199879352
0.0004199879352
0.0004199879352
0.0004199879352
0.0004199879352
0.0004199879352
0.0004199879352
0.0004199879352
0.0004199879352
0.0004199879352
0.0004199879352
0.0004199879352
0.0004199879352
0.0004199879352
0.0004199879352
0.0004199879352
0.0004199879352
0.0004199879352
0.0004199879352
0.0004199879352
0.0004199879352
0.0004199879352
0.0004199879352
0.0004199879352
0.0004199879352
0.0004199879352
0.0004199879352
0.0004199879352
0.0004199879352
0.0004199879352
0.0004199879352
0.0004199879352
0.0004199879352
0.0004199879352
0.0004199879352
0.0004199879352
0.0004199879352
0.0004199879352
0.0004199879352
0.0004199879352
0.0004199879352
0.0004199879352
0.0004199879352
0.0004199879352
0.0004199879352
0.0004199879352
0.0004199879352
0.0004199879352
0.0004199879352
0.0004199879352
0.0004199879352
0.0004199879352
0.0004199879352
0.0004199879352
0.0004199879352
0.0004199879352
0.0004199879352
0.0004199879352
0.0004199879352
0.0004199879352
0.0004199879352
0.0004199879352
0.0004199879352
0.0004199879352
0.0004199879352
0.0004199879352
0.0004199879352
0.0004199879352
0.0004199879352
0.0004199879352
0.0004199879352
0.0004199879352
0.0004199879352
0.0004199879352
0.0004199879352
0.0004199879352
0.0004199879352
0.0004199879352
0.0004199879352
0.0004199879352
0.0004199879352
0.0004199879352
0.0004199879352
0.0004199879352
0.0004199879352
0.0004199879352
0.0004199879352
0.0004199879352
0.0004199879352
0.0004199879352
0.0004199879352
0.0004199879352
0.0004199879352
0.0004199879352
0.0004199879352
0.0004199879352
0.0004199879352
0.0004199879352
0.0004199879352
0.0004199879352
0.0004199879352
0.0004199879352
0.0004199879352
0.0004199879352
0.0004199879352
0.0004199879352
0.0004199879352
0.0004199879352
0.0004199879352
0.0004199879352
0.0004199879352
0.0004199879352
0.0004199879352
0.0004199879352
0.0004199879352
0.0004199879352
0.0004199879352
0.0004199879352
0.0004199879352
0.0004199879352
0.0004199879352
0.0004199879352
0.0004199879352
0.0004199879352
0.0004199879352
0.0004199879352
0.0004199879352
0.0004199879352
0.0004199879352
0.0004199879352
0.0004199879352
0.0004199879352
0.0004199879352
0.0004199879352
0.0004199879352
0.0004199879352
0.0004199879352
0.0004199879352
0.0004199879352
0.0004199879352
0.0004199879352
0.0004199879352
0.0004199879352
0.0004199879352
0.0004199879352
0.0004199879352
0.0004199879352
0.0004199879352
0.0004199879352
0.0004199879352
0.0004199879352
0.0004199879352
0.0004199879352
0.0004199879352
0.0004199879352
0.0004199879352
0.0004199879352
0.0004199879352
0.0004199879352
0.0004199879352
0.0004199879352
0.0004199879352
0.0004199879352
0.0004199879352
0.0004199879352
0.0004199879352
0.0004199879352
0.0004199879352
0.0004199879352
0.0004199879352
0.0004199879352
0.0004199879352
0.0004199879352
0.0004199879352
0.0004199879352
0.0004199879352
0.0004199879352
0.0004199879352
0.0004199879352
0.0004199879352
0.0004199879352
0.0004199879352
0.0004199879352
0.0004199879352
0.0004199879352
0.0004199879352
0.0004199879352
0.0004199879352
0.0004199879352
0.0004199879352
0.0004199879352
0.0004199879352
0.0004199879352
0.0004199879352
0.0004199879352
0.0004199879352
0.0004199879352
0.0004199879352
0.0004199879352
0.0004199879352
0.0004199879352
0.0004199879352
0.0004199879352
0.0004199879352
0.0004199879352
0.0004199879352
0.0004199879352
0.0004199879352
0.0004199879352
0.0004199879352
0.0004199879352
0.0004199879352
0.0004199879352
0.0004199879352
0.0004199879352
0.0004199879352
0.0004199879352
0.0004199879352
0.0004199879352
0.0004199879352
0.0004199879352
0.0004199879352
0.0004199879352
0.0004199879352
0.0004199879352
0.0004199879352
0.0004199879352
0.0004199879352
0.0004199879352
0.0004199879352
0.0004199879352
0.0004199879352
0.0004199879352
0.0004199879352
0.0004199879352
0.0004199879352
0.0004199879352
0.0004199879352
0.0004199879352
0.0004199879352
0.0004199879352
0.0004199879352
0.0004199879352
0.0004199879352
0.0004199879352
0.0004199879352
0.0004199879352
0.0004199879352
0.0004199879352
0.0004199879352
0.0004199879352
0.0004199879352
0.0004199879352
0.0004199879352
0.0004199879352
0.0004199879352
0.0004199879352
0.0004199879352
0.0004199879352
0.0004199879352
0.0004199879352
0.0004199879352
0.0004199879352
0.0004199879352
0.0004199879352
0.0004199879352
0.0004199879352
0.0004199879352
0.0004199879352
0.0004199879352
0.0004199879352
0.0004199879352
0.0004199879352
0.0004199879352
0.0004199879352
0.0004199879352
0.0004199879352
0.0004199879352
0.0004199879352
0.0004199879352
0.0004199879352
0.0004199879352
0.0004199879352
0.0004199879352
0.0004199879352
0.0004199879352
0.0004199879352
0.0004199879352
0.0004199879352
0.0004199879352
0.0004199879352
0.0004199879352
0.0004199879352
0.0004199879352
0.0004199879352
0.0004199879352
0.0004199879352
0.0004199879352
0.0004199879353
0.0004199879353
0.0004199879352
0.0004199879352
0.0004199879352
0.0004199879352
0.0004199879352
0.0004199879353
0.0004199879353
0.0004199879353
0.0004199879353
0.0004199879352
0.0004199879352
0.0004199879352
0.0004199879353
0.0004199879353
0.0004199879353
0.0004199879353
0.0004199879354
0.0004199879354
0.0004199879352
0.0004199879353
0.0004199879353
0.0004199879353
0.0004199879353
0.0004199879354
0.0004199879354
0.0004199879355
0.0004199879355
0.0004199879353
0.0004199879353
0.0004199879353
0.0004199879354
0.0004199879354
0.0004199879355
0.0004199879356
0.0004199879357
0.0004199879357
0.0004199879353
0.0004199879354
0.0004199879354
0.0004199879355
0.0004199879356
0.0004199879357
0.0004199879359
0.000419987936
0.0004199879361
0.0004199879354
0.0004199879355
0.0004199879356
0.0004199879357
0.0004199879359
0.0004199879361
0.0004199879363
0.0004199879366
0.0004199879367
0.0004199879356
0.0004199879357
0.0004199879358
0.0004199879361
0.0004199879364
0.0004199879367
0.0004199879371
0.0004199879374
0.0004199879376
0.0004199879359
0.000419987936
0.0004199879363
0.0004199879366
0.0004199879371
0.0004199879377
0.0004199879383
0.0004199879388
0.0004199879391
0.0004199879363
0.0004199879366
0.000419987937
0.0004199879376
0.0004199879383
0.0004199879392
0.0004199879401
0.000419987941
0.0004199879415
0.000419987937
0.0004199879375
0.0004199879381
0.0004199879391
0.0004199879403
0.0004199879417
0.0004199879431
0.0004199879444
0.0004199879452
0.0004199879383
0.0004199879389
0.00041998794
0.0004199879415
0.0004199879433
0.0004199879455
0.0004199879478
0.0004199879497
0.000419987951
0.0004199879402
0.0004199879413
0.000419987943
0.0004199879453
0.0004199879482
0.0004199879515
0.000419987955
0.000419987958
0.0004199879598
0.0004199879434
0.0004199879451
0.0004199879477
0.0004199879513
0.0004199879558
0.0004199879609
0.0004199879661
0.0004199879706
0.0004199879733
0.0004199879484
0.0004199879511
0.0004199879551
0.0004199879607
0.0004199879675
0.0004199879752
0.000419987983
0.0004199879897
0.0004199879938
0.0004199879565
0.0004199879605
0.0004199879667
0.0004199879752
0.0004199879855
0.000419987997
0.0004199880087
0.0004199880186
0.0004199880247
0.0004199879691
0.0004199879753
0.0004199879847
0.0004199879974
0.0004199880129
0.0004199880301
0.0004199880472
0.0004199880618
0.0004199880708
0.0004199879888
0.0004199879982
0.0004199880124
0.0004199880314
0.0004199880543
0.0004199880797
0.0004199881049
0.0004199881262
0.0004199881392
0.0004199880194
0.0004199880334
0.0004199880546
0.0004199880827
0.0004199881165
0.0004199881537
0.0004199881905
0.0004199882215
0.0004199882404
0.0004199880665
0.0004199880872
0.0004199881185
0.0004199881598
0.0004199882093
0.0004199882635
0.0004199883168
0.0004199883617
0.0004199883889
0.0004199881381
0.0004199881686
0.0004199882145
0.0004199882748
0.0004199883467
0.0004199884252
0.0004199885022
0.0004199885667
0.0004199886058
0.0004199882464
0.0004199882909
0.0004199883578
0.0004199884452
0.0004199885491
0.000419988662
0.0004199887726
0.0004199888651
0.000419988921
0.0004199884088
0.0004199884732
0.0004199885699
0.0004199886958
0.000419988845
0.0004199890067
0.0004199891645
0.0004199892964
0.000419989376
0.0004199886503
0.0004199887431
0.0004199888818
0.000419989062
0.0004199892748
0.000419989505
0.0004199897291
0.0004199899161
0.0004199900289
0.0004199890068
0.0004199891393
0.0004199893371
0.0004199895933
0.0004199898952
0.0004199902208
0.0004199905371
0.0004199908005
0.0004199909591
0.000419989529
0.000419989717
0.0004199899971
0.0004199903591
0.0004199907845
0.0004199912421
0.0004199916856
0.0004199920542
0.0004199922758
0.0004199902881
0.0004199905532
0.0004199909473
0.0004199914553
0.0004199920507
0.0004199926895
0.0004199933074
0.0004199938197
0.0004199941274
0.0004199913835
0.0004199917547
0.0004199923054
0.0004199930137
0.0004199938415
0.0004199947274
0.0004199955824
0.0004199962904
0.000419996715
0.0004199929524
0.0004199934686
0.0004199942329
0.0004199952135
0.000419996357
0.000419997578
0.0004199987542
0.0004199997268
0.0004200003099
0.000419995182
0.0004199958949
0.0004199969484
0.0004199982974
0.0004199998671
0.0004200015401
0.0004200031493
0.0004200044786
0.0004200052751
0.0004199983259
0.0004199993038
0.0004200007469
0.0004200025912
0.0004200047335
0.0004200070132
0.0004200092033
0.000420011011
0.0004200120937
0.0004200027246
0.0004200040578
0.0004200060225
0.0004200085298
0.0004200114375
0.0004200145278
0.0004200174935
0.0004200199396
0.0004200214041
0.0004200088326
0.0004200106396
0.0004200132994
0.0004200166891
0.0004200206151
0.0004200247827
0.0004200287786
0.0004200320725
0.0004200340441
0.0004200172518
0.0004200196871
0.000420023268
0.0004200278264
0.0004200330996
0.0004200386914
0.0004200440485
0.0004200484621
0.0004200511034
0.000420028772
0.0004200320358
0.0004200368307
0.0004200429278
0.0004200499734
0.0004200574374
0.000420064583
0.0004200704672
0.000420073988
0.00042004442
0.0004200487698
0.0004200551547
0.0004200632655
0.0004200726288
0.0004200825394
0.0004200920206
0.0004200998247
0.0004201044935
0.0004200655173
0.0004200712812
0.0004200797352
0.0004200904644
0.0004201028388
0.0004201159256
0.0004201284373
0.0004201387315
0.000420144889
0.0004200937459
0.0004201013384
0.0004201124663
0.0004201265766
0.0004201428357
0.0004201600171
0.000420176433
0.0004201899339
0.0004201980078
0.0004201312227
0.0004201411625
0.0004201557202
0.0004201741634
0.0004201953967
0.0004202178165
0.0004202392237
0.0004202568215
0.0004202673429
0.0004201805808
0.0004201935096
0.0004202124313
0.0004202363829
0.0004202639334
0.0004202929996
0.0004203207341
0.0004203435217
0.0004203571417
0.0004202450549
0.0004202617574
0.0004202861846
0.0004203170782
0.0004203525813
0.0004203900055
0.0004204256881
0.0004204549892
0.0004204724951
0.0004203285684
0.0004203499926
0.0004203813021
0.0004204208643
0.0004204662854
0.0004205141195
0.0004205596899
0.0004205970845
0.0004206194143
0.0004204358199
0.0004204630957
0.0004205029263
0.0004205532076
0.0004206108757
0.0004206715456
0.0004207292902
0.0004207766369
0.0004208048915
0.0004205723623
0.0004206068181
0.0004206570932
0.0004207204951
0.0004207931304
0.000420869461
0.000420942035
0.000421001486
0.0004210369369
0.0004207446735
0.000420787849
0.0004208507936
0.0004209300873
0.0004210208198
0.0004211160516
0.0004212064911
0.0004212804998
0.000421324593
0.0004209602125
0.0004210138665
0.0004210920172
0.0004211903533
0.0004213027304
0.0004214205238
0.0004215322466
0.0004216235662
0.0004216779201
0.0004212274584
0.0004212935705
0.0004213897759
0.0004215106831
0.0004216486647
0.0004217930908
0.000421929885
0.000422041557
0.000422107953
0.0004215559286
0.0004216366941
0.0004217541063
0.000421901477
0.0004220694159
0.0004222449334
0.0004224109313
0.0004225462606
0.0004226266326
0.0004219561736
0.0004220539908
0.0004221960454
0.0004223741092
0.0004225767176
0.0004227881327
0.0004229877701
0.0004231502951
0.0004232467048
0.0004224397463
0.000422557197
0.0004227275829
0.0004229408655
0.0004231831649
0.0004234355781
0.0004236735456
0.0004238669908
0.0004239816032
0.0004230191441
0.0004231589651
0.0004233615825
0.0004236148513
0.0004239021113
0.0004242008533
0.00042448203
0.0004247102568
0.0004248453109
0.000423707718
0.0004238727655
0.0004241116733
0.0004244098749
0.0004247475397
0.0004250980925
0.0004254274766
0.0004256944272
0.0004258522038
0.0004245195477
0.0004247127569
0.0004249921154
0.0004253402994
0.0004257339046
0.0004261418195
0.000426524452
0.0004268340892
0.0004270168755
0.0004254692881
0.0004256936263
0.00042601763
0.0004264208708
0.0004268759566
0.0004273467657
0.0004277876498
0.0004281438926
0.0004283539458
0.0004265719844
0.0004268304034
0.0004272032138
0.0004276665275
0.0004281885472
0.0004287276714
0.0004292316884
0.0004296383465
0.0004298778556
0.000427842871
0.0004281382575
0.000428563932
0.0004290921904
0.0004296864165
0.0004302990717
0.0004308708962
0.0004313316045
0.0004316026532
0.0004292971499
0.0004296322742
0.0004301146944
0.0004307125384
0.0004313839688
0.0004320750733
0.0004327190913
0.0004332372456
0.0004335417759
0.0004309497527
0.0004313272182
0.0004318700193
0.0004325417752
0.000433295043
0.000434069129
0.0004347893594
0.0004353680567
0.000435707835
0.0004328150948
0.0004332372901
0.000433843794
0.0004345933936
0.0004354326831
0.0004362938158
0.000437093839
0.0004377358235
0.0004381124097
0.0004349068293
0.0004353758842
0.0004360490383
0.0004368799478
0.0004378089187
0.0004387606239
0.0004396435196
0.0004403511351
0.0004407658564
0.0004372376093
0.0004377553551
0.0004384976788
0.0004394128366
0.0004404345604
0.0004414797638
0.0004424480589
0.0004432232107
0.0004436771401
0.0004398188646
0.0004403868023
0.000441200343
0.0004422021091
0.000443319017
0.0004444599964
0.0004455156256
0.000446359751
0.0004468536914
0.000442660603
0.0004432798775
0.0004441661767
0.0004452562947
0.0004464701403
0.0004477084924
0.0004488527705
0.0004497668198
0.0004503012933
0.0004457712385
0.0004464426215
0.0004474026919
0.000448582265
0.0004498941009
0.0004512307217
0.0004524643298
0.000453448757
0.0004540240004
0.0004491574539
0.0004498813342
0.0004509156487
0.0004521851282
0.0004535952979
0.0004550303779
0.0004563533617
0.0004574081253
0.0004580240911
0.0004528240986
0.0004536004811
0.0004547089721
0.00045606816
0.0004575763036
0.0004591093368
0.0004605211175
0.0004616456902
0.0004623020527
0.0004567741245
0.0004576026363
0.0004587847063
0.00046023277
0.0004618378432
0.0004634676488
0.0004649670446
0.0004661604317
0.000466856598
0.0004610085598
0.0004618884633
0.000463143005
0.0004646785036
0.0004663788082
0.0004681035637
0.0004696888217
0.0004709495874
0.0004716847123
0.0004655265188
0.0004664567316
0.0004677821563
0.0004694030765
0.0004711963022
0.0004730135862
0.0004746824227
0.0004760087215
0.0004767817266
0.0004703252465
0.000471304366
0.0004726986397
0.0004744024407
0.0004762857143
0.0004781925576
0.0004799422048
0.0004813318195
0.0004821414141
0.0004754001942
0.0004764265269
0.0004778872117
0.000479670876
0.0004816408187
0.0004836337614
0.0004854610197
0.0004869114018
0.000487756107
0.0004807451222
0.000481816716
0.0004833410166
0.0004852011061
0.0004872538945
0.0004893290477
0.0004912303415
0.0004927386552
0.0004936168285
0.0004863522256
0.0004874669047
0.0004890517171
0.0004909844324
0.0004931158631
0.0004952689728
0.0004972404082
0.0004988035751
0.0004997134363
0.0004922122783
0.000493367679
0.0004950096411
0.000497010882
0.0004992164374
0.00050144295
0.0005034803729
0.0005050951173
0.000506034774
0.0004983147911
0.0004995083977
0.00050120394
0.0005032693664
0.0005055442801
0.0005078394064
0.0005099384603
0.0005116013537
0.0005125688267
0.0005046481778
0.0005058773587
0.0005076227539
0.0005097478452
0.0005120871656
0.0005144459438
0.000516602125
0.0005183096287
0.0005193028768
0.0005111999272
0.0005124619686
0.0005142533798
0.0005164334916
0.0005188321433
0.000521249498
0.0005234582086
0.0005252067145
0.0005262236569
0.0005179567749
0.0005192489138
0.0005210824392
0.0005233128569
0.0005257656972
0.0005282364954
0.0005304930925
0.0005322789607
0.0005333174986
0.0005249048725
0.0005262243263
0.0005280960415
0.0005303720297
0.0005328739013
0.0005353930032
0.0005376928434
0.0005395124367
0.0005405704734
0.0005320299511
0.0005333739452
0.0005352799406
0.0005375967878
0.0005401425662
0.0005427048711
0.0005450433513
0.000546893066
0.0005479685239
0.0005393174756
0.0005406832678
0.0005426196826
0.0005449727409
0.0005475573765
0.0005501578636
0.0005525304562
0.0005544067496
0.0005554975859
0.0005467527894
0.0005481376911
0.0005501007427
0.0005524854623
0.0005551040169
0.0005577377803
0.0005601400644
0.0005620394781
0.000563143698
0.0005543212461
0.0005557226407
0.0005577086501
0.000560120609
0.0005627682865
0.0005654305649
0.0005678582523
0.000569777432
0.0005708931005
0.0005620083291
0.0005634236871
0.0005654290996
0.0005678640278
0.0005705362002
0.0005732224017
0.000575671358
0.0005776070704
0.000578732321
0.0005697997568
0.0005712266484
0.0005732480506
0.0005757018501
0.0005783940779
0.0005810997995
0.0005835660614
0.0005855152065
0.0005866482492
0.0005776815746
0.0005791176793
0.0005811518122
0.000583620572
0.0005863286199
0.0005890496626
0.0005915294512
0.0005934890727
0.0005946281996
0.0005856402336
0.0005870833469
0.0005891271158
0.0005916071229
0.0005943269716
0.0005970593513
0.0005995490809
0.0006015163734
0.0006026599627
0.000593662655
0.0005951106935
0.0005971611743
0.0005996489216
0.000602376775
0.0006051167295
0.000607613014
0.0006095853276
0.0006107318463
0.0006017362833
0.0006031872877
0.0006052417305
0.0006077339203
0.00061046621
0.0006132102026
0.0006157098589
0.0006176847012
0.0006188327067
0.000609849127
0.0006113012629
0.0006133570936
0.0006158506393
0.0006185840253
0.0006213287459
0.0006238287939
0.0006258038309
0.0006269519714
0.0006179897891
0.0006194413464
0.0006214961658
0.0006239881906
0.00062671956
0.0006294619232
0.0006319595848
0.0006339326397
0.0006350796531
0.0006261474877
0.0006275968792
0.0006296484599
0.0006321362936
0.0006348627569
0.0006375998985
0.0006400925939
0.0006420616441
0.0006432063573
0.0006343120678
0.0006357578258
0.0006378041091
0.0006402852829
0.0006430041687
0.0006457334401
0.0006482187828
0.0006501819566
0.000651323283
0.0006424740055
0.0006439147788
0.0006459538686
0.0006484261093
0.0006511349572
0.0006538539184
0.0006563297096
0.0006582852814
0.0006594222184
0.0006506244058
0.0006520589551
0.0006540891123
0.0006565503345
0.0006592468873
0.0006619532996
0.0006644175206
0.0006663639055
0.0006674955316
0.0006587549949
0.0006601821877
0.0006622018234
0.0006646501218
0.0006673323166
0.0006700241334
0.0006724749384
0.0006744106863
0.0006755361574
0.0006668581071
0.0006682769128
0.0006702845812
0.0006727182213
0.0006753841804
0.0006780595383
0.0006804952459
0.0006824190351
0.0006835375817
0.0006749266685
0.0006763361533
0.0006783305434
0.0006807479533
0.0006833959743
0.0006860531834
0.0006884722684
0.0006903828992
0.0006914938221
0.0006829541773
0.0006843534982
0.0006863334272
0.0006887331878
0.0006913617337
0.000693999268
0.0006964003524
0.0006982967406
0.0006993994071
0.0006909346819
0.0006923230815
0.0006942874864
0.0006966683224
0.0006992760118
0.0007018924995
0.0007042743442
0.0007061555139
0.0007072493545
0.0006988627569
0.0007002395577
0.0007021874878
0.0007045482588
0.000707133856
0.0007097280698
0.0007120895657
0.0007139546432
0.0007150391473
0.000706733478
0.0007080980775
0.0007100286869
0.000712368378
0.0007149307836
0.0007175016312
0.000719841791
0.0007216899981
0.0007227647105
0.0007145423963
0.0007158942612
0.0007178068018
0.0007201245154
0.0007226627566
0.0007252092717
0.0007275272215
0.0007293578691
0.0007304223865
0.0007222855117
0.0007236241735
0.0007255179876
0.0007278129347
0.000730326157
0.0007328474901
0.0007351424618
0.0007369549437
0.0007380089109
0.0007299592469
0.0007312842968
0.0007331588108
0.0007354303033
0.000737917761
0.0007404131713
0.0007426844948
0.0007444782818
0.0007455213887
0.0007375604212
0.0007388715055
0.0007407262232
0.0007429736661
0.0007454347148
0.000747903562
0.0007501506579
0.0007519252926
0.0007529572703
0.0007450862259
0.0007463830417
0.0007482175383
0.0007504404223
0.0007528745106
0.0007553162469
0.0007575386198
0.0007592937104
0.0007603143289
0.0007525341985
0.0007538164897
0.000755630406
0.000757828301
0.0007602349632
0.0007626491263
0.0007648463578
0.0007665815736
0.0007675906383
0.0007599021989
0.0007611697522
0.0007629627895
0.0007651353377
0.000767514187
0.000769900393
0.0007720721359
0.0007737872024
0.0007747845514
0.0007671883857
0.0007684410272
0.0007702129422
0.0007723598524
0.0007747105744
0.0007770685117
0.0007792144842
0.0007809091783
0.00078189468
0.0007743911944
0.0007756287862
0.000777379386
0.0007795004282
0.0007818227749
0.0007841521978
0.0007862721782
0.0007879463243
0.0007889198746
0.000781509316
0.0007827317533
0.0007844608916
0.0007865558915
0.0007888496754
0.0007911503988
0.0007932442201
0.000794897686
0.0007958592063
0.0007885416776
0.0007897488853
0.000791456458
0.0007935252921
0.0007957903812
0.0007980622755
0.0008001298209
0.0008017625139
0.0008027119489
0.0007954874226
0.0007966793533
0.0007983652948
0.0008004078861
0.0008026441989
0.0008048871846
0.0008069283831
0.0008085402468
0.0008094775623
0.0008023458933
0.0008035225246
0.0008051868044
0.0008072031181
0.0008094106189
0.0008116246626
0.0008136394849
0.0008152304958
0.000816155677
0.0008091166147
0.0008102779466
0.000811920566
0.0008139106057
0.0008160893007
0.0008182744105
0.000820262865
0.0008218330297
0.0008227460793
0.0008157992786
0.0008169453313
0.0008185663204
0.0008205301243
0.0008226800575
0.0008248362792
0.0008267984087
0.0008283477608
0.0008292486976
0.000822393729
0.0008235245414
0.0008251239561
0.0008270615935
0.0008291828426
0.0008313102562
0.0008332461347
0.0008347747328
0.0008356635899
0.0008288999483
0.0008300155755
0.0008315934949
0.0008335050634
0.0008355977374
0.0008376964538
0.0008396061832
0.0008411141079
0.0008419909316
0.000835318044
0.000836418556
0.0008379750803
0.0008398607031
0.0008419249384
0.0008439950964
0.0008458788041
0.000847366156
0.0008482310044
0.0008416482374
0.0008427337177
0.0008442689661
0.000846128789
0.0008481647474
0.0008502065105
0.0008520643465
0.0008535312444
0.0008543841859
0.0008478908525
0.0008489613967
0.0008504755053
0.0008523096947
0.0008543175599
0.0008563311142
0.0008581632488
0.0008596098275
0.0008604509404
0.0008540463058
0.0008551020202
0.0008565951402
0.0008584038808
0.0008603838566
0.0008623694081
0.0008641760299
0.0008656024386
0.0008664318095
0.0008601150968
0.0008611560974
0.0008626283935
0.0008644118862
0.0008663641943
0.0008683219666
0.0008701032802
0.0008715096811
0.0008723274041
0.0008660977995
0.0008671242106
0.0008685758597
0.0008703343199
0.0008722591974
0.00087418943
0.0008759456546
0.0008773322212
0.0008781383972
0.0008719950542
0.0008730070077
0.0008744381971
0.0008761718528
0.0008780695511
0.0008799724975
0.0008817038647
0.0008830707806
0.0008838655163
0.0008778075601
0.0008788051946
0.0008802161209
0.0008819252116
0.000883795994
0.0008856719199
0.0008873786726
0.0008887261302
0.0008895095377
0.0008835360687
0.0008845195286
0.0008859103966
0.0008875951714
0.0008894393122
0.0008912884939
0.0008929708848
0.0008942990841
0.0008950712799
0.0008891813777
0.0008901508122
0.0008915218339
0.0008931825506
0.0008950003332
0.0008968230561
0.0008984813462
0.0008997904941
0.0009005515987
0.0008947443248
0.0008956998876
0.0008970512809
0.0008986882045
0.0009004799203
0.0009022764782
0.0009039109356
0.0009052012447
0.0009059513818
0.0009002257827
0.0009011676312
0.0009024996194
0.0009041130211
0.0009058789683
0.0009076496614
0.0009092605606
0.0009105322482
0.0009112715446
0.0009056266546
0.0009065549493
0.0009078677597
0.0009094579161
0.0009111983985
0.0009129435328
0.0009145311533
0.000915784441
0.0009165130257
0.0009109478689
0.0009118627729
0.0009131566367
0.0009147238286
0.0009164391548
0.0009181590409
0.0009197236663
0.0009209587787
0.0009216767829
0.0009161903762
0.0009170920544
0.0009183672056
0.0009199117173
0.0009216021994
0.0009232971516
0.000924839069
0.0009260562335
0.0009267637896
0.0009213551444
0.0009222437636
0.0009235004384
0.0009250225567
0.0009266885098
0.000928358845
0.0009298783439
0.0009310777899
0.0009317750316
0.0009264431559
0.0009273188838
0.00092855732
0.0009300573337
0.0009316990749
0.0009333451121
0.0009348424836
0.0009360244416
0.0009367115035
0.0009314554039
0.0009323184091
0.0009335388454
0.0009350170444
0.0009366348917
0.0009382569511
0.0009397324874
0.0009408971888
0.0009415742058
0.0009363928894
0.0009372433407
0.0009384460162
0.0009399026908
0.0009414969629
0.0009430953646
0.000944549358
0.0009456970344
0.0009463641414
0.0009412566179
0.0009420946839
0.0009432798376
0.0009447152777
0.0009462862927
0.0009478613567
0.000949294099
0.0009504249813
0.0009510823129
0.0009460475962
0.0009468734453
0.0009480413152
0.0009494558098
0.0009510038845
0.0009525559292
0.0009539677107
0.0009550820287
0.000955729719
0.0009507668297
0.0009515806289
0.0009527314517
0.0009541252878
0.000955650737
0.0009571800784
0.0009585711873
0.000959669169
0.0009603073507
0.0009554153183
0.0009562172333
0.0009573512436
0.0009587247054
0.0009602278404
0.0009617347912
0.0009631055124
0.0009641873831
0.0009648161874
0.0009599940531
0.0009607842475
0.0009619016766
0.0009632550446
0.0009647361726
0.0009662210409
0.0009675716548
0.000968637636
0.0009692571919
0.0009645040117
0.0009652826464
0.0009663837218
0.0009677172712
0.0009691766935
0.0009706397813
0.0009719705626
0.0009730208711
0.0009736313048
0.0009689461532
0.0009697133854
0.0009707983293
0.0009721123291
0.0009735503394
0.0009749919409
0.0009763031567
0.0009773380032
0.000977939437
0.0009733214118
0.0009740773943
0.0009751464222
0.0009764411329
0.0009778580154
0.0009792784145
0.0009805703223
0.0009815899093
0.0009821824609
0.0009776306893
0.0009783755689
0.0009794288879
0.000980704559
0.0009821005857
0.0009835000534
0.0009847728984
0.0009857774186
0.0009863611992
0.0009818748453
0.0009826087613
0.0009836465675
0.0009849034351
0.0009862788623
0.0009876576533
0.0009889116649
0.0009899012977
0.0009904764112
0.0009860546852
0.0009867777675
0.0009878002432
0.0009890385261
0.0009903935901
0.0009917519382
0.000992987326
0.0009939622346
0.0009945287746
0.0009901709454
0.0009908833119
0.000991890622
0.0009931105168
0.000994445429
0.0009957835415
0.0009970004899
0.0009979608166
0.0009985188641
0.0009942242749
0.0009949260282
0.0009959183155
0.0009971199911
0.000998434931
0.000999752982
0.001000951644
0.001001897504
0.001002447125
0.0009982152125
0.0009989064363
0.0009998838157
0.001001067406
0.001002362513
0.001003660635
0.001004841122
0.0010057726
0.001006313839
0.00100214416
0.001002824914
0.001003787465
0.001004953061
0.001006228425
0.001007506697
0.001008669073
0.00100958621
0.001010119089
0.001006011348
0.001006681662
0.001007629423
0.001008777059
0.001010032709
0.001011291146
0.001012435411
0.0010133382
0.001013862707
0.0010098168
0.001010476667
0.001011409621
0.001012539268
0.001013775154
0.001015013692
0.001016139772
0.001017028141
0.001017544231
0.001013560286
0.001014209654
0.00101512772
0.001016239265
0.001017455247
0.001018673724
0.001019781454
0.001020655258
0.001021162838
0.001017241273
0.001017880037
0.001018783054
0.001019876287
0.001021072114
0.001022270253
0.001023359356
0.001024218359
0.001024717284
0.001020858871
0.001021486859
0.001022374575
0.00102344917
0.001024624457
0.001025801843
0.001026871915
0.001027715775
0.001028205836
0.001024411772
0.001025028739
0.001025900791
0.001026956285
0.001028110494
0.001029266553
0.001030317037
0.00103114529
0.001031626203
0.001027898192
0.001028503804
0.001029359703
0.001030395475
0.001031527891
0.001032661863
0.001033692031
0.001034504073
0.001034975473
0.001031315808
0.001031909632
0.001032748745
0.001033763997
0.001034873704
0.001035984626
0.001036993555
0.001037788625
0.001038250054
0.001034661705
0.001035243195
0.00103606473
0.001037058467
0.001038144328
0.001039231006
0.001040217563
0.00104099473
0.001041445627
0.001037932326
0.001038500817
0.001039303808
0.00104027482
0.001041335458
0.001042396457
0.00104335928
0.001044117429
0.001044557128
0.001041123442
0.001041678138
0.001042461434
0.001043408286
0.001044442075
0.0010454757
0.001046413193
0.001047151023
0.001047578747
0.001044230134
0.001044770108
0.00104553237
0.001046453393
0.001047458451
0.001048462752
0.001049373083
0.001050089102
0.001050503965
0.001047246808
0.001047771
0.0010485107
0.001049404001
0.001050378195
0.001051350973
0.001052232082
0.001052924626
0.00105332564
0.001050167235
0.00105067446
0.001051389896
0.001052253368
0.001053194338
0.001054133165
0.001054982793
0.001055650039
0.001056036127
0.001052984633
0.001053473594
0.001054162908
0.001054994262
0.001055899455
0.001056801719
0.00105761744
0.001058257443
0.001058627462
0.001055691785
0.001056161099
0.001056822314
0.001057619124
0.001058485843
0.0010593488
0.001060128085
0.001060738825
0.001061091591
0.001058281212
0.001058729439
0.001059360505
0.001060120266
0.001060945745
0.001061766596
0.00106250688
0.001063086321
0.00106342065
0.001060745374
0.00106117106
0.001061769915
0.001062490123
0.001063271612
0.001064047598
0.001064746369
0.001065292536
0.001065607285
0.001063076926
0.001063478654
0.001064043298
0.001064721538