/*--------------------------------*- C++ -*----------------------------------*\
| =========                 |                                                 |
| \\      /  F ield         | OpenFOAM: The Open Source CFD Toolbox           |
|  \\    /   O peration     | Version:  2212                                  |
|   \\  /    A nd           | Website:  www.openfoam.com                      |
|    \\/     M anipulation  |                                                 |
\*---------------------------------------------------------------------------*/
FoamFile
{
    version     2.0;
    format      ascii;
    arch        "LSB;label=32;scalar=64";
    class       volScalarField;
    location    "18.25000000";
    object      I-C4H3;
}
// * * * * * * * * * * * * * * * * * * * * * * * * * * * * * * * * * * * * * //

dimensions      [0 0 0 0 0 0 0];

internalField   nonuniform List<scalar> 
3000
(
8.548896842e-24
9.603360636e-24
1.119452401e-23
1.331486615e-23
1.594282572e-23
1.900703716e-23
2.23228989e-23
2.548685136e-23
2.77241434e-23
3.209544071e-23
3.61995618e-23
4.238992587e-23
5.06573485e-23
6.099358819e-23
7.33413351e-23
8.748628235e-23
1.027144276e-22
1.162041179e-22
7.188839e-23
8.171708222e-23
9.668345256e-23
1.170040558e-22
1.430441676e-22
1.75181441e-22
2.132893777e-22
2.552285033e-22
2.910721098e-22
1.369186978e-22
1.572679019e-22
1.887082458e-22
2.323029853e-22
2.895960022e-22
3.620425759e-22
4.49246994e-22
5.442279271e-22
6.208899493e-22
2.431090943e-22
2.826657191e-22
3.447441456e-22
4.324962441e-22
5.500476804e-22
7.006914051e-22
8.819094223e-22
1.074351236e-21
1.222072977e-21
4.179967781e-22
4.922294703e-22
6.103968856e-22
7.8003684e-22
1.010194392e-21
1.306656452e-21
1.660564963e-21
2.027287502e-21
2.298591644e-21
7.095192579e-22
8.458588509e-22
1.065420613e-21
1.384180648e-21
1.819881248e-21
2.381175813e-21
3.044842237e-21
3.719120103e-21
4.205639528e-21
1.200588825e-21
1.447299092e-21
1.848138598e-21
2.434586181e-21
3.23933803e-21
4.273968352e-21
5.486560083e-21
6.700611666e-21
7.561995035e-21
2.034868435e-21
2.476590247e-21
3.198920421e-21
4.261088709e-21
5.721254748e-21
7.593438667e-21
9.771869558e-21
1.193025321e-20
1.344476397e-20
3.461141841e-21
4.245825928e-21
5.534877931e-21
7.436551966e-21
1.005243499e-20
1.339770545e-20
1.726868112e-20
2.10759698e-20
2.372768955e-20
5.910571676e-21
7.296380444e-21
9.580210738e-21
1.295632066e-20
1.760065309e-20
2.352680643e-20
3.035613734e-20
3.703884277e-20
4.167002569e-20
1.013065989e-20
1.256747127e-20
1.659225647e-20
2.254964372e-20
3.074346337e-20
4.118041288e-20
5.317215527e-20
6.486460262e-20
7.293985919e-20
1.741797432e-20
2.168916289e-20
2.875456801e-20
3.922125666e-20
5.361377109e-20
7.192191257e-20
9.291229763e-20
1.133276561e-19
1.273939657e-19
3.002214307e-20
3.749105293e-20
4.985949254e-20
6.819210574e-20
9.339527532e-20
1.254234711e-19
1.620871759e-19
1.976818562e-19
2.221687121e-19
5.184701562e-20
6.488526559e-20
8.649310968e-20
1.185323895e-19
1.625709709e-19
2.184938161e-19
2.824311933e-19
3.443579626e-19
3.870343363e-19
8.966692411e-20
1.123979679e-19
1.500901691e-19
2.059930474e-19
2.8282055e-19
3.803186576e-19
4.915378915e-19
5.971461683e-19
6.735212357e-19
1.55236249e-19
1.948253726e-19
2.604969727e-19
3.579135057e-19
4.917758794e-19
6.616057397e-19
8.556806528e-19
1.045638291e-18
1.172106302e-18
2.689503882e-19
3.378431954e-19
4.521551277e-19
6.2174016e-19
8.547385955e-19
1.15022063e-18
1.487432125e-18
1.81376492e-18
2.037255852e-18
4.662035328e-19
5.860138527e-19
7.84847658e-19
1.079837559e-18
1.485083618e-18
1.998856262e-18
2.584928952e-18
3.151660633e-18
3.53996752e-18
8.084306749e-19
1.016694584e-18
1.362365597e-18
1.875214172e-18
2.579670467e-18
3.472578528e-18
4.490818843e-18
5.475103292e-18
6.149289502e-18
1.402281852e-18
1.764188167e-18
2.364917703e-18
3.256178018e-18
4.480301523e-18
6.031590861e-18
7.800162543e-18
9.50926444e-18
1.067966225e-17
2.432911908e-18
3.061671324e-18
4.105391002e-18
5.65383817e-18
7.78034729e-18
1.047467756e-17
1.354563301e-17
1.65125501e-17
1.854387432e-17
4.22176618e-18
5.313974778e-18
7.126998434e-18
9.816588481e-18
1.350970266e-17
1.818791932e-17
2.351863421e-17
2.866728537e-17
3.219144193e-17
7.326841646e-18
9.223848219e-18
1.237264986e-17
1.704329488e-17
2.345536265e-17
3.157558262e-17
4.082536599e-17
4.975617897e-17
5.586725278e-17
1.271659269e-17
1.601096415e-17
2.147866532e-17
2.958749491e-17
4.071667934e-17
5.480569558e-17
7.084792446e-17
8.63302106e-17
9.692002492e-17
2.207131796e-17
2.779141523e-17
3.728355318e-17
5.135711702e-17
7.066569077e-17
9.509805243e-17
1.229025184e-16
1.497212038e-16
1.680553402e-16
3.830483617e-17
4.823442759e-17
6.470797781e-17
8.912369409e-17
1.22604877e-16
1.649445141e-16
2.130932817e-16
2.594997979e-16
2.912021491e-16
6.646617779e-17
8.369709073e-17
1.122742212e-16
1.546080255e-16
2.126219813e-16
2.859252348e-16
3.692070454e-16
4.493945453e-16
5.041216301e-16
1.152950119e-16
1.45180772e-16
1.94723428e-16
2.680674895e-16
3.684907329e-16
4.952441638e-16
6.390738384e-16
7.773764079e-16
8.716463314e-16
1.998982289e-16
2.516952134e-16
3.375102158e-16
4.644449221e-16
6.380501689e-16
8.568703554e-16
1.104773099e-15
1.342741346e-15
1.504676793e-15
3.46341998e-16
4.360240182e-16
5.844924333e-16
8.038632182e-16
1.103461802e-15
1.480425325e-15
1.906622022e-15
2.314848641e-15
2.592056338e-15
5.995020195e-16
7.545665543e-16
1.011028266e-15
1.389444908e-15
1.905325455e-15
2.552989423e-15
3.283382392e-15
3.981078983e-15
4.453602007e-15
1.036427935e-15
1.304060143e-15
1.746164525e-15
2.397385659e-15
3.283189542e-15
4.392248957e-15
5.639075086e-15
6.826129212e-15
7.627485574e-15
1.788986777e-15
2.249839739e-15
3.009995464e-15
4.127351807e-15
5.643060428e-15
7.534516469e-15
9.652936447e-15
1.166176831e-14
1.301267894e-14
3.082022028e-15
3.873304455e-15
5.1761247e-15
7.086263723e-15
9.668895988e-15
1.28790627e-14
1.645843724e-14
1.983677494e-14
2.209848073e-14
5.297275857e-15
6.651102761e-15
8.875282243e-15
1.21263442e-14
1.650491341e-14
2.192221998e-14
2.793137199e-14
3.357252163e-14
3.732984398e-14
9.079765584e-15
1.138624252e-14
1.516573651e-14
2.067036836e-14
2.805048283e-14
3.713268616e-14
4.714781633e-14
5.649269651e-14
6.268153775e-14
1.551354359e-14
1.942340714e-14
2.581095364e-14
3.507536388e-14
4.743169108e-14
6.254589091e-14
7.910297187e-14
9.444886724e-14
1.045491179e-13
2.640984674e-14
3.299946361e-14
4.372751553e-14
5.921340343e-14
7.974647832e-14
1.046936181e-13
1.318252987e-13
1.567909789e-13
1.731144075e-13
4.477556673e-14
5.580873188e-14
7.370017862e-14
9.938852629e-14
1.332278727e-13
1.740400125e-13
2.180820001e-13
2.582989446e-13
2.844134451e-13
7.556809249e-14
9.390566249e-14
1.235111125e-13
1.657676228e-13
2.210381754e-13
2.871731137e-13
3.5795897e-13
4.220858845e-13
4.634336471e-13
1.269000382e-13
1.571315866e-13
2.057036676e-13
2.745877352e-13
3.640041067e-13
4.701111387e-13
5.827206154e-13
6.839159412e-13
7.487053436e-13
2.119426994e-13
2.613460332e-13
3.403069043e-13
4.515228696e-13
5.947401579e-13
7.632373398e-13
9.405262348e-13
1.09856468e-12
1.199046245e-12
3.51901891e-13
4.318788286e-13
5.589984276e-13
7.367640993e-13
9.638002419e-13
1.228593677e-12
1.504818815e-12
1.749108172e-12
1.903386844e-12
5.80619737e-13
7.088131429e-13
9.113973544e-13
1.192606743e-12
1.54876765e-12
1.960565536e-12
2.386535164e-12
2.760385687e-12
2.99497907e-12
9.516119146e-13
1.154983856e-12
1.474480375e-12
1.914674144e-12
2.467569684e-12
3.101409767e-12
3.751748617e-12
4.318378246e-12
4.671808872e-12
1.54870985e-12
1.867959952e-12
2.366534462e-12
3.048375138e-12
3.897826204e-12
4.863660599e-12
5.8469951e-12
6.697932233e-12
7.225748881e-12
2.501979382e-12
2.99781468e-12
3.76764422e-12
4.812840795e-12
6.104764927e-12
7.562251879e-12
9.035414726e-12
1.030220274e-11
1.108397189e-11
4.011283458e-12
4.773228683e-12
5.949520888e-12
7.535481991e-12
9.481233785e-12
1.166030022e-11
1.384805231e-11
1.571848993e-11
1.686749558e-11
6.380818658e-12
7.539496235e-12
9.318597292e-12
1.170154405e-11
1.46047109e-11
1.783400878e-11
2.105631652e-11
2.37969216e-11
2.547357572e-11
1.006928357e-11
1.181342007e-11
1.447785333e-11
1.802473068e-11
2.231808417e-11
2.706421064e-11
3.177384486e-11
3.57608316e-11
3.81911994e-11
1.576217e-11
1.836203893e-11
2.231496811e-11
2.754731256e-11
3.384352967e-11
4.076485598e-11
4.759907108e-11
5.33609782e-11
5.686233871e-11
2.44751908e-11
2.831484669e-11
3.412713719e-11
4.17808017e-11
5.094185138e-11
6.096243071e-11
7.081400366e-11
7.909038227e-11
8.410634176e-11
3.769868367e-11
4.331963064e-11
5.179452475e-11
6.290247609e-11
7.613535646e-11
9.054639941e-11
1.046608194e-10
1.164823784e-10
1.236308836e-10
5.760314025e-11
6.576436659e-11
7.802566568e-11
9.403009413e-11
1.130166747e-10
1.336144619e-10
1.537224107e-10
1.705204746e-10
1.80659589e-10
8.732613422e-11
9.908556462e-11
1.166973405e-10
1.396020448e-10
1.666754322e-10
1.959485699e-10
2.244456548e-10
2.482005608e-10
2.625174873e-10
1.313711545e-10
1.481960294e-10
1.733248122e-10
2.05901548e-10
2.442847492e-10
2.85667272e-10
3.258564782e-10
3.592971401e-10
3.794274167e-10
1.961591359e-10
2.200751717e-10
2.557090345e-10
3.017760598e-10
3.559038055e-10
4.141158928e-10
4.705331442e-10
5.174041831e-10
5.455908192e-10
2.907868821e-10
3.245792287e-10
3.748227961e-10
4.396196424e-10
5.155709039e-10
5.970762074e-10
6.75927102e-10
7.413479104e-10
7.806565022e-10
4.280636249e-10
4.755466099e-10
5.460168161e-10
6.367066821e-10
7.427841652e-10
8.564029483e-10
9.66150399e-10
1.057101924e-09
1.111715088e-09
6.259175772e-10
6.922951371e-10
7.906498483e-10
9.1699066e-10
1.064495843e-09
1.222228135e-09
1.374386411e-09
1.500373162e-09
1.575992419e-09
9.092884148e-10
1.001633478e-09
1.138275006e-09
1.313514135e-09
1.517784546e-09
1.735917761e-09
1.946125774e-09
2.120072246e-09
2.224462703e-09
1.312650822e-09
1.440541187e-09
1.629551431e-09
1.871619098e-09
2.15341758e-09
2.454014374e-09
2.743478788e-09
2.982935874e-09
3.126660921e-09
1.883353966e-09
2.059715377e-09
2.320098514e-09
2.653197425e-09
3.040565067e-09
3.453448115e-09
3.850869645e-09
4.179627932e-09
4.377033953e-09
2.686012951e-09
2.928233579e-09
3.285559595e-09
3.742267106e-09
4.272972594e-09
4.838348986e-09
5.382472496e-09
5.832700905e-09
6.103223808e-09
3.808233301e-09
4.139623302e-09
4.628179053e-09
5.252197033e-09
5.976940919e-09
6.748837273e-09
7.491791365e-09
8.106837785e-09
8.476712423e-09
5.367974253e-09
5.819653014e-09
6.485222729e-09
7.334931671e-09
8.321487312e-09
9.37218817e-09
1.038379686e-08
1.122179851e-08
1.172625744e-08
7.522869299e-09
8.136171628e-09
9.039580283e-09
1.01925654e-08
1.153104808e-08
1.295673538e-08
1.432998565e-08
1.546843581e-08
1.615448168e-08
1.048180925e-08
1.131129996e-08
1.253284816e-08
1.409155599e-08
1.590099396e-08
1.782876228e-08
1.968658597e-08
2.122798006e-08
2.215780074e-08
1.451901697e-08
1.563618445e-08
1.728107136e-08
1.937970776e-08
2.181603003e-08
2.441238406e-08
2.691584162e-08
2.899446417e-08
3.024952185e-08
1.99906742e-08
2.148832529e-08
2.369308237e-08
2.650576462e-08
2.977119773e-08
3.325199933e-08
3.66098124e-08
3.939960549e-08
4.108535685e-08
2.735386374e-08
2.93511595e-08
3.229099064e-08
3.604099491e-08
4.039465159e-08
4.503624891e-08
4.951539064e-08
5.323863945e-08
5.54897181e-08
3.7187155e-08
3.983509891e-08
4.373182847e-08
4.870151691e-08
5.447064672e-08
6.062156831e-08
6.655826848e-08
7.149453634e-08
7.448004101e-08
5.021158702e-08
5.369860496e-08
5.882867554e-08
6.536934581e-08
7.296030855e-08
8.105245284e-08
8.886252181e-08
9.535687886e-08
9.928517218e-08
6.73101422e-08
7.186718903e-08
7.856884818e-08
8.710935836e-08
9.701692256e-08
1.075746781e-07
1.177615704e-07
1.262307539e-07
1.313529282e-07
8.954315928e-08
9.544758486e-08
1.041261077e-07
1.151787678e-07
1.27991933e-07
1.416372556e-07
1.547959205e-07
1.657307701e-07
1.723417631e-07
1.181566648e-07
1.257339246e-07
1.368635222e-07
1.510255276e-07
1.674278707e-07
1.848791982e-07
2.016936952e-07
2.15656207e-07
2.240925313e-07
1.545804936e-07
1.642027624e-07
1.78323823e-07
1.962725637e-07
2.170352694e-07
2.390984395e-07
2.603317101e-07
2.779455618e-07
2.885796107e-07
2.004134846e-07
2.124943826e-07
2.302049602e-07
2.526859628e-07
2.786522972e-07
3.062024013e-07
3.326774273e-07
3.546118995e-07
3.678415528e-07
2.573940567e-07
2.723790494e-07
2.943200787e-07
3.22127124e-07
3.541881135e-07
3.88142347e-07
4.207154586e-07
4.476626378e-07
4.638990048e-07
3.273560242e-07
3.457085848e-07
3.725430995e-07
4.064910611e-07
4.45553394e-07
4.868365043e-07
5.263630272e-07
5.590089322e-07
5.786523219e-07
4.121713816e-07
4.343555837e-07
4.667432046e-07
5.076358095e-07
5.545842433e-07
6.040883762e-07
6.513836628e-07
6.903692172e-07
7.137923861e-07
5.136836414e-07
5.401448209e-07
5.787133264e-07
6.27307347e-07
6.82964878e-07
7.415062808e-07
7.972989497e-07
8.431915456e-07
8.707209652e-07
6.336368402e-07
6.647809705e-07
7.100973479e-07
7.670678805e-07
8.321522924e-07
9.004246944e-07
9.653242765e-07
1.0185894e-06
1.050488889e-06
7.736051369e-07
8.09780301e-07
8.623227642e-07
9.28222254e-07
1.003306917e-06
1.081851418e-06
1.156318568e-06
1.217297184e-06
1.253755173e-06
9.349234542e-07
9.763964864e-07
1.036524002e-06
1.111758365e-06
1.1972484e-06
1.286427936e-06
1.370753043e-06
1.439646105e-06
1.480767237e-06
1.118613878e-06
1.165560763e-06
1.233500804e-06
1.318310892e-06
1.414424345e-06
1.514407562e-06
1.608698512e-06
1.685559002e-06
1.731360218e-06
1.325350236e-06
1.377847876e-06
1.453685667e-06
1.548136608e-06
1.654895277e-06
1.765650197e-06
1.869829171e-06
1.954561335e-06
2.004972144e-06
1.555429061e-06
1.613451822e-06
1.697126663e-06
1.801105523e-06
1.918334978e-06
2.039631771e-06
2.15344019e-06
2.245805067e-06
2.300671408e-06
1.808756499e-06
1.87217741e-06
1.963485534e-06
2.076706647e-06
2.204044384e-06
2.335465953e-06
2.458476177e-06
2.558102213e-06
2.617193169e-06
2.084850758e-06
2.153446811e-06
2.252049851e-06
2.37406661e-06
2.51097683e-06
2.651935552e-06
2.783567735e-06
2.889965149e-06
2.952981712e-06
2.382858672e-06
2.456319415e-06
2.561757306e-06
2.691978923e-06
2.83777225e-06
2.987531117e-06
3.127073583e-06
3.239651199e-06
3.30623635e-06
2.701584248e-06
2.779522785e-06
2.891229807e-06
3.028941482e-06
3.182797909e-06
3.340494387e-06
3.487126031e-06
3.605209411e-06
3.674958847e-06
3.039526613e-06
3.121492107e-06
3.238814825e-06
3.383199856e-06
3.544193369e-06
3.708864482e-06
3.861677901e-06
3.984527817e-06
4.057000791e-06
3.39492464e-06
3.480415504e-06
3.602631495e-06
3.75279404e-06
3.919917593e-06
4.090524998e-06
4.248549315e-06
4.375379788e-06
4.450109636e-06
3.765805553e-06
3.85428265e-06
3.980619088e-06
4.135606535e-06
4.307796333e-06
4.483250433e-06
4.645473035e-06
4.775468391e-06
4.851972443e-06
4.150035078e-06
4.240934393e-06
4.370585794e-06
4.529409955e-06
4.705568267e-06
4.884750682e-06
5.050137331e-06
5.182467885e-06
5.260256554e-06
4.545367061e-06
4.638111463e-06
4.770256076e-06
4.931912661e-06
5.110928654e-06
5.292712613e-06
5.460225588e-06
5.594061748e-06
5.672646684e-06
4.949490852e-06
5.043500705e-06
5.177315249e-06
5.340801297e-06
5.521569589e-06
5.704838005e-06
5.873452123e-06
6.007976789e-06
6.086878041e-06
5.360075227e-06
5.454777716e-06
5.5894503e-06
5.753779405e-06
5.935216222e-06
6.118877371e-06
6.28759383e-06
6.422013091e-06
6.500765282e-06
5.774807983e-06
5.869645116e-06
6.004386307e-06
6.168601628e-06
6.349658552e-06
6.532659385e-06
6.700517489e-06
6.834069664e-06
6.912227195e-06
6.191430697e-06
6.285866016e-06
6.419918091e-06
6.583103207e-06
6.762778636e-06
6.944115825e-06
7.110202696e-06
7.242165799e-06
7.319307146e-06
6.60776844e-06
6.701292503e-06
6.833937002e-06
6.995224749e-06
7.172573185e-06
7.351302069e-06
7.514760475e-06
7.644458222e-06
7.720189385e-06
7.021754447e-06
7.113889176e-06
7.244452886e-06
7.403032334e-06
7.577171696e-06
7.752413289e-06
7.912447757e-06
8.039254232e-06
8.113211397e-06
7.431449917e-06
7.521751929e-06
7.649611437e-06
7.804733188e-06
7.974850335e-06
8.145796579e-06
8.301677944e-06
8.42502104e-06
8.496872531e-06
7.835059239e-06
7.923122253e-06
8.04770724e-06
8.198687213e-06
8.364041858e-06
8.529959307e-06
8.681027849e-06
8.800391609e-06
8.869839192e-06
8.230940992e-06
8.316397438e-06
8.437192837e-06
8.583414733e-06
8.743341924e-06
8.903574019e-06
9.049241346e-06
9.164167308e-06
9.230946909e-06
8.617615146e-06
8.700137057e-06
8.816684234e-06
8.957600812e-06
9.111512158e-06
9.265480256e-06
9.405230056e-06
9.515317715e-06
9.57919962e-06
8.993766869e-06
9.073066159e-06
9.184963221e-06
9.320096555e-06
9.467480334e-06
9.614683639e-06
9.748071446e-06
9.852977929e-06
9.913766518e-06
9.358247362e-06
9.43407557e-06
9.540976938e-06
9.669917769e-06
9.810338073e-06
9.950352597e-06
1.007700468e-05
1.017644373e-05
1.02339768e-05
9.710072156e-06
9.782219728e-06
9.883835046e-06
1.000624137e-05
1.01393364e-05
1.02718131e-05
1.039142458e-05
1.048516494e-05
1.05393127e-05
1.004841722e-05
1.01167124e-05
1.021280491e-05
1.032839989e-05
1.045387955e-05
1.057854172e-05
1.069087408e-05
1.077873734e-05
1.082940105e-05
1.037261329e-05
1.043692067e-05
1.052730511e-05
1.063587443e-05
1.075351729e-05
1.087015739e-05
1.097503535e-05
1.105689341e-05
1.110400384e-05
1.068213871e-05
1.074235752e-05
1.082689765e-05
1.092828641e-05
1.103793616e-05
1.11464121e-05
1.124372014e-05
1.131949227e-05
1.136300787e-05
1.097661113e-05
1.103267331e-05
1.111127907e-05
1.120538831e-05
1.130694983e-05
1.140718088e-05
1.149685933e-05
1.156650897e-05
1.160641396e-05
1.125577835e-05
1.13076464e-05
1.13802709e-05
1.146705381e-05
1.156048893e-05
1.165245127e-05
1.173449215e-05
1.179802351e-05
1.183432583e-05
1.151950848e-05
1.156717322e-05
1.163380951e-05
1.171326743e-05
1.17985904e-05
1.188231257e-05
1.195675526e-05
1.201420977e-05
1.204693892e-05
1.176777974e-05
1.181125799e-05
1.187193569e-05
1.194411399e-05
1.202138689e-05
1.209694492e-05
1.216387171e-05
1.22153244e-05
1.224452928e-05
1.20006701e-05
1.204000226e-05
1.209478412e-05
1.215976795e-05
1.222909598e-05
1.229660867e-05
1.235614023e-05
1.240169609e-05
1.242744284e-05
1.221834678e-05
1.225359444e-05
1.230257293e-05
1.236048304e-05
1.242200977e-05
1.248163382e-05
1.253392474e-05
1.257371511e-05
1.259608496e-05
1.242105601e-05
1.245229954e-05
1.249559342e-05
1.254658191e-05
1.260048468e-05
1.265240995e-05
1.269764439e-05
1.273182343e-05
1.275091061e-05
1.260911296e-05
1.263644915e-05
1.26742001e-05
1.271844637e-05
1.276493173e-05
1.280937664e-05
1.284776402e-05
1.287650531e-05
1.289241504e-05
1.278289202e-05
1.280643183e-05
1.283880122e-05
1.287650798e-05
1.29158073e-05
1.295301439e-05
1.298478533e-05
1.300827861e-05
1.302112518e-05
1.294281763e-05
1.296268396e-05
1.298984971e-05
1.30212392e-05
1.305360449e-05
1.308383618e-05
1.310923865e-05
1.312768671e-05
1.313759169e-05
1.30893555e-05
1.31056811e-05
1.312783476e-05
1.315314513e-05
1.317884509e-05
1.320237974e-05
1.322167537e-05
1.323529122e-05
1.324238177e-05
1.32230045e-05
1.323593003e-05
1.325327396e-05
1.32727559e-05
1.329207224e-05
1.330920039e-05
1.332266115e-05
1.333166531e-05
1.333607264e-05
1.33442891e-05
1.335396128e-05
1.336670606e-05
1.338061969e-05
1.339384367e-05
1.340486466e-05
1.341276972e-05
1.341738781e-05
1.341924573e-05
1.345375248e-05
1.346032238e-05
1.346868445e-05
1.34772964e-05
1.348472573e-05
1.348994454e-05
1.349257746e-05
1.349303796e-05
1.349248166e-05
1.355195023e-05
1.355557176e-05
1.355977121e-05
1.356335202e-05
1.356528799e-05
1.356501243e-05
1.356265861e-05
1.355919089e-05
1.355635573e-05
1.363944472e-05
1.364027319e-05
1.36405318e-05
1.363935357e-05
1.363609849e-05
1.363063667e-05
1.362358108e-05
1.361641362e-05
1.36114342e-05
1.371680009e-05
1.371499099e-05
1.371153046e-05
1.370586471e-05
1.369771966e-05
1.368737774e-05
1.367590293e-05
1.36652618e-05
1.365827103e-05
1.378457784e-05
1.378028567e-05
1.37733261e-05
1.376344195e-05
1.375070476e-05
1.373578502e-05
1.372016938e-05
1.37062769e-05
1.369740524e-05
1.384333296e-05
1.383671034e-05
1.382646883e-05
1.381263134e-05
1.379559491e-05
1.377639403e-05
1.375691032e-05
1.373998392e-05
1.372935878e-05
1.389361072e-05
1.388480746e-05
1.387149697e-05
1.385396581e-05
1.383291658e-05
1.380972427e-05
1.378663836e-05
1.376688962e-05
1.375463479e-05
1.393594379e-05
1.392510626e-05
1.390893459e-05
1.388796284e-05
1.38631796e-05
1.383627739e-05
1.38098472e-05
1.378748112e-05
1.377371637e-05
1.397085003e-05
1.395812049e-05
1.39392895e-05
1.39151227e-05
1.388687558e-05
1.385653581e-05
1.382701056e-05
1.380222485e-05
1.378706558e-05
1.399883059e-05
1.398434675e-05
1.396305165e-05
1.393592702e-05
1.390447665e-05
1.387096177e-05
1.383858123e-05
1.381156593e-05
1.379512291e-05
1.402036841e-05
1.400426303e-05
1.398069188e-05
1.39508377e-05
1.391643462e-05
1.387999658e-05
1.384499066e-05
1.381592774e-05
1.379830691e-05
1.403592719e-05
1.401832778e-05
1.399266107e-05
1.396029624e-05
1.392318042e-05
1.388406026e-05
1.384664862e-05
1.381571176e-05
1.379701414e-05
1.404595051e-05
1.402697912e-05
1.399938949e-05
1.396472321e-05
1.392512375e-05
1.388355132e-05
1.384394322e-05
1.381129767e-05
1.379161928e-05
1.405086138e-05
1.403063445e-05
1.400128653e-05
1.396451811e-05
1.392265305e-05
1.387884688e-05
1.383724104e-05
1.380304358e-05
1.378247544e-05
1.405106197e-05
1.402969027e-05
1.399874054e-05
1.39600593e-05
1.391613556e-05
1.387030283e-05
1.382688747e-05
1.379128644e-05
1.37699146e-05
1.404693357e-05
1.402452215e-05
1.399211897e-05
1.395170423e-05
1.390591765e-05
1.385825427e-05
1.381320717e-05
1.377634256e-05
1.375424817e-05
1.403883675e-05
1.401548499e-05
1.39817686e-05
1.393978979e-05
1.389232525e-05
1.384301596e-05
1.379650464e-05
1.375850826e-05
1.373576764e-05
1.402711175e-05
1.400291337e-05
1.3968016e-05
1.392463277e-05
1.387566432e-05
1.382488295e-05
1.377706488e-05
1.373806053e-05
1.371474534e-05
1.401207907e-05
1.398712214e-05
1.395116807e-05
1.390653043e-05
1.385622158e-05
1.380413126e-05
1.375515413e-05
1.371525782e-05
1.369143516e-05
1.399404029e-05
1.396840706e-05
1.393151269e-05
1.388576122e-05
1.383426513e-05
1.378101862e-05
1.373102062e-05
1.369034084e-05
1.366607343e-05
1.397327851e-05
1.394704543e-05
1.390931936e-05
1.386258541e-05
1.381004521e-05
1.37557852e-05
1.370489537e-05
1.366353334e-05
1.363887966e-05
1.395005783e-05
1.392329653e-05
1.388483979e-05
1.383724576e-05
1.37837949e-05
1.372865443e-05
1.367699298e-05
1.363504298e-05
1.361005747e-05
1.392462344e-05
1.389740144e-05
1.385830821e-05
1.380996814e-05
1.375573087e-05
1.369983371e-05
1.364751246e-05
1.360506211e-05
1.357979535e-05
1.389720322e-05
1.386958363e-05
1.382994225e-05
1.378096227e-05
1.372605411e-05
1.366951527e-05
1.361663799e-05
1.357376859e-05
1.354826747e-05
1.386800922e-05
1.384005091e-05
1.379994375e-05
1.375042258e-05
1.369495076e-05
1.363787688e-05
1.358453978e-05
1.354132662e-05
1.351563457e-05
1.383723826e-05
1.380899601e-05
1.376850012e-05
1.371852905e-05
1.366259289e-05
1.360508273e-05
1.355137481e-05
1.350788752e-05
1.348204466e-05
1.380507262e-05
1.37765971e-05
1.373578351e-05
1.368544765e-05
1.362913925e-05
1.357128415e-05
1.351728766e-05
1.347359052e-05
1.344763388e-05
1.3771681e-05
1.374301909e-05
1.370195364e-05
1.365133167e-05
1.359473617e-05
1.353662049e-05
1.348241129e-05
1.343856353e-05
1.341252722e-05
1.37372193e-05
1.37084143e-05
1.366715776e-05
1.361632248e-05
1.35595184e-05
1.350121986e-05
1.344686778e-05
1.340292392e-05
1.337683929e-05
1.37018314e-05
1.367292326e-05
1.363153173e-05
1.358055044e-05
1.352360987e-05
1.346519989e-05
1.34107691e-05
1.336677917e-05
1.3340675e-05
1.366564982e-05
1.363667527e-05
1.35952002e-05
1.354413442e-05
1.348712402e-05
1.34286683e-05
1.337421768e-05
1.333022756e-05
1.330413022e-05
1.362879649e-05
1.359978928e-05
1.355827802e-05
1.350718448e-05
1.345016508e-05
1.339172375e-05
1.333730719e-05
1.329335885e-05
1.326729244e-05
1.359138338e-05
1.356237447e-05
1.352087041e-05
1.34698011e-05
1.341282835e-05
1.335445635e-05
1.330012309e-05
1.325625484e-05
1.323024136e-05
1.355351312e-05
1.35245308e-05
1.348307358e-05
1.343207585e-05
1.337520073e-05
1.331694827e-05
1.326274322e-05
1.321898998e-05
1.319304946e-05
1.351527962e-05
1.348634971e-05
1.344497544e-05
1.339409239e-05
1.333736149e-05
1.327927434e-05
1.322523837e-05
1.318163187e-05
1.315578252e-05
1.347676873e-05
1.344791474e-05
1.340665634e-05
1.335592735e-05
1.329938287e-05
1.324150256e-05
1.318767278e-05
1.314424183e-05
1.311850015e-05
1.343805876e-05
1.340930207e-05
1.336818943e-05
1.331765018e-05
1.326133046e-05
1.320369469e-05
1.315010469e-05
1.310687533e-05
1.308125624e-05
1.339922105e-05
1.337058102e-05
1.332964122e-05
1.327932402e-05
1.322326379e-05
1.316590661e-05
1.311258674e-05
1.306958249e-05
1.304409943e-05
1.336032045e-05
1.33318146e-05
1.329107212e-05
1.324100614e-05
1.318523675e-05
1.312818887e-05
1.307516645e-05
1.303240844e-05
1.300707351e-05
1.332141581e-05
1.329305995e-05
1.325253686e-05
1.320274838e-05
1.314729801e-05
1.309058703e-05
1.303788658e-05
1.299539377e-05
1.29702178e-05
1.328256044e-05
1.325436877e-05
1.32140849e-05
1.316459752e-05
1.310949146e-05
1.305314208e-05
1.300078553e-05
1.295857484e-05
1.293356751e-05
1.324380248e-05
1.321578774e-05
1.317576084e-05
1.312659566e-05
1.30718565e-05
1.301589077e-05
1.296389766e-05
1.292198417e-05
1.289715406e-05
1.320518531e-05
1.317735888e-05
1.313760479e-05
1.308878063e-05
1.303442848e-05
1.297886598e-05
1.292725363e-05
1.288565067e-05
1.28610054e-05
1.31667479e-05
1.313911989e-05
1.309965271e-05
1.305118626e-05
1.299723893e-05
1.294209698e-05
1.289088069e-05
1.284960001e-05
1.282514627e-05
1.312852512e-05
1.31011045e-05
1.306193667e-05
1.301384267e-05
1.296031586e-05
1.29056097e-05
1.285480288e-05
1.281385478e-05
1.278959842e-05
1.309054803e-05
1.306334268e-05
1.302448515e-05
1.297677655e-05
1.292368402e-05
1.286942696e-05
1.28190413e-05
1.277843475e-05
1.275438084e-05
1.305284408e-05
1.30258609e-05
1.298732324e-05
1.294001132e-05
1.288736504e-05
1.283356862e-05
1.278361426e-05
1.274335696e-05
1.271950989e-05
1.301543725e-05
1.298868224e-05
1.295047275e-05
1.290356728e-05
1.285137756e-05
1.279805171e-05
1.274853729e-05
1.270863584e-05
1.268499933e-05
1.297834816e-05
1.295182646e-05
1.291395226e-05
1.286746157e-05
1.281573721e-05
1.276289034e-05
1.271382318e-05
1.267428312e-05
1.265086029e-05
1.294159396e-05
1.291530993e-05
1.287777701e-05
1.283170812e-05
1.278045647e-05
1.272809558e-05
1.267948172e-05
1.264030759e-05
1.261710099e-05
1.290518805e-05
1.287914529e-05
1.284195859e-05
1.279631724e-05
1.274554427e-05
1.269367498e-05
1.264551924e-05
1.260671465e-05
1.258372629e-05
1.286913962e-05
1.284334096e-05
1.280650435e-05
1.276129499e-05
1.271100529e-05
1.265963187e-05
1.261193784e-05
1.257350543e-05
1.255073676e-05
1.28334527e-05
1.28079002e-05
1.277141642e-05
1.272664216e-05
1.267683885e-05
1.26259641e-05
1.257873403e-05
1.254067539e-05
1.251812725e-05
1.279812484e-05
1.277281964e-05
1.273669018e-05
1.269235259e-05
1.26430371e-05
1.25926621e-05
1.254589672e-05
1.250821221e-05
1.248588475e-05
1.276314504e-05
1.273808721e-05
1.2702312e-05
1.265841076e-05
1.260958242e-05
1.255970615e-05
1.251340419e-05
1.247609263e-05
1.245398507e-05
1.272849083e-05
1.270367904e-05
1.266825603e-05
1.262478835e-05
1.257644372e-05
1.25270623e-05
1.248121988e-05
1.244427795e-05
1.242238826e-05
1.269412421e-05
1.266955526e-05
1.263447969e-05
1.259143947e-05
1.254357127e-05
1.249467687e-05
1.244928639e-05
1.241270777e-05
1.239103215e-05
1.265998626e-05
1.263565434e-05
1.260091768e-05
1.255829405e-05
1.251088971e-05
1.246246895e-05
1.241751754e-05
1.238129161e-05
1.235982369e-05
1.262598987e-05
1.260188557e-05
1.256747402e-05
1.252524949e-05
1.247828897e-05
1.243032056e-05
1.238578784e-05
1.23498978e-05
1.232862752e-05
1.259201063e-05
1.256811952e-05
1.253401201e-05
1.249215995e-05
1.244561259e-05
1.239806411e-05
1.235391906e-05
1.231833936e-05
1.229725138e-05
1.255787514e-05
1.253417596e-05
1.250034147e-05
1.245882273e-05
1.241264314e-05
1.236546668e-05
1.232166351e-05
1.228635637e-05
1.226542799e-05
1.252334689e-05
1.249980906e-05
1.246620295e-05
1.242496115e-05
1.237908424e-05
1.233221095e-05
1.228868371e-05
1.225359464e-05
1.223279305e-05
1.248810927e-05
1.246468987e-05
1.243124944e-05
1.23902053e-05
1.234453966e-05
1.229787274e-05
1.225452857e-05
1.221958072e-05
1.219885952e-05
1.245174595e-05
1.242838599e-05
1.239502508e-05
1.23540697e-05
1.230848931e-05
1.226189537e-05
1.221860622e-05
1.218369345e-05
1.216298843e-05
1.241371871e-05
1.239033867e-05
1.235694109e-05
1.231592725e-05
1.227026219e-05
1.222356116e-05
1.218015406e-05
1.214513277e-05
1.212435694e-05
1.237334327e-05
1.234983798e-05
1.231625008e-05
1.227498257e-05
1.222900783e-05
1.218196136e-05
1.213820722e-05
1.210288709e-05
1.208192493e-05
1.232976387e-05
1.230599675e-05
1.227201892e-05
1.22302437e-05
1.218366696e-05
1.21359656e-05
1.209156699e-05
1.205570079e-05
1.203440208e-05
1.228192796e-05
1.225772492e-05
1.222310122e-05
1.218049427e-05
1.213294316e-05
1.208419298e-05
1.203877141e-05
1.200204442e-05
1.198021779e-05
1.222856229e-05
1.220370367e-05
1.216811231e-05
1.212426848e-05
1.207527791e-05
1.20249874e-05
1.197807084e-05
1.194009061e-05
1.19174973e-05
1.216814751e-05
1.214236178e-05
1.21054084e-05
1.205983136e-05
1.200883214e-05
1.195640033e-05
1.190741212e-05
1.186769942e-05
1.184404783e-05
1.20989017e-05
1.207186304e-05
1.203307401e-05
1.198516792e-05
1.193147754e-05
1.187618478e-05
1.182443525e-05
1.17824174e-05
1.175735913e-05
1.201877794e-05
1.199010257e-05
1.19489202e-05
1.18979844e-05
1.184080162e-05
1.178180462e-05
1.172648695e-05
1.168149496e-05
1.165462332e-05
1.192547094e-05
1.189471585e-05
1.18504972e-05
1.179572537e-05
1.173413025e-05
1.167046322e-05
1.161065567e-05
1.156192666e-05
1.153277847e-05
1.181643921e-05
1.17831042e-05
1.173512465e-05
1.167561037e-05
1.160857184e-05
1.153915583e-05
1.147383184e-05
1.142051864e-05
1.138858053e-05
1.168894609e-05
1.165248006e-05
1.159994318e-05
1.15346934e-05
1.146108625e-05
1.138474868e-05
1.13127973e-05
1.125398647e-05
1.121870655e-05
1.154012285e-05
1.149993511e-05
1.144198994e-05
1.136994807e-05
1.128858101e-05
1.12040872e-05
1.112434511e-05
1.10590851e-05
1.101989081e-05
1.136705574e-05
1.132253316e-05
1.125829996e-05