/*--------------------------------*- C++ -*----------------------------------*\
| =========                 |                                                 |
| \\      /  F ield         | OpenFOAM: The Open Source CFD Toolbox           |
|  \\    /   O peration     | Version:  2212                                  |
|   \\  /    A nd           | Website:  www.openfoam.com                      |
|    \\/     M anipulation  |                                                 |
\*---------------------------------------------------------------------------*/
FoamFile
{
    version     2.0;
    format      ascii;
    arch        "LSB;label=32;scalar=64";
    class       surfaceScalarField;
    location    "18.25000000";
    object      phi;
}
// * * * * * * * * * * * * * * * * * * * * * * * * * * * * * * * * * * * * * //

dimensions      [1 0 -1 0 0 0 0];

oriented        oriented;

internalField   nonuniform List<scalar> 
5690
(
-5.460854237e-11
8.582882507e-10
1.326418222e-11
-1.340430922e-10
1.4211066e-09
-2.672968992e-10
1.983803217e-09
-4.773659936e-10
2.55401274e-09
-7.878109342e-10
3.132662638e-09
-1.196378315e-09
3.694292076e-09
-1.60803469e-09
4.146469127e-09
-1.625462605e-09
4.187244788e-09
2.965611481e-09
-1.155728329e-10
9.453922391e-10
2.846895323e-11
-2.664618177e-10
1.571995816e-09
-4.849654218e-10
2.202306884e-09
-7.653381468e-10
2.834385691e-09
-1.074854071e-09
3.442178704e-09
-1.325108231e-09
3.944545534e-09
-1.355359745e-09
4.176720658e-09
-9.122786386e-10
3.744163399e-09
2.053332771e-09
-1.516250159e-10
1.058800406e-09
3.82165243e-11
-3.350421432e-10
1.755412745e-09
-5.765497879e-10
2.443814253e-09
-8.449564169e-10
3.102792335e-09
-1.077804348e-09
3.675026676e-09
-1.178632329e-09
4.04537374e-09
-1.024122939e-09
4.022211122e-09
-5.507994839e-10
3.270839046e-09
1.50253355e-09
-1.483007729e-10
1.169042287e-09
3.805889639e-11
-3.174589653e-10
1.924570964e-09
-5.214227283e-10
2.647777482e-09
-7.180457008e-10
3.29941561e-09
-8.459795059e-10
3.802960137e-09
-8.314208705e-10
4.030815335e-09
-6.200884864e-10
3.81087853e-09
-2.731031465e-10
2.923853802e-09
1.22943024e-09
-1.315448084e-10
1.2663362e-09
3.425078147e-11
-2.742965312e-10
2.067322774e-09
-4.335110108e-10
2.80699169e-09
-5.673757676e-10
3.43328031e-09
-6.263131593e-10
3.861897319e-09
-5.680209327e-10
3.972523029e-09
-3.842074319e-10
3.627065284e-09
-1.472887442e-10
2.686935233e-09
1.082141799e-09
-1.070199598e-10
1.345077547e-09
2.827874711e-11
-2.180843042e-10
2.17838691e-09
-3.33524443e-10
2.92243188e-09
-4.182747222e-10
3.518030576e-09
-4.37877022e-10
3.881499305e-09
-3.729826455e-10
3.907628697e-09
-2.348746159e-10
3.488957002e-09
-8.197984209e-11
2.534040685e-09
1.000161734e-09
-8.367819214e-11
1.406405114e-09
2.23506705e-11
-1.674007472e-10
2.262109751e-09
-2.493287996e-10
3.004359546e-09
-3.023532436e-10
3.571055346e-09
-3.04089729e-10
3.883235397e-09
-2.473636863e-10
3.850902908e-09
-1.479495424e-10
3.389543072e-09
-4.784167394e-11
2.433932747e-09
9.523196946e-10
-6.330972595e-11
1.452624689e-09
1.709009696e-11
-1.24660268e-10
2.323460528e-09
-1.816438504e-10
3.06134298e-09
-2.144020362e-10
3.60381359e-09
-2.090608659e-10
3.877894005e-09
-1.644887957e-10
3.806330801e-09
-9.524634965e-11
3.320300545e-09
-2.981846521e-11
2.368504798e-09
9.225010622e-10
-4.711929042e-11
1.486928261e-09
1.281566099e-11
-9.163446038e-11
2.367975715e-09
-1.312417114e-10
3.10094998e-09
-1.517321503e-10
3.624304218e-09
-1.445932356e-10
3.870754798e-09
-1.110698006e-10
3.772806868e-09
-6.279970295e-11
3.27203029e-09
-1.90133416e-11
2.324718194e-09
9.034878112e-10
-3.466885689e-11
1.51210135e-09
9.495633398e-12
-6.673388739e-11
2.400040815e-09
-9.428335797e-11
3.128499442e-09
-1.072938597e-10
3.637314553e-09
-1.005585044e-10
3.864019663e-09
-7.603084027e-11
3.748279125e-09
-4.246326998e-11
3.238462379e-09
-1.279352943e-11
2.29504807e-09
8.906941568e-10
-2.538511001e-11
1.53050016e-09
6.986246189e-12
-4.848800535e-11
2.423143747e-09
-6.780624468e-11
3.14781761e-09
-7.627520423e-11
3.645783284e-09
-7.065125678e-11
3.858396007e-09
-5.284044799e-11
3.730468541e-09
-2.924177811e-11
3.214863598e-09
-8.71032467e-12
2.27451642e-09
8.819833786e-10
-1.855578939e-11
1.543927805e-09
5.128122532e-12
-3.523122266e-11
2.439819057e-09
-4.88935583e-11
3.161480194e-09
-5.455067844e-11
3.651440375e-09
-5.013803262e-11
3.853983177e-09
-3.726821954e-11
3.717598848e-09
-2.05647918e-11
3.198160092e-09
-6.152271694e-12
2.260103865e-09
8.758311407e-10
-1.357782029e-11
1.553743263e-09
3.762406717e-12
-2.567088429e-11
2.451911885e-09
-3.543633877e-11
3.171245836e-09
-3.931803356e-11
3.655322232e-09
-3.595877561e-11
3.850623739e-09
-2.662990924e-11
3.708269908e-09
-1.46650344e-11
3.186194867e-09
-4.380061779e-12
2.249818751e-09
8.714513892e-10
-9.962718902e-12
1.56093941e-09
2.766594685e-12
-1.877883182e-11
2.460727922e-09
-2.582971304e-11
3.178296699e-09
-2.856011672e-11
3.658052683e-09
-2.604979066e-11
3.848113337e-09
-1.926724712e-11
3.701487476e-09
-1.062137079e-11
3.177548841e-09
-3.190557241e-12
2.242387691e-09
8.682607847e-10
-7.338034855e-12
1.566237299e-09
2.040128879e-12
-1.380511474e-11
2.467195059e-09
-1.894682801e-11
3.183438523e-09
-2.090887712e-11
3.660014585e-09
-1.904661533e-11
3.846251066e-09
-1.408353644e-11
3.696524461e-09
-7.770053776e-12
3.171235427e-09
-2.335628785e-12
2.236953368e-09
8.659248578e-10
-5.430359286e-12
1.570156658e-09
1.510938945e-12
-1.020439598e-11
2.471969012e-09
-1.398846394e-11
3.187222656e-09
-1.542413012e-11
3.66145023e-09
-1.404836234e-11
3.84487524e-09
-1.039768699e-11
3.692873533e-09
-5.751684025e-12
3.166589382e-09
-1.72746677e-12
2.232929497e-09
8.641973403e-10
-4.040196447e-12
1.57307241e-09
1.124452908e-12
-7.588040211e-12
2.475516733e-09
-1.039696782e-11
3.190031519e-09
-1.146159525e-11
3.662514881e-09
-1.044147228e-11
3.843854848e-09
-7.732793442e-12
3.690164743e-09
-4.280535165e-12
3.163136923e-09
-1.277396934e-12
2.229926868e-09
8.629199856e-10
-3.025378353e-12
1.575255642e-09
8.422099423e-13
-5.680649183e-12
2.478172115e-09
-7.782238971e-12
3.192133135e-09
-8.577849046e-12
3.663310355e-09
-7.811079248e-12
3.843087858e-09
-5.774411355e-12
3.68812815e-09
-3.177548039e-12
3.160540098e-09
-9.47933042e-13
2.227697405e-09
8.619720951e-10
-2.285287763e-12
1.576904822e-09
6.361096802e-13
-4.291297241e-12
2.480178334e-09
-5.879695381e-12
3.193721472e-09
-6.479986239e-12
3.663910655e-09
-5.895302655e-12
3.842503201e-09
-4.343582002e-12
3.686576542e-09
-2.365945953e-12
3.158562482e-09
-6.864255037e-13
2.22601745e-09
8.612858186e-10
-1.749405913e-12
1.57816744e-09
4.867878451e-13
-3.286759631e-12
2.481715812e-09
-4.506311973e-12
3.194940799e-09
-4.968129393e-12
3.66437262e-09
-4.517275628e-12
3.842052464e-09
-3.317011681e-12
3.685376356e-09
-1.785871835e-12
3.157031275e-09
-4.806724143e-13
2.224711906e-09
8.608051073e-10
-1.369606298e-12
1.579156263e-09
3.808306917e-13
-2.576702104e-12
2.482923013e-09
-3.538451462e-12
3.195902442e-09
-3.906887544e-12
3.664741009e-09
-3.556035074e-12
3.841701691e-09
-2.612535464e-12
3.684432755e-09
-1.404540343e-12
3.155823429e-09
-3.743661761e-13
2.223681649e-09
8.604306984e-10
-1.112052152e-12
1.579959567e-09
3.087452054e-13
-2.097995794e-12
2.483908944e-09
-2.891245306e-12
3.196695716e-09
-3.204932397e-12
3.665054647e-09
-2.928792704e-12
3.841425571e-09
-2.160988497e-12
3.683664822e-09
-1.173004347e-12
3.154835454e-09
-3.249361161e-13
2.222833556e-09
8.60105999e-10
-9.618260803e-13
1.580655347e-09
2.65952076e-13
-1.82714954e-12
2.484774118e-09
-2.543043405e-12
3.197411698e-09
-2.854113486e-12
3.665365678e-09
-2.639010169e-12
3.841210429e-09
-1.957724432e-12
3.682983751e-09
-1.056710016e-12
3.153934202e-09
-2.793140014e-13
2.222056231e-09
8.59826719e-10
-9.003096632e-13
1.581307863e-09
2.476944376e-13
-1.72505043e-12
2.485598839e-09
-2.429513861e-12
3.198116248e-09
-2.765304256e-12
3.665701322e-09
-2.595954518e-12
3.841040958e-09
-1.952555791e-12
3.682340644e-09
-1.062316571e-12
3.153043816e-09
-2.751981053e-13
2.221269156e-09
8.595511745e-10
-9.203140372e-13
1.581976267e-09
2.518831046e-13
-1.779287716e-12
2.486457874e-09
-2.53617965e-12
3.198873117e-09
-2.928401836e-12
3.666093489e-09
-2.801235172e-12
3.84091343e-09
-2.15973671e-12
3.681699011e-09
-1.211408858e-12
3.152095484e-09
-3.250215552e-13
2.220382759e-09
8.592258876e-10
-1.026619164e-12
1.582723538e-09
2.793801971e-13
-2.004227643e-12
2.487435442e-09
-2.895269993e-12
3.199764042e-09
-3.398017205e-12
3.6665962e-09
-3.310477836e-12
3.840825538e-09
-2.606653444e-12
3.680994929e-09
-1.497518515e-12
3.150986306e-09
-4.139999923e-13
2.219299205e-09
8.588118853e-10
-1.221792035e-12
1.583614516e-09
3.308231207e-13
-2.40505655e-12
2.488618641e-09
-3.514185986e-12
3.200872992e-09
-4.182863107e-12
3.667264753e-09
-4.142160777e-12
3.840784846e-09
-3.32185546e-12
3.680174722e-09
-1.950986921e-12
3.149615123e-09
-5.617480699e-13
2.217909891e-09
8.582501786e-10
-1.51201928e-12
1.58471872e-09
4.077954689e-13
-2.99474202e-12
2.490101382e-09
-4.413065568e-12
3.202291268e-09
-5.307952467e-12
3.668159504e-09
-5.321098581e-12
3.840798108e-09
-4.330312125e-12
3.679184123e-09
-2.591597829e-12
3.147875991e-09
-7.751802664e-13
2.216093461e-09
8.574748742e-10
-1.902566711e-12
1.586109609e-09
5.116819759e-13
-3.783923191e-12
2.491982772e-09
-5.607925724e-12
3.204115337e-09
-6.793057716e-12
3.66934452e-09
-6.868417607e-12
3.84087347e-09
-5.649897855e-12
3.677965567e-09
-3.430522881e-12
3.145656473e-09
-1.059565896e-12
2.213722369e-09
8.564151701e-10
-2.3975716e-12
1.587863602e-09
6.435984541e-13
-4.780286482e-12
2.494365475e-09
-7.109187641e-12
3.206444184e-09
-8.648836168e-12
3.670884307e-09
-8.792263205e-12
3.841016762e-09
-7.284422834e-12
3.676457691e-09
-4.468599252e-12
3.142840659e-09
-1.414760005e-12
2.210668181e-09
8.550004157e-10
-2.9977631e-12
1.590057516e-09
8.038681797e-13
-5.984017134e-12
2.497351694e-09
-8.914276745e-12
3.209374523e-09
-1.086852678e-11
3.672838689e-09
-1.108041898e-11
3.84122845e-09
-9.218702716e-12
3.674596108e-09
-5.693174142e-12
3.139315066e-09
-1.8356142e-12
2.206810475e-09
8.53164765e-10
-3.698881401e-12
1.592764921e-09
9.914726155e-13
-7.384598591e-12
2.50103746e-09
-1.100368154e-11
3.212993836e-09
-1.342196197e-11
3.675256748e-09
-1.369407518e-11
3.841500567e-09
-1.141313768e-11
3.672315203e-09
-7.074294946e-12
3.13497609e-09
-2.310538238e-12
2.202046896e-09
8.50854103e-10
-4.490096704e-12
1.596051318e-09
1.203652295e-12
-8.957917509e-12
2.505505396e-09
-1.333639458e-11
3.217372307e-09
-1.625037019e-11
3.678170519e-09
-1.656380166e-11
3.841814178e-09
-1.380053326e-11
3.669551718e-09
-8.56387796e-12
3.12973932e-09
-2.8214234e-12
2.196304628e-09
8.48032629e-10
-5.352895609e-12
1.599968466e-09
1.435732037e-12
-1.066418111e-11
2.510816734e-09
-1.584655093e-11
3.222554602e-09
-1.926441219e-11
3.68158844e-09
-1.958805652e-11
3.842137796e-09
-1.628618122e-11
3.666249709e-09
-1.009665086e-11
3.12354981e-09
-3.343766683e-12
2.1895518e-09
8.446889458e-10
-6.26049497e-12
1.604548222e-09
1.680783888e-12
-1.244667415e-11
2.517002849e-09
-1.844330167e-11
3.22855141e-09
-2.234482287e-11
3.685490031e-09
-2.263505779e-11
3.842427865e-09
-1.875189621e-11
3.662366626e-09
-1.159398318e-11
3.116392024e-09
-3.84882395e-12
2.181806674e-09
8.408402241e-10
-7.177890042e-12
1.609796543e-09
1.929588824e-12
-1.423248557e-11
2.52405733e-09
-2.101321196e-11
3.23533231e-09
-2.534620109e-11
3.689823052e-09
-2.554964175e-11
3.842631274e-09
-2.106344478e-11
3.657880525e-09
-1.296972005e-11
3.108298305e-09
-4.306240028e-12
2.173143186e-09
8.365338995e-10
-8.062793915e-12
1.615688287e-09
2.171036676e-12
-1.593536251e-11
2.531929852e-09
-2.342485598e-11
3.242821747e-09
-2.810532454e-11
3.694503568e-09
-2.816419043e-11
3.842690194e-09
-2.308134319e-11
3.652797655e-09
-1.413797848e-11
3.099354824e-09
-4.687065232e-12
2.163692159e-09
8.318465868e-10
-8.867638322e-12
1.622163434e-09
2.392493807e-12
-1.746033501e-11
2.540522614e-09
-2.55371455e-11
3.250898429e-09
-3.045322146e-11
3.699419742e-09
-3.031227803e-11
3.842549192e-09
-2.467361081e-11
3.647158883e-09
-1.502179664e-11
3.089702917e-09
-4.966657459e-12
2.153636881e-09
8.268798605e-10
-9.542608491e-12
1.629125582e-09
2.58047317e-12
-1.871014481e-11
2.549690243e-09
-2.721050047e-11
3.259398712e-09
-3.222975785e-11
3.704439131e-09
-3.184416904e-11
3.842163439e-09
-2.572886173e-11
3.641043606e-09
-1.556094232e-11
3.079534891e-09
-5.127054379e-12
2.143202849e-09
8.217529066e-10
-1.003954538e-11
1.636443357e-09
2.721786504e-12
-1.959332687e-11
2.559244118e-09
-2.831927713e-11
3.268124615e-09
-3.329893727e-11
3.709418745e-09
-3.264197221e-11
3.841506378e-09
-2.616794388e-11
3.634569838e-09
-1.571782783e-11
3.069084668e-09
-5.158733679e-12
2.132643559e-09
8.165940869e-10
-1.031629177e-11
1.643954995e-09
2.804651063e-12
-2.003309454e-11
2.568961029e-09
-2.876443261e-11
3.276855894e-09
-3.356283934e-11
3.714216936e-09
-3.263198502e-11
3.840575501e-09
-2.595168106e-11
3.627889675e-09
-1.54807114e-11
3.05861365e-09
-5.061238859e-12
2.122223958e-09
8.115327129e-10
-1.034106602e-11
1.651476212e-09
2.819797232e-12
-1.997563265e-11
2.578595614e-09
-2.8484472e-11
3.285364651e-09
-3.297263073e-11
3.718704999e-09
-3.179231358e-11
3.839395078e-09
-2.508340456e-11
3.621180602e-09
-1.486322022e-11
3.048393346e-09
-4.842107115e-12
2.112202855e-09
8.066907112e-10
-1.009639271e-11
1.658810813e-09
2.761741918e-12
-1.939656262e-11
2.587895712e-09
-2.74628151e-11
3.293430798e-09
-3.153431881e-11
3.722776507e-09
-3.015427096e-11
3.838014891e-09
-2.360704157e-11
3.614633295e-09
-1.390117409e-11
3.038687318e-09
-4.515282259e-12
2.102816941e-09
8.021755166e-10
-9.58164984e-12
1.665762935e-09
2.629544733e-12
-1.830467448e-11
2.596618677e-09
-2.573040147e-11
3.300856478e-09
-2.930743023e-11
3.726353441e-09
-2.779739057e-11
3.83650482e-09
-2.160090439e-11
3.608436993e-09
-1.264789017e-11
3.029734276e-09
-4.099586322e-12
2.094268599e-09
7.980757789e-10
-8.813703762e-12
1.672149721e-09
2.426941721e-12
-1.674184994e-11
2.604546694e-09
-2.336281681e-11
3.307477508e-09
-2.639790054e-11
3.729388418e-09
-2.483970098e-11
3.834946646e-09
-1.916782367e-11
3.602765202e-09
-1.116788423e-11
3.021734274e-09
-3.616890577e-12
2.08671764e-09
7.944587216e-10
-7.825643761e-12
1.677813034e-09
2.162285055e-12
-1.477885665e-11
2.611499692e-09
-2.047202642e-11
3.31317075e-09
-2.2946546e-11
3.731862896e-09
-2.142470177e-11
3.833424772e-09
-1.642376948e-11
3.59776421e-09
-9.529763741e-12
3.014839972e-09
-3.090065158e-12
2.080277938e-09
7.913685456e-10
-6.663554994e-12
1.682628666e-09
1.847867068e-12
-1.250817359e-11
2.617344212e-09
-1.719452104e-11
3.317857172e-09
-1.911438332e-11
3.733782654e-09
-1.770712172e-11
3.832017411e-09
-1.348806689e-11
3.593545134e-09
-7.801822917e-12
3.009153517e-09
-2.544331204e-12
2.075020474e-09
7.888240323e-10
-5.381755518e-12
1.686511984e-09
1.498420511e-12
-1.003482377e-11
2.621997264e-09
-1.367815745e-11
3.321500659e-09
-1.506751371e-11
3.735171919e-09
-1.383970137e-11
3.830789445e-09
-1.047382039e-11
3.590179177e-09
-6.046384682e-12
3.00472614e-09
-1.998903924e-12
2.070973034e-09
7.868251388e-10
-4.037425259e-12
1.689419692e-09
1.12969835e-12
-7.465852484e-12
2.625425578e-09
-1.006824188e-11
3.324103195e-09
-1.09628427e-11
3.736066563e-09
-9.961045296e-12
3.829787567e-09
-7.478744205e-12
3.587696796e-09
-4.316886269e-12
3.001564271e-09
-1.441012526e-12
2.068097061e-09
7.853842746e-10
-2.685675177e-12
1.691348111e-09
7.572385751e-13
-4.90169406e-12
2.627641495e-09
-6.497169949e-12
3.325698737e-09
-6.93939442e-12
3.736508878e-09
-6.190568438e-12
3.829038821e-09
-4.586313061e-12
3.586092567e-09
-2.650638675e-12
2.999628508e-09
-9.110136025e-13
2.066357078e-09
7.84473265e-10
-1.375116984e-12
1.692328298e-09
3.949389229e-13
-2.429003742e-12
2.628695324e-09
-3.075343401e-12
3.326345147e-09
-3.108429494e-12
3.736542018e-09
-2.619117997e-12
3.828549554e-09
-1.859314088e-12
3.585332714e-09
-1.048756609e-12
2.998818018e-09
-4.140774019e-13
2.065722399e-09
7.840590064e-10
-1.456009436e-13
1.69241967e-09
5.423288705e-14
-1.175109815e-13
2.628667071e-09
1.091920844e-13
3.326118542e-09
4.39808181e-13
3.736211415e-09
6.738519348e-13
3.828315471e-09
6.393155971e-13
3.585367076e-09
3.91735443e-13
2.999065736e-09
4.119119499e-14
2.066073334e-09
7.841001504e-10
9.730739389e-13
1.691702814e-09
-2.562485806e-13
1.980787119e-12
2.62765918e-09
2.992252374e-12
3.325107091e-09
3.645209433e-12
3.735558461e-09
3.642005226e-12
3.828318674e-09
2.904948285e-12
3.586104172e-09
1.659734295e-12
3.000310871e-09
4.537678489e-13
2.067279628e-09
7.845539959e-10
1.960541261e-12
1.690272858e-09
-5.30607845e-13
3.830551628e-12
2.625789166e-09
5.531390204e-12
3.323406311e-09
6.468022655e-12
3.734621742e-09
6.259876382e-12
3.828526825e-09
4.900203354e-12
3.587464144e-09
2.803163045e-12
3.002407741e-09
8.218239745e-13
2.069261138e-09
7.85375812e-10
2.807583939e-12
1.688231255e-09
-7.659827361e-13
5.41779704e-12
2.623178976e-09
7.712521026e-12
3.321111714e-09
8.897517553e-12
3.733436614e-09
8.519971622e-12
3.828904219e-09
6.629474075e-12
3.589354742e-09
3.808862535e-12
3.005228404e-09
1.144702015e-12
2.071925407e-09
7.865205754e-10
3.513371749e-12
1.685679857e-09
-9.62002355e-13
6.742712698e-12
2.61994958e-09
9.538033906e-12
3.318316397e-09
1.093849475e-11
3.732036114e-09
1.042746921e-11
3.829414984e-09
8.097214547e-12
3.591684926e-09
4.667709483e-12
3.008658086e-09
1.42178957e-12
2.075171411e-09
7.879424968e-10
4.083413103e-12
1.68271648e-09
-1.120037027e-12
7.816357682e-12
2.616216665e-09
1.102382641e-11
3.315108834e-09
1.260869154e-11
3.730451256e-09
1.199844625e-11
3.830025114e-09
9.314842419e-12
3.594368598e-09
5.385167499e-12
3.012587942e-09
1.654052029e-12
2.078902554e-09
7.895965257e-10
4.527454576e-12
1.679431854e-09
-1.242765981e-12
8.656743367e-12
2.612087458e-09
1.219438847e-11
3.311571165e-09
1.393457384e-11
3.728711044e-09
1.325651889e-11
3.830703324e-09
1.029946705e-11
3.597325793e-09
5.971394958e-12
3.01691611e-09
1.852835684e-12
2.083021188e-09
7.914491256e-10
4.85773043e-12
1.675907886e-09
-1.333708227e-12
9.286118598e-12
2.607659018e-09
1.307906496e-11
3.307778247e-09
1.494739338e-11
3.726842771e-09
1.422871407e-11
3.831422199e-09
1.10698585e-11
3.600484639e-09
6.436211826e-12
3.021549688e-09
2.013041083e-12
2.087444429e-09
7.934619997e-10
5.087616535e-12
1.672216915e-09
-1.396648002e-12
9.728854425e-12
2.603017617e-09
1.370982577e-11
3.303797335e-09
1.56807906e-11
3.724871945e-09
1.494439432e-11
3.832158629e-09
1.164701079e-11
3.603781937e-09
6.790844845e-12
3.026405636e-09
2.136283945e-12
2.092099058e-09
7.955982548e-10
5.230688532e-12
1.668421588e-09
-1.435386131e-12
1.000960544e-11
2.598238611e-09
1.411901218e-11
3.299688038e-09
1.616876686e-11
3.722822304e-09
1.54334697e-11
3.832893793e-09
1.20524393e-11
3.607162971e-09
7.047218633e-12
3.031410662e-09
2.228010146e-12
2.09691826e-09
7.978262811e-10
5.300068303e-12
1.664575153e-09
-1.453654596e-12
1.015206256e-11
2.593386602e-09
1.433780211e-11
3.295502381e-09
1.644437514e-11
3.720715743e-09
1.57251048e-11
3.83361291e-09
1.230697867e-11
3.610581106e-09
7.216601964e-12
3.036500944e-09
2.292064535e-12
2.101842677e-09
8.001183091e-10
5.307932166e-12
1.66072211e-09
-1.454912032e-12
1.017835182e-11
2.588516166e-09
1.439547545e-11
3.291285195e-09
1.653890854e-11
3.718572281e-09
1.584688154e-11
3.834304815e-09
1.243053879e-11
3.613997361e-09
7.309721046e-12
3.041621777e-09
2.331664319e-12
2.106820525e-09
8.024499093e-10
5.265290889e-12
1.656899037e-09
-1.442245398e-12
1.010865214e-11
2.583672777e-09
1.43190149e-11
3.287074701e-09
1.648125283e-11
3.716410016e-09
1.582444231e-11
3.834961522e-09
1.244186322e-11
3.617379797e-09
7.336746382e-12
3.046726959e-09
2.349868806e-12
2.111807296e-09
8.047997341e-10
5.181953851e-12
1.653135456e-09
-1.418400562e-12
9.961021541e-12
2.578893658e-09
1.413268764e-11
3.282902966e-09
1.62975892e-11
3.714245083e-09
1.568132021e-11
3.835577731e-09
1.235828761e-11
3.620702719e-09
7.307289176e-12
3.051778003e-09
2.349534765e-12
2.116765131e-09
8.071492515e-10
5.066498764e-12
1.649454714e-09
-1.385792079e-12
9.751387429e-12
2.574208712e-09
1.385793141e-11
3.278796412e-09
1.601133912e-11
3.712091649e-09
1.543878792e-11
3.836150331e-09
1.219560038e-11
3.623945867e-09
7.230257228e-12
3.056743329e-09
2.333306411e-12
2.121662202e-09
8.094825541e-10
4.926320339e-12
1.645874842e-09
-1.346483058e-12
9.493552745e-12
2.569641462e-09
1.351351831e-11
3.274776443e-09
1.564322755e-11
3.709961976e-09
1.511575065e-11
3.836677886e-09
1.196797196e-11
3.627093692e-09
7.11368735e-12
3.061597536e-09
2.303664709e-12
2.126472225e-09
8.117862207e-10
4.767710637e-12
1.642409329e-09
-1.302209127e-12
9.199296162e-12
2.565209918e-09
1.311570864e-11
3.270860056e-09
1.521126939e-11
3.707866478e-09
1.47288697e-11
3.83716029e-09
1.168796917e-11
3.630134684e-09
6.964728224e-12
3.066320693e-09
2.262896552e-12
2.131173951e-09
8.14049122e-10
4.595939024e-12
1.639067831e-09
-1.254420609e-12
8.878575111e-12
2.560927365e-09
1.267831572e-11
3.267060366e-09
1.473095887e-11
3.705813865e-09
1.429268871e-11
3.837598488e-09
1.136667967e-11
3.633060759e-09
6.789729303e-12
3.070897602e-09
2.213032939e-12
2.135750549e-09
8.162621526e-10
4.415370299e-12
1.635856814e-09
-1.204316539e-12
8.539714244e-12
2.556803107e-09
1.221296739e-11
3.263387139e-09
1.421553015e-11
3.703811307e-09
1.381974996e-11
3.837994196e-09
1.101383085e-11
3.63586668e-09
6.594328565e-12
3.075317083e-09
2.155846999e-12
2.140188983e-09
8.184179764e-10
4.229601789e-12
1.632780128e-09
-1.152876382e-12
8.189606189e-12
2.552843139e-09
1.172943513e-11
3.259847295e-09
1.367619408e-11
3.701864553e-09
1.332073009e-11
3.838349622e-09
1.063781109e-11
3.638549531e-09
6.383464447e-12
3.079571364e-09
2.092905346e-12
2.144479511e-09
8.20510848e-10
4.041567148e-12
1.629839495e-09
-1.100911787e-12
7.833924861e-12
2.549050736e-09
1.123584136e-11
3.25644535e-09
1.312232362e-11
3.699978055e-09
1.280462489e-11
3.838667264e-09
1.024574303e-11
3.641108283e-09
6.161402357e-12
3.083655602e-09
2.025619711e-12
2.148615291e-09
8.225364391e-10
3.853621064e-12
1.627034946e-09
-1.049080594e-12
7.477288052e-12
2.54542696e-09
1.073880655e-11
3.253183798e-09
1.256164733e-11
3.698155133e-09
1.227898176e-11
3.838949821e-09
9.843674461e-12
3.643543454e-09
5.931806332e-12
3.08756741e-09
1.955212978e-12
2.152591945e-09
8.244916283e-10
3.667628177e-12
1.62436517e-09
-9.978873936e-13
7.123364087e-12
2.541971093e-09
1.024363424e-11
3.250063479e-09
1.200048187e-11
3.696398153e-09
1.175009175e-11
3.839200108e-09
9.436723658e-12
3.64585678e-09
5.697784696e-12
3.091306353e-09
1.882710599e-12
2.156407098e-09
8.263742889e-10
3.485033335e-12
1.6218278e-09
-9.477070439e-13
6.775009906e-12
2.538681002e-09
9.754548838e-12
3.247083886e-09
1.144395353e-11
3.694708648e-09
1.122311604e-11
3.839420923e-09
9.029114088e-12
3.648050851e-09
5.46195557e-12
3.094873513e-09
1.80901493e-12
2.160060023e-09
8.281832101e-10
3.306921246e-12
1.61941967e-09
-8.988220808e-13
6.434393847e-12
2.535553447e-09
9.27481352e-12
3.244243439e-09
1.089602035e-11
3.693087447e-09
1.070197215e-11
3.839615001e-09
8.623929621e-12
3.650128967e-09
5.226084457e-12
3.098271289e-09
1.73456303e-12
2.163551395e-09
8.299176625e-10
3.134095163e-12
1.617137009e-09
-8.514454172e-13
6.10316828e-12
2.53258432e-09
8.806952645e-12
3.241539652e-09
1.035976122e-11
3.69153472e-09
1.018980512e-11
3.839784951e-09
8.223771897e-12
3.652094954e-09
4.991747237e-12
3.101503195e-09
1.660511432e-12
2.166882415e-09
8.315780942e-10
2.967133912e-12
1.6149756e-09
-8.057284671e-13
5.782569572e-12
2.529768859e-09
8.352912826e-12
3.238969308e-09
9.83767485e-12
3.690050016e-09
9.689354626e-12
3.839933198e-09
7.8311538e-12
3.653953006e-09
4.761943869e-12
3.104572288e-09
1.587463235e-12
2.170056732e-09
8.331655096e-10
2.806462236e-12
1.612930906e-09
-7.61776357e-13
5.473534187e-12
2.527101791e-09
7.914168314e-12
3.236528658e-09
9.331637263e-12
3.688632515e-09
9.202622518e-12
3.840062135e-09
7.449558953e-12
3.655705929e-09
4.537225173e-12
3.107484529e-09
1.515253178e-12
2.17307864e-09
8.34680716e-10
2.652287893e-12
1.610998265e-09
-7.196540261e-13
5.176389441e-12
2.524577706e-09
7.491114291e-12
3.2342139e-09
8.843684531e-12
3.687279847e-09
8.733520753e-12
3.840172281e-09
7.079564007e-12
3.657359826e-09
4.317494176e-12
3.110246503e-09
1.444508896e-12
2.175951634e-09
8.361251746e-10
2.504544135e-12
1.609173047e-09
-6.793221051e-13
4.892335341e-12
2.522189916e-09
7.087156376e-12
3.232019044e-09
8.375085227e-12
3.685991836e-09
8.280792426e-12
3.840266608e-09
6.720065448e-12
3.658920563e-09
4.103943566e-12
3.112862522e-09
1.375407798e-12
2.178680191e-09
8.375005529e-10
2.364909458e-12
1.60744933e-09
-6.411805689e-13
4.621625685e-12
2.519933182e-09
6.700631533e-12
3.229940031e-09
7.924909353e-12
3.684767546e-09
7.843292602e-12
3.84034826e-09
6.372881905e-12
3.660391011e-09
3.897059878e-12
3.115338259e-09
1.308158253e-12
2.181269097e-09
8.388087253e-10
2.231694376e-12
1.605822473e-09
-6.048312144e-13
4.362732778e-12
2.517802139e-09
6.329404967e-12
3.227973392e-09
7.493414293e-12
3.683603591e-09
7.424054667e-12
3.840417618e-09
6.039093796e-12
3.661776002e-09
3.697526656e-12
3.117679777e-09
1.243057067e-12
2.183723567e-09
8.400518304e-10
2.103941242e-12
1.604288579e-09
-5.700531174e-13
4.116122189e-12
2.515789979e-09
5.976256365e-12
3.226113309e-09
7.08161575e-12
3.682498313e-09
7.022897957e-12
3.840476299e-09
5.718827381e-12
3.663080062e-09
3.505542258e-12
3.119893048e-09
1.180226778e-12
2.186048912e-09
8.41232105e-10
1.98333177e-12
1.602842461e-09
-5.372257371e-13
3.882184733e-12
2.513891154e-09
5.640421596e-12
3.224355102e-09
6.689152636e-12
3.681449665e-09
6.639803345e-12
3.840525597e-09
5.412312186e-12
3.664307507e-09
3.321365724e-12
3.121984004e-09
1.119795836e-12
2.188250532e-09
8.423519019e-10
1.869048681e-12
1.601479524e-09
-5.061257659e-13
3.660292321e-12
2.512099933e-09
5.321459712e-12
3.222693935e-09
6.3157862e-12
3.680455408e-09
6.274701758e-12
3.840566636e-09
5.119648968e-12
3.66546252e-09
3.145131355e-12
3.12395853e-09
1.061810131e-12
2.190333873e-09
8.434136487e-10
1.760961877e-12
1.600195291e-09
-4.767389758e-13
3.45019287e-12
2.510410728e-09
5.019067191e-12
3.221125055e-09
5.961248112e-12
3.67951326e-09
5.927438125e-12
3.840600416e-09
4.840810239e-12
3.66654915e-09
2.976865149e-12
3.125822433e-09
1.006282933e-12
2.192304407e-09
8.444198335e-10
1.658845377e-12
1.598985429e-09
-4.48984966e-13
3.2515165e-12
2.50881808e-09
4.732805259e-12
3.219643769e-09
5.625150143e-12
3.678620892e-09
5.597731544e-12
3.840627812e-09
4.575624254e-12
3.66757129e-09
2.816524461e-12
3.127581425e-09
9.532328863e-13
2.194167602e-09
8.45372981e-10
1.562485117e-12
1.597845746e-09
-4.228003468e-13
3.063885289e-12
2.507316674e-09
4.462184052e-12
3.218245468e-09
5.307036891e-12
3.677775973e-09
5.285216294e-12
3.8406496e-09
4.323850608e-12
3.668532691e-09
2.664043861e-12
3.129241105e-09
9.026882159e-13
2.195928882e-09
8.462756192e-10
1.471654453e-12
1.596772205e-09
-3.981255169e-13
2.886903629e-12
2.505901382e-09
4.206671107e-12
3.21692568e-09
5.00637675e-12
3.676976203e-09
4.989444582e-12
3.840666476e-09
4.085195129e-12
3.669436959e-09
2.519313574e-12
3.130806918e-09
8.546323167e-13
2.197593536e-09
8.471302381e-10
1.386129004e-12
1.595760953e-09
-3.749018476e-13
2.720159141e-12
2.504567286e-09
3.96570938e-12
3.215680089e-09
4.722550278e-12
3.676219331e-09
4.709883255e-12
3.840679069e-09
3.859306044e-12
3.670287543e-09
2.382131237e-12
3.132284096e-09
8.090029927e-13
2.199166673e-09
8.479392532e-10
1.30567524e-12
1.594808312e-09
-3.530650904e-13
2.563208774e-12
2.50330969e-09
3.738696394e-12
3.21450455e-09
4.454858787e-12
3.675503159e-09
4.445917648e-12
3.840687941e-09
3.645741292e-12
3.671087707e-09
2.252231281e-12
3.133677638e-09
7.657234297e-13
2.200653215e-09
8.487050015e-10
1.230043478e-12
1.593910789e-09
-3.325501124e-13
2.415575301e-12
2.502124118e-09
3.524976999e-12
3.213395097e-09
4.202554184e-12
3.674825557e-09
4.196865011e-12
3.840693588e-09
3.443989477e-12
3.671840541e-09
2.129333867e-12
3.134992322e-09
7.247219079e-13
2.202057899e-09
8.494297419e-10
1.158971244e-12
1.593065082e-09
-3.1328676e-13
2.276756474e-12
2.50100633e-09
3.32384684e-12
3.212347955e-09
3.964871666e-12
3.674184492e-09
3.96199222e-12
3.840696466e-09
3.253505001e-12
3.672548976e-09
2.013148864e-12
3.136232711e-09
6.858988402e-13
2.20338525e-09
8.501156446e-10
1.092190611e-12
1.59226808e-09
-2.951926659e-13
2.146229721e-12
2.499952315e-09
3.134590161e-12
3.211359559e-09
3.741019902e-12
3.673578037e-09
3.740532038e-12
3.840696997e-09
3.073714083e-12
3.673215791e-09
1.903334581e-12
3.137403111e-09
6.491239565e-13
2.204639543e-09
8.507647599e-10
1.029430934e-12
1.591516849e-09
-2.781821592e-13
2.023476582e-12
2.498958299e-09
2.956492846e-12
3.210426548e-09
3.530184965e-12
3.673004361e-09
3.531698919e-12
3.840695555e-09
2.903979086e-12
3.673843577e-09
1.799505719e-12
3.138507568e-09
6.142662015e-13
2.205824808e-09
8.513790187e-10
9.704268286e-13
1.590808636e-09
-2.621846291e-13
1.908002286e-12
2.498020734e-09
2.788847054e-12
3.20954575e-09
3.331546866e-12
3.67246172e-09
3.334707098e-12
3.840692455e-09
2.743636285e-12
3.674434733e-09
1.701284614e-12
3.139549885e-09
5.812307333e-13
2.206944856e-09
8.519602553e-10
9.149261887e-13
1.590140874e-09
-2.471430958e-13
1.799339269e-12
2.497136312e-09
2.630957466e-12
3.208714189e-09
3.144300129e-12
3.671948465e-09
3.148793648e-12
3.840687977e-09
2.5920783e-12
3.674991496e-09
1.60833302e-12
3.140533636e-09
5.499407628e-13
2.208003275e-09
8.525101998e-10
8.626908546e-13
1.589511184e-09
-2.330001483e-13
1.697028353e-12
2.496301957e-09
2.482161298e-12
3.207929093e-09
2.967662274e-12
3.671463062e-09
2.973235385e-12
3.840682388e-09
2.448775213e-12
3.675515958e-09
1.520326871e-12
3.141462139e-09
5.202782427e-13
2.20900339e-09
8.530304566e-10
8.134923665e-13
1.588917364e-09
-2.196896133e-13
1.600621981e-12
2.495514816e-09
2.341831614e-12
3.207187892e-09
2.800890003e-12
3.671004081e-09
2.807331508e-12
3.840675942e-09
2.313206141e-12
3.676010058e-09
1.436924641e-12
3.142338449e-09
4.920942412e-13
2.209948263e-09
8.535225039e-10