/*--------------------------------*- C++ -*----------------------------------*\
| =========                 |                                                 |
| \\      /  F ield         | OpenFOAM: The Open Source CFD Toolbox           |
|  \\    /   O peration     | Version:  2212                                  |
|   \\  /    A nd           | Website:  www.openfoam.com                      |
|    \\/     M anipulation  |                                                 |
\*---------------------------------------------------------------------------*/
FoamFile
{
    version     2.0;
    format      ascii;
    arch        "LSB;label=32;scalar=64";
    class       surfaceScalarField;
    location    "18.25000000";
    object      phi_0;
}
// * * * * * * * * * * * * * * * * * * * * * * * * * * * * * * * * * * * * * //

dimensions      [1 0 -1 0 0 0 0];

oriented        oriented;

internalField   nonuniform List<scalar> 
5690
(
-5.460889521e-11
8.582881606e-10
1.326413139e-11
-1.34042803e-10
1.4211067e-09
-2.672967595e-10
1.983803301e-09
-4.773656694e-10
2.554012928e-09
-7.878106784e-10
3.132662935e-09
-1.196377313e-09
3.694292228e-09
-1.608035189e-09
4.14646911e-09
-1.625462157e-09
4.187244947e-09
2.965611537e-09
-1.155728065e-10
9.453922932e-10
2.846895247e-11
-2.664617225e-10
1.57199592e-09
-4.849651808e-10
2.202307007e-09
-7.65337749e-10
2.834385883e-09
-1.074854161e-09
3.442178862e-09
-1.325107622e-09
3.944545899e-09
-1.355359766e-09
4.176720774e-09
-9.122784415e-10
3.744163488e-09
2.053333037e-09
-1.516249607e-10
1.058800516e-09
3.821649997e-11
-3.350420327e-10
1.755412818e-09
-5.765493789e-10
2.443814332e-09
-8.449561232e-10
3.102792571e-09
-1.077803974e-09
3.67502688e-09
-1.178632419e-09
4.045374087e-09
-1.024122966e-09
4.022211579e-09
-5.50799002e-10
3.270839671e-09
1.502533954e-09
-1.483008186e-10
1.169042311e-09
3.805898721e-11
-3.174588981e-10
1.924571195e-09
-5.214221275e-10
2.647777793e-09
-7.180456798e-10
3.299415844e-09
-8.459788907e-10
3.802960382e-09
-8.314208893e-10
4.030815547e-09
-6.200882189e-10
3.810878979e-09
-2.73103207e-10
2.923854281e-09
1.229430792e-09
-1.315446456e-10
1.2663365e-09
3.425068205e-11
-2.742965108e-10
2.067323011e-09
-4.335106382e-10
2.806991995e-09
-5.673757889e-10
3.43328063e-09
-6.263127172e-10
3.861897643e-09
-5.680205377e-10
3.972523252e-09
-3.842072529e-10
3.627065345e-09
-1.472886897e-10
2.686935328e-09
1.082141813e-09
-1.07020201e-10
1.345077696e-09
2.827859173e-11
-2.180842985e-10
2.178387237e-09
-3.335242127e-10
2.922432157e-09
-4.182748464e-10
3.518030883e-09
-4.378768992e-10
3.881499595e-09
-3.729825621e-10
3.90762901e-09
-2.348743882e-10
3.48895728e-09
-8.197993272e-11
2.534040791e-09
1.000161787e-09
-8.367828425e-11
1.406405104e-09
2.235057534e-11
-1.674010236e-10
2.262109863e-09
-2.493286749e-10
3.004359756e-09
-3.023534687e-10
3.571055417e-09
-3.040896935e-10
3.88323547e-09
-2.473637478e-10
3.850902924e-09
-1.479496608e-10
3.389543127e-09
-4.784184144e-11
2.433932962e-09
9.523199044e-10
-6.330959571e-11
1.45262479e-09
1.709017149e-11
-1.246604742e-10
2.323460594e-09
-1.816441176e-10
3.061343059e-09
-2.144022418e-10
3.603813714e-09
-2.090609843e-10
3.877894071e-09
-1.644888373e-10
3.806330803e-09
-9.524615907e-11
3.32030058e-09
-2.981864065e-11
2.368504837e-09
9.225012351e-10
-4.711929752e-11
1.486928325e-09
1.281581751e-11
-9.163467489e-11
2.36797579e-09
-1.312419387e-10
3.100950094e-09
-1.517325074e-10
3.62430434e-09
-1.44593486e-10
3.870755114e-09
-1.110697926e-10
3.772807205e-09
-6.279952028e-11
3.272030438e-09
-1.901318802e-11
2.324718189e-09
9.034877471e-10
-3.466892725e-11
1.512101351e-09
9.49576239e-12
-6.673409799e-11
2.400040796e-09
-9.428358553e-11
3.128499442e-09
-1.072939563e-10
3.637314663e-09
-1.00558799e-10
3.864019815e-09
-7.603126377e-11
3.748279353e-09
-4.246342557e-11
3.238462656e-09
-1.279340948e-11
2.295048275e-09
8.906941632e-10
-2.53852259e-11
1.530500143e-09
6.986324096e-12
-4.84881992e-11
2.423143768e-09
-6.780626375e-11
3.147817747e-09
-7.627529829e-11
3.645783362e-09
-7.065145745e-11
3.858395986e-09
-5.28408116e-11
3.730468551e-09
-2.924216116e-11
3.214863781e-09
-8.710549339e-12
2.274516739e-09
8.819837592e-10
-1.855584557e-11
1.54392778e-09
5.128171562e-12
-3.523123089e-11
2.439819007e-09
-4.889373088e-11
3.161480194e-09
-5.455094528e-11
3.651440462e-09
-5.013819196e-11
3.853983319e-09
-3.726822013e-11
3.717598972e-09
-2.056496212e-11
3.198160197e-09
-6.152311398e-12
2.260104115e-09
8.758314573e-10
-1.357787714e-11
1.553743224e-09
3.762430654e-12
-2.567075797e-11
2.451911849e-09
-3.543639157e-11
3.171245796e-09
-3.931821344e-11
3.655322284e-09
-3.595903581e-11
3.850623924e-09
-2.662999737e-11
3.70827018e-09
-1.466489591e-11
3.1861951e-09
-4.379887605e-12
2.249818937e-09
8.714514806e-10
-9.962740097e-12
1.560939414e-09
2.766577313e-12
-1.877866852e-11
2.460727985e-09
-2.582961519e-11
3.178296814e-09
-2.856008157e-11
3.658052744e-09
-2.604994274e-11
3.848113435e-09
-1.926751974e-11
3.701487639e-09
-1.062133224e-11
3.177549118e-09
-3.190487261e-12
2.242387971e-09
8.682609824e-10
-7.337991114e-12
1.566237347e-09
2.04008245e-12
-1.380488372e-11
2.467195092e-09
-1.894687728e-11
3.183438585e-09
-2.090879873e-11
3.660014706e-09
-1.904664571e-11
3.846251133e-09
-1.408362871e-11
3.69652455e-09
-7.770072281e-12
3.171235691e-09
-2.335641382e-12
2.23695377e-09
8.659252861e-10
-5.430379107e-12
1.570156731e-09
1.511067609e-12
-1.020412585e-11
2.471969049e-09
-1.39884213e-11
3.187222668e-09
-1.5424221e-11
3.661450308e-09
-1.404834678e-11
3.844875316e-09
-1.039744078e-11
3.692873728e-09
-5.751479343e-12
3.166589679e-09
-1.727367431e-12
2.232929936e-09
8.641976952e-10
-4.040334549e-12
1.573072453e-09
1.124665836e-12
-7.587827428e-12
2.475516853e-09
-1.039680508e-11
3.190031613e-09
-1.146174631e-11
3.66251493e-09
-1.044125833e-11
3.843855006e-09
-7.73239824e-12
3.690164958e-09
-4.280071592e-12
3.163137148e-09
-1.277452873e-12
2.229927019e-09
8.629201085e-10
-3.02545404e-12
1.575255632e-09
8.422461683e-13
-5.680559967e-12
2.478172183e-09
-7.78220285e-12
3.192133175e-09
-8.577800973e-12
3.663310443e-09
-7.810825799e-12
3.843088035e-09
-5.774050956e-12
3.688128263e-09
-3.177258938e-12
3.16054008e-09
-9.480086303e-13
2.227697234e-09
8.619720082e-10
-2.28523587e-12
1.576904791e-09
6.360633188e-13
-4.291317805e-12
2.480178273e-09
-5.879597772e-12
3.193721397e-09
-6.479784352e-12
3.663910636e-09
-5.895225783e-12
3.842503175e-09
-4.343506288e-12
3.686576509e-09
-2.365945991e-12
3.158562383e-09
-6.862445231e-13
2.226017293e-09
8.612855559e-10
-1.74936141e-12
1.578167381e-09
4.867621774e-13
-3.28677706e-12
2.481715708e-09
-4.506085684e-12
3.194940728e-09
-4.967931375e-12
3.664372462e-09
-4.517194823e-12
3.842052254e-09
-3.317069596e-12
3.685376148e-09
-1.785927031e-12
3.15703116e-09
-4.806169777e-13
2.224711794e-09
8.60804909e-10
-1.369579254e-12
1.579156185e-09
3.807400371e-13
-2.57660655e-12
2.482922916e-09
-3.538352548e-12
3.195902382e-09
-3.906720972e-12
3.6647409e-09
-3.555893344e-12
3.8417015e-09
-2.612353143e-12
3.684432498e-09
-1.404545801e-12
3.15582319e-09
-3.743880475e-13
2.223681435e-09
8.604305111e-10
-1.111972821e-12
1.579959536e-09
3.086732148e-13
-2.097803296e-12
2.483908881e-09
-2.89119551e-12
3.196695618e-09
-3.204879559e-12
3.665054544e-09
-2.928731474e-12
3.841425435e-09
-2.160693939e-12
3.68366468e-09
-1.172907697e-12
3.15483516e-09
-3.247777081e-13
2.222833198e-09
8.601054783e-10
-9.617387117e-13
1.580655348e-09
2.659937838e-13
-1.826998142e-12
2.484774084e-09
-2.542934129e-12
3.197411574e-09
-2.854103261e-12
3.665365485e-09
-2.63892271e-12
3.841210227e-09
-1.957693552e-12
3.68298351e-09
-1.056616351e-12
3.153933845e-09
-2.793590252e-13
2.222055769e-09
8.598260968e-10
-9.002742153e-13
1.581307821e-09
2.477286781e-13
-1.725016995e-12
2.485598759e-09
-2.429475458e-12
3.198116112e-09
-2.765225795e-12
3.6657011e-09
-2.59588228e-12
3.841040626e-09
-1.95269079e-12
3.68234021e-09
-1.062281287e-12
3.153043449e-09
-2.754357499e-13
2.221268802e-09
8.595508612e-10
-9.203159539e-13
1.581976194e-09
2.518634031e-13
-1.779281757e-12
2.486457757e-09
-2.536255405e-12
3.19887295e-09
-2.928404221e-12
3.666093298e-09
-2.801260235e-12
3.840913184e-09
-2.159628169e-12
3.681698785e-09
-1.211258149e-12
3.152095284e-09
-3.250018352e-13
2.22038256e-09
8.592257239e-10
-1.026613356e-12
1.582723468e-09
2.793660366e-13
-2.004229212e-12
2.487435334e-09
-2.89530903e-12
3.199763886e-09
-3.398066962e-12
3.66659609e-09
-3.3103837e-12
3.840825518e-09
-2.606446128e-12
3.680994952e-09
-1.497312091e-12
3.150986198e-09
-4.137232109e-13
2.219299016e-09
8.588115832e-10
-1.221764005e-12
1.583614455e-09
3.307862797e-13
-2.405062489e-12
2.488618566e-09
-3.514056997e-12
3.200872952e-09
-4.182751223e-12
3.667264722e-09
-4.141966868e-12
3.840784839e-09
-3.321913116e-12
3.680174642e-09
-1.950866026e-12
3.149615005e-09
-5.615940305e-13
2.217909711e-09
8.582498334e-10
-1.511968818e-12
1.584718698e-09
4.076924796e-13
-2.994618003e-12
2.49010136e-09
-4.412907916e-12
3.202291303e-09
-5.307792505e-12
3.668159519e-09
-5.321063669e-12
3.84079804e-09
-4.330408242e-12
3.679183961e-09
-2.591522072e-12
3.147875912e-09
-7.752928596e-13
2.216093351e-09
8.574747318e-10
-1.902509998e-12
1.586109669e-09
5.116284276e-13
-3.78367227e-12
2.491982825e-09
-5.607839071e-12
3.204115392e-09
-6.793044109e-12
3.669344598e-09
-6.868572494e-12
3.840873462e-09
-5.649788414e-12
3.677965564e-09
-3.430455651e-12
3.145656446e-09
-1.059620126e-12
2.213722348e-09
8.564151918e-10
-2.397572737e-12
1.587863708e-09
6.436992472e-13
-4.780059379e-12
2.494365587e-09
-7.109093702e-12
3.206444296e-09
-8.649006412e-12
3.670884351e-09
-8.792399805e-12
3.841016818e-09
-7.284389672e-12
3.676457804e-09
-4.468466568e-12
3.142840698e-09
-1.414560678e-12
2.210668225e-09
8.550003688e-10
-2.9978523e-12
1.590057578e-09
8.040157798e-13
-5.983858158e-12
2.497351794e-09
-8.91435989e-12
3.20937459e-09
-1.086867948e-11
3.672838649e-09
-1.108044946e-11
3.841228497e-09
-9.218869926e-12
3.67459615e-09
-5.692988055e-12
3.139315104e-09
-1.835430297e-12
2.206810458e-09
8.531645699e-10
-3.698975649e-12
1.592764918e-09
9.915767636e-13
-7.38458576e-12
2.501037472e-09
-1.100397827e-11
3.212993752e-09
-1.342193401e-11
3.675256702e-09
-1.369412659e-11
3.841500514e-09
-1.141330105e-11
3.672315093e-09
-7.074186631e-12
3.134976029e-09
-2.310570571e-12
2.202046777e-09
8.508538459e-10
-4.490149511e-12
1.596051263e-09
1.203769249e-12
-8.958123884e-12
2.505505297e-09
-1.33365439e-11
3.217372177e-09
-1.625035657e-11
3.678170434e-09
-1.656393502e-11
3.841813979e-09
-1.380053588e-11
3.669551521e-09
-8.563845147e-12
3.129739178e-09
-2.821609977e-12
2.196304448e-09
8.480323602e-10
-5.3529567e-12
1.599968341e-09
1.435797962e-12
-1.066440646e-11
2.510816546e-09
-1.584651688e-11
3.222554468e-09
-1.926459623e-11
3.681588262e-09
-1.958812543e-11
3.842137573e-09
-1.628602111e-11
3.666249495e-09
-1.00966425e-11
3.123549545e-09
-3.343990936e-12
2.189551458e-09
8.446885537e-10
-6.260543279e-12
1.604548059e-09
1.68071465e-12
-1.244669745e-11
2.517002634e-09
-1.844328437e-11
3.228551181e-09
-2.234502939e-11
3.685489793e-09
-2.263505496e-11
3.842427652e-09
-1.875179904e-11
3.66236633e-09
-1.159402763e-11
3.116391541e-09
-3.848966684e-12
2.181806062e-09
8.408395548e-10
-7.177851513e-12
1.609796414e-09
1.929508247e-12
-1.423240502e-11
2.52405714e-09
-2.101313113e-11
3.235331999e-09
-2.53462684e-11
3.689822709e-09
-2.554973556e-11
3.842630887e-09
-2.106364128e-11
3.65788002e-09
-1.296984403e-11
3.108297687e-09
-4.306285273e-12
2.173142444e-09
8.36533074e-10
-8.06270244e-12
1.615688169e-09
2.171008943e-12
-1.593535552e-11
2.531929649e-09
-2.342469849e-11
3.242821415e-09
-2.810534166e-11
3.694503106e-09
-2.816438912e-11
3.842689573e-09
-2.3081621e-11
3.652796965e-09
-1.413814643e-11
3.099354176e-09
-4.68706845e-12
2.163691469e-09
8.318458655e-10
-8.867565583e-12
1.622163277e-09
2.392427169e-12
-1.746038519e-11
2.540522355e-09
-2.553707912e-11
3.250898066e-09
-3.04533623e-11
3.699419221e-09
-3.031242619e-11
3.842548522e-09
-2.467361727e-11
3.647158184e-09
-1.502185448e-11
3.089702223e-09
-4.966551247e-12
2.153636189e-09
8.268791312e-10
-9.542545109e-12
1.629125411e-09
2.580386752e-12
-1.871019186e-11
2.549689965e-09
-2.721057264e-11
3.259398287e-09
-3.222998532e-11
3.704438559e-09
-3.184416481e-11
3.842162839e-09
-2.572868365e-11
3.641042986e-09
-1.556076876e-11
3.079534177e-09
-5.126888012e-12
2.143202041e-09
8.217519694e-10
-1.003946151e-11
1.636443172e-09
2.721725395e-12
-1.959344745e-11
2.559243812e-09
-2.831942203e-11
3.268124153e-09
-3.329900086e-11
3.709418171e-09
-3.264181869e-11
3.841505805e-09
-2.61678034e-11
3.634569208e-09
-1.571757725e-11
3.06908397e-09
-5.158676912e-12
2.132642707e-09
8.165931546e-10
-1.031619928e-11
1.643954778e-09
2.804554922e-12
-2.003328081e-11
2.568960654e-09
-2.876455125e-11
3.276855449e-09
-3.356268213e-11
3.71421646e-09
-3.263177469e-11
3.840574943e-09
-2.595151788e-11
3.627889032e-09
-1.548052896e-11
3.058612955e-09
-5.061144117e-12
2.122223165e-09
8.115319269e-10
-1.034100547e-11
1.651476009e-09
2.819689965e-12
-1.997569452e-11
2.578595258e-09
-2.848443363e-11
3.285364265e-09
-3.297245455e-11
3.718704589e-09
-3.179211008e-11
3.839394577e-09
-2.508318039e-11
3.621180044e-09
-1.486301616e-11
3.048392689e-09
-4.841826637e-12
2.112202076e-09
8.06689849e-10
-1.009637055e-11
1.658810655e-09
2.76170655e-12
-1.939643568e-11
2.587895439e-09
-2.746264701e-11
3.293430461e-09
-3.153417037e-11
3.722776064e-09
-3.015404163e-11
3.83801439e-09
-2.360687357e-11
3.614632721e-09
-1.390098138e-11
3.038686637e-09
-4.515081238e-12
2.102816072e-09
8.021744961e-10
-9.581639611e-12
1.665762772e-09
2.629545787e-12
-1.830446505e-11
2.596618389e-09
-2.573026518e-11
3.300856099e-09
-2.930723262e-11
3.726352946e-09
-2.779718285e-11
3.836504211e-09
-2.160079811e-11
3.608436208e-09
-1.264781511e-11
3.029733366e-09
-4.099640596e-12
2.094267527e-09
7.980746612e-10
-8.813713027e-12
1.672149537e-09
2.426950941e-12
-1.674161202e-11
2.604546365e-09
-2.336270602e-11
3.307477055e-09
-2.639774417e-11
3.729387864e-09
-2.483968046e-11
3.834945924e-09
-1.916775803e-11
3.602764289e-09
-1.116782521e-11
3.021733167e-09
-3.616993793e-12
2.086716374e-09
7.94457456e-10
-7.825678143e-12
1.677812869e-09
2.162347331e-12
-1.477863914e-11
2.611499412e-09
-2.047188573e-11
3.31317031e-09
-2.294651636e-11
3.731862281e-09
-2.142484698e-11
3.83342401e-09
-1.642386205e-11
3.597763333e-09
-9.529657388e-12
3.014838943e-09
-3.090107196e-12
2.08027669e-09
7.913672374e-10
-6.663578723e-12
1.682628509e-09
1.847956647e-12
-1.250806573e-11
2.617343939e-09
-1.719449402e-11
3.317856753e-09
-1.911440882e-11
3.733782048e-09
-1.77072766e-11
3.832016654e-09
-1.348824964e-11
3.59354427e-09
-7.801805626e-12
3.009152565e-09
-2.544400096e-12
2.075019286e-09
7.888228544e-10
-5.381784865e-12
1.686511794e-09
1.498513408e-12
-1.003479513e-11
2.621996906e-09
-1.36782748e-11
3.321500173e-09
-1.506760809e-11
3.735171331e-09
-1.38398527e-11
3.830788705e-09
-1.047396544e-11
3.590178299e-09
-6.046515736e-12
3.004725092e-09
-1.998909562e-12
2.070971779e-09
7.868239523e-10
-4.037512332e-12
1.689419454e-09
1.129834974e-12
-7.465816936e-12
2.625425168e-09
-1.006832625e-11
3.324102629e-09
-1.096303274e-11
3.73606589e-09
-9.961242107e-12
3.829786777e-09
-7.478995287e-12
3.587695876e-09
-4.3170686e-12
3.00156319e-09
-1.440862653e-12
2.068095773e-09
7.853830158e-10
-2.685782008e-12
1.691347812e-09
7.573676677e-13
-4.901661381e-12
2.627641017e-09
-6.4971903e-12
3.325698088e-09
-6.93958651e-12
3.736508062e-09
-6.190783469e-12
3.829037877e-09
-4.586628422e-12
3.586091548e-09
-2.65082858e-12
2.999627495e-09
-9.109079082e-13
2.066355964e-09
7.844721195e-10
-1.375195555e-12
1.692327949e-09
3.950002306e-13
-2.428957449e-12
2.628694745e-09
-3.075367624e-12
3.326344399e-09
-3.108582184e-12
3.736541123e-09
-2.619234928e-12
3.82854854e-09
-1.85933133e-12
3.585331625e-09
-1.048741391e-12
2.998816959e-09
-4.141729159e-13
2.065721277e-09
7.840579543e-10
-1.456725868e-13
1.69241932e-09
5.427908219e-14
-1.174020598e-13
2.628666488e-09
1.092402844e-13
3.326117759e-09
4.397395628e-13
3.736210522e-09
6.738346961e-13
3.828314509e-09
6.396512447e-13
3.585366044e-09
3.920145799e-13
2.999064513e-09
4.112766364e-14
2.066071934e-09
7.84098901e-10
9.730126938e-13
1.691702489e-09
-2.56197098e-13
1.980900648e-12
2.627658672e-09
2.992447103e-12
3.325106378e-09
3.64530955e-12
3.735557564e-09
3.642106876e-12
3.828317692e-09
2.905159711e-12
3.586103095e-09
1.660114783e-12
3.000309546e-09
4.538984542e-13
2.06727803e-09
7.84552502e-10
1.960540398e-12
1.690272544e-09
-5.306161645e-13
3.830624443e-12
2.625788651e-09
5.531556379e-12
3.323405612e-09
6.468269484e-12
3.734620801e-09
6.260063965e-12
3.828525693e-09
4.900201702e-12
3.587462878e-09
2.803394226e-12
3.002406355e-09
8.219895344e-13
2.069259465e-09
7.853742549e-10
2.807609977e-12
1.688230956e-09
-7.66011711e-13
5.4178776e-12
2.623178433e-09
7.712549591e-12
3.321110952e-09
8.897720838e-12
3.733435659e-09
8.520203461e-12
3.828903013e-09
6.629572813e-12
3.589353366e-09
3.808964662e-12
3.005226896e-09
1.144824155e-12
2.071923634e-09
7.865189451e-10
3.513358626e-12
1.685679573e-09
-9.619470461e-13
6.742760278e-12
2.619949065e-09
9.538048395e-12
3.318315633e-09
1.093853378e-11
3.732035144e-09
1.042769541e-11
3.829413813e-09
8.097418387e-12
3.591683547e-09
4.667764543e-12
3.008656457e-09
1.421819046e-12
2.075169484e-09
7.879407122e-10
4.083363972e-12
1.682716161e-09
-1.119940371e-12
7.81629851e-12
2.616216111e-09
1.102381644e-11
3.315108042e-09
1.260866972e-11
3.730450252e-09
1.199857341e-11
3.830023938e-09
9.31492279e-12
3.594367145e-09
5.385145315e-12
3.012586199e-09
1.653907336e-12
2.078900521e-09
7.895946701e-10
4.527396134e-12
1.67943146e-09
-1.242719233e-12
8.656616207e-12
2.612086783e-09
1.219435567e-11
3.311570279e-09
1.393457053e-11
3.728709978e-09
1.325640747e-11
3.83070204e-09
1.02993743e-11
3.597324226e-09
5.971325448e-12
3.016914283e-09
1.852596345e-12
2.083019094e-09
7.914473174e-10
4.857674156e-12
1.675907452e-09
-1.333678217e-12
9.286046133e-12
2.607658279e-09
1.307910371e-11
3.307777289e-09
1.494734112e-11
3.726841617e-09
1.422839401e-11
3.831420812e-09
1.106968079e-11
3.600483053e-09
6.436143574e-12
3.021547847e-09
2.012941053e-12
2.087442324e-09
7.934601959e-10
5.087571175e-12
1.672216475e-09
-1.396610706e-12
9.728880277e-12
2.603016889e-09
1.370993086e-11
3.303796364e-09
1.568067892e-11
3.724870719e-09
1.49440707e-11
3.832157184e-09
1.164676001e-11
3.603780344e-09
6.790793031e-12
3.026403813e-09
2.136338802e-12
2.09209694e-09
7.955964145e-10
5.230684282e-12
1.66842115e-09
-1.435385238e-12
1.000969435e-11
2.598237887e-09
1.411907124e-11
3.29968705e-09
1.616864842e-11
3.722821035e-09
1.543326339e-11
3.832892318e-09
1.205217477e-11
3.607161327e-09
7.047126149e-12
3.03140883e-09
2.22810334e-12
2.096916148e-09
7.978244463e-10
5.300105422e-12
1.664574737e-09
-1.453690897e-12
1.015217142e-11
2.593385892e-09
1.433777746e-11
3.295501378e-09
1.644429132e-11
3.7207145e-09
1.572498214e-11
3.83361145e-09
1.230681682e-11
3.610579466e-09
7.216505948e-12
3.036499154e-09
2.292137253e-12
2.101840641e-09
8.001165589e-10
5.307983158e-12
1.660721737e-09
-1.454943621e-12
1.017841105e-11
2.588515507e-09
1.439546267e-11
3.291284257e-09
1.653882449e-11
3.718571123e-09
1.584682344e-11
3.834303452e-09
1.24305612e-11
3.613995834e-09
7.30968836e-12
3.041620087e-09
2.331724769e-12
2.106818613e-09
8.024482503e-10
5.265327451e-12
1.656898703e-09
-1.442263044e-12
1.010865173e-11
2.583672174e-09
1.431902794e-11
3.287073864e-09
1.64811642e-11
3.716408972e-09
1.582445474e-11
3.8349603e-09
1.244201373e-11
3.617378399e-09
7.336818146e-12
3.046725341e-09
2.349866383e-12
2.111805427e-09
8.047981041e-10
5.18196055e-12
1.653135147e-09
-1.418416293e-12
9.961006462e-12
2.578893106e-09
1.413269586e-11
3.282902204e-09
1.629751765e-11
3.714244123e-09
1.568133505e-11
3.835576605e-09
1.235842454e-11
3.620701378e-09
7.307398337e-12
3.051776382e-09
2.349461709e-12
2.116763219e-09
8.071476275e-10
5.066488769e-12
1.649454423e-09
-1.385789007e-12
9.751368969e-12
2.574208188e-09
1.385791406e-11
3.278795672e-09
1.6011286e-11
3.712090711e-09
1.543870418e-11
3.836149192e-09
1.219560163e-11
3.623944519e-09
7.23031618e-12
3.056741704e-09
2.333273616e-12
2.121660296e-09
8.094809807e-10
4.926296089e-12
1.645874545e-09
-1.346452369e-12
9.493500952e-12
2.569640924e-09
1.351346748e-11
3.274775686e-09
1.564312488e-11
3.709960993e-09
1.511559287e-11
3.836676696e-09
1.196784914e-11
3.62709234e-09
7.11370525e-12
3.061595973e-09
2.303761278e-12
2.126470417e-09
8.117847282e-10
4.767660817e-12
1.642409004e-09
-1.302167506e-12
9.199219834e-12
2.565209338e-09
1.311558204e-11
3.270859253e-09
1.521111768e-11
3.707865453e-09
1.472875043e-11
3.837159093e-09
1.168785406e-11
3.630133359e-09
6.964764755e-12
3.066319206e-09
2.263072532e-12
2.131172232e-09
8.140476674e-10
4.595872846e-12
1.639067477e-09
-1.254383926e-12
8.878493205e-12
2.56092675e-09
1.267814653e-11
3.267059523e-09
1.473082924e-11
3.705812841e-09
1.429267345e-11
3.837597322e-09
1.136667309e-11
3.633059454e-09
6.789801029e-12
3.07089613e-09
2.213167833e-12
2.135748838e-09
8.162606938e-10
4.415318015e-12
1.635856442e-09
-1.204292346e-12
8.539638611e-12
2.55680247e-09
1.221285462e-11
3.263386287e-09
1.421547822e-11
3.703810305e-09
1.38198078e-11
3.837993055e-09
1.101393046e-11
3.635865382e-09
6.594424242e-12
3.075315602e-09
2.155903309e-12
2.140187271e-09
8.184165465e-10
4.229581827e-12
1.632779752e-09
-1.152889838e-12
8.189575534e-12
2.552842504e-09
1.172944242e-11
3.259846476e-09
1.367622038e-11
3.701863589e-09
1.332081687e-11
3.838348519e-09
1.06379883e-11
3.638548287e-09
6.383606736e-12
3.079569943e-09
2.092942394e-12
2.144477876e-09
8.205095004e-10
4.041590409e-12
1.629839149e-09
-1.100973379e-12
7.833990793e-12
2.549050153e-09
1.123596068e-11
3.256444604e-09
1.312242073e-11
3.699977169e-09
1.280476059e-11
3.838666262e-09
1.024598854e-11
3.641107164e-09
6.161614306e-12
3.083654296e-09
2.025663499e-12
2.148613748e-09
8.225351608e-10
3.853690965e-12
1.627034664e-09
-1.049159237e-12
7.477452373e-12
2.545426471e-09
1.073900618e-11
3.253183155e-09
1.256183049e-11
3.698154365e-09
1.227918987e-11
3.83894895e-09
9.843931622e-12
3.64354245e-09
5.93202517e-12
3.087566165e-09
1.955240525e-12
2.152590419e-09
8.244903626e-10
3.667723952e-12
1.624364952e-09
-9.979510596e-13
7.123581977e-12
2.541970699e-09
1.024389018e-11
3.25006294e-09
1.200073507e-11
3.69639749e-09
1.175030941e-11
3.839199311e-09
9.436864883e-12
3.6458558e-09
5.697911516e-12
3.091305104e-09
1.882731548e-12
2.156405567e-09
8.263730462e-10
3.485127049e-12
1.621827625e-09
-9.477584834e-13
6.775240293e-12
2.538680677e-09
9.754810418e-12
3.247083424e-09
1.144417856e-11
3.694708032e-09
1.122323543e-11
3.839420121e-09
9.029090682e-12
3.648049855e-09
5.461987748e-12
3.094872305e-09
1.809086587e-12
2.160058592e-09
8.281820682e-10
3.307002411e-12
1.619419525e-09
-8.988662273e-13
6.434602004e-12
2.535553167e-09
9.274992707e-12
3.24424301e-09
1.089610158e-11
3.693086842e-09
1.07019761e-11
3.83961421e-09
8.623869368e-12
3.650128034e-09
5.226123336e-12
3.098270231e-09
1.734691884e-12
2.163550152e-09
8.299166646e-10
3.134158456e-12
1.617136885e-09
-8.514667678e-13
6.103299776e-12
2.532584066e-09
8.80699764e-12
3.241539241e-09
1.035969525e-11
3.691534157e-09
1.018978796e-11
3.839784268e-09
8.22383477e-12
3.652094186e-09
4.991841285e-12
3.101502311e-09
1.660624297e-12
2.166881331e-09
8.315772043e-10
2.96716414e-12
1.614975482e-09
-8.057220149e-13
5.782588386e-12
2.529768613e-09
8.352869174e-12
3.238968931e-09
9.837570438e-12
3.690049543e-09
9.689393274e-12
3.83993267e-09
7.83132072e-12
3.653952393e-09
4.762037388e-12
3.104571502e-09
1.587489266e-12
2.170055724e-09
8.331646931e-10
2.806451642e-12
1.612930783e-09
-7.617631539e-13
5.473476485e-12
2.527101553e-09
7.914125933e-12
3.236528331e-09
9.3315899e-12
3.688632132e-09
9.202673734e-12
3.840061707e-09
7.449676782e-12
3.655705384e-09
4.537265968e-12
3.107483777e-09
1.515228388e-12
2.173077689e-09
8.346799857e-10
2.652255236e-12
1.610998143e-09
-7.196536628e-13
5.17633096e-12
2.524577488e-09
7.491115553e-12
3.23421362e-09
8.843686757e-12
3.687279512e-09
8.733497634e-12
3.840171875e-09
7.079546586e-12
3.657359303e-09
4.317524165e-12
3.110245801e-09
1.444523694e-12
2.17595076e-09
8.361245235e-10
2.504519153e-12
1.609172939e-09
-6.79332428e-13
4.892315832e-12
2.522189725e-09
7.087174283e-12
3.232018792e-09
8.375074066e-12
3.685991512e-09
8.28068829e-12
3.840266197e-09
6.719956549e-12
3.658920064e-09
4.104006809e-12
3.112861876e-09
1.37547742e-12
2.178679356e-09
8.374999089e-10
2.364904989e-12
1.607449236e-09
-6.411876662e-13
4.621627632e-12
2.519933007e-09
6.700619079e-12
3.22993978e-09
7.924846776e-12
3.68476721e-09
7.84316601e-12
3.840347833e-09
6.372748297e-12
3.660390507e-09
3.897105002e-12
3.115337607e-09
1.308210778e-12
2.181268218e-09
8.388080213e-10
2.231701893e-12
1.605822377e-09
-6.048268713e-13
4.362717151e-12
2.51780195e-09
6.329339943e-12
3.227973111e-09
7.493294753e-12
3.683603219e-09
7.423931209e-12
3.840417149e-09
6.038953632e-12
3.661775435e-09
3.697475067e-12
3.117679056e-09
1.243046027e-12
2.183722622e-09
8.400510864e-10
2.103944022e-12
1.604288465e-09
-5.700407385e-13
4.116066835e-12
2.515789752e-09
5.976150048e-12
3.226112978e-09
7.08144136e-12
3.682497891e-09
7.022752621e-12
3.840475775e-09
5.718699525e-12
3.663079428e-09
3.505411821e-12
3.119892274e-09
1.18018788e-12
2.186047957e-09
8.412313826e-10
1.983320026e-12
1.602842324e-09
-5.372121614e-13
3.882095502e-12
2.513890889e-09
5.640304177e-12
3.224354728e-09
6.688933788e-12
3.681449202e-09
6.639628984e-12
3.840525049e-09
5.412237169e-12
3.664306863e-09
3.321255516e-12
3.121983228e-09
1.119770555e-12
2.188249602e-09
8.42351213e-10
1.869023734e-12
1.60147937e-09
-5.061119122e-13
3.660190131e-12
2.512099645e-09
5.321350361e-12
3.22269354e-09
6.31556549e-12
3.680454925e-09
6.274534062e-12
3.840566094e-09
5.119630102e-12
3.665461897e-09
3.145102401e-12
3.123957752e-09
1.061799379e-12
2.190332928e-09
8.434129457e-10
1.760929345e-12
1.600195126e-09
-4.767239598e-13
3.450100282e-12
2.510410425e-09
5.018966688e-12
3.221124651e-09
5.961083394e-12
3.679512765e-09
5.927305362e-12
3.84059987e-09
4.840792014e-12
3.666548524e-09
2.976902704e-12
3.125821631e-09
1.006282337e-12
2.192303415e-09
8.444190917e-10
1.658811215e-12
1.598985256e-09
-4.489735942e-13
3.25145488e-12
2.508817767e-09
4.732710456e-12
3.219643357e-09
5.625065361e-12
3.67862039e-09
5.597642967e-12
3.840627247e-09
4.575574313e-12
3.66757065e-09
2.816590439e-12
3.127580631e-09
9.532697239e-13
2.194166615e-09
8.453722352e-10
1.562459015e-12
1.597845575e-09
-4.227973234e-13
3.063866071e-12
2.50731637e-09
4.462100523e-12
3.218245068e-09
5.307017572e-12
3.677775494e-09
5.285192361e-12
3.840649054e-09
4.323821305e-12
3.668532086e-09
2.664122044e-12
3.129240384e-09
9.027645847e-13
2.195927967e-09
8.462749165e-10
1.471647264e-12
1.596772056e-09
-3.981279814e-13
2.88691883e-12
2.505901114e-09
4.206623648e-12
3.216925324e-09
5.006400482e-12
3.676975794e-09
4.989508961e-12
3.84066601e-09
4.085252726e-12
3.669436433e-09
2.519381449e-12
3.130806272e-09
8.547079416e-13
2.197592693e-09
8.471295825e-10
1.386142345e-12
1.595760832e-09
-3.749068071e-13
2.720195571e-12
2.504567065e-09
3.965729583e-12
3.215679797e-09
4.722604371e-12
3.676219001e-09
4.710002998e-12
3.840678686e-09
3.859425064e-12
3.670287066e-09
2.382174131e-12
3.132283464e-09
8.090403274e-13
2.199165855e-09
8.479386317e-10
1.305703271e-12
1.594808212e-09
-3.530768287e-13
2.563263535e-12
2.503309505e-09
3.738782002e-12
3.214504303e-09
4.454920138e-12
3.675502858e-09
4.446005767e-12
3.840687573e-09
3.645843344e-12
3.671087221e-09
2.252282483e-12
3.13367699e-09
7.657480744e-13
2.20065241e-09
8.487044147e-10
1.230080429e-12
1.5939107e-09
-3.325681838e-13
2.415639694e-12
2.502123948e-09
3.525074416e-12
3.21339485e-09
4.20259351e-12
3.674825228e-09
4.196870878e-12
3.840693183e-09
3.444065403e-12
3.67184004e-09
2.129456731e-12
3.134991687e-09
7.247800795e-13
2.202057111e-09
8.494291709e-10
1.159008473e-12
1.593064991e-09
-3.132965249e-13
2.276799871e-12
2.501006145e-09
3.323901158e-12
3.212347674e-09
3.964882924e-12
3.674184121e-09
3.961972026e-12
3.840696032e-09
3.253607885e-12
3.672548486e-09
2.013339085e-12
3.136232084e-09
6.859769539e-13
2.203384427e-09
8.50115016e-10
1.092213702e-12
1.592267967e-09
-2.951828604e-13
2.146229179e-12
2.499952088e-09
3.134600544e-12
3.211359233e-09
3.741038773e-12
3.673577636e-09
3.740571626e-12
3.840696545e-09
3.073834942e-12
3.673215277e-09
1.903489662e-12
3.137402413e-09
6.49151915e-13
2.204638589e-09
8.507640021e-10
1.029433334e-12
1.591516697e-09
-2.781646875e-13
2.023457134e-12
2.498958014e-09
2.956507068e-12
3.210426174e-09
3.53024379e-12
3.673003925e-09
3.531792892e-12
3.840695046e-09
2.904032321e-12
3.673842952e-09
1.799524617e-12
3.138506719e-09
6.142179307e-13
2.205823695e-09
8.513781447e-10
9.70423195e-13
1.590808446e-09
-2.621848561e-13
1.908022352e-12
2.4980204e-09
2.78890754e-12
3.209545328e-09
3.33162271e-12
3.672461217e-09
3.334769495e-12
3.840691835e-09
2.743581046e-12
3.674433955e-09
1.70119134e-12
3.1395489e-09
5.811688205e-13
2.206943652e-09
8.519593308e-10
9.149429817e-13
1.590140669e-09
-2.471705439e-13
1.799431132e-12
2.497135956e-09
2.631060019e-12
3.20871372e-09
3.144335197e-12
3.671947878e-09
3.148777193e-12
3.840687246e-09
2.591991129e-12
3.674990614e-09
1.608250671e-12
3.140532585e-09
5.499231231e-13
2.20800204e-09
8.525092494e-10
8.627402571e-13
1.589510987e-09
-2.330386836e-13
1.697162141e-12
2.4963016e-09
2.482263567e-12
3.207928585e-09
2.96763946e-12
3.671462405e-09
2.973182202e-12
3.840681597e-09
2.448756329e-12
3.675515037e-09
1.520335493e-12
3.14146105e-09
5.20285805e-13
2.209002098e-09
8.530294418e-10
8.135601185e-13
1.588917176e-09
-2.197179188e-13
1.60073128e-12
2.495514455e-09
2.341899269e-12
3.207187356e-09
2.800849868e-12
3.671003387e-09
2.807301217e-12
3.840675128e-09
2.313266552e-12
3.676009117e-09
1.436996247e-12
3.142337303e-09
4.920788595e-13
2.209946873e-09
8.535214064e-10
7.671715602e-13