/*--------------------------------*- C++ -*----------------------------------*\
| =========                 |                                                 |
| \\      /  F ield         | OpenFOAM: The Open Source CFD Toolbox           |
|  \\    /   O peration     | Version:  2212                                  |
|   \\  /    A nd           | Website:  www.openfoam.com                      |
|    \\/     M anipulation  |                                                 |
\*---------------------------------------------------------------------------*/
FoamFile
{
    version     2.0;
    format      ascii;
    arch        "LSB;label=32;scalar=64";
    class       volScalarField;
    location    "18.25000000";
    object      SC3H5;
}
// * * * * * * * * * * * * * * * * * * * * * * * * * * * * * * * * * * * * * //

dimensions      [0 0 0 0 0 0 0];

internalField   nonuniform List<scalar> 
3000
(
1.165359801e-22
1.309129826e-22
1.52607702e-22
1.81517701e-22
2.173490671e-22
2.591287593e-22
3.043397323e-22
3.474794788e-22
3.779844313e-22
4.375249558e-22
4.934838571e-22
5.778888739e-22
6.90615269e-22
8.315509731e-22
9.999144925e-22
1.19278316e-21
1.400420374e-21
1.584351674e-21
9.800209152e-22
1.114039399e-21
1.318114084e-21
1.595199354e-21
1.950277207e-21
2.388497728e-21
2.908135502e-21
3.480015158e-21
3.968775133e-21
1.866652808e-21
2.14414023e-21
2.572874162e-21
3.167358149e-21
3.948650006e-21
4.936598771e-21
6.12581024e-21
7.421079119e-21
8.466534874e-21
3.314614344e-21
3.854061099e-21
4.700656739e-21
5.897397247e-21
7.50056116e-21
9.555071179e-21
1.202659691e-20
1.465123122e-20
1.666596781e-20
5.699570444e-21
6.711998085e-21
8.323659573e-21
1.063739178e-20
1.377659648e-20
1.782024032e-20
2.264753226e-20
2.764969701e-20
3.135039183e-20
9.675569992e-21
1.153523763e-20
1.453011204e-20
1.887817862e-20
2.482153384e-20
3.247830346e-20
4.15317768e-20
5.073020985e-20
5.736738074e-20
1.637400135e-20
1.973949954e-20
2.52076734e-20
3.320809272e-20
4.418697724e-20
5.830240895e-20
7.484622423e-20
9.141037173e-20
1.031630623e-19
2.775550144e-20
3.378197391e-20
4.363706506e-20
5.81291566e-20
7.805211606e-20
1.035975946e-19
1.333226413e-19
1.62774943e-19
1.834417094e-19
4.721581774e-20
5.792272419e-20
7.551211778e-20
1.014616906e-19
1.371583225e-19
1.828098154e-19
2.356370947e-19
2.875967345e-19
3.237866861e-19
8.064089533e-20
9.955254065e-20
1.307200175e-19
1.767953784e-19
2.401810265e-19
3.210637963e-19
4.142766793e-19
5.054910188e-19
5.687050012e-19
1.382366005e-19
1.714953828e-19
2.264291455e-19
3.077435161e-19
4.195878146e-19
5.620557145e-19
7.257527608e-19
8.853691164e-19
9.95609073e-19
2.377079375e-19
2.960112088e-19
3.924593293e-19
5.353425441e-19
7.318255319e-19
9.817731097e-19
1.268349619e-18
1.547084285e-18
1.739139096e-18
4.097787488e-19
5.117463872e-19
6.806087453e-19
9.309070127e-19
1.275023399e-18
1.71234349e-18
2.212976204e-18
2.699027797e-18
3.033408332e-18
7.077729768e-19
8.85800247e-19
1.180847606e-18
1.618348455e-18
2.219725107e-18
2.98341966e-18
3.856596519e-18
4.702352765e-18
5.285196357e-18
1.224237087e-18
1.534657012e-18
2.049405472e-18
2.812878911e-18
3.862165125e-18
5.193819321e-18
6.712962542e-18
8.155666956e-18
9.198741664e-18
2.119775182e-18
2.660491602e-18
3.557475906e-18
4.888103098e-18
6.716624066e-18
9.036543167e-18
1.168773329e-17
1.428261506e-17
1.601054731e-17
3.673097061e-18
4.614186841e-18
6.175760328e-18
8.492487899e-18
1.16756462e-17
1.571260168e-17
2.031984913e-17
2.4778597e-17
2.783230704e-17
6.367946702e-18
8.004819066e-18
1.072141172e-17
1.475190349e-17
2.028906835e-17
2.730939383e-17
3.531794963e-17
4.306247134e-17
4.836891781e-17
1.104409999e-17
1.388985814e-17
1.861332245e-17
2.562147279e-17
3.524836374e-17
4.745107521e-17
6.136713686e-17
7.481957914e-17
8.403408279e-17
1.915960884e-17
2.41054889e-17
3.231543114e-17
4.449641183e-17
6.122736392e-17
8.243077958e-17
1.066049823e-16
1.299670862e-16
1.459659513e-16
3.32461705e-17
4.184017342e-17
5.610638139e-17
7.72723246e-17
1.063410644e-16
1.431732403e-16
1.851555702e-16
2.257169708e-16
2.53488416e-16
5.769969714e-17
7.263040286e-17
9.741557138e-17
1.341853505e-16
1.846765116e-16
2.486382882e-16
3.215239495e-16
3.919226455e-16
4.40110551e-16
1.001522108e-16
1.260884831e-16
1.691409109e-16
2.33003377e-16
3.206801519e-16
4.317181889e-16
5.582069559e-16
6.803379452e-16
7.639105853e-16
1.738518193e-16
2.18899826e-16
2.936687876e-16
4.045584759e-16
5.567582098e-16
7.494435487e-16
9.688498358e-16
1.180604945e-15
1.325448396e-15
3.017880229e-16
3.800176323e-16
5.09838731e-16
7.023258371e-16
9.664238998e-16
1.300617261e-15
1.680949559e-15
2.047809703e-15
2.298614136e-15
5.238335454e-16
6.596537879e-16
8.849914178e-16
1.218980433e-15
1.676996633e-15
2.256217768e-15
2.914934376e-15
3.549836433e-15
3.983577887e-15
9.090909758e-16
1.144817091e-15
1.535776168e-15
2.11495946e-15
2.908699651e-15
3.911665624e-15
5.051204473e-15
6.148440055e-15
6.897311365e-15
1.577195164e-15
1.986108511e-15
2.663998769e-15
3.667599381e-15
5.041790569e-15
6.7763512e-15
8.744663934e-15
1.063739956e-14
1.19275623e-14
2.734978535e-15
3.443806446e-15
4.618196874e-15
6.355378765e-15
8.731367904e-15
1.172629026e-14
1.511937823e-14
1.83765955e-14
2.059316427e-14
4.739390904e-15
5.966868328e-15
7.999014527e-15
1.100173581e-14
1.510276035e-14
2.026297996e-14
2.609735347e-14
3.168590377e-14
3.548092837e-14
8.205091518e-15
1.032782619e-14
1.383872483e-14
1.901933639e-14
2.608212092e-14
3.494944085e-14
4.494976592e-14
5.450271598e-14
6.097272949e-14
1.418766982e-14
1.785205513e-14
2.390546211e-14
3.282245162e-14
4.495195232e-14
6.013907486e-14
7.721329841e-14
9.346947945e-14
1.044439795e-13
2.449417803e-14
3.080535718e-14
4.121564673e-14
5.6518286e-14
7.727724093e-14
1.031832663e-13
1.321987857e-13
1.59714084e-13
1.782181816e-13
4.220662215e-14
5.304520875e-14
7.089107732e-14
9.705677833e-14
1.324357085e-13
1.764125342e-13
2.254486926e-13
2.717319518e-13
3.027180604e-13
7.25591795e-14
9.110760798e-14
1.215813742e-13
1.661260565e-13
2.261213802e-13
3.003518589e-13
3.826943953e-13
4.599961382e-13
5.114845257e-13
1.2439842e-13
1.560072504e-13
2.078044411e-13
2.832469217e-13
3.84396897e-13
5.088791598e-13
6.461519283e-13
7.742406963e-13
8.59071694e-13
2.125962162e-13
2.661946022e-13
3.537614321e-13
4.807722542e-13
6.501783943e-13
8.574021011e-13
1.084414482e-12
1.29482455e-12
1.433312727e-12
3.620046605e-13
4.523695263e-13
5.994924648e-13
8.118746722e-13
1.093490727e-12
1.435660834e-12
1.80780491e-12
2.150246131e-12
2.37414828e-12
6.138801574e-13
7.652397181e-13
1.010701776e-12
1.363160314e-12
1.827488865e-12
2.387528915e-12
2.991916113e-12
3.543825159e-12
3.902204085e-12
1.036212876e-12
1.287889611e-12
1.694257257e-12
2.274345876e-12
3.033180067e-12
3.941270299e-12
4.913294878e-12
5.79391503e-12
6.361723759e-12
1.740144633e-12
2.155260734e-12
2.822332701e-12
3.768560923e-12
4.997095088e-12
6.455231917e-12
8.002957838e-12
9.393928059e-12
1.028449821e-11
2.905717015e-12
3.584410811e-12
4.669485373e-12
6.198368019e-12
8.16794267e-12
1.048604046e-11
1.292585112e-11
1.510119418e-11
1.648438108e-11
4.821625861e-12
5.920769637e-12
7.668688433e-12
1.011456487e-11
1.324058723e-11
1.688912389e-11
2.069767367e-11
2.406757683e-11
2.619632585e-11
7.945493247e-12
9.707537492e-12
1.249441232e-11
1.636713642e-11
2.127836713e-11
2.696466846e-11
3.285471229e-11
3.803021311e-11
4.128040251e-11
1.299337439e-11
1.578757137e-11
2.018303832e-11
2.624993831e-11
3.388716137e-11
4.266509286e-11
5.16966716e-11
5.958747829e-11
6.452069257e-11
2.106979716e-11
2.544945085e-11
3.230281335e-11
4.170197494e-11
5.345510074e-11
6.688003815e-11
8.062296651e-11
9.258876416e-11
1.00057679e-10
3.385301563e-11
4.063223937e-11
5.118726549e-11
6.55778098e-11
8.34680109e-11
1.038056073e-10
1.245661795e-10
1.426417477e-10
1.539632479e-10
5.38561809e-11
6.420882722e-11
8.024982238e-11
1.019999366e-10
1.289029563e-10
1.593784916e-10
1.904582767e-10
2.175837806e-10
2.34666036e-10
8.47985652e-11
1.003814412e-10
1.244108452e-10
1.568169897e-10
1.967027426e-10
2.417163654e-10
2.874885121e-10
3.271625492e-10
3.510684017e-10
1.321504736e-10
1.552546696e-10
1.907024064e-10
2.382247083e-10
2.963482516e-10
3.614272995e-10
4.264812022e-10
4.801985207e-10
5.122240411e-10
2.039706866e-10
2.37707238e-10
2.891624873e-10
3.576033673e-10
4.403506873e-10
5.307935524e-10
6.165004684e-10
6.855767774e-10
7.254154727e-10
3.122260639e-10
3.607307763e-10
4.340773239e-10
5.302316948e-10
6.429694857e-10
7.591071766e-10
8.650158514e-10
9.452872822e-10
9.873931957e-10
4.746773291e-10
5.431277261e-10
6.448310668e-10
7.731357203e-10
9.149589005e-10
1.054133946e-09
1.170408107e-09
1.24520666e-09
1.272666342e-09
7.162886214e-10
8.095138988e-10
9.40979294e-10
1.099869166e-09
1.266642196e-09
1.414531999e-09
1.513996545e-09
1.546081417e-09
1.525132174e-09
1.061732333e-09
1.178207561e-09
1.339503992e-09
1.524026588e-09
1.698845751e-09
1.821917932e-09
1.854196622e-09
1.785811614e-09
1.671955112e-09
1.533662628e-09
1.672483044e-09
1.855956372e-09
2.046498856e-09
2.191530406e-09
2.232318833e-09
2.129908392e-09
1.904873785e-09
1.671438906e-09
2.152472356e-09
2.302791404e-09
2.484546888e-09
2.638036155e-09
2.689207607e-09
2.573523723e-09
2.279348079e-09
1.884675112e-09
1.554317251e-09
2.908869134e-09
3.043108626e-09
3.174525015e-09
3.220151746e-09
3.096247026e-09
2.763469729e-09
2.273189624e-09
1.761624051e-09
1.394915443e-09
3.732016589e-09
3.802050724e-09
3.810960938e-09
3.6661639e-09
3.306921085e-09
2.758540461e-09
2.140502153e-09
1.598222603e-09
1.247981627e-09
4.46741386e-09
4.415628404e-09
4.233659932e-09
3.852801683e-09
3.274375387e-09
2.594506974e-09
1.950544914e-09
1.442455368e-09
1.131450653e-09
4.912828833e-09
4.707205096e-09
4.323227832e-09
3.750178332e-09
3.055867976e-09
2.360142541e-09
1.763565507e-09
1.314884151e-09
1.045029092e-09
4.942120357e-09
4.612980289e-09
4.101575348e-09
3.45423186e-09
2.765180435e-09
2.130711554e-09
1.608226533e-09
1.219350168e-09
9.850309123e-10
4.619410009e-09
4.245568658e-09
3.716761516e-09
3.103293248e-09
2.489394445e-09
1.940902304e-09
1.491433736e-09
1.15410846e-09
9.485821575e-10
4.140513998e-09
3.790706669e-09
3.316992155e-09
2.786478991e-09
2.264779975e-09
1.798482297e-09
1.411730914e-09
1.116519125e-09
9.337794848e-10
3.670255311e-09
3.3734565e-09
2.976605182e-09
2.53450245e-09
2.097345995e-09
1.701005247e-09
1.365729421e-09
1.10431777e-09
9.39477478e-10
3.279444396e-09
3.037624356e-09
2.713270801e-09
2.348626931e-09
1.982504762e-09
1.64365606e-09
1.350196329e-09
1.115936021e-09
9.65200805e-10
2.979249583e-09
2.784968504e-09
2.521771219e-09
2.221333428e-09
1.913533907e-09
1.621816272e-09
1.362644598e-09
1.150524991e-09
1.011066585e-09
2.759721509e-09
2.604620447e-09
2.391608292e-09
2.143868561e-09
1.884216654e-09
1.631763493e-09
1.401381285e-09
1.207837324e-09
1.077651973e-09
2.607235624e-09
2.484206217e-09
2.312497738e-09
2.10856209e-09
1.889502122e-09
1.670695972e-09
1.465341093e-09
1.288026198e-09
1.165804432e-09
2.509359223e-09
2.412948105e-09
2.275880554e-09
2.109253327e-09
1.925449916e-09
1.736512645e-09
1.553831747e-09
1.391397914e-09
1.276409655e-09
2.456046058e-09
2.382247985e-09
2.275003664e-09
2.141102145e-09
1.98894685e-09
1.827518823e-09
1.66625316e-09
1.518145854e-09
1.410136652e-09
2.439507028e-09
2.385430002e-09
2.304581072e-09
2.200236948e-09
2.077381656e-09
1.942134003e-09
1.801827939e-09
1.66809213e-09
1.567184523e-09
2.453745025e-09
2.417291141e-09
2.360386151e-09
2.283406186e-09
2.188353808e-09
2.078641755e-09
1.959372803e-09
1.840466036e-09
1.747061678e-09
2.494075994e-09
2.473674348e-09
2.438894532e-09
2.387693797e-09
2.31944981e-09
2.235007421e-09
2.137138088e-09
2.033750605e-09
1.948431962e-09
2.556731469e-09
2.551126676e-09
2.537012391e-09
2.510318249e-09
2.46810253e-09
2.408781581e-09
2.332738213e-09
2.245625049e-09
2.169058817e-09
2.638559897e-09
2.646651947e-09
2.651894335e-09
2.648518447e-09
2.631539295e-09
2.597098988e-09
2.543186458e-09
2.473016624e-09
2.405849705e-09
2.736819335e-09
2.757549934e-09
2.7808434e-09
2.799520711e-09
2.806815562e-09
2.796774367e-09
2.765046003e-09
2.712300127e-09
2.655165705e-09
2.849047166e-09
2.881327969e-09
2.921279032e-09
2.960571467e-09
2.990916005e-09
3.004471372e-09
2.994663693e-09
2.95967208e-09
2.913122489e-09
2.972990636e-09
3.015668016e-09
3.070754133e-09
3.129011964e-09
3.180895031e-09
3.216907835e-09
3.228540382e-09
3.211449378e-09
3.17613173e-09
3.106581435e-09
3.15843003e-09
3.227000031e-09
3.302355231e-09
3.374029667e-09
3.431169748e-09
3.463459794e-09
3.464184389e-09
3.439941956e-09
3.247939124e-09
3.307662652e-09
3.388006912e-09
3.478584167e-09
3.568148664e-09
3.644839481e-09
3.696697942e-09
3.714097228e-09
3.70056572e-09
3.39542404e-09
3.461847285e-09
3.552250887e-09
3.656064299e-09
3.761622339e-09
3.855968493e-09
3.92524189e-09
3.95792523e-09
3.954556481e-09
3.547850082e-09
3.619758195e-09
3.718589033e-09
3.833853512e-09
3.95303315e-09
4.062255882e-09
4.146647201e-09
4.19303998e-09
4.199124711e-09
3.704462903e-09
3.780877156e-09
3.886558265e-09
4.010662139e-09
4.140552637e-09
4.261897836e-09
4.359049349e-09
4.417446502e-09
4.432139927e-09
3.864635929e-09
3.944032048e-09
4.054371951e-09
4.18482161e-09
4.322726878e-09
4.453541343e-09
4.561094974e-09
4.629710342e-09
4.652061594e-09
4.026316127e-09
4.107367659e-09
4.220481299e-09
4.355012049e-09
4.498438053e-09
4.636197808e-09
4.751839429e-09
4.828851768e-09
4.857835764e-09
4.18778127e-09
4.269339255e-09
4.383576387e-09
4.520151354e-09
4.666807275e-09
4.809140334e-09
4.930638544e-09
5.014235163e-09
5.048785301e-09
4.347528304e-09
4.428595877e-09
4.542507115e-09
4.679305563e-09
4.827107322e-09
4.971814492e-09
5.097055231e-09
5.185472159e-09
5.224511899e-09
4.504185705e-09
4.583900408e-09
4.696218645e-09
4.831627544e-09
4.978701864e-09
5.123774395e-09
5.250790247e-09
5.342347256e-09
5.384818836e-09
4.656467104e-09
4.734088936e-09
4.843717368e-09
4.976325112e-09
5.121012134e-09
5.264644788e-09
5.391637814e-09
5.484767017e-09
5.529655994e-09
4.803157782e-09
4.878060086e-09
4.98406262e-09
5.112652649e-09
5.253505661e-09
5.394104352e-09
5.519461891e-09
5.612729274e-09
5.659084189e-09
4.943121536e-09
5.014782962e-09
5.116374965e-09
5.239918024e-09
5.37569967e-09
5.511883533e-09
5.63418704e-09
5.726306923e-09
5.773253891e-09
5.07531728e-09
5.143313969e-09
5.239852549e-09
5.357497133e-09
5.487172131e-09
5.617770426e-09
5.735797902e-09
5.825640825e-09
5.872393273e-09
5.198817753e-09
5.262815444e-09
5.353789059e-09
5.464850155e-09
5.587574981e-09
5.711619579e-09
5.824342515e-09
5.91093737e-09
5.956801428e-09
5.312825592e-09
5.372571642e-09
5.457589159e-09
5.561535654e-09
5.67664586e-09
5.793360243e-09
5.899936147e-09
5.982467592e-09
6.026843799e-09
5.416684365e-09
5.471999762e-09
5.550779229e-09
5.647220471e-09
5.754216372e-09
5.863002135e-09
5.962763765e-09
6.040565975e-09
6.082948021e-09
5.509883795e-09
5.560655337e-09
5.633012745e-09
5.721684735e-09
5.820216186e-09
5.920637944e-09
6.013080287e-09
6.085628042e-09
6.125599253e-09
5.592059535e-09
5.638232275e-09
5.70407058e-09
5.78482222e-09
5.874673088e-09
5.96644259e-09
6.051208485e-09
6.118106494e-09
6.155334683e-09
5.662988366e-09
5.704558455e-09
5.763857051e-09
5.836636787e-09
5.917709599e-09
6.000669667e-09
6.077534817e-09
6.138505996e-09
6.172737216e-09
5.722579943e-09
5.759587928e-09
5.812392716e-09
5.877235803e-09
5.949536931e-09
6.023645699e-09
6.092503612e-09
6.1473769e-09
6.178428534e-09
5.770866162e-09
5.803390766e-09
5.849804895e-09
5.906821432e-09
5.970447037e-09
6.035762814e-09
6.096610098e-09
6.145308235e-09
6.173061772e-09
5.807989067e-09
5.836141466e-09
5.876316772e-09
5.925680583e-09
5.980803458e-09
6.037470428e-09
6.090392702e-09
6.132920296e-09
6.157314037e-09
5.834188042e-09
5.85810662e-09
5.892235755e-09
5.934174136e-09
5.981031517e-09
6.029266385e-09
6.074424996e-09
6.110857085e-09
6.131878984e-09
5.849786819e-09
5.869632369e-09
5.897941611e-09
5.932725932e-09
5.971608287e-09
6.011687943e-09
6.049307585e-09
6.07977885e-09
6.097459625e-09
5.855180693e-09
5.871132051e-09
5.893874739e-09
5.921811873e-09
5.953052664e-09
5.985302875e-09
6.015660175e-09
6.040354886e-09
6.05476149e-09
5.850824202e-09
5.863074267e-09
5.880524847e-09
5.901949391e-09
5.925915773e-09
5.950700895e-09
5.974113981e-09
5.993256731e-09
6.004486259e-09
5.837219452e-09
5.845971584e-09
5.85842021e-09
5.873687457e-09
5.890771894e-09
5.908485578e-09
5.925304624e-09
5.939151881e-09
5.947325945e-09
5.814905189e-09
5.820369952e-09
5.828117636e-09
5.837597262e-09
5.848209997e-09
5.859266862e-09
5.869865598e-09
5.878698073e-09
5.883957668e-09
5.784446707e-09
5.786838949e-09
5.790193206e-09
5.794263639e-09
5.798826005e-09
5.803654231e-09
5.808422381e-09
5.8125382e-09
5.815039075e-09
5.746426618e-09
5.745962864e-09
5.745233858e-09
5.744277294e-09
5.743215803e-09
5.742250609e-09
5.741587228e-09
5.741295889e-09
5.741204414e-09
5.701436523e-09
5.698332679e-09
5.693829824e-09
5.688227857e-09
5.681969045e-09
5.675647003e-09
5.669954662e-09
5.665571748e-09
5.663061261e-09
5.650069586e-09
5.644538928e-09
5.636567934e-09
5.626697779e-09
5.615663752e-09
5.604417892e-09
5.594097675e-09
5.585940272e-09
5.581187901e-09
5.592914001e-09
5.585165452e-09
5.574025793e-09
5.560257055e-09
5.544861706e-09
5.529117359e-09
5.514564607e-09
5.502947405e-09
5.496131327e-09
5.530547342e-09
5.520784009e-09
5.506766791e-09
5.489458756e-09
5.4701046e-09
5.450275934e-09
5.431876693e-09
5.417108705e-09
5.408405822e-09
5.463531766e-09
5.45194973e-09
5.435335929e-09
5.414835341e-09
5.391910927e-09
5.368398115e-09
5.34652623e-09
5.328908092e-09
5.318492091e-09
5.39241002e-09
5.379197363e-09
5.360256416e-09
5.336895701e-09
5.310773552e-09
5.28396052e-09
5.258975317e-09
5.238797111e-09
5.226836877e-09
5.317702227e-09
5.303038272e-09
5.282026982e-09
5.25612288e-09
5.227157918e-09
5.197410624e-09
5.169655119e-09
5.147194673e-09
5.13385302e-09
5.239903368e-09
5.22395812e-09
5.201119858e-09
5.172972432e-09
5.14150083e-09
5.109166008e-09
5.078965598e-09
5.054487205e-09
5.039919894e-09
5.159481425e-09
5.142415195e-09
5.11797936e-09
5.08787133e-09
5.054209754e-09
5.019614081e-09
4.987275644e-09
4.961029162e-09
4.945384171e-09
5.076876113e-09
5.058839296e-09
5.03302101e-09
5.001217382e-09
4.965662573e-09
4.929112196e-09
4.894923566e-09
4.867143839e-09
4.850560858e-09
4.992498131e-09
4.973631129e-09
4.946631134e-09
4.913379089e-09
4.876207732e-09
4.837988115e-09
4.802217862e-09
4.773124424e-09
4.755734541e-09
4.906728877e-09
4.887162142e-09
4.859166876e-09
4.824695871e-09
4.78616472e-09
4.746540753e-09
4.70943824e-09
4.679235259e-09
4.661160805e-09
4.819920555e-09
4.799774736e-09
4.770956553e-09
4.735478613e-09
4.695824827e-09
4.655041165e-09
4.616836818e-09
4.585713238e-09
4.567067778e-09
4.73239662e-09
4.711782798e-09
4.682300317e-09
4.646010474e-09
4.605452122e-09
4.5637337e-09
4.524639468e-09
4.492769316e-09
4.473657749e-09
4.6444525e-09
4.623472492e-09
4.59347104e-09
4.556547901e-09
4.515284606e-09
4.472837311e-09
4.433047267e-09
4.400590092e-09
4.381108844e-09
4.556356541e-09
4.535103258e-09
4.504715397e-09
4.467321804e-09
4.4255355e-09
4.382546946e-09
4.342238003e-09
4.309339416e-09
4.289576709e-09
4.468351127e-09
4.446908978e-09
4.416255092e-09
4.378538856e-09
4.336394618e-09
4.293035013e-09
4.252367724e-09
4.219160019e-09
4.199196195e-09
4.380653932e-09
4.359099259e-09
4.328288176e-09
4.290382863e-09
4.248029802e-09
4.20445287e-09
4.163572287e-09
4.130175115e-09
4.110083001e-09
4.293459268e-09
4.271860794e-09
4.240990451e-09
4.203016199e-09
4.160588384e-09
4.116932325e-09
4.075968895e-09
4.042489974e-09
4.022335284e-09
4.206939485e-09
4.185358786e-09
4.15451689e-09
4.116581246e-09
4.07419865e-09
4.03058712e-09
3.989657602e-09
3.956193452e-09
3.93603519e-09
4.121246412e-09
4.099738379e-09
4.069003089e-09
4.031201846e-09
3.988971294e-09
3.945514383e-09
3.904722765e-09
3.871359442e-09
3.851250338e-09
4.036512793e-09
4.015126099e-09
3.984566694e-09
3.946984723e-09
3.905000825e-09
3.86179603e-09
3.821234442e-09
3.788048277e-09
3.768035203e-09
3.952853714e-09
3.931631276e-09
3.901308809e-09
3.864020874e-09
3.822366944e-09
3.779500115e-09
3.739249717e-09
3.706308037e-09
3.686432433e-09
3.870368003e-09
3.84934742e-09
3.819315363e-09
3.78238691e-09
3.741135852e-09
3.698682113e-09
3.658813962e-09
3.626175791e-09
3.606474075e-09
3.789139577e-09
3.768353563e-09
3.738658419e-09
3.702146336e-09
3.661361504e-09
3.619386132e-09
3.579962012e-09
3.547678744e-09
3.528182716e-09
3.709238744e-09
3.68871554e-09
3.659397429e-09
3.623350776e-09
3.583086783e-09
3.541646056e-09
3.502719268e-09
3.470835319e-09
3.451572539e-09
3.630723441e-09
3.610487202e-09
3.581580426e-09
3.546041121e-09
3.506344614e-09
3.465486607e-09
3.427102724e-09
3.395656141e-09
3.376650295e-09
3.553640403e-09
3.53371157e-09
3.505245139e-09
3.470248613e-09
3.431159006e-09
3.390924343e-09
3.353121914e-09
3.322144955e-09
3.303416204e-09
3.478026255e-09
3.458421904e-09
3.430420035e-09
3.395995844e-09
3.357546e-09
3.317968563e-09
3.280779781e-09
3.250299458e-09
3.231864763e-09
3.403908552e-09
3.384642718e-09
3.357125297e-09
3.323297691e-09
3.285514562e-09
3.24662215e-09
3.210073472e-09
3.180112065e-09
3.161985491e-09
3.331306731e-09
3.312390711e-09
3.285373729e-09
3.252162187e-09
3.215067411e-09
3.176882351e-09
3.140995076e-09
3.111570598e-09
3.093763601e-09
3.260233008e-09
3.241675643e-09
3.215171596e-09
3.182591318e-09
3.146201767e-09
3.108741481e-09
3.073532282e-09
3.044658923e-09
3.027180612e-09
3.190693179e-09
3.172501118e-09
3.146519381e-09
3.114581746e-09
3.078910035e-09
3.042187568e-09
3.007668983e-09
2.979357512e-09
2.962214898e-09
3.122687362e-09
3.104865307e-09
3.079412485e-09
3.048125475e-09
3.013180436e-09
2.977204933e-09
2.943385824e-09
2.915643962e-09
2.898842176e-09
3.05621064e-09
3.038761596e-09
3.013841852e-09
2.983210448e-09
2.948997563e-09
2.91377472e-09
2.880660685e-09
2.853493447e-09
2.837035957e-09
2.991253635e-09
2.974179164e-09
2.949794543e-09
2.919821096e-09
2.886342898e-09
2.851875367e-09
2.819469125e-09
2.792879135e-09
2.776767928e-09
2.92780314e-09
2.911103563e-09
2.887254274e-09
2.857938839e-09
2.825195279e-09
2.791483039e-09
2.759784777e-09
2.733772551e-09
2.718008312e-09
2.865842864e-09
2.849517307e-09
2.826201935e-09
2.797542556e-09
2.765531324e-09
2.732572015e-09
2.701579701e-09
2.676143907e-09
2.660726173e-09
2.805354054e-09
2.789400435e-09
2.7666161e-09
2.738609028e-09
2.707325825e-09
2.675115037e-09
2.644824703e-09
2.619962395e-09
2.604889698e-09
2.746315806e-09
2.730731067e-09
2.708473421e-09
2.681113298e-09
2.650552081e-09
2.619083623e-09
2.58948961e-09
2.565196433e-09
2.55046643e-09
2.688705142e-09
2.673485352e-09
2.651748913e-09
2.625028982e-09
2.595182192e-09
2.564448325e-09
2.535543516e-09
2.511813897e-09
2.497423487e-09
2.632497407e-09
2.617637957e-09
2.596416128e-09
2.570328519e-09
2.541187313e-09
2.511178971e-09
2.482954996e-09
2.459782319e-09
2.445727744e-09
2.577666596e-09
2.563162343e-09
2.542447805e-09
2.516983518e-09
2.488537907e-09
2.459244884e-09
2.4316923e-09
2.409069053e-09
2.395345995e-09
2.524185589e-09
2.510030914e-09
2.489815611e-09
2.464964849e-09
2.437203912e-09
2.408615045e-09
2.381723508e-09
2.359641425e-09
2.346245092e-09
2.472026396e-09
2.458215296e-09
2.438490641e-09
2.414242871e-09
2.387154915e-09
2.359258253e-09
2.333016674e-09
2.311466859e-09
2.298392061e-09
2.421160374e-09
2.407686524e-09
2.388443473e-09
2.364787578e-09
2.338360304e-09
2.311143264e-09
2.285539947e-09
2.264512992e-09
2.251754208e-09
2.371558439e-09
2.358415272e-09
2.339644443e-09
2.316568911e-09
2.290789473e-09
2.264238941e-09
2.239261691e-09
2.218747766e-09
2.206299208e-09
2.323191221e-09
2.310371971e-09
2.292063691e-09
2.269556625e-09
2.244411846e-09
2.21851432e-09
2.194150562e-09
2.174139512e-09
2.161995179e-09
2.276029226e-09
2.26352698e-09
2.245671367e-09
2.223720624e-09
2.199197039e-09
2.173938724e-09
2.150175598e-09
2.130657016e-09
2.118810741e-09
2.230042969e-09
2.217850718e-09
2.200437763e-09
2.179031047e-09
2.155114967e-09
2.130481848e-09
2.107306284e-09
2.08826958e-09
2.076715074e-09
2.185203083e-09
2.173313761e-09
2.156333376e-09
2.135458318e-09
2.112135896e-09
2.088113814e-09
2.065512604e-09
2.046947068e-09
2.035677955e-09
2.141480407e-09
2.129886918e-09
2.113328964e-09
2.092973086e-09
2.070230477e-09
2.046805219e-09
2.024765089e-09
2.006659941e-09
1.995669793e-09
2.098846071e-09
2.087541319e-09
2.071395662e-09
2.051546514e-09
2.029369847e-09
2.006527191e-09
1.985034852e-09
1.96737929e-09
1.956661655e-09
2.057271558e-09
2.046248474e-09
2.03050502e-09
2.011150201e-09
1.989525648e-09
1.967251416e-09
1.946293615e-09
1.929076858e-09
1.918625288e-09
2.016728767e-09
2.005980329e-09
1.990629051e-09
1.971756245e-09
1.950670072e-09
1.928950176e-09
1.908513738e-09
1.891725059e-09
1.881533128e-09
1.977190059e-09
1.96670931e-09
1.951740278e-09
1.933337285e-09
1.912775887e-09
1.891596368e-09
1.871668233e-09
1.855296991e-09
1.845358319e-09
1.9386283e-09
1.928408366e-09
1.913811764e-09
1.895866531e-09
1.875816464e-09
1.855163527e-09
1.835730781e-09
1.819766445e-09
1.810074712e-09
1.901016892e-09
1.891050994e-09
1.876817145e-09
1.859317786e-09
1.839765795e-09
1.819625834e-09
1.800675736e-09
1.785107912e-09
1.775656871e-09
1.864329801e-09
1.854611266e-09
1.840730648e-09
1.823665468e-09
1.804598509e-09
1.78495813e-09
1.766478136e-09
1.751296582e-09
1.742080072e-09
1.828541574e-09
1.81906385e-09
1.805527107e-09
1.788884618e-09
1.770289877e-09
1.751135923e-09
1.733113702e-09
1.718308346e-09
1.709320306e-09
1.793627358e-09
1.784384016e-09
1.771181975e-09
1.75495091e-09
1.73681582e-09
1.718135385e-09
1.700558838e-09
1.686119795e-09
1.677354268e-09
1.759562905e-09
1.750547651e-09
1.737671326e-09
1.721840654e-09
1.704152911e-09
1.685933353e-09
1.668790631e-09
1.654708211e-09
1.646159357e-09
1.726324577e-09
1.717531254e-09
1.704971863e-09
1.689530796e-09
1.672278369e-09
1.65450733e-09
1.637786842e-09
1.624051566e-09
1.615713666e-09
1.693889343e-09
1.685311941e-09
1.673060905e-09
1.657998912e-09
1.641170057e-09
1.62383547e-09
1.607525899e-09
1.594128508e-09
1.585995975e-09
1.662234768e-09
1.653867425e-09
1.641916382e-09
1.627223197e-09
1.610806464e-09
1.593896568e-09
1.577986882e-09
1.564918351e-09
1.556985735e-09
1.631338996e-09
1.623176004e-09
1.611516811e-09
1.597182439e-09
1.581166685e-09
1.564670036e-09
1.549149504e-09
1.53640105e-09
1.528663047e-09
1.601180714e-09
1.593216522e-09
1.581841261e-09
1.567855988e-09
1.552230388e-09
1.536135869e-09
1.520994068e-09
1.508557167e-09
1.501008629e-09
1.571739103e-09
1.563968319e-09
1.552869303e-09
1.5392237e-09
1.523977753e-09
1.508274588e-09
1.493501423e-09
1.481367819e-09
1.474003762e-09
1.542993766e-09
1.535411158e-09
1.52458093e-09
1.51126586e-09
1.496389394e-09
1.481067156e-09
1.466652868e-09
1.454814591e-09
1.447630206e-09
1.514924615e-09
1.507525111e-09
1.496956446e-09
1.48396306e-09
1.469446237e-09
1.454494853e-09
1.440430029e-09
1.428879402e-09
1.421870066e-09
1.487511729e-09
1.480290407e-09
1.469976302e-09
1.457296031e-09
1.44312934e-09
1.42853909e-09
1.414814666e-09
1.403544315e-09
1.396705594e-09
1.46073514e-09
1.45368722e-09
1.443620876e-09
1.431245414e-09
1.417419652e-09
1.403181152e-09
1.3897884e-09
1.378791248e-09
1.372118901e-09
1.434574562e-09
1.427695381e-09
1.41787017e-09
1.405791424e-09
1.392297666e-09
1.378401831e-09
1.365332331e-09
1.354601575e-09
1.348091545e-09
1.409009029e-09
1.402294006e-09
1.392703428e-09
1.380913479e-09
1.367742982e-09
1.354180951e-09
1.341426523e-09
1.330955587e-09
1.324603971e-09
1.384016431e-09
1.377461015e-09
1.368098615e-09
1.356589613e-09
1.343733713e-09
1.330496733e-09
1.318049329e-09
1.307831774e-09
1.301634773e-09
1.359572935e-09
1.353172524e-09
1.344031772e-09
1.332795779e-09
1.320245739e-09
1.307324995e-09
1.29517653e-09
1.285205914e-09
1.279159744e-09
1.335652286e-09
1.329402115e-09
1.32047625e-09
1.309505029e-09
1.297251813e-09
1.284638179e-09
1.272780284e-09
1.263049947e-09
1.25715071e-09
1.312224974e-09
1.306119982e-09
1.297401803e-09
1.286686571e-09
1.274720507e-09
1.262404191e-09
1.250827866e-09
1.241330635e-09
1.235574129e-09
1.289257269e-09
1.283291912e-09
1.274773518e-09
1.2643046e-09
1.252614965e-09
1.240585062e-09
1.229280229e-09
1.220008022e-09
1.214389488e-09
1.266710138e-09
1.260878163e-09
1.252550603e-09
1.24231699e-09
1.230891523e-09
1.219135461e-09
1.208090395e-09
1.199033723e-09
1.193547524e-09
1.244538064e-09
1.238832239e-09
1.230685116e-09
1.220673979e-09
1.209498265e-09
1.198001125e-09
1.187201767e-09
1.178349126e-09
1.172988351e-09
1.222687807e-09
1.217099613e-09
1.209120642e-09
1.199316741e-09
1.188373514e-09
1.177117254e-09
1.166546416e-09
1.157883578e-09
1.15263958e-09
1.201097166e-09
1.195616458e-09
1.187790972e-09
1.178176026e-09
1.167444403e-09
1.156406993e-09
1.146043475e-09
1.137552696e-09
1.132414574e-09
1.179693794e-09
1.174308442e-09
1.166618971e-09
1.157170971e-09
1.146625618e-09
1.135780119e-09
1.125597764e-09
1.117256949e-09
1.112210998e-09
1.158394247e-09
1.153089966e-09
1.145515649e-09
1.136208148e-09
1.125818443e-09
1.115132073e-09
1.105098824e-09
1.096880681e-09
1.091909842e-09
1.137103704e-09
1.131863574e-09
1.12437959e-09
1.115181005e-09
1.104910226e-09
1.094343489e-09
1.084420505e-09
1.076291769e-09
1.071375125e-09
1.115715608e-09
1.110519687e-09
1.103096759e-09
1.093969777e-09
1.083774429e-09
1.073280383e-09
1.063421317e-09
1.055342116e-09
1.050454482e-09
1.094111721e-09
1.088936803e-09
1.08154086e-09
1.072442033e-09
1.062271396e-09
1.051795175e-09
1.041945707e-09
1.033869172e-09
1.028980855e-09
1.072162864e-09
1.066982389e-09
1.059574442e-09
1.05045403e-09
1.040249994e-09
1.029728679e-09
1.019826433e-09
1.011698652e-09
1.006775451e-09
1.049730426e-09
1.044514552e-09
1.03705081e-09
1.027852962e-09
1.01755029e-09
1.006913238e-09
9.96888165e-10
9.886485975e-10
9.836521185e-10
1.02666871e-09
1.021384587e-09
1.01381688e-09
1.004480223e-09
9.940072969e-10
9.831770462e-10
9.729524333e-10
9.645348751e-10
9.594232288e-10
1.002828175e-09
9.974404503e-10
9.897170146e-10
9.801757114e-10
9.694558798e-10
9.583497255e-10
9.478438969e-10
9.391781038e-10
9.339070552e-10
9.78059591e-10
9.725311933e-10
9.645978601e-10