/*--------------------------------*- C++ -*----------------------------------*\
| =========                 |                                                 |
| \\      /  F ield         | OpenFOAM: The Open Source CFD Toolbox           |
|  \\    /   O peration     | Version:  2212                                  |
|   \\  /    A nd           | Website:  www.openfoam.com                      |
|    \\/     M anipulation  |                                                 |
\*---------------------------------------------------------------------------*/
FoamFile
{
    version     2.0;
    format      ascii;
    arch        "LSB;label=32;scalar=64";
    class       volScalarField;
    location    "18.25000000";
    object      T;
}
// * * * * * * * * * * * * * * * * * * * * * * * * * * * * * * * * * * * * * //

dimensions      [0 0 0 1 0 0 0];

internalField   nonuniform List<scalar> 
3000
(
300.9398008
300.9282769
300.908157
300.8748256
300.8188053
300.7199211
300.5325446
300.1452675
299.2493443
300.8006607
300.7650303
300.7049325
300.610927
300.46662
300.2444511
299.8989841
299.3593319
298.537157
300.6331034
300.573962
300.4776127
300.3344983
300.1301012
299.8446003
299.4546458
298.9414504
298.3180605
300.4536732
300.3759648
300.2531495
300.0784358
299.8428172
299.5371044
299.1563711
298.7083913
298.2268516
300.2731533
300.1827348
300.0433222
299.8518173
299.6050515
299.3024623
298.9501134
298.5651893
298.1776005
300.0978424
300.0000491
299.8522098
299.6547503
299.409326
299.1211808
298.8016368
298.4691175
298.15
299.930762
299.8298312
299.6796471
299.4835463
299.2467067
298.9777941
298.6899512
298.3998816
298.15
299.773329
299.672442
299.5242313
299.3342115
299.1098803
298.8616123
298.6025946
298.347147
298.15
299.6260588
299.5274818
299.384163
299.2031044
298.9931609
298.7653127
298.5319892
298.3052655
298.15
299.4890265
299.3943024
299.2577446
299.087258
298.892345
298.6839298
298.473394
298.2709244
298.15
299.3620534
299.2721658
299.1434664
298.9843037
298.8043345
298.6140584
298.4237607
298.242096
298.15
299.2448173
299.1603333
299.0400384
298.8923838
298.7268551
298.5533394
298.3810801
298.2174971
298.15
299.1369138
299.0580979
298.9463721
298.810049
298.6582394
298.5001357
298.3440284
298.1963313
298.15
299.0379047
298.9648122
298.8615695
298.7361891
298.5972881
298.4533412
298.3117771
298.1781692
298.15
298.947362
298.8799146
298.7849219
298.6699954
298.5431962
298.4122897
298.2839214
298.162935
298.15
298.8649182
298.8029678
298.7159304
298.6109604
298.4955377
298.3767405
298.2604929
298.1509852
298.15
298.7903254
298.7337123
298.6543527
298.5589205
298.4543114
298.3469333
298.2420013
298.15
298.15
298.7235337
298.6721451
298.6002866
298.5141545
298.4200779
298.3238206
298.2299082
298.15
298.15
298.664793
298.6186294
298.5542921
298.4775254
298.3941204
298.3092102
298.2265901
298.15
298.15
298.61479
298.5740458
298.5175696
298.4506994
298.3787307
298.3061709
298.2360054
298.1691468
298.15
298.5748286
298.5399965
298.4922015
298.4364464
298.3775902
298.3195144
298.2642688
298.21138
298.1575502
298.5470643
298.5190701
298.4814675
298.4390267
298.396254
298.3564015
298.320402
298.2859314
298.2469135
298.5347992
298.5151755
298.4902393
298.4646718
298.4427425
298.4270724
298.4172333
298.4084194
298.390624
298.5428463
298.5339499
298.5254577
298.5221549
298.5282339
298.5456863
298.5724058
298.600279
298.613851
298.5779628
298.583241
298.5966878
298.6234453
298.6678383
298.7312346
298.8094457
298.889997
298.9500481
298.6493541
298.6736604
298.7167453
298.784427
298.8814241
299.0084825
299.1588194
299.3142805
299.442235
298.769241
298.8191976
298.902377
299.0256572
299.1944574
299.4088796
299.6588917
299.9190363
300.1439824
298.9534805
299.0378802
299.1749726
299.3731316
299.6388056
299.9713687
300.3566925
300.7600383
301.1199386
299.2222243
299.3524611
299.5612817
299.8590175
300.2534519
300.7430231
301.3083955
301.9031611
302.4457503
299.6005954
299.7911063
300.094103
300.5223117
301.0850631
301.779437
302.5794225
303.4240822
304.2072742
300.1193592
300.3880563
300.8129085
301.4093749
302.1883521
303.1448013
304.2440969
305.4073817
306.4990254
300.8155603
301.1842255
301.7643598
302.5742922
303.6261724
304.9115972
306.3847885
307.9450066
309.4218781
301.7330919
302.2277004
303.0026699
304.0789992
305.4692819
307.1598486
309.0905118
311.1341074
313.0800947
302.9231584
303.5740904
304.5897531
305.9931125
307.795711
309.9758814
312.454961
315.0742963
317.5778257
304.4445827
305.286676
306.5950995
308.3933952
310.6896722
313.4505549
316.5740007
319.8644239
323.0152724
306.3639036
307.4362894
309.0953056
311.3627885
314.2399606
317.6769541
321.5426698
325.5990165
329.4847387
308.7551939
310.1008584
312.1731876
314.9889503
318.5378195
322.7475764
327.451806
332.3645603
337.0668182
311.6995265
313.3645366
315.9164127
319.3622634
323.6742856
328.7511018
334.3844614
340.2358583
345.8269588
315.2840064
317.3163506
320.4156042
324.5733171
329.7370883
335.7689012
342.4123279
349.2727052
355.812621
319.6002922
322.0483112
325.7619111
330.7099205
336.8072484
343.8715055
351.5924341
359.5171191
367.051199
324.7425466
327.6529656
332.0440835
337.8537755
344.9555851
353.1152986
361.9643743
370.9913331
379.5488138
330.8047871
334.2204186
339.3451619
346.0770018
354.2393927
363.53971
373.5482986
383.6966827
393.2900119
337.8776623
341.834912
347.7389502
355.4387585
364.6995592
375.1651478
386.3438177
397.6134385
408.2383378
346.0447511
350.5711245
357.286503
365.9822267
376.3583719
387.9918343
400.3298768
412.7015452
424.337683
355.3785675
360.4904212
368.0328874
377.7322012
389.2181821
401.9996066
415.4655521
428.9021485
441.5142753
365.9365373
371.6373336
380.0044832
390.6934819
403.2610061
417.148637
431.6916365
446.1397435
459.6791451
377.7572795
384.036571
393.2070472
404.8501752
418.4490385
433.38094
448.9328264
464.3247486
478.7308977
390.8575508
397.6908462
407.6247042
420.1659209
434.7259666
450.6224777
467.1002977
483.3563114
498.5586338
405.2301866
412.5797347
423.2199381
436.5849802
452.0189207
468.7856589
486.094478
503.1251816
519.0448731
420.8432898
428.6597003
439.9345783
454.0340644
470.2408805
487.7720414
505.8078459
523.5165389
540.0683673
437.6408032
445.8653171
457.691705
472.4247573
489.2933549
507.4750562
526.1275893
544.412562
561.5067102
455.5444711
464.1116396
476.3983869
491.6564414
509.0692244
527.7826274
546.9380481
565.6947385
583.2386604
474.4570881
483.2976257
495.9487463
511.6186408
529.4548773
548.5794398
568.1230604
587.2462685
605.1462396
494.2627322
503.3058301
516.2245157
532.1934927
550.3335964
569.7503083
589.5688761
608.9543353
627.1167095
514.8332674
524.0093787
537.1010879
553.2595111
571.5875717
591.1811595
611.1647873
630.7108525
649.0436264
536.0329591
545.2757718
558.4505527
574.6942462
593.100143
612.7609277
632.8047174
652.4138279
670.8279906
557.7226067
566.9704917
580.1447217
596.3767366
614.7577744
634.3831365
654.3884895
673.9683766
692.379053
579.7632906
588.960267
602.0578335
618.1896693
636.4517417
655.9471984
675.8228147
695.2874515
713.6148351
602.019599
611.1158804
624.0688654
640.0212025
658.0795236
677.3594417
697.0220215
716.2923273
734.4624048
624.362267
633.3144647
646.0634157
661.7664325
679.5458894
698.533874
717.9085433
736.9128535
754.8579315
646.6702183
655.4412787
667.9351527
683.3285061
700.7636979
719.3927011
738.4131958
757.0875195
774.7465605
668.8320354
677.3909845
689.586849
704.6193965
721.6544233
739.8666227
758.4752635
776.7633541
794.0821373
690.7469149
699.0684723
710.9310362
725.5603703
742.1484316
759.894926
778.0424206
795.8956834
812.8268136
712.3251775
720.3892907
731.8903268
746.0821822
762.1850384
779.4254024
797.0705094
814.4477757
830.9505615
733.4884071
741.2797468
752.3974538
766.1250358
781.7123773
798.4141153
815.5232032
832.3903977
848.4306241
754.1692925
761.6767359
772.3950766
785.6383504
800.6871125
816.8250471
833.3715789
849.7013071
865.250923
774.3112364
781.5273598
791.8354023
804.5803731
819.0740283
834.6296518
850.5936213
866.3647005
881.4014443
793.8677906
800.7883853
810.679667
822.9176753
836.845526
851.8063389
867.173682
882.370637
896.8776187
812.8019713
819.4255921
828.8975194
840.6245654
853.9810565
868.339912
883.1019111
897.7144523
911.6797097
831.0854984
837.4130485
846.4663409
857.6824504
870.4665128
884.2209812
898.3736779
912.3961766
925.8122195
848.697995
854.7323506
863.3705313
874.0791688
886.2936044
899.4453678
912.9889947
926.4199678
939.2833225
865.6261751
871.3718488
879.6007851
889.8083173
901.4592285
914.0135133
926.9519534
939.7935667
952.1043308
881.8630437
887.3258858
895.153377
904.8685871
915.9648555
927.9299055
940.2701848
952.5277804
964.2891958
897.4071237
902.5940594
910.0294717
919.2631246
929.8159373
941.2025297
952.9543437
964.6359947
975.8540438
912.2617244
917.1805241
924.2344696
932.9989256
943.0213507
953.8423548
965.0176278
976.1337085
986.8167197
926.4342588
931.0933399
937.7773974
946.0862745
955.5928869
965.8628723
976.4753542
987.0380963
997.1961131
939.9356133
944.3438705
950.670345
958.5382277
967.5447894
977.2797081
987.3447099
997.3681147
1007.014352
952.7795734
956.9462325
962.9279471
970.3701286
978.8932932
988.1101508
997.6441599
1007.144618
1016.290558
964.9823046
968.9167988
974.5669162
981.599176
989.6562355
998.3728192
1007.394524
1016.386194
1025.047095
976.5618886
980.2737539
985.6056252
992.2440399
999.8527057
1008.088783
1016.613895
1025.114725
1033.305783
987.5379126
991.0367004
996.063737
1002.325956
1009.504321
1017.275932
1025.324002
1033.351433
1041.088535
997.9311076
1001.227825
1005.963475
1011.862999
1018.629002
1025.95614
1033.5458
1041.117661
1048.417169
1007.764764
1010.865855
1015.323334
1020.877546
1027.248997
1034.150376
1041.300379
1048.434707
1055.313272
1017.057942
1019.974037
1024.166266
1029.390937
1035.385492
1041.879726
1048.608798
1055.323672
1061.798071
1025.834364
1028.574405
1032.514057
1037.424687
1043.059746
1049.165233
1055.491936
1061.805346
1067.892342
1034.116412
1036.689116
1040.38856
1045.000309
1050.292929
1056.027747
1061.970374
1067.900102
1073.616323
1041.926445
1044.340274
1047.811533
1052.139164
1057.105984
1062.487813
1068.064296
1073.627816
1078.989652
1049.286642
1051.549778
1054.804497
1058.862325
1063.519516
1068.565566
1073.793397
1079.007796
1084.031317
1056.218863
1058.339196
1061.388612
1065.190475
1069.553687
1074.280646
1079.17682
1084.058733
1088.759621
1062.74454
1064.729655
1067.584579
1071.143806
1075.228138
1079.652132
1084.233097
1088.798656
1093.192152
1068.884583
1070.74175
1073.412556
1076.741949
1080.561922
1084.698482
1088.980108
1093.244904
1097.34577
1074.659297
1076.395467
1078.892082
1082.003906
1085.57345
1089.437494
1093.435047
1097.414106
1101.236598
1080.088323
1081.710128
1084.042031
1086.948008
1090.28045
1093.886274
1097.614404
1101.322171
1104.880019
1085.190583
1086.704339
1088.880561
1091.591872
1094.69994
1098.061211
1101.533948
1104.984279
1108.290685
1089.98425
1091.395959
1093.425092
1095.952381
1098.848204
1101.977968
1105.208724
1108.414889
1111.482524
1094.486717
1095.802076
1097.692278
1100.045663
1102.740788
1105.651478
1108.653056
1111.627747
1114.468753
1098.714585
1099.938994
1101.698004
1103.887093
1106.392495
1109.095946
1111.880552
1114.635893
1117.2619
1102.683657
1103.82223
1105.457381
1107.491287
1109.817387
1112.324855
1114.90412
1117.451685
1119.87382
1106.408944
1107.466519
1108.984755
1110.872115
1113.028804
1115.350986
1117.735981
1120.086814
1122.315722
1109.904671
1110.885823
1112.293715
1114.042711
1116.039371
1118.186431
1120.387694
1122.552327
1124.598185
1113.184298
1114.093352
1115.397118
1117.0155
1118.861027
1120.842617
1122.870174
1124.858651
1126.731193
1116.260539
1117.101584
1118.307106
1119.802211
1121.505043
1123.33033
1125.193723
1127.015621
1128.72415
1119.145391
1119.922293
1121.035135
1122.413913
1123.982049
1125.659741
1127.368048
1129.032501
1130.585915
1121.85016
1122.566573
1123.592001
1124.861037
1126.302066
1127.840434
1129.402296
1130.918016
1132.324823
1124.385495
1125.044878
1125.987876
1127.153408
1128.47453
1129.881434
1131.305078
1132.680376
1133.948712
1126.76142
1127.367045
1128.232335
1129.300277
1130.508325
1131.791238
1133.084495
1134.3273
1135.464947
1128.987368
1129.542333
1130.334388
1131.31035
1132.411814
1133.57784
1134.748168
1135.866046
1136.880447
1131.072215
1131.579456
1132.302516
1133.191821
1134.192863
1135.24876
1136.303266
1137.303436
1138.201707
1133.024312
1133.486611
1134.144699
1134.952398
1135.858877
1136.811073
1137.756526
1138.645878
1139.434823
1134.851517
1135.271514
1135.868447
1136.59934
1137.416822
1138.271434
1139.114284
1139.899391
1140.585514
1136.561231
1136.94143
1137.480832
1138.139475
1138.873255
1139.636104
1140.382494
1141.069627
1141.659141
1138.160421
1138.503198
1138.98851
1139.579235
1140.234344
1140.910971
1141.566755
1142.161893
1142.660732
1139.65565
1139.963264
1140.397753
1140.924676
1141.505902
1142.101578
1142.672328
1143.181171
1143.594998
1141.053107
1141.3277
1141.714473
1142.181504
1142.693396
1143.213136
1143.70416
1144.132138
1144.466352
1142.358625
1142.602233
1142.944239
1143.355096
1143.80198
1144.250554
1144.666898
1145.019182
1145.278929
1143.577708
1143.792264
1144.092305
1144.450519
1144.836506
1145.218447
1145.564915
1145.846422
1146.0366
1144.71555
1144.90289
1145.163626
1145.472551
1145.801546
1146.121162
1146.402315
1146.617722
1146.742991
1145.777054
1145.938921
1146.162877
1146.425697
1146.701407
1146.962789
1147.18296
1147.336708
1147.401494
1146.766851
1146.904896
1147.094469
1147.314205
1147.540147
1147.747177
1147.910477
1148.006781
1148.015283
1147.689311
1147.805103
1147.962565
1148.142081
1148.321592
1148.477948
1148.588275
1148.631129
1148.58733
1148.548563
1148.643589
1148.771093
1148.913103
1149.049343
1149.158511
1149.219557
1149.212744
1149.120413
1149.348509
1149.424174
1149.523759
1149.630834
1149.726794
1149.792073
1149.80733
1149.754428
1149.617132
1150.09283
1150.150465
1150.224061
1150.298632
1150.357142
1150.381651
1150.35442
1150.25881
1150.079917
1150.785004
1150.825869
1150.875299
1150.919664
1150.943396
1150.930081
1150.863479
1150.728352
1150.511039
1151.428312
1151.453596
1151.480584
1151.496912
1151.48839
1151.440032
1151.336998
1151.165362
1150.912622
1152.025852
1152.036678
1152.042848
1152.033187
1151.994791
1151.914009
1151.777313
1151.572
1151.286652
1152.580546
1152.577971
1152.564857
1152.531135
1152.465107
1152.354369
1152.186617
1151.950291
1151.634982
1153.095148
1153.080169
1153.049213
1152.993247
1152.901697
1152.763322
1152.566964
1152.302128
1151.959344
1153.572254
1153.54581
1153.49837
1153.421867
1153.306777
1153.142946
1152.920283
1152.629284
1152.261358
1154.014309
1153.977281
1153.914633
1153.819198
1153.68243
1153.49519
1153.24838
1152.93342
1152.542534
1154.423615
1154.376831
1154.300173
1154.187311
1154.030613
1153.821882
1153.552946
1153.216086
1152.804283
1154.802337
1154.746574
1154.657029
1154.528153
1154.353161
1154.124736
1153.835567
1153.478733
1153.047924
1155.152511
1155.088498
1154.987119
1154.84355
1154.651797
1154.40536
1154.097725
1153.72272
1153.274684
1155.476052
1155.40447
1155.292241
1155.135218
1154.928137
1154.665257
1154.340811
1153.949313
1153.485713
1155.774756
1155.696242
1155.574085
1155.404763
1155.183692
1154.905838
1154.566121
1154.159698
1153.682081
1156.050308
1155.965458
1155.834235
1155.653693
1155.419883
1155.128422
1154.774871
1154.354981
1153.864788
1156.304292
1156.213662
1156.074175
1155.883421
1155.638036
1155.334243
1154.968197
1154.536197
1154.034765
1156.53819
1156.442298
1156.295295
1156.095268
1155.839394
1155.524457
1155.147159
1154.704312
1154.192883
1156.753391
1156.652721
1156.4989
1156.290473
1156.025119
1155.700141
1155.312749
1154.860225
1154.339952
1156.951195
1156.846196
1156.686206
1156.470193
1156.196299
1155.862306
1155.465893
1155.004778
1154.476729
1157.132819
1157.02391
1156.858354
1156.635511
1156.353948
1156.011892
1155.607455
1155.138757
1154.603919
1157.299402
1157.186971
1157.01641
1156.787438
1156.499016
1156.14978
1155.738242
1155.262892
1154.722179
1157.452008
1157.336416
1157.16137
1156.926919
1156.632389
1156.276791
1155.859006
1155.377866
1154.832123
1157.591629
1157.473211
1157.294162
1157.054837
1156.754894
1156.393691
1155.97045
1155.484317
1154.934323
1157.719195
1157.59826
1157.415656
1157.172014
1156.867302
1156.501195
1156.073228
1155.582838
1155.02931
1157.835571
1157.712407
1157.52666
1157.279219
1156.970333
1156.59997
1156.167951
1155.673981
1155.117581
1157.941563
1157.816436
1157.627931
1157.377169
1157.064658
1156.690636
1156.255188
1155.758263
1155.1996
1158.037925
1157.911082
1157.720171
1157.46653
1157.150902
1156.773774
1156.335469
1155.836164
1155.275796
1158.125358
1157.997026
1157.804038
1157.547924
1157.229649
1156.849921
1156.409288
1155.908131
1155.346572
1158.204518
1158.074906
1157.880141
1157.621932
1157.30144
1156.919581
1156.477106
1155.974582
1155.412302
1158.276014
1158.145315
1157.949052
1157.689094
1157.366782
1156.983222
1156.539349
1156.035905
1155.473334
1158.340415
1158.208805
1158.011299
1157.749911
1157.426145
1157.04128
1156.596419
1156.092462
1155.529994
1158.398248
1158.265892
1158.067378
1157.804852
1157.479968
1157.09416
1156.648686
1156.144589
1155.582585
1158.450005
1158.317054
1158.117747
1157.854352
1157.528657
1157.142239
1156.696495
1156.1926
1155.631387
1158.496144
1158.362735
1158.162833
1157.898816
1157.572594
1157.18587
1156.74017
1156.236788
1155.676664
1158.537091
1158.40335
1158.203035
1157.938622
1157.612129
1157.225378
1156.780009
1156.277424
1155.71866
1158.573239
1158.439282
1158.238722
1157.974119
1157.647592
1157.261068
1156.816291
1156.314761
1155.757604
1158.604957
1158.470891
1158.270236
1158.005632
1157.679287
1157.293222
1156.849275
1156.349034
1155.793706
1158.632586
1158.498507
1158.297897
1158.033465
1157.707499
1157.322103
1156.879202
1156.380463
1155.827165
1158.656442
1158.522439
1158.322001
1158.057898
1157.732489
1157.347956
1156.906297
1156.409252
1155.858165
1158.676819
1158.542974
1158.342823
1158.079192
1157.754503
1157.371006
1156.930767
1156.435589
1155.886877
1158.693991
1158.560376
1158.360618
1158.097589
1157.773769
1157.391466
1156.952807
1156.459652
1155.91346
1158.708211
1158.574893
1158.375623
1158.113315
1157.790497
1157.409531
1156.972596
1156.481605
1155.938064
1158.719714
1158.586754
1158.388059
1158.126578
1157.804883
1157.425382
1156.990302
1156.501601
1155.960825
1158.728717
1158.596171
1158.398129
1158.137572
1157.817109
1157.43919
1157.006081
1156.519781
1155.981874
1158.735424
1158.60334
1158.406023
1158.146477
1157.827345
1157.45111
1157.020077
1156.536278
1156.00133
1158.740021
1158.608445
1158.411916
1158.15346
1157.835746
1157.46129
1157.032425
1156.551214
1156.019305
1158.742683
1158.611654
1158.415971
1158.158674
1157.842459
1157.469863
1157.043248
1156.564703
1156.035902
1158.743569
1158.613125
1158.418338
1158.162265
1157.847617
1157.476955
1157.052664
1156.576853
1156.051218
1158.742829
1158.613002
1158.419158
1158.164363
1157.851346
1157.482683
1157.060778
1156.58776
1156.065344
1158.740601
1158.611418
1158.418559
1158.165093
1157.853761
1157.487155
1157.067692
1156.597518
1156.078362
1158.73701
1158.608499
1158.416659
1158.164566
1157.854969
1157.490469
1157.073498
1156.60621
1156.090352
1158.732175
1158.604358
1158.41357
1158.162889
1157.855068
1157.492719
1157.07828
1156.613916
1156.101384
1158.726201
1158.599098
1158.40939
1158.160155
1157.854149
1157.493988
1157.082116
1156.620708
1156.111527
1158.719185
1158.592814
1158.404212
1158.156452
1157.852292
1157.494352
1157.085079
1156.626653
1156.120842
1158.711214
1158.585589
1158.398114
1158.151855
1157.849571
1157.49388
1157.087232
1156.631809
1156.129386
1158.702361
1158.577496
1158.391166
1158.146432
1157.846047
1157.49263
1157.088631
1156.636231
1156.137208
1158.692686
1158.568593
1158.383425
1158.140234
1157.84177
1157.490649
1157.089318
1156.63996
1156.144352
1158.682233
1158.558921
1158.374928
1158.133297
1157.836773
1157.487967
1157.089325
1156.643027
1156.150849
1158.67102
1158.548498
1158.365691
1158.125635
1157.831066
1157.484595
1157.088661
1156.645443
1156.156718
1158.659038
1158.53731
1158.355698
1158.117227
1157.824629
1157.480509
1157.087305
1156.647193
1156.16195
1158.646231
1158.525301
1158.344889
1158.108011
1157.817394
1157.475642
1157.085192
1156.648219
1156.166501
1158.632489
1158.512356
1158.333143
1158.097859
1157.809231
1157.469861
1157.082192
1156.6484
1156.170267
1158.617619
1158.498275
1158.320253
1158.086557
1157.799916
1157.46294
1157.078078
1156.647521
1156.173057
1158.601316
1158.482745
1158.305894
1158.073766
1157.789098
1157.454516
1157.072489
1156.645228
1156.174543
1158.583128
1158.465302
1158.289581
1158.058978
1157.776248
1157.444043
1157.064867
1156.64097
1156.174202
1158.562403
1158.44527
1158.270612
1158.041459
1157.760595
1157.430718
1157.054388
1156.63392
1156.171231
1158.538224
1158.421707
1158.248003
1158.020171
1157.741047
1157.413397
1157.039866
1156.622873
1156.164442
1158.509338
1158.393316
1158.220396
1157.993685
1157.716093
1157.390486
1157.019638
1156.60612
1156.152119
1158.474058
1158.358352
1158.185963
1157.960069
1157.683684
1157.359815
1156.991421
1156.581292
1156.131861
1158.430157
1158.314511
1158.142288
1157.916762
1157.641092
1157.318484
1156.95215
1156.545188
1156.100381
1158.374744
1158.2588
1158.086224
1157.860427
1157.584761
1157.262697
1156.89779
1156.493562
1156.053285
1158.304129
1158.187393
1158.013752
1157.786794
1157.510127
1157.18757
1156.823134
1156.420909
1155.984831
1158.213669
1158.09548
1157.919813
1157.690487
1157.411439
1157.086938
1156.721588
1156.320223
1155.887666
1158.097613
1157.977103
1157.798142
1157.564846
1157.281567
1156.953145
1156.584945
1156.182762
1155.752571
1157.948944
1157.824992
1157.641098
1157.401748
1157.111814
1156.776852
1156.403181
1155.997813
1155.568204
1157.759221
1157.63041
1157.439501
1157.191442
1156.891742
1156.546845
1156.16425
1155.752489
1155.320877
1157.518437
1157.383002
1157.182484
1156.922393
1156.609018
1156.249879
1155.853923
1155.431549
1154.994373
1157.214891
1157.070674
1156.857366
1156.58116
1156.249284
1155.870554
1155.455665
1155.017276
1154.56981
1156.835087
1156.679488
1156.449559
1156.152307
1155.796079
1155.391239
1154.950562
1154.489413
1154.025589
1156.363671
1156.193612
1155.942514
1155.618357
1155.23081
1154.792055
1154.317323
1153.825176
1153.337412
1155.783408
1155.595294
1155.317719
1154.959807
1154.53277
1154.050918
1153.532344
1152.999344
1152.478401
1155.075208
1154.864908
1154.554748
1154.155191
1153.67924
1153.143663
1152.569859
1151.984437
1151.419303
1154.218207
1153.981039
1153.631369
1153.181214
1152.645641
1152.04423
1151.402165
1150.750985
1150.128799
1153.189905
1152.920635
1152.523715
1152.012951
1151.405763
1150.724933
1149.99993
1149.267872
1148.573895
1151.966358
1151.659217
1151.206515
1150.624099
1149.93206
1149.156789
1148.332566
1147.502768
1146.720402
1150.522428
1150.171142
1149.653376
1148.987298
1148.196001
1147.309912
1146.368673
1145.422614
1144.53348
1148.832083
1148.429918
1147.837131
1147.074499
1146.168475
1145.153963
1144.076533
1142.994171
1141.978234
1146.868744
1146.408569
1145.730212
1144.857377
1143.820237
1142.658636
1141.424637
1140.184593
1139.020344
1144.605666
1144.080025
1143.305075
1142.307769
1141.122383
1139.794162
1138.382235
1136.962025
1135.626707
1142.016352
1141.417551
1140.534636
1139.398145
1138.046841
1136.531837
1134.919897
1133.296197
1131.766074
1139.074973
1138.395177
1137.39272
1136.102066
1134.566858
1132.844535
1131.010052
1129.158997
1127.409658
1135.756801
1134.988138
1133.854512
1132.394657
1130.65748
1128.707205
1126.627505
1124.525009
1122.531696
1132.038628
1131.1733
1129.896988
1128.253037
1126.296002
1124.097327
1121.749908
1119.372001
1117.109952
1127.899174
1126.929562
1125.499318
1123.656735
1121.46238
1118.995331
1116.35818
1113.681341
1111.126143
1123.319452
1122.23823
1120.643241
1118.588051
1116.139588
1113.384952
1110.436857
1107.438353
1104.566287
1118.283107
1117.083345
1115.313385
1113.032374
1110.313928
1107.253521
1103.97437
1100.632572
1097.420951
1112.7767
1111.451959
1109.497535
1106.978437
1103.975267
1100.592188
1096.963245
1093.257933
1089.685417
1106.789943
1105.334369
1103.186848
1100.418513
1097.117215
1093.396072
1089.400235
1085.312862
1081.359744
1100.315878
1098.72428
1096.376012
1093.348554
1089.737233
1085.664348
1081.286361
1076.800294
1072.448751
1093.351005
1091.618925
1089.063337
1085.768266
1081.836695
1077.400271
1072.62691
1067.727618
1062.961913
1085.895341
1084.019115
1081.25081
1077.681144
1073.420894
1068.611157
1063.431378
1058.106575
1052.913195
1077.952431
1075.929245
1072.944077
1069.094452
1064.49902
1059.308365
1053.713428
1047.953161
1042.320843
1069.529274
1067.357212
1064.152369
1060.019152
1055.084119
1049.507295
1043.490955
1037.287687
1031.207257
1060.636157
1058.314236
1054.888303
1050.469714
1045.192956
1039.227421
1032.786426
1026.135473
1019.599494
1051.286378
1048.814537
1045.167497
1040.463645
1034.845509
1028.491968
1021.627396
1014.529484
1007.534277
1041.495885
1038.874892
1035.007952
1030.020553
1024.06345
1017.325579
1010.044089
1002.514144
994.9801645
1031.282964
1028.51427
1024.429543
1019.16122
1012.867928
1005.747812
997.9321392
989.953644
982.0755855
1020.668135
1017.753848
1013.454392
1007.908941
1001.283598
993.6653624
985.5444275
977.1252997
968.7949575
1009.674056
1006.61698
1002.106908
996.1717805
989.2146296
981.3375594
972.808082
963.9560086
955.1823108
998.2091125
995.0102051
990.2907474
984.2027644
976.9267237
968.6860317
959.7578297
950.4832985
941.2769419
986.5218264
983.1874936
978.2682276
971.9222278
964.3368661
955.7435106
946.4286034
936.7442319
927.1177448
974.531882
971.0669116
965.9549369
959.360141
951.4765655
942.5432464
932.8555166
922.7758143
912.7435958
962.2673891
958.6771527
953.3804316
946.547176
938.3778302
929.1187572
919.0737243
908.6149234
898.193161
949.7571687
946.0475505
940.5747987
933.5143894
925.0728766
915.5035769
905.1182068
894.2980922
883.5046152
937.0304818
933.2078045
927.5683832
920.2929572
911.5938766
901.7310162
891.0235378
879.8612651
868.7153669
924.1167625
920.1877175
914.3915305
906.9139246
897.9727165
887.8339291
876.8236525
865.3395596
853.8618045
911.0453809
907.0169609
901.0743561
893.4079812
884.2407791
873.8444995
862.5516346
850.7670503
838.9790753
897.8454249
893.72486
887.6465359
879.8052575
870.4287445
859.7940461
848.2395248
836.1765788
824.1008947
884.5455055
880.3402026
874.137119
866.1351418
856.5664138
845.7128517
833.9181547
821.5995911
809.2593878
871.173582
866.8910672
860.5743608
852.42612
842.6825541
831.6300148
819.617005
807.0660033
794.4849618
857.7568076
853.404673
846.9855776
838.705636
828.8047667
817.5733256
805.3640902
792.6040949
779.8062083
844.3213962
839.9072489
833.3970217
824.9999732
814.9593764
803.5691645
791.1858666
778.2404272
765.2498316
830.8925073
826.4239234
819.8337757
811.3341567
801.1713424
789.6424225
777.1071635
763.9997843
750.8406024
817.4941505
812.9786328
806.3196678
797.7318752
787.464189
775.8164422
763.151134
749.9051382
736.6013367
804.1491087
799.5940479
792.8772036
784.2154217
773.8599553
762.1129764
749.3392277
735.9776343
722.5528931
790.8788773
786.2915181
779.5275168
770.8056502
760.3791603
748.5521673
735.6911819
722.2365944
708.7141893
777.7036218
773.0910321
766.2903337
757.5219488
747.0407884
735.1525418
722.2250275
708.6995354
695.1022342
764.6421453
760.0111896
753.1839547
744.3822304
733.8622877
721.9310191
708.9571088
695.3822021
681.7321735
751.7118763
747.0691943
740.2252506
731.402935
720.8595808
708.9029326
695.9021164
682.2986109
668.6173472
738.9288676
734.2808551
727.4296695
718.5990437
708.0470876
696.0820622
683.0731299
669.4611061
655.7693572
726.3078047
721.6605984
714.8112548
705.9841033
695.437758
683.4806757
670.4816711
656.8804229
643.1981417
713.8620259
709.2214914
702.3826725
693.5702601
683.0431128
671.1095801
658.1377642
644.5657588
630.9120565
701.60355
696.9752729
690.155247
681.3683014
670.8732936
658.9781787
646.0500015
632.5248473
618.9179594
689.5431123
684.9323918
678.1390039
669.3877045
658.9371176
647.0945331
634.2256137
620.7640377
607.2212983
677.6902064
673.1020528
666.3427197
657.6366908
647.2421377
635.4654299
622.6705439
609.2883768
595.8262013
666.0531341
661.492267
654.7739758
646.1222841
635.7947052
624.0964501
611.3895234
598.1016914
584.7355665
654.6390569
650.1099063
643.4392154
634.8503713
624.6000366
612.9920401
600.386149
587.2066725
573.9511519
643.4540516
638.9607608
632.3438038
623.8257663
613.6622802
602.1555841
589.6629602
576.6049575
563.4736646
632.5031683
628.049598
621.4920897
613.0522742
602.9845848
591.5894764
579.2215163
566.2972124
553.3028474
621.7904894
617.3802232
610.8874682
602.5327569
592.5691682
581.2951935
569.0624723
556.2832117
543.4375627
611.3191899
606.9555411
600.5324435
592.269198
582.4173844
571.2733644
559.1856526
546.5619163
533.8758749
601.0915976
596.7776171
590.4286914
582.2627673
572.5297909
561.52384
549.5901233
537.1315479
524.6151276
591.1092528
586.8477372
580.5771215
572.5138838
562.9062128
552.0457601
540.2742609
527.9896611
515.6520188
581.3729667
577.1664679
570.9779366
563.0222773
553.5458062
542.8376177
531.2358193
519.1332118
506.9826715
571.8828789
567.7337132
561.6306915
553.7870473
544.4471185
533.8973207
522.4719927
510.5586222
498.6027005
562.6385118
558.54877
552.5343479
544.8067192
535.6081455
525.2222516
513.9794772
502.2618431
490.5072758
553.6388215
549.6103785
543.6873262
536.0792966
527.026385
516.8093222
505.7545284
494.2384157
482.6911832
544.8822449
540.9167688
535.0875496
527.6023047
518.6988815
508.6550204
497.7930093
486.4835221
475.1488808
536.3667422
532.4656998
526.7324781
519.3728218
510.6222613
500.75546
490.0904647
478.992064
467.8745539
528.0898369
524.2545118
518.619208
511.3876249
502.7928918
493.1064955
482.642137
471.7586212
460.8621291
520.0487757
516.2802904
510.7445592
503.6431767
495.2067967
485.7036469
475.4429907
464.7775646
454.1053518
512.2404797
508.5397914
503.1050362
496.1356475
487.8597379