/*--------------------------------*- C++ -*----------------------------------*\
| =========                 |                                                 |
| \\      /  F ield         | OpenFOAM: The Open Source CFD Toolbox           |
|  \\    /   O peration     | Version:  2212                                  |
|   \\  /    A nd           | Website:  www.openfoam.com                      |
|    \\/     M anipulation  |                                                 |
\*---------------------------------------------------------------------------*/
FoamFile
{
    version     2.0;
    format      ascii;
    arch        "LSB;label=32;scalar=64";
    class       volVectorField;
    location    "18.25000000";
    object      U_0;
}
// * * * * * * * * * * * * * * * * * * * * * * * * * * * * * * * * * * * * * //

dimensions      [0 1 -1 0 0 0 0];

internalField   nonuniform List<vector> 
3000
(
(0.1354898005 -0.00372121385 6.820724795e-12)
(0.1358116401 -0.00634991868 1.372771789e-11)
(0.1365098661 -0.009885830675 2.787158812e-11)
(0.1376957989 -0.01449879014 6.038381352e-11)
(0.1394425355 -0.02032626103 1.39280018e-10)
(0.1415466092 -0.0280136139 4.637006223e-11)
(0.1421321227 -0.03444029376 1.692089099e-11)
(0.1343044296 -0.04160197101 7.438962461e-12)
(0.09184425947 -0.02019576761 1.813934184e-12)
(0.1464968013 -0.008039961701 3.036478899e-11)
(0.1484091253 -0.01316833009 5.843462893e-11)
(0.1510285935 -0.01900817803 1.017986615e-10)
(0.1543699966 -0.02501767879 1.718822275e-10)
(0.1577477071 -0.03060735392 2.825620093e-10)
(0.158904669 -0.03489491539 1.339344243e-10)
(0.1535932258 -0.03398101125 6.29171963e-11)
(0.1315480173 -0.02860858818 2.609487777e-11)
(0.07480531251 -0.007902716441 7.12659508e-12)
(0.16405263 -0.01075770685 5.627889867e-11)
(0.166003236 -0.01699600307 1.034369754e-10)
(0.1683015089 -0.0233830291 1.682962345e-10)
(0.1700592059 -0.02884273546 2.561692185e-10)
(0.1694297105 -0.03247246175 3.671961346e-10)
(0.1631432597 -0.03292192882 1.932035686e-10)
(0.1463942861 -0.0283351142 9.609366927e-11)
(0.1096675749 -0.01868435671 4.537474991e-11)
(0.04725367038 -0.003427018463 1.28231651e-11)
(0.183271329 -0.01067137504 6.185276494e-11)
(0.1845064852 -0.01643402942 1.149134614e-10)
(0.1853014283 -0.02175373009 2.002571054e-10)
(0.1841363995 -0.02539881258 2.99673058e-10)
(0.1786610163 -0.02658705823 4.185148157e-10)
(0.1654960443 -0.02466190959 2.310480071e-10)
(0.1405654175 -0.01849631429 1.262520459e-10)
(0.09878905193 -0.009805899058 6.256064756e-11)
(0.03914435849 -0.001315407428 1.783721837e-11)
(0.2002335026 -0.009573390614 -7.108231915e-11)
(0.1998384249 -0.01443743796 -2.05160904e-10)
(0.1979235829 -0.01850738481 9.348126069e-11)
(0.192691859 -0.02063326013 2.254486874e-10)
(0.1818297413 -0.02039204797 2.725845173e-10)
(0.1624560084 -0.01747414917 2.029886174e-10)
(0.1319996503 -0.01198174123 1.287257215e-10)
(0.08841212124 -0.005514354902 6.885877912e-11)
(0.03256090916 -0.0005023430074 2.017705919e-11)
(0.2147811829 -0.007871771198 -3.259536664e-11)
(0.2125664109 -0.0116413423 -2.535428928e-11)
(0.2078499275 -0.01451526765 1.133509554e-10)
(0.1988779856 -0.0155598033 2.385031151e-10)
(0.1836662347 -0.01464717035 3.559409941e-10)
(0.1601279934 -0.0117897383 2.229138122e-10)
(0.1267902824 -0.007540544491 1.380564827e-10)
(0.08304092238 -0.003131921827 7.466151972e-11)
(0.02999784794 -0.0002320448639 2.209268883e-11)
(0.2259157392 -0.006204855969 -1.259485468e-10)
(0.2218812073 -0.009037186081 -2.525547433e-10)
(0.2145142105 -0.01101630975 2.352987555e-11)
(0.2022895225 -0.01144243423 1.692793413e-10)
(0.1836619519 -0.01037029606 2.350337653e-10)
(0.1572338193 -0.007968927362 1.934519194e-10)
(0.1222747915 -0.004842146116 1.358882592e-10)
(0.07885352874 -0.001872902484 7.940313844e-11)
(0.02804263693 -9.437792689e-05 2.443016606e-11)
(0.2345586838 -0.004729249381 -7.529951868e-11)
(0.2289424934 -0.006792980398 -8.341302922e-11)
(0.2193690378 -0.008124397729 4.278185588e-11)
(0.204611008 -0.008222889399 1.790153283e-10)
(0.1835380826 -0.007231232924 3.364775908e-10)
(0.1552633855 -0.005366522476 2.267354328e-10)
(0.1194790775 -0.003148523095 1.687453028e-10)
(0.07647714487 -0.001170611622 1.083670753e-10)
(0.02709450933 -5.66797438e-05 3.422104832e-11)
(0.2408545991 -0.003539054639 -8.779475029e-11)
(0.2339250161 -0.005029956474 -1.51927814e-10)
(0.2225787872 -0.005925250178 -2.717036624e-10)
(0.2058859858 -0.005877016581 -1.371523296e-10)
(0.1830606871 -0.005051706394 1.386981499e-10)
(0.1535693234 -0.003655577789 2.253369529e-10)
(0.1173377838 -0.002091490278 3.064671877e-10)
(0.07471797292 -0.0007549241038 2.304928855e-10)
(0.0263732613 -2.821028095e-05 6.221618677e-11)
(0.245530601 -0.002616235451 -6.692739616e-11)
(0.2375651926 -0.003684400259 -9.979004487e-11)
(0.2248590912 -0.004287396182 -1.113682922e-10)
(0.2067435167 -0.004185878104 -2.446096539e-11)
(0.1826963462 -0.003537338435 1.071259018e-10)
(0.1524165614 -0.00251517773 1.704572818e-10)
(0.115948547 -0.001417636414 1.85712602e-10)
(0.07362645306 -0.0005063411589 1.321787741e-10)
(0.02596015337 -2.053221811e-05 4.126833423e-11)
(0.2488860576 -0.00192201514 1.083101186e-10)
(0.2401215078 -0.002688630677 2.970294843e-10)
(0.2263884465 -0.003099589906 1.029654407e-10)
(0.2072322409 -0.002990848634 1.256258487e-10)
(0.182325872 -0.002496730446 2.664254402e-10)
(0.151520449 -0.001753973066 1.9096601e-10)
(0.1149201956 -0.0009784601566 1.515110468e-10)
(0.07282639161 -0.0003462274248 9.816150144e-11)
(0.02564749747 -1.255573252e-05 3.107527971e-11)
(0.2513342418 -0.001408695005 9.737333149e-11)
(0.2419661699 -0.001959795816 1.588578127e-10)
(0.227471094 -0.002243410428 1.194226099e-10)
(0.2075624499 -0.002146261815 1.314294462e-10)
(0.1820540208 -0.001776704371 1.762921424e-10)
(0.1508958186 -0.001238869941 1.686822006e-10)
(0.1142203098 -0.0006878865451 1.491190707e-10)
(0.0722932367 -0.0002435778712 1.040296799e-10)
(0.02544676424 -9.760027813e-06 3.351053267e-11)
(0.2530892685 -0.001032549555 1.545155533e-11)
(0.2432699611 -0.001431118109 -3.092151411e-11)
(0.2282127068 -0.001629979643 -2.023023614e-10)
(0.2077594251 -0.00155023971 -1.442745415e-10)
(0.1818248791 -0.001276282454 6.492358366e-11)
(0.1504244525 -0.0008859168323 1.66269498e-10)
(0.1137039995 -0.0004905755051 2.638830656e-10)
(0.07190045301 -0.0001736026928 2.146242273e-10)
(0.02529525613 -6.750449295e-06 5.646977389e-11)
(0.2543628687 -0.00075856504 -1.648799987e-11)
(0.2442090202 -0.001048405915 -5.011473254e-11)
(0.2287393489 -0.001189915626 -9.555883012e-11)
(0.2078923479 -0.001127375666 -4.976991163e-11)
(0.1816549624 -0.0009251665611 5.536122731e-11)
(0.1500863357 -0.0006408739663 1.163762181e-10)
(0.1133382454 -0.0003549128168 1.340998596e-10)
(0.07162476112 -0.000126091542 9.077472534e-11)
(0.02519058826 -5.2671671e-06 2.718210815e-11)
(0.2552791864 -0.0005590636626 -1.5280645e-11)
(0.2448782162 -0.0007713584113 -2.409910844e-11)
(0.2291062572 -0.0008735486307 -1.330699127e-11)
(0.207973679 -0.000825771309 5.774571346e-11)
(0.1815192231 -0.0006765261422 1.970252107e-10)
(0.1498319762 -0.0004682914246 1.168878376e-10)
(0.1130664036 -0.0002594932893 5.483253907e-11)
(0.07141964441 -9.236245495e-05 -3.891054959e-11)
(0.0251115577 -3.816200363e-06 -7.018005788e-12)
(0.2559438256 -0.0004138674899 -5.168099155e-12)
(0.2453607576 -0.0005703844802 -1.031443984e-12)
(0.2293673807 -0.0006451262026 1.986796583e-11)
(0.2080272591 -0.0006091708218 6.33390576e-11)
(0.1814164412 -0.0004988356128 1.067813199e-10)
(0.1496448663 -0.0003454193918 8.264484156e-11)
(0.1128681142 -0.0001918746244 4.477744758e-11)
(0.0712708343 -6.846149e-05 8.074278783e-12)
(0.02505456827 -2.769198905e-06 1.39387745e-12)
(0.256424171 -0.0003079304477 3.539727233e-12)
(0.2457070005 -0.0004241714581 1.220315918e-11)
(0.2295512648 -0.000479467139 3.012807122e-11)
(0.208059804 -0.0004525841926 5.4004927e-11)
(0.1813357379 -0.0003706344121 6.919097903e-11)
(0.1495037927 -0.0002567623897 5.888384142e-11)
(0.1127199041 -0.0001428054799 3.784007043e-11)
(0.07116022864 -5.086713401e-05 1.73371896e-11)
(0.02501179047 -1.889505924e-06 4.67625772e-12)
(0.2567735538 -0.0002305465522 8.666163628e-12)
(0.2459575861 -0.0003175211419 1.800972647e-11)
(0.2296826144 -0.0003588387821 3.122259251e-11)
(0.208080476 -0.0003386856338 4.43246646e-11)
(0.1812740383 -0.0002773040892 4.986248135e-11)
(0.1493986248 -0.000191990691 4.3318641e-11)
(0.1126103181 -0.0001062920639 3.011760285e-11)
(0.07107868128 -3.760947151e-05 1.619811891e-11)
(0.02498033815 -1.457316003e-06 4.663930583e-12)
(0.2570285505 -0.0001740809361 1.080780678e-11)
(0.2461396783 -0.0002398055765 1.935121948e-11)
(0.2297769321 -0.0002710502783 2.863815632e-11)
(0.2080935695 -0.0002558536377 3.572529518e-11)
(0.1812269532 -0.000209414956 3.702856693e-11)
(0.1493200736 -0.0001447466944 3.151079691e-11)
(0.112529221 -7.959958254e-05 2.206078343e-11)
(0.07101821501 -2.756522408e-05 1.208711566e-11)
(0.02495698414 -7.826243157e-07 3.469572328e-12)
(0.2572177364 -0.000133196749 1.077439386e-11)
(0.2462749551 -0.0001835788372 1.771841772e-11)
(0.2298474365 -0.0002076362636 2.34004054e-11)
(0.2081043135 -0.0001961204294 2.559457954e-11)
(0.1811936557 -0.0001605674395 2.307757433e-11)
(0.14926401 -0.0001107592784 1.694964376e-11)
(0.1124716315 -6.061936437e-05 1.018856403e-11)
(0.07097600292 -2.010545667e-05 4.645779718e-12)
(0.02494044054 -3.662851759e-08 1.092346395e-12)
(0.2573628579 -0.0001041893328 8.718932866e-12)
(0.2463801333 -0.0001437751734 1.272447079e-11)
(0.2299046866 -0.0001628855263 1.194225155e-11)
(0.2081174824 -0.000154114998 -3.577123028e-12)
(0.1811744875 -0.0001263795228 -1.919538259e-11)
(0.1492280857 -8.716963125e-05 -2.636825255e-11)
(0.1124344284 -4.789013179e-05 -2.070521964e-11)
(0.07094959078 -1.539922931e-05 -1.27536902e-11)
(0.02492989369 -6.234476061e-07 -4.125806032e-12)
(0.2574817076 -8.447042902e-05 2.717123459e-11)
(0.2464691635 -0.0001168403638 6.085434754e-11)
(0.2299579327 -0.0001328302397 1.390239378e-10)
(0.2081379255 -0.0001261611907 -2.309608819e-10)
(0.1811710696 -0.0001040063241 -3.079996651e-10)
(0.1492126092 -7.179722619e-05 -2.428357994e-10)
(0.112417343 -4.006247925e-05 -1.115482652e-10)
(0.07093804673 -1.251461307e-05 -4.975482078e-11)
(0.02492685085 -1.817950934e-06 -1.35227146e-11)
(0.2575903475 -7.282098147e-05 1.475214574e-11)
(0.2465554763 -0.000101309052 1.621904532e-11)
(0.2300174796 -0.0001161635864 -1.069082219e-11)
(0.2081729963 -0.0001116688736 -1.416750052e-10)
(0.1811883134 -9.331205253e-05 -1.934868784e-10)
(0.149219918 -6.505080649e-05 -1.740702264e-10)
(0.1124217657 -3.654097753e-05 -1.074126934e-10)
(0.07094234951 -1.043866949e-05 -5.483868973e-11)
(0.02493051834 -2.539157246e-06 -1.562361648e-11)
(0.257704892 -6.788070726e-05 -1.547355945e-12)
(0.2466531649 -9.513882994e-05 -1.462170949e-11)
(0.2300948012 -0.0001102623149 -4.929337455e-11)
(0.2082311385 -0.0001074278377 -1.080759368e-10)
(0.18123071 -9.130397767e-05 -1.361949741e-10)
(0.1492519415 -6.442700789e-05 -1.257480013e-10)
(0.1124480654 -3.710061069e-05 -8.794385662e-11)
(0.07096320902 -9.735831465e-06 -4.857081865e-11)
(0.02494140981 -3.774511996e-06 -1.423172862e-11)
(0.2578404029 -6.908793148e-05 -1.281743729e-11)
(0.2467754933 -9.759448256e-05 -2.943032944e-11)
(0.2302009906 -0.0001143729416 -5.640796899e-11)
(0.208321948 -0.0001129227105 -8.678753581e-11)
(0.1813090145 -9.771504143e-05 -1.00181247e-10)
(0.149319824 -7.034859056e-05 -9.164045278e-11)
(0.1125058896 -4.222767815e-05 -6.742190831e-11)
(0.07100645394 -1.076930359e-05 -3.882351136e-11)
(0.02496121662 -5.742753776e-06 -1.158316359e-11)
(0.2580149062 -7.672242183e-05 -1.854205652e-11)
(0.2469392995 -0.0001092956717 -3.466940427e-11)
(0.2303513652 -0.0001296259047 -5.416088963e-11)
(0.208458845 -0.0001299957813 -7.115228832e-11)
(0.1814333189 -0.000114630264 -7.686042131e-11)
(0.1494315041 -8.407759556e-05 -6.902892555e-11)
(0.1126014354 -5.212704324e-05 -5.147858984e-11)
(0.0710763776 -1.309195628e-05 -3.015475094e-11)
(0.02499186961 -8.38834073e-06 -9.072068438e-12)
(0.2582494438 -9.097130005e-05 -2.033971508e-11)
(0.2471648027 -0.0001305362891 -3.476318956e-11)
(0.2305650864 -0.0001564074115 -4.89202313e-11)
(0.2086597865 -0.0001589588095 -5.893183311e-11)
(0.1816203967 -0.0001425200921 -6.070653082e-11)
(0.1496013054 -0.0001063509814 -5.3518944e-11)
(0.1127463247 -6.763992486e-05 -3.989964619e-11)
(0.0711813956 -1.725683258e-05 -2.349218964e-11)
(0.0250367703 -1.207222463e-05 -7.092730104e-12)
(0.2585686456 -0.0001122999108 -1.987887155e-11)
(0.2474758333 -0.0001620289284 -3.239291395e-11)
(0.2308648109 -0.0001956391615 -4.302817945e-11)
(0.2089459091 -0.0002008433451 -4.947517062e-11)
(0.181889387 -0.00018230817 -4.945671908e-11)
(0.1498460606 -0.0001379274274 -4.297338439e-11)
(0.1129540847 -8.944711331e-05 -3.192649762e-11)
(0.07133045027 -2.351103411e-05 -1.883030184e-11)
(0.02509915438 -1.695047926e-05 -5.700401052e-12)
(0.2590019104 -0.0001411465759 -1.755930112e-11)
(0.2479011305 -0.0002044102802 -2.741384809e-11)
(0.2312782752 -0.0002481149504 -3.527818933e-11)
(0.2093435281 -0.0002565037464 -4.64248203e-11)
(0.1822645981 -0.0002348293397 -4.5533297e-11)
(0.1501871348 -0.0001794973896 -3.839216154e-11)
(0.113241894 -0.0001180345177 -2.797466297e-11)
(0.07153508564 -3.199679098e-05 -1.635564559e-11)
(0.02518330906 -2.321329408e-05 -4.943778603e-12)
(0.2595835451 -0.0001778843364 1.45146642e-11)
(0.2484743612 -0.0002582218136 4.772787163e-11)
(0.231838106 -0.0003144666503 1.304566887e-10)
(0.2098836654 -0.0003265637443 -1.414824133e-10)
(0.1827746339 -0.0003006121396 -7.645686148e-11)
(0.1506495721 -0.0002314334937 -4.75333428e-11)
(0.1136297197 -0.0001536267178 -2.982446831e-11)
(0.07180850956 -4.272942129e-05 -1.628357026e-11)
(0.0252939866 -3.099522716e-05 -4.799241409e-12)
(0.2603534274 -0.0002226636019 1.525067203e-11)
(0.2492347805 -0.0003236657062 2.744897577e-11)
(0.2325824613 -0.0003948754778 2.644601075e-11)
(0.2106026698 -0.0004111230995 -5.539694077e-11)
(0.183452987 -0.0003796422945 -5.548937786e-11)
(0.1512625966 -0.0002936221943 -4.154497614e-11)
(0.114140746 -0.0001960786804 -2.741146666e-11)
(0.07216598949 -5.55865305e-05 -1.50905018e-11)
(0.02543666551 -4.040072196e-05 -4.443574001e-12)
(0.2613570384 -0.0002753305875 7.935101613e-12)
(0.2502271867 -0.0004004622996 8.709433017e-12)
(0.233554895 -0.0004888911816 -2.578213738e-12)
(0.2115419735 -0.0005095652305 -3.213073911e-11)
(0.1843376979 -0.0004711675955 -3.815121703e-11)
(0.1520592036 -0.0003653082274 -3.223121419e-11)
(0.1148009193 -0.0002447720927 -2.277248613e-11)
(0.07262443408 -7.024987447e-05 -1.302620876e-11)
(0.02561731918 -5.146543384e-05 -3.903897527e-12)
(0.2626455307 -0.0003353248615 2.04580292e-12)
(0.2515019565 -0.0004877033855 -7.829300975e-13)
(0.2348043433 -0.0005952471331 -9.990231906e-12)
(0.2127480064 -0.0006203656473 -2.310814246e-11)
(0.1854712055 -0.0005735360583 -2.77610943e-11)
(0.153075949 -0.0004449929858 -2.540680171e-11)
(0.1156387428 -0.0002985577191 -1.955149358e-11)
(0.07320224133 -8.619726067e-05 -1.205694022e-11)
(0.02584238153 -6.415926872e-05 -3.759404311e-12)
(0.2642754159 -0.0004015713553 -1.571320274e-12)
(0.2531147014 -0.0005837279927 -5.345569414e-12)
(0.2363847079 -0.0007117318961 -1.227490153e-11)
(0.2142717036 -0.0007409767044 -2.00930435e-11)
(0.1868997723 -0.000684110002 -2.457917354e-11)
(0.1543523376 -0.0005303837739 -2.549663723e-11)
(0.116684698 -0.0003557427434 -2.328352425e-11)
(0.07391884712 -0.0001027120667 -1.652228135e-11)
(0.02611855846 -7.837720811e-05 -5.194249297e-12)
(0.2663081503 -0.000472433753 -7.399031273e-12)
(0.2551257959 -0.0006860505718 -1.230821043e-11)
(0.2383543065 -0.0008351194736 -1.845917103e-11)
(0.21616788 -0.0008677797264 -2.604289213e-11)
(0.1886727919 -0.00079926141 -3.460330202e-11)
(0.1559301141 -0.0006184282139 -4.434939942e-11)
(0.1179706131 -0.0004141504154 -5.251343365e-11)
(0.0747942862 -0.0001189233847 -4.148516905e-11)
(0.02645267761 -9.394421762e-05 -9.308136474e-12)
(0.268809455 -0.000545715426 -4.036011762e-10)
(0.2575996296 -0.0007913622266 -1.518256796e-10)
(0.2407750516 -0.0009611837199 -7.400118806e-11)
(0.2184943103 -0.0009961355229 -5.904930598e-11)
(0.1908418066 -0.0009144692135 -7.245905982e-11)
(0.157852292 -0.0007054267389 -1.108959366e-10)
(0.1195288272 -0.0004712197189 -1.916026166e-10)
(0.07584861155 -0.0001338604827 -1.531301662e-10)
(0.02685147945 -0.0001106255184 1.010668284e-11)
(0.2718484435 -0.0006186709305 -1.847985524e-10)
(0.2606036752 -0.0008955852481 -1.329167168e-10)
(0.243711424 -0.001084803625 -9.066176586e-11)
(0.2213106059 -0.001120548173 -7.682819269e-11)
(0.1934593411 -0.001024516974 -8.240257057e-11)
(0.1601620391 -0.0007872223632 -9.710955305e-11)
(0.1213912538 -0.0005241633341 -1.062962563e-10)
(0.07710126504 -0.0001465256265 -7.506761385e-11)
(0.02732140313 -0.0001281384758 -1.759180833e-11)
(0.2754965496 -0.0006880811034 -9.870068239e-11)
(0.2642073306 -0.000994001361 -9.960705498e-11)
(0.247229188 -0.001200166585 -8.574146956e-11)
(0.2246768417 -0.001234923631 -7.805771795e-11)
(0.1965775104 -0.001123782248 -7.724945088e-11)
(0.1629013884 -0.0008594751912 -7.679916733e-11)
(0.1235883366 -0.0005701789983 -6.808051524e-11)
(0.07857040405 -0.0001559692091 -4.442003504e-11)
(0.02786835161 -0.000146161561 -1.318921341e-11)
(0.2798262535 -0.0007504133768 -6.118247228e-11)
(0.2684805264 -0.001081482386 -7.458464164e-11)
(0.2513938725 -0.001301077894 -7.415451109e-11)
(0.228651956 -0.001332920743 -7.088346064e-11)
(0.2002464408 -0.001206605606 -6.712966725e-11)
(0.1661098341 -0.0009179793231 -6.052967956e-11)
(0.1261479793 -0.0006066671077 -4.819053453e-11)
(0.08027224725 -0.0001613690894 -2.978449592e-11)
(0.02849747602 -0.0001643533633 -9.057305636e-12)
(0.2849095421 -0.0008020116293 -4.267167743e-11)
(0.2734920744 -0.001152797834 -5.759884019e-11)
(0.2562690188 -0.00138135241 -6.221919789e-11)
(0.2332919544 -0.001408385535 -6.130670424e-11)
(0.2045125634 -0.001267702163 -5.688601262e-11)
(0.1698228887 -0.0009589678496 -4.887583238e-11)
(0.12909449 -0.0006314231394 -3.698975059e-11)
(0.08222046183 -0.0001620941438 -2.222436867e-11)
(0.02921298901 -0.0001823676504 -6.747026799e-12)
(0.2908161162 -0.000839321284 -3.23930995e-11)
(0.2793077813 -0.001202955435 -4.622910518e-11)
(0.2619142193 -0.001435248639 -5.260730818e-11)
(0.2386479818 -0.001455816302 -5.336025964e-11)
(0.2094168806 -0.001302569661 -4.962804374e-11)
(0.1740706926 -0.0009793991169 -4.276311464e-11)
(0.1324476102 -0.0006427947201 -3.216876165e-11)
(0.08442563366 -0.0001577353874 -1.927778028e-11)
(0.03001800271 -0.0001998617625 -5.877097249e-12)
(0.2976113586 -0.0008591625334 -2.756954567e-11)
(0.2859883454 -0.00122757987 -4.174181961e-11)
(0.2683829948 -0.001457920988 -5.187752563e-11)
(0.2447643328 -0.001470800543 -5.789520233e-11)
(0.2149932793 -0.001307847038 -5.047898658e-11)
(0.1788767483 -0.0009771921337 -5.066591814e-11)
(0.1362217011 -0.0006397880846 -3.765052212e-11)
(0.08689484479 -0.0001481223518 -2.196834199e-11)
(0.03091440282 -0.0002165108867 -6.61828076e-12)
(0.3053540193 -0.0008589963503 -3.492247196e-11)
(0.2935870355 -0.001223296609 -6.308990955e-11)
(0.2757205831 -0.001445845271 -1.09135551e-10)
(0.2516765028 -0.001450386146 -1.970954171e-10)
(0.2212669907 -0.001281580069 -3.486936033e-11)
(0.1842568623 -0.0009513678019 -1.349893844e-10)
(0.1404251252 -0.0006221194505 -6.698042205e-11)
(0.08963138342 -0.0001333251082 -3.209127934e-11)
(0.03190278162 -0.00023201551 -8.914639441e-12)
(0.3140936857 -0.0008371489844 -3.70837348e-11)
(0.3021472664 -0.001188044092 -6.275522387e-11)
(0.283961772 -0.001397134399 -8.960979829e-11)
(0.2594094249 -0.001393333707 -1.083480649e-10)
(0.2282533255 -0.001223360338 -7.167638354e-11)
(0.1902183792 -0.000902087477 -7.598819909e-11)
(0.1450598638 -0.0005902021653 -5.192442053e-11)
(0.0926346134 -0.0001136222534 -2.811870607e-11)
(0.03298241759 -0.0002460959322 -8.11878369e-12)
(0.3238681453 -0.0007929947961 -3.451842359e-11)
(0.3117001976 -0.001121277388 -5.505254566e-11)
(0.2931288896 -0.00131171315 -7.059883794e-11)
(0.267975981 -0.001300217642 -7.54717495e-11)
(0.235956745 -0.001134328852 -6.396639229e-11)
(0.1967597232 -0.0008305972527 -5.497198997e-11)
(0.15012137 -0.0005450756033 -3.92772943e-11)
(0.09589997898 -8.946682762e-05 -2.227679239e-11)
(0.03415128458 -0.0002584973185 -6.56613001e-12)
(0.3347008529 -0.0007270512637 -2.986217504e-11)
(0.3222625619 -0.001024048244 -4.601735436e-11)
(0.3032301569 -0.001191347038 -5.624036997e-11)
(0.2773759571 -0.001173365664 -5.817932233e-11)
(0.2443703763 -0.001017036589 -5.199568156e-11)
(0.2038703067 -0.0007390736546 -4.270445932e-11)
(0.1555986763 -0.0004882828332 -3.052413384e-11)
(0.09941915193 -6.145342003e-05 -1.752923182e-11)
(0.03540608428 -0.0002690000145 -5.207139651e-12)
(0.3465985984 -0.0006409541617 -2.479015746e-11)
(0.3338348018 -0.00089894171 -3.754064421e-11)
(0.314258448 -0.001039500068 -4.495681494e-11)
(0.2875954416 -0.001016642086 -4.610398896e-11)
(0.2534759041 -0.00087520452 -4.178839052e-11)
(0.2115307061 -0.0006304340873 -3.418373628e-11)
(0.1614746526 -0.0004217483016 -2.459884095e-11)
(0.1031803037 -3.036692374e-05 -1.431077416e-11)
(0.03674230687 -0.0002774713104 -4.291959309e-12)
(0.3595498266 -0.0005373289603 -2.026717375e-11)
(0.346399922 -0.000749869294 -3.051083343e-11)
(0.3261907897 -0.0008610322035 -3.641428271e-11)
(0.2986069022 -0.0008351138014 -3.761782698e-11)
(0.2632440407 -0.0007134208711 -3.48658904e-11)
(0.2197133029 -0.0005081182218 -2.939569322e-11)
(0.1677266313 -0.0003475568175 -2.206730706e-11)
(0.1071688161 2.776473126e-06 -1.339800441e-11)
(0.03815380913 -0.0002841126962 -4.10930869e-12)
(0.3735235809 -0.0004195693857 -1.774037121e-11)
(0.3599229492 -0.0005817207791 -2.654766451e-11)
(0.3389883744 -0.0006617625284 -3.195004804e-11)
(0.3103696076 -0.000634591244 -3.409802895e-11)
(0.2736351433 -0.0005367222149 -3.370691655e-11)
(0.2283828104 -0.0003757742429 -3.136044871e-11)
(0.1743268533 -0.0002674319009 -2.659999481e-11)
(0.1113660667 3.535882492e-05 -1.767500582e-11)
(0.03963485737 -0.0002907773903 -5.418584701e-12)
(0.3884696813 -0.0002915672396 -3.160530904e-11)
(0.3743515214 -0.0003999908479 -3.584674735e-11)
(0.3525975517 -0.0004480654223 -3.790970965e-11)
(0.3228308885 -0.0004212632452 -4.035060244e-11)
(0.2846005406 -0.0003503824227 -4.39184828e-11)
(0.2374975533 -0.0002369078136 -4.868272854e-11)
(0.181243572 -0.000184187667 -5.139002869e-11)
(0.1157506717 6.784613972e-05 -3.706580136e-11)
(0.04117882786 -0.0002957726888 -8.96880526e-12)
(0.4043195326 -0.0001574230853 -3.19805339e-10)
(0.3896169416 -0.0002103492636 -1.347684162e-10)
(0.3669510731 -0.0002263470438 -7.625665592e-11)
(0.3359273968 -0.0002011650251 -6.320868012e-11)
(0.2960835088 -0.0001593646569 -6.997335883e-11)
(0.2470101802 -9.44360056e-05 -9.409456397e-11)
(0.1884396456 -0.0001007785242 -1.45693656e-10)
(0.1203026982 9.885911631e-05 -1.070663575e-10)
(0.04277768298 -0.000298735294 3.250085702e-12)
(0.4209887877 -2.122108099e-05 -1.343307269e-10)
(0.4056368773 -1.835005869e-05 -1.046615017e-10)
(0.3819706417 -2.80186867e-06 -7.901787999e-11)
(0.349587373 1.975497811e-05 -6.902686366e-11)
(0.3080213106 3.144649838e-05 -6.966772991e-11)
(0.2568698049 4.661663229e-05 -7.520422004e-11)
(0.1958756408 -1.523622064e-05 -7.671513311e-11)
(0.1249987842 0.0001308764928 -5.19977891e-11)
(0.0444232797 -0.0003009507911 -1.268209247e-11)
(0.4383797093 0.0001132776063 -6.73749018e-11)
(0.4223175479 0.0001707883322 -7.301791588e-11)
(0.3975688682 0.0002167572464 -6.731619293e-11)
(0.3637322939 0.0002360006264 -6.225035103e-11)
(0.3203468153 0.0002183799671 -5.91198652e-11)
(0.2670218012 0.0001819155986 -5.526574251e-11)
(0.2035150324 7.011487443e-05 -4.657861899e-11)
(0.129811268 0.0001641051575 -2.958116153e-11)
(0.04610698074 -0.0003025416542 -8.752312632e-12)
(0.4563828189 0.0002426371095 -4.016209926e-11)
(0.4395552589 0.0003523308358 -5.136207014e-11)
(0.4136507483 0.0004270094527 -5.308581061e-11)
(0.3782782973 0.0004428360034 -5.090377818e-11)
(0.3329892837 0.0003968560447 -4.674882258e-11)
(0.2774094158 0.0003119088287 -4.033445464e-11)
(0.2113174071 0.00015188606 -3.091367919e-11)
(0.134714986 0.0001949406521 -1.867337306e-11)
(0.04782038048 -0.0003024817234 -5.623540542e-12)
(0.4748815582 0.0003641237419 -2.651667788e-11)
(0.4572406789 0.0005226668712 -3.66379946e-11)
(0.4301173098 0.0006240995836 -4.010697363e-11)
(0.3931391038 0.0006367580623 -3.908427991e-11)
(0.3458765237 0.000564146967 -3.505907214e-11)
(0.2879761926 0.0004343349384 -2.875882495e-11)
(0.2192394732 0.0002283055082 -2.07716521e-11)
(0.1396863258 0.0002229862162 -1.200645007e-11)
(0.04955504304 -0.0003007816203 -3.556555252e-12)
(0.4937565276 0.0004757050167 -1.810220986e-11)
(0.4752625026 0.0006791049345 -2.575976665e-11)
(0.4468684585 0.0008051238394 -2.867896495e-11)
(0.4082279586 0.0008150766163 -2.764131924e-11)
(0.358936437 0.000718112086 -2.37788084e-11)
(0.2986653972 0.0005474570752 -1.819164239e-11)
(0.2272404077 0.0002987739625 -1.187640072e-11)
(0.1447008371 0.0002482041301 -6.120596489e-12)
(0.05130262038 -0.0002977003578 -1.669784191e-12)
(0.5128885322 0.0005760394017 -1.160869338e-11)
(0.4935100479 0.0008198514781 -1.627942498e-11)
(0.4638051582 0.0009681367909 -1.724124931e-11)
(0.4234594952 0.000975970049 -1.482442088e-11)
(0.3720984731 0.0008572873989 -1.026557171e-11)
(0.3094218198 0.0006500771265 -5.299512506e-12)
(0.2352806766 0.0003628349558 2.198599606e-13)
(0.1497346223 0.0002705162465 2.77200543e-12)
(0.05305481571 -0.0002934921285 1.300054055e-12)
(0.5321615232 0.0006643581326 -4.988121595e-12)
(0.5118757984 0.0009438746205 -5.493137784e-12)
(0.4808314838 0.001112013652 -2.115198117e-12)
(0.4387512831 0.001118367747 5.079326403e-12)
(0.3852947018 0.000980803539 1.36334236e-11)
(0.320192426 0.0007415018154 1.313226111e-11)
(0.2433223356 0.0004203802529 2.462040557e-11)
(0.1547645185 0.0002892987856 2.405424542e-11)
(0.05480417347 -0.0002889696586 8.161408164e-12)
(0.5514649636 0.0007403625647 2.777860592e-12)
(0.5302574645 0.001050781222 8.392348261e-12)
(0.4978563153 0.001236314763 2.076338819e-11)
(0.4540251558 0.001241815757 4.509757534e-11)
(0.3984608216 0.001088264606 1.045830094e-10)
(0.3309270993 0.0008213857898 4.82356286e-12)
(0.2513295349 0.0004710502755 8.722039422e-11)
(0.1597686191 0.0003051112252 9.221740461e-11)
(0.05654376652 -0.0002836321594 2.325367768e-11)
(0.5706956802 0.0008041511314 7.357292646e-12)
(0.5485596055 0.001140699679 1.466574792e-11)
(0.5147946713 0.001341169459 2.538233394e-11)
(0.4692082628 0.001346395159 3.852827185e-11)
(0.4115369588 0.001179713354 4.891536686e-11)
(0.3415792381 0.0008897147183 3.735948367e-11)
(0.2592689968 0.0005147305724 4.663498172e-11)
(0.1647270408 0.0003182872123 3.810996444e-11)
(0.05826665123 -0.0002772703318 1.207979703e-11)
(0.5897591797 0.0008561317573 8.769205209e-12)
(0.5666947796 0.00121416921 1.54536301e-11)
(0.5315686585 0.001427153154 2.295183791e-11)
(0.4842338129 0.001432603095 2.978396545e-11)
(0.4244682084 0.001255528301 3.30980701e-11)
(0.3521061086 0.0009467168331 3.043344032e-11)
(0.2671101967 0.0005515557414 2.765146029e-11)
(0.1696215243 0.0003288963053 1.920266029e-11)
(0.05996656332 -0.0002700387912 6.123147171e-12)
(0.6085705021 0.0008969265443 8.37188501e-12)
(0.5845842957 0.001272028242 1.38292763e-11)
(0.5481081075 0.001495179241 1.884173511e-11)
(0.4990415871 0.001501260286 2.242792513e-11)
(0.437205036 0.001316351232 2.34219112e-11)
(0.3624691428 0.0009928028606 2.137747372e-11)
(0.2748255721 0.0005817660132 1.734415361e-11)
(0.1744354963 0.0003370150005 1.103954704e-11)
(0.06163794105 -0.000262102955 3.437815481e-12)
(0.6270546324 0.0009273059089 7.211608933e-12)
(0.6021585918 0.001315322782 1.147692842e-11)
(0.5643509085 0.001546409426 1.485418708e-11)
(0.5135782068 0.001553433747 1.67697988e-11)
(0.4497034862 0.001363031253 1.677590649e-11)
(0.3726340863 0.001028533749 1.484930702e-11)
(0.2823906289 0.0006056804244 1.143716922e-11)
(0.1791542092 0.0003427413754 6.972841629e-12)
(0.063275839 -0.0002536158461 2.135436878e-12)
(0.6451465641 0.0009481457881 5.871170388e-12)
(0.6193573116 0.001345244756 9.143259533e-12)
(0.580243083 0.001582172481 1.147777242e-11)
(0.5277971991 0.001590359963 1.254356887e-11)
(0.4619252315 0.00139656767 1.21907617e-11)
(0.3825710311 0.001054582279 1.053176863e-11)
(0.2897839613 0.0006236812812 7.904093087e-12)
(0.1837647635 0.0003462030941 4.724160396e-12)
(0.0648759315 -0.000244713913 1.435575404e-12)
(0.6627911009 0.0009603812115 4.653658576e-12)
(0.6361291334 0.001363072107 7.16387937e-12)
(0.5957386415 0.001603895832 8.848175491e-12)
(0.5416588945 0.001613379191 9.507498787e-12)
(0.4738374961 0.00141805517 9.106952199e-12)
(0.3922543682 0.001071701787 7.781539548e-12)
(0.2969872228 0.0006362022061 5.791482013e-12)
(0.1882560977 0.0003475578268 3.446808638e-12)
(0.06643450689 -0.0002355144855 1.047672548e-12)
(0.6799424452 0.0009649603221 3.741542404e-12)
(0.6524314018 0.001370111193 5.748416304e-12)
(0.6107992833 0.001613044522 7.089603085e-12)
(0.5551301903 0.001623881253 7.628516078e-12)
(0.4854128827 0.001428645049 7.349480992e-12)
(0.4016626646 0.00108070099 6.34388378e-12)
(0.3039850446 0.0006437164136 4.783270427e-12)
(0.1926189405 0.0003469871266 2.886066468e-12)
(0.06794844941 -0.0002261187812 8.866788364e-13)
(0.6965636252 0.000962818793 3.332007004e-12)
(0.668229624 0.001367652419 5.186197794e-12)
(0.6253939767 0.001611080579 6.540456808e-12)
(0.5681842152 0.001623266823 7.261825332e-12)
(0.4966291162 0.001429511116 7.268022285e-12)
(0.4107784706 0.001082417698 6.529552689e-12)
(0.3107649003 0.0006467181931 5.107584018e-12)
(0.1968457252 0.0003446811173 3.175671754e-12)
(0.06941520944 -0.000216617567 9.946810307e-13)
(0.7126258303 0.0009548604512 3.808218986e-12)
(0.6834968824 0.001356946439 6.128939385e-12)
(0.639498456 0.001599429874 8.14350197e-12)
(0.5807999183 0.001612913752 9.636461164e-12)
(0.5074687177 0.001421816065 1.027906699e-11)