/*--------------------------------*- C++ -*----------------------------------*\
| =========                 |                                                 |
| \\      /  F ield         | OpenFOAM: The Open Source CFD Toolbox           |
|  \\    /   O peration     | Version:  2106                                  |
|   \\  /    A nd           | Website:  www.openfoam.com                      |
|    \\/     M anipulation  |                                                 |
\*---------------------------------------------------------------------------*/
FoamFile
{
    version     2.0;
    format      ascii;
    arch        "LSB;label=32;scalar=64";
    class       volScalarField;
    location    "90.00055";
    object      A2;
}
// * * * * * * * * * * * * * * * * * * * * * * * * * * * * * * * * * * * * * //

dimensions      [0 0 0 0 0 0 0];

internalField   nonuniform List<scalar> 
3360
(
7.92016e-18
8.17502e-18
8.52969e-18
8.9635e-18
9.45841e-18
9.99816e-18
1.05681e-17
1.11549e-17
1.1747e-17
1.23338e-17
1.29063e-17
1.34569e-17
1.39792e-17
1.44683e-17
1.49203e-17
1.53324e-17
1.57032e-17
1.60318e-17
1.63184e-17
1.65638e-17
1.67695e-17
1.69376e-17
1.70703e-17
1.71704e-17
1.72409e-17
1.72847e-17
1.7305e-17
3.47448e-17
3.60219e-17
3.7824e-17
4.00682e-17
4.26857e-17
4.56166e-17
4.88073e-17
5.22089e-17
5.57756e-17
5.94644e-17
6.32339e-17
6.70439e-17
7.08546e-17
7.4627e-17
7.83225e-17
8.19031e-17
8.53317e-17
8.85724e-17
9.15906e-17
9.4354e-17
9.6833e-17
9.90012e-17
1.00836e-16
1.02321e-16
1.03441e-16
1.04189e-16
1.04562e-16
1.09015e-16
1.138e-16
1.20599e-16
1.29142e-16
1.39206e-16
1.50589e-16
1.631e-16
1.76551e-16
1.90751e-16
2.05505e-16
2.20614e-16
2.35881e-16
2.5111e-16
2.66107e-16
2.80686e-16
2.94668e-16
3.07891e-16
3.20207e-16
3.31487e-16
3.41626e-16
3.50542e-16
3.58177e-16
3.64497e-16
3.69493e-16
3.73176e-16
3.75578e-16
3.76747e-16
3.17485e-16
3.33256e-16
3.55815e-16
3.84358e-16
4.18208e-16
4.56734e-16
4.99304e-16
5.45265e-16
5.93927e-16
6.44571e-16
6.96449e-16
7.48802e-16
8.00877e-16
8.5194e-16
9.01294e-16
9.483e-16
9.9239e-16
1.03308e-15
1.06999e-15
1.10283e-15
1.1314e-15
1.1556e-15
1.17542e-15
1.19092e-15
1.20224e-15
1.20954e-15
1.21307e-15
9.2757e-16
9.77318e-16
1.04862e-15
1.13904e-15
1.24651e-15
1.36905e-15
1.50461e-15
1.65103e-15
1.806e-15
1.9671e-15
2.1318e-15
2.29757e-15
2.46192e-15
2.62248e-15
2.77705e-15
2.92365e-15
3.06059e-15
3.18647e-15
3.30019e-15
3.40098e-15
3.48836e-15
3.56214e-15
3.62238e-15
3.66937e-15
3.70357e-15
3.72561e-15
3.73621e-15
2.73508e-15
2.88787e-15
3.10712e-15
3.3854e-15
3.71634e-15
4.09378e-15
4.51133e-15
4.9622e-15
5.43913e-15
5.93448e-15
6.44037e-15
6.9489e-15
7.45233e-15
7.94335e-15
8.41522e-15
8.86198e-15
9.27852e-15
9.6607e-15
1.00054e-14
1.03103e-14
1.05742e-14
1.07967e-14
1.09781e-14
1.11194e-14
1.12221e-14
1.12882e-14
1.132e-14
8.12467e-15
8.58893e-15
9.25513e-15
1.01007e-14
1.11063e-14
1.22529e-14
1.35208e-14
1.48891e-14
1.63355e-14
1.78365e-14
1.93681e-14
2.09061e-14
2.24273e-14
2.39096e-14
2.53327e-14
2.66788e-14
2.7933e-14
2.90828e-14
3.01191e-14
3.10354e-14
3.18281e-14
3.24961e-14
3.30405e-14
3.34644e-14
3.37725e-14
3.39707e-14
3.40659e-14
2.42159e-14
2.5613e-14
2.76187e-14
3.01655e-14
3.31948e-14
3.66494e-14
4.04699e-14
4.45927e-14
4.89499e-14
5.34707e-14
5.80821e-14
6.27116e-14
6.72885e-14
7.17465e-14
7.60248e-14
8.007e-14
8.3837e-14
8.72891e-14
9.03989e-14
9.31475e-14
9.55244e-14
9.75265e-14
9.91575e-14
1.00427e-13
1.01349e-13
1.01942e-13
1.02227e-13
7.23687e-14
7.65676e-14
8.25948e-14
9.02469e-14
9.93478e-14
1.09725e-13
1.21198e-13
1.33575e-13
1.46653e-13
1.60217e-13
1.74048e-13
1.87929e-13
2.01647e-13
2.15005e-13
2.2782e-13
2.39935e-13
2.51213e-13
2.61548e-13
2.70855e-13
2.79081e-13
2.86194e-13
2.92185e-13
2.97065e-13
3.00864e-13
3.03624e-13
3.05399e-13
3.06252e-13
2.16296e-13
2.28874e-13
2.46932e-13
2.6986e-13
2.9713e-13
3.28224e-13
3.626e-13
3.99684e-13
4.38861e-13
4.7949e-13
5.20915e-13
5.62479e-13
6.03552e-13
6.43536e-13
6.8189e-13
7.18138e-13
7.51878e-13
7.82785e-13
8.10617e-13
8.35208e-13
8.56466e-13
8.74367e-13
8.88947e-13
9.00292e-13
9.08533e-13
9.13832e-13
9.16378e-13
6.46826e-13
6.84489e-13
7.38551e-13
8.07179e-13
8.88786e-13
9.81815e-13
1.08464e-12
1.19553e-12
1.31265e-12
1.43407e-12
1.55783e-12
1.68198e-12
1.80461e-12
1.92396e-12
2.03842e-12
2.14657e-12
2.24721e-12
2.33938e-12
2.42236e-12
2.49568e-12
2.55904e-12
2.6124e-12
2.65585e-12
2.68966e-12
2.71422e-12
2.73001e-12
2.7376e-12
1.93265e-12
2.04514e-12
2.2066e-12
2.41155e-12
2.65521e-12
2.93291e-12
3.23977e-12
3.57062e-12
3.91993e-12
4.28197e-12
4.65085e-12
5.02074e-12
5.38601e-12
5.74139e-12
6.08206e-12
6.40384e-12
6.70318e-12
6.97725e-12
7.22392e-12
7.44176e-12
7.62999e-12
7.78844e-12
7.91745e-12
8.0178e-12
8.09067e-12
8.13752e-12
8.16003e-12
5.76907e-12
6.10454e-12
6.58587e-12
7.19657e-12
7.9223e-12
8.74897e-12
9.66197e-12
1.06457e-11
1.16838e-11
1.27589e-11
1.38537e-11
1.49509e-11
1.60336e-11
1.70864e-11
1.80951e-11
1.90474e-11
1.99327e-11
2.0743e-11
2.14719e-11
2.21154e-11
2.26713e-11
2.3139e-11
2.35197e-11
2.38158e-11
2.40308e-11
2.41689e-11
2.42353e-11
1.71752e-11
1.81712e-11
1.96e-11
2.14118e-11
2.35636e-11
2.60132e-11
2.87165e-11
3.1627e-11
3.46956e-11
3.78712e-11
4.1102e-11
4.43367e-11
4.75263e-11
5.06248e-11
5.35911e-11
5.63889e-11
5.89882e-11
6.13651e-11
6.35019e-11
6.5387e-11
6.70143e-11
6.83828e-11
6.94961e-11
7.03615e-11
7.09894e-11
7.13929e-11
7.15866e-11
5.09611e-11
5.39032e-11
5.81203e-11
6.34639e-11
6.98039e-11
7.70131e-11
8.49595e-11
9.3504e-11
1.025e-10
1.11797e-10
1.21243e-10
1.30687e-10
1.39986e-10
1.49008e-10
1.57634e-10
1.65759e-10
1.733e-10
1.80188e-10
1.86374e-10
1.91826e-10
1.96528e-10
2.00479e-10
2.03691e-10
2.06187e-10
2.07997e-10
2.09159e-10
2.09716e-10
1.50355e-10
1.58964e-10
1.71293e-10
1.86897e-10
2.05387e-10
2.26378e-10
2.49479e-10
2.74274e-10
3.00332e-10
3.27211e-10
3.54467e-10
3.81667e-10
4.084e-10
4.34288e-10
4.58995e-10
4.82231e-10
5.03758e-10
5.23391e-10
5.40997e-10
5.56492e-10
5.6984e-10
5.81044e-10
5.90141e-10
5.97202e-10
6.02318e-10
6.056e-10
6.07174e-10
4.40284e-10
4.65151e-10
5.00719e-10
5.45661e-10
5.98808e-10
6.59017e-10
7.25114e-10
7.95883e-10
8.70063e-10
9.46378e-10
1.02356e-09
1.10037e-09
1.17568e-09
1.24842e-09
1.31767e-09
1.38265e-09
1.44272e-09
1.49739e-09
1.54632e-09
1.58931e-09
1.62628e-09
1.65726e-09
1.68238e-09
1.70186e-09
1.71595e-09
1.72499e-09
1.72932e-09
1.27598e-09
1.34649e-09
1.44717e-09
1.5741e-09
1.7238e-09
1.89288e-09
2.07791e-09
2.27534e-09
2.48157e-09
2.69298e-09
2.90605e-09
3.11738e-09
3.32385e-09
3.52264e-09
3.71132e-09
3.88782e-09
4.05054e-09
4.19824e-09
4.33012e-09
4.44573e-09
4.54494e-09
4.62793e-09
4.69512e-09
4.74712e-09
4.7847e-09
4.80876e-09
4.82027e-09
3.64714e-09
3.84213e-09
4.11991e-09
4.46904e-09
4.87937e-09
5.34102e-09
5.84407e-09
6.37852e-09
6.93431e-09
7.50155e-09
8.07069e-09
8.6328e-09
9.1797e-09
9.70419e-09
1.02001e-08
1.06624e-08
1.10871e-08
1.14715e-08
1.18138e-08
1.2113e-08
1.23692e-08
1.2583e-08
1.27558e-08
1.28892e-08
1.29855e-08
1.30471e-08
1.30766e-08
1.02351e-08
1.07568e-08
1.14978e-08
1.24257e-08
1.35115e-08
1.47272e-08
1.60453e-08
1.74383e-08
1.88792e-08
2.03422e-08
2.18024e-08
2.32375e-08
2.46271e-08
2.59537e-08
2.72027e-08
2.83624e-08
2.9424e-08
3.03814e-08
3.12311e-08
3.19719e-08
3.26045e-08
3.31313e-08
3.3556e-08
3.38834e-08
3.41194e-08
3.427e-08
3.43419e-08
2.80496e-08
2.93887e-08
3.12843e-08
3.36479e-08
3.63997e-08
3.94639e-08
4.27668e-08
4.62369e-08
4.98053e-08
5.34071e-08
5.69823e-08
6.04768e-08
6.38433e-08
6.70418e-08
7.00397e-08
7.28115e-08
7.53392e-08
7.76107e-08
7.96203e-08
8.13672e-08
8.28549e-08
8.40908e-08
8.50851e-08
8.58504e-08
8.64008e-08
8.67517e-08
8.6919e-08
7.45973e-08
7.78698e-08
8.24856e-08
8.8214e-08
9.48477e-08
1.02192e-07
1.1006e-07
1.18277e-07
1.26674e-07
1.35101e-07
1.43418e-07
1.51503e-07
1.59253e-07
1.66581e-07
1.73419e-07
1.79717e-07
1.85437e-07
1.90561e-07
1.9508e-07
1.98997e-07
2.02325e-07
2.05083e-07
2.07298e-07
2.08999e-07
2.10221e-07
2.10999e-07
2.11369e-07
1.91315e-07
1.98889e-07
2.09533e-07
2.22683e-07
2.37831e-07
2.54508e-07
2.72272e-07
2.90713e-07
3.09455e-07
3.28156e-07
3.46516e-07
3.64277e-07
3.81221e-07
3.97174e-07
4.12001e-07
4.25605e-07
4.37922e-07
4.48921e-07
4.58594e-07
4.66958e-07
4.74048e-07
4.79912e-07
4.84612e-07
4.88218e-07
4.90803e-07
4.92447e-07
4.93229e-07
4.70648e-07
4.8722e-07
5.10436e-07
5.39002e-07
5.71759e-07
6.07642e-07
6.45671e-07
6.84949e-07
7.24669e-07
7.64115e-07
8.02667e-07
8.39801e-07
8.75088e-07
9.08188e-07
9.38848e-07
9.66892e-07
9.92212e-07
1.01476e-06
1.03455e-06
1.05162e-06
1.06607e-06
1.078e-06
1.08754e-06
1.09485e-06
1.10009e-06
1.10342e-06
1.105e-06
1.10714e-06
1.14153e-06
1.18957e-06
1.24849e-06
1.31581e-06
1.38925e-06
1.46678e-06
1.54652e-06
1.62684e-06
1.70631e-06
1.7837e-06
1.85799e-06
1.92837e-06
1.99419e-06
2.055e-06
2.11048e-06
2.16047e-06
2.20489e-06
2.24381e-06
2.27732e-06
2.30564e-06
2.32899e-06
2.34766e-06
2.36194e-06
2.37216e-06
2.37865e-06
2.38173e-06
2.4891e-06
2.55718e-06
2.65214e-06
2.76831e-06
2.90067e-06
3.04466e-06
3.1962e-06
3.35163e-06
3.50773e-06
3.66175e-06
3.81134e-06
3.9546e-06
4.09e-06
4.21638e-06
4.3329e-06
4.43903e-06
4.53448e-06
4.61919e-06
4.69328e-06
4.75703e-06
4.81082e-06
4.85514e-06
4.89053e-06
4.91759e-06
4.93694e-06
4.94921e-06
4.95503e-06
5.35725e-06
5.48705e-06
5.66786e-06
5.88871e-06
6.1399e-06
6.41266e-06
6.69915e-06
6.99243e-06
7.28646e-06
7.57604e-06
7.85684e-06
8.12533e-06
8.37871e-06
8.61488e-06
8.83236e-06
9.03021e-06
9.20796e-06
9.36556e-06
9.50328e-06
9.62167e-06
9.7215e-06
9.80368e-06
9.86927e-06
9.91939e-06
9.95521e-06
9.97791e-06
9.98869e-06
1.10671e-05
1.13076e-05
1.16424e-05
1.2051e-05
1.25153e-05
1.3019e-05
1.35476e-05
1.40883e-05
1.46298e-05
1.51628e-05
1.56792e-05
1.61726e-05
1.6638e-05
1.70715e-05
1.74704e-05
1.78331e-05
1.81588e-05
1.84474e-05
1.86996e-05
1.89162e-05
1.90988e-05
1.9249e-05
1.93689e-05
1.94604e-05
1.95258e-05
1.95673e-05
1.95869e-05
2.19855e-05
2.24216e-05
2.30286e-05
2.37696e-05
2.46116e-05
2.55253e-05
2.64844e-05
2.74655e-05
2.84486e-05
2.94164e-05
3.03545e-05
3.12512e-05
3.20971e-05
3.28855e-05
3.36113e-05
3.42714e-05
3.48644e-05
3.539e-05
3.58492e-05
3.62438e-05
3.65765e-05
3.68503e-05
3.70687e-05
3.72356e-05
3.73547e-05
3.74303e-05
3.74661e-05
4.19655e-05
4.27397e-05
4.38182e-05
4.51357e-05
4.66345e-05
4.8263e-05
4.99746e-05
5.17285e-05
5.34889e-05
5.5225e-05
5.69109e-05
5.85254e-05
6.00517e-05
6.14766e-05
6.2791e-05
6.39887e-05
6.50665e-05
6.60235e-05
6.68609e-05
6.75817e-05
6.81902e-05
6.86916e-05
6.90921e-05
6.93983e-05
6.96172e-05
6.97561e-05
6.9822e-05
7.66102e-05
7.79383e-05
7.97897e-05
8.20543e-05
8.46345e-05
8.74424e-05
9.03996e-05
9.34362e-05
9.64909e-05
9.95108e-05
0.000102451
0.000105274
0.00010795
0.000110455
0.000112772
0.000114889
0.0001168
0.000118501
0.000119993
0.000121281
0.000122371
0.000123272
0.000123994
0.000124547
0.000124943
0.000125195
0.000125315
0.000132769
0.00013491
0.000137896
0.000141549
0.000145714
0.000150249
0.000155028
0.00015994
0.000164886
0.00016978
0.000174551
0.000179139
0.000183493
0.000187577
0.000191362
0.000194825
0.000197955
0.000200746
0.000203198
0.000205317
0.000207112
0.000208596
0.000209786
0.000210698
0.000211353
0.000211769
0.000211967
0.000216784
0.00021993
0.000224311
0.000229666
0.000235762
0.000242389
0.000249363
0.000256516
0.000263703
0.0002708
0.000277701
0.000284318
0.000290583
0.000296442
0.000301854
0.000306795
0.000311248
0.000315209
0.000318682
0.000321676
0.000324208
0.000326299
0.000327972
0.000329253
0.000330171
0.000330755
0.000331032
0.000331578
0.000335698
0.000341422
0.000348394
0.000356299
0.000364855
0.000373812
0.000382951
0.000392087
0.000401059
0.000409737
0.000418016
0.000425814
0.000433071
0.000439744
0.000445807
0.00045125
0.000456073
0.000460285
0.000463906
0.000466959
0.000469472
0.000471479
0.000473013
0.00047411
0.000474806
0.000475136
0.000473526
0.000478299
0.000484911
0.000492934
0.00050199
0.000511741
0.000521896
0.000532201
0.000542443
0.000552447
0.00056207
0.000571203
0.000579761
0.000587687
0.000594942
0.000601508
0.000607379
0.000612562
0.000617075
0.000620942
0.000624194
0.000626866
0.000628994
0.000630619
0.000631779
0.000632513
0.000632862
0.000632944
0.000637922
0.000644803
0.000653126
0.000662485
0.000672522
0.00068293
0.000693446
0.000703853
0.000713975
0.000723673
0.00073284
0.000741399
0.000749299
0.000756508
0.000763014
0.000768816
0.000773927
0.000778368
0.000782167
0.000785357
0.000787974
0.000790057
0.000791645
0.000792777
0.000793494
0.000793834
0.000798223
0.000803031
0.000809667
0.000817677
0.000826663
0.000836277
0.00084622
0.00085624
0.000866131
0.000875727
0.0008849
0.000893553
0.000901617
0.000909047
0.000915817
0.000921918
0.000927353
0.000932136
0.000936288
0.000939839
0.000942818
0.000945262
0.000947206
0.000948688
0.000949746
0.000950415
0.000950733
0.000959825
0.000964252
0.000970356
0.000977717
0.000985967
0.000994783
0.00100389
0.00101306
0.0010221
0.00103087
0.00103924
0.00104713
0.00105448
0.00106125
0.00106742
0.00107298
0.00107793
0.00108228
0.00108606
0.0010893
0.00109201
0.00109424
0.00109601
0.00109736
0.00109832
0.00109894
0.00109923
0.00111194
0.00111592
0.0011214
0.00112801
0.00113542
0.00114334
0.00115152
0.00115975
0.00116787
0.00117574
0.00118326
0.00119035
0.00119696
0.00120305
0.0012086
0.0012136
0.00121805
0.00122197
0.00122538
0.0012283
0.00123074
0.00123275
0.00123435
0.00123557
0.00123645
0.001237
0.00123726
0.00125208
0.00125563
0.00126052
0.00126642
0.00127303
0.0012801
0.0012874
0.00129476
0.00130203
0.00130907
0.00131581
0.00132216
0.00132808
0.00133355
0.00133853
0.00134302
0.00134702
0.00135055
0.00135362
0.00135624
0.00135845
0.00136026
0.0013617
0.00136281
0.00136359
0.00136409
0.00136433
0.00137995
0.00138312
0.0013875
0.00139277
0.00139869
0.00140502
0.00141157
0.00141817
0.00142469
0.00143102
0.00143708
0.00144279
0.00144813
0.00145305
0.00145754
0.00146159
0.0014652
0.00146839
0.00147116
0.00147354
0.00147553
0.00147717
0.00147848
0.00147948
0.00148019
0.00148064
0.00148086
0.0014964
0.00149925
0.00150319
0.00150795
0.00151329
0.001519
0.00152491
0.00153088
0.00153677
0.0015425
0.00154798
0.00155316
0.001558
0.00156246
0.00156654
0.00157022
0.0015735
0.0015764
0.00157892
0.00158108
0.0015829
0.00158439
0.00158558
0.00158649
0.00158714
0.00158755
0.00158775
0.0016027
0.0016053
0.00160888
0.00161321
0.00161806
0.00162327
0.00162865
0.00163409
0.00163947
0.00164469
0.0016497
0.00165443
0.00165885
0.00166294
0.00166666
0.00167003
0.00167304
0.00167569
0.001678
0.00167998
0.00168165
0.00168302
0.00168411
0.00168494
0.00168554
0.00168592
0.0016861
0.00170024
0.00170262
0.00170591
0.00170988
0.00171434
0.00171912
0.00172408
0.00172908
0.00173402
0.00173883
0.00174344
0.0017478
0.00175188
0.00175564
0.00175908
0.00176219
0.00176496
0.00176741
0.00176955
0.00177137
0.00177291
0.00177418
0.00177519
0.00177596
0.00177651
0.00177686
0.00177702
0.0017903
0.0017925
0.00179554
0.00179922
0.00180335
0.00180778
0.00181237
0.00181701
0.0018216
0.00182606
0.00183034
0.00183439
0.00183818
0.00184167
0.00184487
0.00184776
0.00185034
0.00185262
0.0018546
0.0018563
0.00185773
0.00185891
0.00185985
0.00186056
0.00186108
0.0018614
0.00186156
0.001874
0.00187605
0.00187889
0.00188233
0.00188619
0.00189032
0.00189461
0.00189894
0.00190323
0.00190741
0.00191141
0.0019152
0.00191874
0.00192201
0.001925
0.00192771
0.00193012
0.00193226
0.00193412
0.00193571
0.00193705
0.00193815
0.00193903
0.0019397
0.00194018
0.00194049
0.00194063
0.00195232
0.00195425
0.00195692
0.00196015
0.00196378
0.00196767
0.00197171
0.00197579
0.00197983
0.00198376
0.00198752
0.00199109
0.00199443
0.00199751
0.00200033
0.00200288
0.00200516
0.00200717
0.00200892
0.00201043
0.00201169
0.00201273
0.00201356
0.00201419
0.00201465
0.00201493
0.00201507
0.0020261
0.00202793
0.00203046
0.00203351
0.00203695
0.00204063
0.00204446
0.00204832
0.00205215
0.00205587
0.00205944
0.00206283
0.00206599
0.00206891
0.00207159
0.00207401
0.00207617
0.00207808
0.00207974
0.00208117
0.00208237
0.00208335
0.00208414
0.00208474
0.00208517
0.00208544
0.00208557
0.00209604
0.00209778
0.00210019
0.0021031
0.00210638
0.00210989
0.00211353
0.00211721
0.00212086
0.00212441
0.00212782
0.00213104
0.00213406
0.00213685
0.0021394
0.00214171
0.00214377
0.0021456
0.00214718
0.00214854
0.00214969
0.00215063
0.00215138
0.00215196
0.00215237
0.00215263
0.00215275
0.00216275
0.00216442
0.00216672
0.00216951
0.00217265
0.00217601
0.0021795
0.00218303
0.00218653
0.00218994
0.0021932
0.0021963
0.00219919
0.00220187
0.00220432
0.00220653
0.00220851
0.00221026
0.00221178
0.00221309
0.00221419
0.00221509
0.00221581
0.00221636
0.00221676
0.00221701
0.00221713
0.00222673
0.00222834
0.00223056
0.00223324
0.00223626
0.00223951
0.00224287
0.00224627
0.00224964
0.00225292
0.00225607
0.00225906
0.00226185
0.00226443
0.00226679
0.00226892
0.00227083
0.00227252
0.00227399
0.00227525
0.00227631
0.00227718
0.00227788
0.00227841
0.00227879
0.00227903
0.00227915
0.00228843
0.00228998
0.00229213
0.00229473
0.00229765
0.00230079
0.00230405
0.00230734
0.0023106
0.00231378
0.00231683
0.00231972
0.00232243
0.00232493
0.00232722
0.00232929
0.00233114
0.00233277
0.0023342
0.00233542
0.00233645
0.00233729
0.00233797
0.00233848
0.00233885
0.00233909
0.0023392
0.00234821
0.00234972
0.00235181
0.00235433
0.00235718
0.00236023
0.00236339
0.0023666
0.00236977
0.00237286
0.00237583
0.00237864
0.00238127
0.00238371
0.00238594
0.00238795
0.00238975
0.00239134
0.00239273
0.00239392
0.00239492
0.00239574
0.0023964
0.0023969
0.00239726
0.00239749
0.0023976
0.00240639
0.00240786
0.0024099
0.00241237
0.00241515
0.00241812
0.00242122
0.00242434
0.00242744
0.00243046
0.00243336
0.00243611
0.00243868
0.00244106
0.00244323
0.0024452
0.00244696
0.00244852
0.00244988
0.00245104
0.00245202
0.00245282
0.00245346
0.00245396
0.00245431
0.00245453
0.00245464
0.00246325
0.00246469
0.00246669
0.0024691
0.00247182
0.00247474
0.00247777
0.00248084
0.00248388
0.00248684
0.00248968
0.00249237
0.00249489
0.00249722
0.00249936
0.00250129
0.00250302
0.00250454
0.00250587
0.00250701
0.00250797
0.00250876
0.00250939
0.00250987
0.00251022
0.00251044
0.00251054
0.002519
0.00252042
0.00252239
0.00252476
0.00252743
0.0025303
0.00253328
0.0025363
0.00253928
0.0025422
0.00254499
0.00254764
0.00255012
0.00255241
0.00255451
0.00255641
0.00255811
0.00255961
0.00256092
0.00256204
0.00256299
0.00256376
0.00256439
0.00256486
0.0025652
0.00256541
0.00256552
0.00257386
0.00257526
0.00257719
0.00257953
0.00258217
0.002585
0.00258793
0.0025909
0.00259385
0.00259672
0.00259948
0.00260209
0.00260454
0.0026068
0.00260887
0.00261074
0.00261242
0.0026139
0.00261519
0.0026163
0.00261723
0.002618
0.00261861
0.00261908
0.00261941
0.00261963
0.00261973
0.00262797
0.00262935
0.00263126
0.00263357
0.00263618
0.00263897
0.00264188
0.00264481
0.00264773
0.00265056
0.00265329
0.00265587
0.00265829
0.00266053
0.00266257
0.00266443
0.00266609
0.00266755
0.00266883
0.00266992
0.00267084
0.0026716
0.00267221
0.00267267
0.002673
0.00267321
0.00267331
0.00268146
0.00268283
0.00268473
0.00268702
0.0026896
0.00269236
0.00269524
0.00269815
0.00270103
0.00270384
0.00270654
0.0027091
0.0027115
0.00271371
0.00271574
0.00271758
0.00271922
0.00272067
0.00272194
0.00272302
0.00272394
0.00272469
0.00272529
0.00272575
0.00272607
0.00272628
0.00272638
0.00273446
0.00273582
0.0027377
0.00273997
0.00274253
0.00274527
0.00274812
0.00275101
0.00275387
0.00275666
0.00275934
0.00276188
0.00276425
0.00276645
0.00276847
0.00277029
0.00277192
0.00277336
0.00277462
0.00277569
0.0027766
0.00277735
0.00277794
0.0027784
0.00277872
0.00277893
0.00277903
0.00278704
0.00278839
0.00279025
0.00279251
0.00279505
0.00279778
0.00280061
0.00280348
0.00280632
0.00280909
0.00281175
0.00281427
0.00281664
0.00281882
0.00282082
0.00282263
0.00282425
0.00282568
0.00282693
0.002828
0.0028289
0.00282964
0.00283023
0.00283069
0.00283101
0.00283121
0.00283131
0.00283926
0.0028406
0.00284246
0.0028447
0.00284723
0.00284994
0.00285276
0.00285561
0.00285843
0.00286119
0.00286384
0.00286634
0.00286869
0.00287086
0.00287285
0.00287465
0.00287626
0.00287769
0.00287893
0.00287999
0.00288089
0.00288163
0.00288221
0.00288266
0.00288299
0.00288319
0.00288329
0.00289118
0.00289251
0.00289436
0.00289659
0.0028991
0.0029018
0.0029046
0.00290744
0.00291025
0.00291299
0.00291563
0.00291812
0.00292046
0.00292262
0.0029246
0.00292639
0.00292799
0.00292941
0.00293064
0.0029317
0.00293259
0.00293333
0.00293391
0.00293436
0.00293468
0.00293488
0.00293498
0.00294281
0.00294414
0.00294597
0.0029482
0.0029507
0.00295338
0.00295617
0.00295899
0.00296179
0.00296452
0.00296714
0.00296962
0.00297195
0.0029741
0.00297607
0.00297785
0.00297945
0.00298086
0.00298209
0.00298314
0.00298403
0.00298476
0.00298534
0.00298579
0.0029861
0.00298631
0.0029864
0.00299417
0.00299549
0.00299732
0.00299953
0.00300202
0.00300469
0.00300747
0.00301027
0.00301306
0.00301577
0.00301838
0.00302085
0.00302317
0.00302531
0.00302727
0.00302904
0.00303063
0.00303203
0.00303325
0.0030343
0.00303519
0.00303591
0.00303649
0.00303693
0.00303725
0.00303745
0.00303755
0.00304525
0.00304656
0.00304838
0.00305058
0.00305305
0.00305571
0.00305847
0.00306127
0.00306404
0.00306674
0.00306933
0.00307179
0.00307409
0.00307622
0.00307817
0.00307994
0.00308151
0.00308291
0.00308412
0.00308517
0.00308605
0.00308677
0.00308734
0.00308779
0.0030881
0.0030883
0.0030884
0.00309601
0.00309732
0.00309913
0.00310131
0.00310378
0.00310642
0.00310916
0.00311194
0.0031147
0.00311738
0.00311996
0.0031224
0.00312469
0.00312681
0.00312874
0.0031305
0.00313207
0.00313345
0.00313466
0.0031357
0.00313657
0.00313729
0.00313786
0.0031383
0.00313861
0.00313881
0.00313891
0.00314643
0.00314773
0.00314952
0.0031517
0.00315414
0.00315677
0.00315949
0.00316225
0.00316498
0.00316765
0.00317021
0.00317264
0.00317491
0.00317701
0.00317893
0.00318067
0.00318223
0.00318361
0.00318481
0.00318584
0.0031867
0.00318742
0.00318798
0.00318842
0.00318873
0.00318893
0.00318902
0.00319644
0.00319773
0.00319951
0.00320166
0.00320408
0.00320669
0.00320939
0.00321213
0.00321484
0.00321748
0.00322002
0.00322242
0.00322468
0.00322676
0.00322867
0.00323039
0.00323194
0.0032333
0.00323449
0.00323551
0.00323637
0.00323707
0.00323764
0.00323807
0.00323838
0.00323857
0.00323866
0.00324596
0.00324723
0.00324899
0.00325113
0.00325353
0.0032561
0.00325878
0.00326149
0.00326417
0.00326679
0.0032693
0.00327168
0.00327391
0.00327597
0.00327785
0.00327956
0.00328109
0.00328244
0.00328361
0.00328462
0.00328547
0.00328617
0.00328673
0.00328715
0.00328746
0.00328765
0.00328774
0.00329489
0.00329615
0.00329789
0.0033
0.00330237
0.00330491
0.00330755
0.00331023
0.00331288
0.00331546
0.00331794
0.00332029
0.00332249
0.00332452
0.00332638
0.00332807
0.00332958
0.00333091
0.00333207
0.00333306
0.0033339
0.00333459
0.00333514
0.00333556
0.00333586
0.00333605
0.00333614
0.00334312
0.00334436
0.00334607
0.00334815
0.00335048
0.00335299
0.00335559
0.00335822
0.00336083
0.00336337
0.00336581
0.00336813
0.00337029
0.00337229
0.00337413
0.00337578
0.00337727
0.00337858
0.00337972
0.0033807
0.00338152
0.0033822
0.00338274
0.00338315
0.00338345
0.00338364
0.00338372
0.0033905
0.00339171
0.0033934
0.00339544
0.00339773
0.00340019
0.00340274
0.00340532
0.00340788
0.00341038
0.00341277
0.00341504
0.00341716
0.00341913
0.00342092
0.00342255
0.003424
0.00342529
0.00342641
0.00342736
0.00342817
0.00342884
0.00342937
0.00342977
0.00343006
0.00343025
0.00343033
0.00343687
0.00343806
0.00343971
0.0034417
0.00344394
0.00344635
0.00344884
0.00345137
0.00345387
0.00345631
0.00345864
0.00346086
0.00346293
0.00346485
0.0034666
0.00346819
0.00346961
0.00347086
0.00347195
0.00347289
0.00347368
0.00347433
0.00347484
0.00347524
0.00347552
0.0034757
0.00347579
0.00348206
0.00348322
0.00348482
0.00348676
0.00348894
0.00349128
0.00349371
0.00349616
0.00349859
0.00350096
0.00350323
0.00350539
0.0035074
0.00350926
0.00351097
0.00351251
0.00351389
0.0035151
0.00351616
0.00351707
0.00351784
0.00351847
0.00351897
0.00351935
0.00351963
0.0035198
0.00351988
0.00352585
0.00352697
0.00352852
0.0035304
0.00353251
0.00353477
0.00353712
0.00353949
0.00354184
0.00354413
0.00354633
0.00354841
0.00355035
0.00355215
0.0035538
0.00355529
0.00355662
0.00355779
0.00355881
0.00355969
0.00356043
0.00356104
0.00356152
0.00356189
0.00356215
0.00356232
0.0035624
0.00356803
0.00356911
0.0035706
0.0035724
0.00357443
0.0035766
0.00357886
0.00358113
0.00358339
0.00358559
0.0035877
0.00358969
0.00359156
0.00359328
0.00359486
0.00359629
0.00359756
0.00359869
0.00359967
0.00360051
0.00360121
0.0036018
0.00360226
0.00360261
0.00360287
0.00360303
0.0036031
0.00360835
0.00360938
0.0036108
0.00361252
0.00361445
0.00361652
0.00361867
0.00362084
0.00362299
0.00362509
0.00362709
0.00362899
0.00363077
0.00363241
0.00363391
0.00363526
0.00363647
0.00363754
0.00363848
0.00363927
0.00363995
0.0036405
0.00364094
0.00364127
0.00364151
0.00364167
0.00364174
0.00364657
0.00364754
0.00364888
0.00365051
0.00365233
0.00365429
0.00365632
0.00365837
0.0036604
0.00366237
0.00366426
0.00366605
0.00366773
0.00366927
0.00367068
0.00367196
0.0036731
0.00367411
0.00367498
0.00367574
0.00367637
0.00367689
0.0036773
0.00367762
0.00367784
0.00367799
0.00367805
0.00368243
0.00368334
0.0036846
0.00368611
0.00368782
0.00368965
0.00369154
0.00369346
0.00369535
0.00369719
0.00369896
0.00370063
0.00370219
0.00370363
0.00370494
0.00370613
0.00370719
0.00370813
0.00370895
0.00370965
0.00371023
0.00371072
0.0037111
0.0037114
0.00371161
0.00371174
0.0037118
0.0037157
0.00371654
0.0037177
0.0037191
0.00372068
0.00372237
0.00372411
0.00372588
0.00372762
0.00372932
0.00373095
0.00373248
0.00373392
0.00373524
0.00373645
0.00373755
0.00373852
0.00373938
0.00374013
0.00374077
0.00374131
0.00374176
0.00374211
0.00374238
0.00374257
0.0037427
0.00374275
0.00374615
0.00374692
0.00374797
0.00374925
0.00375069
0.00375222
0.00375381
0.00375542
0.00375701
0.00375855
0.00376002
0.00376142
0.00376272
0.00376392
0.00376502
0.00376601
0.00376689
0.00376767
0.00376835
0.00376893
0.00376942
0.00376982
0.00377014
0.00377038
0.00377056
0.00377067
0.00377072
0.00377361
0.0037743
0.00377525
0.00377639
0.00377768
0.00377906
0.00378048
0.00378192
0.00378333
0.00378471
0.00378603
0.00378728
0.00378844
0.00378951
0.00379049
0.00379137
0.00379216
0.00379285
0.00379345
0.00379397
0.00379441
0.00379476
0.00379505
0.00379526
0.00379542
0.00379552
0.00379556
0.00379795
0.00379856
0.0037994
0.00380041
0.00380154
0.00380275
0.003804
0.00380526
0.00380651
0.00380772
0.00380887
0.00380997
0.00381098
0.00381192
0.00381278
0.00381355
0.00381424
0.00381484
0.00381537
0.00381582
0.0038162
0.00381651
0.00381676
0.00381695
0.00381708
0.00381717
0.00381721
0.00381913
0.00381965
0.00382037
0.00382124
0.00382222
0.00382327
0.00382434
0.00382543
0.0038265
0.00382754
0.00382854
0.00382947
0.00383035
0.00383115
0.00383188
0.00383255
0.00383313
0.00383365
0.0038341
0.00383449
0.00383481
0.00383508
0.00383529
0.00383545
0.00383557
0.00383564
0.00383568
0.00383716
0.0038376
0.00383821
0.00383895
0.00383977
0.00384065
0.00384156
0.00384247
0.00384338
0.00384425
0.00384508
0.00384587
0.0038466
0.00384728
0.00384789
0.00384844
0.00384894
0.00384937
0.00384975
0.00385007
0.00385034
0.00385056
0.00385074
0.00385088
0.00385097
0.00385103
0.00385106
0.00385216
0.00385253
0.00385303
0.00385363
0.00385431
0.00385504
0.00385578
0.00385653
0.00385727
0.00385799
0.00385867
0.00385931
0.00385991
0.00386046
0.00386096
0.00386141
0.00386181
0.00386217
0.00386247
0.00386273
0.00386295
0.00386313
0.00386328
0.00386339
0.00386346
0.00386351
0.00386354
0.00386433
0.00386462
0.00386502
0.00386551
0.00386605
0.00386663
0.00386723
0.00386782
0.00386841
0.00386898
0.00386953
0.00387004
0.00387052
0.00387095
0.00387135
0.00387171
0.00387203
0.00387231
0.00387255
0.00387276
0.00387293
0.00387307
0.00387319
0.00387327
0.00387333
0.00387337
0.00387339
0.00387394
0.00387417
0.00387448
0.00387486
0.00387529
0.00387574
0.0038762
0.00387667
0.00387713
0.00387757
0.00387799
0.00387839
0.00387876
0.0038791
0.00387941
0.00387968
0.00387993
0.00388015
0.00388033
0.00388049
0.00388063
0.00388074
0.00388083
0.00388089
0.00388094
0.00388097
0.00388099
0.00388135
0.00388153
0.00388177
0.00388206
0.00388238
0.00388272
0.00388308
0.00388343
0.00388378
0.00388411
0.00388443
0.00388473
0.00388501
0.00388527
0.0038855
0.00388571
0.0038859
0.00388606
0.0038862
0.00388632
0.00388642
0.0038865
0.00388657
0.00388662
0.00388666
0.00388668
0.00388669
0.00388693
0.00388706
0.00388724
0.00388746
0.00388769
0.00388795
0.00388821
0.00388847
0.00388873
0.00388898
0.00388921
0.00388943
0.00388964
0.00388983
0.00389
0.00389015
0.00389029
0.00389041
0.00389051
0.0038906
0.00389067
0.00389073
0.00389078
0.00389082
0.00389084
0.00389086
0.00389087
0.00389103
0.00389113
0.00389126
0.00389141
0.00389158
0.00389176
0.00389195
0.00389214
0.00389232
0.0038925
0.00389267
0.00389283
0.00389298
0.00389311
0.00389323
0.00389334
0.00389344
0.00389352
0.00389359
0.00389366
0.00389371
0.00389375
0.00389379
0.00389381
0.00389383
0.00389384
0.00389385
0.00389397
0.00389404
0.00389413
0.00389423
0.00389435
0.00389448
0.00389461
0.00389474
0.00389487
0.003895
0.00389511
0.00389522
0.00389532
0.00389542
0.0038955
0.00389558
0.00389565
0.0038957
0.00389576
0.0038958
0.00389584
0.00389586
0.00389589
0.00389591
0.00389592
0.00389593
0.00389593
0.00389603
0.00389607
0.00389613
0.00389621
0.00389629
0.00389637
0.00389646
0.00389655
0.00389664
0.00389672
0.0038968
0.00389688
0.00389695
0.00389701
0.00389706
0.00389711
0.00389716
0.0038972
0.00389723
0.00389726
0.00389728
0.0038973
0.00389732
0.00389733
0.00389734
0.00389734
0.00389735
0.00389744
0.00389746
0.0038975
0.00389755
0.0038976
0.00389766
0.00389771
0.00389777
0.00389783
0.00389788
0.00389793
0.00389797
0.00389801
0.00389805
0.00389809
0.00389812
0.00389814
0.00389817
0.00389819
0.0038982
0.00389822
0.00389823
0.00389824
0.00389825
0.00389825
0.00389825
0.00389826
0.00389836
0.00389837
0.00389839
0.00389842
0.00389845
0.00389848
0.00389851
0.00389855
0.00389858
0.00389861
0.00389863
0.00389866
0.00389868
0.0038987
0.00389872
0.00389873