/*--------------------------------*- C++ -*----------------------------------*\
| =========                 |                                                 |
| \\      /  F ield         | OpenFOAM: The Open Source CFD Toolbox           |
|  \\    /   O peration     | Version:  2106                                  |
|   \\  /    A nd           | Website:  www.openfoam.com                      |
|    \\/     M anipulation  |                                                 |
\*---------------------------------------------------------------------------*/
FoamFile
{
    version     2.0;
    format      ascii;
    arch        "LSB;label=32;scalar=64";
    class       volScalarField;
    location    "90.00055";
    object      C2H6;
}
// * * * * * * * * * * * * * * * * * * * * * * * * * * * * * * * * * * * * * //

dimensions      [0 0 0 0 0 0 0];

internalField   nonuniform List<scalar> 
3360
(
6.77798e-18
6.99609e-18
7.29961e-18
7.67087e-18
8.0944e-18
8.55631e-18
9.04404e-18
9.54628e-18
1.00529e-17
1.05551e-17
1.1045e-17
1.15162e-17
1.19633e-17
1.23818e-17
1.27686e-17
1.31213e-17
1.34386e-17
1.37198e-17
1.39651e-17
1.41751e-17
1.43512e-17
1.4495e-17
1.46086e-17
1.46943e-17
1.47545e-17
1.4792e-17
1.48094e-17
2.97342e-17
3.08272e-17
3.23694e-17
3.42899e-17
3.65299e-17
3.90382e-17
4.17688e-17
4.46797e-17
4.77321e-17
5.08889e-17
5.41148e-17
5.73754e-17
6.06366e-17
6.3865e-17
6.70275e-17
7.00917e-17
7.30259e-17
7.57992e-17
7.83822e-17
8.07471e-17
8.28686e-17
8.47241e-17
8.62947e-17
8.75648e-17
8.85234e-17
8.91635e-17
8.94827e-17
9.32942e-17
9.73887e-17
1.03207e-16
1.10518e-16
1.19131e-16
1.28872e-16
1.39579e-16
1.51091e-16
1.63243e-16
1.75869e-16
1.88799e-16
2.01865e-16
2.14897e-16
2.27731e-16
2.40207e-16
2.52174e-16
2.6349e-16
2.74029e-16
2.83683e-16
2.9236e-16
2.9999e-16
3.06524e-16
3.11933e-16
3.16208e-16
3.1936e-16
3.21415e-16
3.22416e-16
2.717e-16
2.85197e-16
3.04503e-16
3.28929e-16
3.57897e-16
3.90868e-16
4.27299e-16
4.66631e-16
5.08276e-16
5.51616e-16
5.96013e-16
6.40817e-16
6.85382e-16
7.29081e-16
7.71317e-16
8.11544e-16
8.49276e-16
8.84101e-16
9.15687e-16
9.43787e-16
9.68236e-16
9.88948e-16
1.00591e-15
1.01918e-15
1.02886e-15
1.03511e-15
1.03813e-15
7.93804e-16
8.36378e-16
8.97397e-16
9.74778e-16
1.06675e-15
1.17162e-15
1.28763e-15
1.41293e-15
1.54556e-15
1.68342e-15
1.82437e-15
1.96623e-15
2.10689e-15
2.24429e-15
2.37657e-15
2.50203e-15
2.61922e-15
2.72694e-15
2.82426e-15
2.91052e-15
2.9853e-15
3.04844e-15
3.1e-15
3.14021e-15
3.16948e-15
3.18833e-15
3.19741e-15
2.34065e-15
2.4714e-15
2.65904e-15
2.89719e-15
3.18041e-15
3.50341e-15
3.86075e-15
4.24659e-15
4.65474e-15
5.07866e-15
5.5116e-15
5.94679e-15
6.37762e-15
6.79783e-15
7.20165e-15
7.58398e-15
7.94045e-15
8.26752e-15
8.56247e-15
8.82343e-15
9.04929e-15
9.23971e-15
9.39495e-15
9.51586e-15
9.60375e-15
9.66031e-15
9.68751e-15
6.953e-15
7.3503e-15
7.92043e-15
8.64409e-15
9.50465e-15
1.04859e-14
1.1571e-14
1.27419e-14
1.39797e-14
1.52643e-14
1.6575e-14
1.78912e-14
1.9193e-14
2.04615e-14
2.16794e-14
2.28314e-14
2.39047e-14
2.48887e-14
2.57755e-14
2.65597e-14
2.72381e-14
2.78098e-14
2.82757e-14
2.86384e-14
2.89021e-14
2.90717e-14
2.91533e-14
2.07237e-14
2.19193e-14
2.36358e-14
2.58153e-14
2.84077e-14
3.13642e-14
3.46337e-14
3.81619e-14
4.18908e-14
4.57596e-14
4.9706e-14
5.36679e-14
5.75848e-14
6.13998e-14
6.50611e-14
6.8523e-14
7.17467e-14
7.4701e-14
7.73624e-14
7.97146e-14
8.17487e-14
8.3462e-14
8.48578e-14
8.59443e-14
8.67335e-14
8.72412e-14
8.74851e-14
6.19323e-14
6.55256e-14
7.06837e-14
7.72323e-14
8.50207e-14
9.39012e-14
1.0372e-13
1.14312e-13
1.25504e-13
1.37112e-13
1.48948e-13
1.60827e-13
1.72567e-13
1.83999e-13
1.94966e-13
2.05333e-13
2.14986e-13
2.23829e-13
2.31795e-13
2.38835e-13
2.44922e-13
2.50049e-13
2.54225e-13
2.57476e-13
2.59838e-13
2.61357e-13
2.62087e-13
1.85104e-13
1.95868e-13
2.11322e-13
2.30943e-13
2.54281e-13
2.8089e-13
3.10309e-13
3.42045e-13
3.75572e-13
4.10342e-13
4.45793e-13
4.81363e-13
5.16513e-13
5.5073e-13
5.83554e-13
6.14574e-13
6.43448e-13
6.69899e-13
6.93717e-13
7.14761e-13
7.32954e-13
7.48273e-13
7.6075e-13
7.7046e-13
7.77512e-13
7.82047e-13
7.84226e-13
5.53546e-13
5.85778e-13
6.32043e-13
6.90775e-13
7.60613e-13
8.40226e-13
9.28223e-13
1.02312e-12
1.12335e-12
1.22726e-12
1.33318e-12
1.43942e-12
1.54437e-12
1.64651e-12
1.74446e-12
1.83701e-12
1.92313e-12
2.00201e-12
2.07303e-12
2.13577e-12
2.19e-12
2.23566e-12
2.27285e-12
2.30178e-12
2.3228e-12
2.33631e-12
2.34281e-12
1.65394e-12
1.75021e-12
1.88839e-12
2.06378e-12
2.2723e-12
2.50995e-12
2.77256e-12
3.05569e-12
3.35463e-12
3.66446e-12
3.98014e-12
4.29669e-12
4.60929e-12
4.91341e-12
5.20496e-12
5.48033e-12
5.73651e-12
5.97105e-12
6.18214e-12
6.36857e-12
6.52966e-12
6.66526e-12
6.77566e-12
6.86154e-12
6.92391e-12
6.964e-12
6.98326e-12
4.9371e-12
5.22419e-12
5.63611e-12
6.15875e-12
6.77981e-12
7.48727e-12
8.2686e-12
9.11048e-12
9.99882e-12
1.09189e-11
1.18559e-11
1.27948e-11
1.37214e-11
1.46224e-11
1.54856e-11
1.63005e-11
1.70582e-11
1.77516e-11
1.83754e-11
1.89261e-11
1.94018e-11
1.98021e-11
2.01279e-11
2.03813e-11
2.05652e-11
2.06835e-11
2.07403e-11
1.46983e-11
1.55507e-11
1.67734e-11
1.8324e-11
2.01655e-11
2.22618e-11
2.45752e-11
2.7066e-11
2.96921e-11
3.24097e-11
3.51746e-11
3.79429e-11
4.06725e-11
4.33242e-11
4.58626e-11
4.82569e-11
5.04814e-11
5.25156e-11
5.43442e-11
5.59575e-11
5.73501e-11
5.85212e-11
5.94739e-11
6.02145e-11
6.07519e-11
6.10972e-11
6.1263e-11
4.36119e-11
4.61297e-11
4.97387e-11
5.43116e-11
5.97374e-11
6.59069e-11
7.27074e-11
8.00196e-11
8.77186e-11
9.56749e-11
1.03758e-10
1.1184e-10
1.19799e-10
1.2752e-10
1.34901e-10
1.41855e-10
1.48308e-10
1.54203e-10
1.59496e-10
1.64162e-10
1.68186e-10
1.71568e-10
1.74317e-10
1.76452e-10
1.78001e-10
1.78996e-10
1.79473e-10
1.28672e-10
1.36039e-10
1.4659e-10
1.59944e-10
1.75767e-10
1.93732e-10
2.13501e-10
2.3472e-10
2.5702e-10
2.80023e-10
3.03349e-10
3.26626e-10
3.49504e-10
3.71659e-10
3.92803e-10
4.12688e-10
4.3111e-10
4.47912e-10
4.62979e-10
4.7624e-10
4.87663e-10
4.97251e-10
5.05036e-10
5.11078e-10
5.15456e-10
5.18266e-10
5.19613e-10
3.7679e-10
3.98071e-10
4.28509e-10
4.6697e-10
5.12453e-10
5.63979e-10
6.20544e-10
6.81107e-10
7.4459e-10
8.09899e-10
8.75948e-10
9.41688e-10
1.00613e-09
1.06838e-09
1.12765e-09
1.18326e-09
1.23466e-09
1.28145e-09
1.32332e-09
1.36011e-09
1.39175e-09
1.41826e-09
1.43977e-09
1.45643e-09
1.46849e-09
1.47623e-09
1.47993e-09
1.09196e-09
1.15231e-09
1.23847e-09
1.34709e-09
1.47521e-09
1.61991e-09
1.77825e-09
1.94721e-09
2.1237e-09
2.30462e-09
2.48696e-09
2.66782e-09
2.84451e-09
3.01464e-09
3.1761e-09
3.32715e-09
3.4664e-09
3.59281e-09
3.70567e-09
3.8046e-09
3.88951e-09
3.96053e-09
4.01803e-09
4.06252e-09
4.09469e-09
4.11528e-09
4.12513e-09
3.12117e-09
3.28805e-09
3.52576e-09
3.82455e-09
4.1757e-09
4.57077e-09
5.00128e-09
5.45865e-09
5.93429e-09
6.41973e-09
6.9068e-09
7.38784e-09
7.85587e-09
8.30472e-09
8.72912e-09
9.12474e-09
9.48824e-09
9.8172e-09
1.01101e-08
1.03661e-08
1.05854e-08
1.07684e-08
1.09162e-08
1.10304e-08
1.11129e-08
1.11656e-08
1.11908e-08
8.75905e-09
9.20549e-09
9.83962e-09
1.06337e-08
1.15629e-08
1.26033e-08
1.37313e-08
1.49234e-08
1.61566e-08
1.74085e-08
1.86582e-08
1.98863e-08
2.10755e-08
2.22108e-08
2.32797e-08
2.42721e-08
2.51806e-08
2.6e-08
2.67272e-08
2.73611e-08
2.79025e-08
2.83533e-08
2.87167e-08
2.8997e-08
2.91989e-08
2.93278e-08
2.93893e-08
2.40043e-08
2.51503e-08
2.67725e-08
2.87952e-08
3.11502e-08
3.37725e-08
3.65991e-08
3.95687e-08
4.26226e-08
4.57049e-08
4.87645e-08
5.1755e-08
5.4636e-08
5.73733e-08
5.99388e-08
6.23109e-08
6.4474e-08
6.64179e-08
6.81377e-08
6.96326e-08
7.09058e-08
7.19635e-08
7.28144e-08
7.34693e-08
7.39403e-08
7.42406e-08
7.43838e-08
6.3838e-08
6.66386e-08
7.05888e-08
7.54911e-08
8.11682e-08
8.74532e-08
9.4187e-08
1.01218e-07
1.08405e-07
1.15616e-07
1.22734e-07
1.29653e-07
1.36285e-07
1.42557e-07
1.48409e-07
1.53797e-07
1.58693e-07
1.63078e-07
1.66945e-07
1.70298e-07
1.73145e-07
1.75506e-07
1.77401e-07
1.78857e-07
1.79903e-07
1.80568e-07
1.80885e-07
1.63716e-07
1.70198e-07
1.79307e-07
1.90561e-07
2.03525e-07
2.17797e-07
2.33e-07
2.48782e-07
2.64821e-07
2.80825e-07
2.96538e-07
3.11737e-07
3.26238e-07
3.3989e-07
3.52579e-07
3.6422e-07
3.74761e-07
3.84174e-07
3.92452e-07
3.99609e-07
4.05676e-07
4.10695e-07
4.14717e-07
4.17803e-07
4.20015e-07
4.21422e-07
4.22091e-07
4.02717e-07
4.16901e-07
4.36772e-07
4.61221e-07
4.89258e-07
5.1997e-07
5.52518e-07
5.86135e-07
6.2013e-07
6.5389e-07
6.86885e-07
7.18667e-07
7.48867e-07
7.77195e-07
8.03435e-07
8.27435e-07
8.49105e-07
8.68404e-07
8.85337e-07
8.99949e-07
9.1231e-07
9.22519e-07
9.30688e-07
9.36946e-07
9.41428e-07
9.44274e-07
9.45628e-07
9.47135e-07
9.76573e-07
1.01771e-06
1.06815e-06
1.12579e-06
1.18867e-06
1.25504e-06
1.32331e-06
1.39207e-06
1.4601e-06
1.52635e-06
1.58995e-06
1.65019e-06
1.70653e-06
1.75858e-06
1.80607e-06
1.84885e-06
1.88687e-06
1.92018e-06
1.94886e-06
1.97309e-06
1.99308e-06
2.00905e-06
2.02127e-06
2.03002e-06
2.03557e-06
2.0382e-06
2.12814e-06
2.18648e-06
2.26785e-06
2.3674e-06
2.48081e-06
2.60419e-06
2.73403e-06
2.86718e-06
3.0009e-06
3.13281e-06
3.26093e-06
3.38361e-06
3.49953e-06
3.60772e-06
3.70745e-06
3.79828e-06
3.87996e-06
3.95245e-06
4.01584e-06
4.07037e-06
4.11638e-06
4.15429e-06
4.18455e-06
4.20769e-06
4.22424e-06
4.23473e-06
4.23971e-06
4.57305e-06
4.68453e-06
4.8398e-06
5.02946e-06
5.24516e-06
5.47936e-06
5.72533e-06
5.9771e-06
6.22947e-06
6.47798e-06
6.71891e-06
6.94923e-06
7.16654e-06
7.36905e-06
7.55549e-06
7.72506e-06
7.87737e-06
8.01239e-06
8.13034e-06
8.23172e-06
8.31718e-06
8.38753e-06
8.44366e-06
8.48654e-06
8.51718e-06
8.5366e-06
8.54581e-06
9.40726e-06
9.61497e-06
9.90417e-06
1.02572e-05
1.06585e-05
1.1094e-05
1.15511e-05
1.20188e-05
1.24872e-05
1.29483e-05
1.33951e-05
1.38219e-05
1.42245e-05
1.45994e-05
1.49444e-05
1.5258e-05
1.55396e-05
1.5789e-05
1.60068e-05
1.61939e-05
1.63514e-05
1.64811e-05
1.65845e-05
1.66634e-05
1.67198e-05
1.67554e-05
1.67724e-05
1.85085e-05
1.88897e-05
1.94207e-05
2.00697e-05
2.08082e-05
2.16109e-05
2.24547e-05
2.33195e-05
2.41875e-05
2.50435e-05
2.58745e-05
2.667e-05
2.74216e-05
2.8123e-05
2.87695e-05
2.9358e-05
2.98872e-05
3.03565e-05
3.07668e-05
3.11195e-05
3.14169e-05
3.16616e-05
3.18568e-05
3.20059e-05
3.21123e-05
3.21797e-05
3.22117e-05
3.46304e-05
3.53162e-05
3.6274e-05
3.7448e-05
3.87891e-05
4.0253e-05
4.17996e-05
4.33934e-05
4.50025e-05
4.65992e-05
4.81598e-05
4.9664e-05
5.10953e-05
5.24403e-05
5.36892e-05
5.48344e-05
5.58714e-05
5.67977e-05
5.7613e-05
5.83186e-05
5.89173e-05
5.9413e-05
5.98107e-05
6.0116e-05
6.0335e-05
6.04744e-05
6.05407e-05
6.08882e-05
6.2058e-05
6.36961e-05
6.57116e-05
6.80247e-05
7.05633e-05
7.32621e-05
7.60623e-05
7.89106e-05
8.176e-05
8.45686e-05
8.73e-05
8.99232e-05
9.24121e-05
9.47453e-05
9.6906e-05
9.88818e-05
0.000100664
0.000102248
0.000103632
0.000104817
0.000105807
0.000106609
0.000107229
0.000107678
0.000107966
0.000108104
9.90587e-05
0.000100834
0.000103321
0.000106382
0.000109898
0.00011376
0.000117869
0.000122136
0.00012648
0.000130829
0.00013512
0.000139295
0.000143307
0.000147115
0.000150687
0.000153996
0.000157022
0.000159753
0.000162181
0.000164304
0.000166122
0.000167643
0.000168874
0.000169829
0.00017052
0.000170963
0.000171176
0.000147181
0.000149429
0.000152566
0.000156409
0.000160796
0.000165579
0.000170629
0.000175828
0.000181073
0.000186274
0.000191355
0.000196249
0.000200905
0.00020528
0.000209342
0.000213068
0.000216442
0.000219458
0.000222116
0.000224418
0.000226375
0.000227998
0.000229303
0.000230307
0.00023103
0.000231491
0.000231711
0.000198165
0.000200441
0.000203595
0.000207423
0.000211743
0.000216395
0.000221238
0.00022615
0.000231028
0.000235788
0.000240362
0.000244697
0.000248753
0.000252503
0.00025593
0.000259025
0.000261787
0.000264222
0.000266338
0.000268148
0.000269668
0.000270915
0.000271907
0.000272663
0.000273202
0.000273543
0.000273705
0.000241998
0.000243808
0.000246294
0.000249278
0.000252601
0.000256125
0.000259734
0.000263332
0.000266841
0.000270202
0.000273373
0.000276323
0.000279033
0.000281495
0.000283706
0.00028567
0.000287394
0.000288891
0.000290174
0.000291256
0.000292153
0.00029288
0.000293452
0.000293883
0.000294188
0.000294379
0.000294469
0.000271271
0.000272389
0.000273911
0.000275715
0.000277695
0.000279761
0.000281839
0.000283871
0.000285814
0.000287638
0.000289323
0.000290858
0.00029224
0.000293468
0.000294549
0.000295491
0.000296302
0.000296992
0.000297573
0.000298055
0.000298448
0.000298762
0.000299005
0.000299186
0.000299312
0.00029939
0.000299426
0.000284875
0.00028538
0.000286058
0.000286848
0.000287697
0.000288561
0.000289405
0.000290206
0.000290945
0.000291614
0.000292208
0.000292727
0.000293173
0.000293551
0.000293867
0.000294129
0.000294342
0.000294514
0.000294649
0.000294755
0.000294836
0.000294897
0.000294941
0.000294971
0.000294991
0.000295003
0.000295008
0.000286468
0.000286567
0.000286691
0.000286823
0.000286947
0.000287051
0.000287129
0.000287175
0.000287189
0.000287173
0.00028713
0.000287064
0.00028698
0.000286883
0.000286778
0.00028667
0.000286562
0.000286457
0.000286359
0.000286269
0.000286189
0.00028612
0.000286062
0.000286017
0.000285983
0.000285962
0.000285951
0.000280874
0.000280756
0.000280586
0.000280371
0.000280116
0.000279829
0.000279515
0.000279181
0.000278835
0.000278483
0.000278131
0.000277786
0.000277453
0.000277135
0.000276837
0.00027656
0.000276308
0.000276081
0.00027588
0.000275704
0.000275555
0.000275431
0.00027533
0.000275253
0.000275197
0.000275161
0.000275144
0.000271892
0.000271679
0.000271382
0.000271019
0.000270604
0.000270153
0.000269679
0.000269192
0.000268703
0.00026822
0.000267751
0.000267302
0.000266877
0.00026648
0.000266114
0.000265781
0.00026548
0.000265213
0.000264979
0.000264777
0.000264606
0.000264465
0.000264352
0.000264266
0.000264203
0.000264164
0.000264145
0.000261837
0.000261596
0.000261262
0.000260856
0.000260397
0.000259902
0.000259387
0.000258863
0.000258342
0.000257833
0.000257342
0.000256875
0.000256437
0.000256031
0.000255658
0.00025532
0.000255017
0.000254748
0.000254514
0.000254313
0.000254144
0.000254004
0.000253893
0.000253807
0.000253746
0.000253708
0.000253689
0.000251894
0.000251655
0.000251325
0.000250925
0.000250475
0.000249991
0.000249489
0.000248981
0.000248477
0.000247986
0.000247515
0.000247068
0.00024665
0.000246263
0.000245909
0.000245589
0.000245303
0.00024505
0.000244829
0.00024464
0.000244481
0.00024435
0.000244246
0.000244166
0.000244108
0.000244072
0.000244055
0.000242565
0.00024234
0.000242031
0.000241656
0.000241235
0.000240783
0.000240315
0.000239841
0.000239373
0.000238917
0.00023848
0.000238066
0.00023768
0.000237322
0.000236996
0.000236701
0.000236437
0.000236204
0.000236001
0.000235827
0.000235681
0.000235561
0.000235465
0.000235391
0.000235339
0.000235306
0.00023529
0.000234002
0.000233796
0.000233511
0.000233166
0.000232779
0.000232364
0.000231934
0.0002315
0.000231071
0.000230653
0.000230253
0.000229874
0.000229521
0.000229194
0.000228895
0.000228625
0.000228384
0.000228172
0.000227986
0.000227828
0.000227694
0.000227584
0.000227497
0.00022743
0.000227382
0.000227352
0.000227338
0.000226197
0.000226008
0.000225747
0.000225432
0.000225078
0.000224698
0.000224305
0.000223908
0.000223516
0.000223134
0.000222768
0.000222422
0.000222098
0.0002218
0.000221527
0.00022128
0.00022106
0.000220866
0.000220697
0.000220552
0.00022043
0.00022033
0.00022025
0.000220189
0.000220145
0.000220117
0.000220104
0.000219077
0.000218904
0.000218665
0.000218376
0.000218051
0.000217704
0.000217343
0.000216979
0.000216619
0.000216269
0.000215933
0.000215616
0.000215319
0.000215045
0.000214795
0.000214569
0.000214367
0.000214189
0.000214034
0.000213901
0.000213789
0.000213697
0.000213623
0.000213567
0.000213527
0.000213502
0.00021349
0.000212555
0.000212395
0.000212175
0.000211909
0.00021161
0.000211289
0.000210957
0.000210621
0.000210289
0.000209967
0.000209657
0.000209365
0.000209091
0.000208838
0.000208608
0.000208399
0.000208213
0.000208048
0.000207905
0.000207782
0.000207679
0.000207594
0.000207526
0.000207475
0.000207438
0.000207414
0.000207403
0.000206543
0.000206395
0.000206191
0.000205944
0.000205667
0.00020537
0.000205062
0.000204751
0.000204443
0.000204144
0.000203857
0.000203585
0.000203331
0.000203097
0.000202882
0.000202689
0.000202516
0.000202363
0.00020223
0.000202116
0.00020202
0.000201941
0.000201878
0.00020183
0.000201796
0.000201774
0.000201764
0.000200967
0.000200829
0.000200638
0.000200408
0.00020015
0.000199873
0.000199585
0.000199295
0.000199008
0.000198728
0.00019846
0.000198207
0.00019797
0.000197751
0.00019755
0.000197369
0.000197208
0.000197065
0.000196941
0.000196834
0.000196745
0.000196671
0.000196612
0.000196567
0.000196535
0.000196515
0.000196505
0.000195761
0.000195631
0.000195453
0.000195237
0.000194994
0.000194734
0.000194465
0.000194192
0.000193923
0.00019366
0.000193408
0.00019317
0.000192948
0.000192742
0.000192554
0.000192384
0.000192232
0.000192098
0.000191981
0.000191881
0.000191797
0.000191727
0.000191672
0.00019163
0.0001916
0.00019158
0.000191571
0.000190872
0.00019075
0.000190581
0.000190378
0.000190149
0.000189904
0.000189649
0.000189392
0.000189138
0.00018889
0.000188652
0.000188427
0.000188217
0.000188023
0.000187845
0.000187684
0.000187541
0.000187414
0.000187304
0.000187209
0.00018713
0.000187064
0.000187012
0.000186972
0.000186943
0.000186925
0.000186917
0.000186256
0.00018614
0.00018598
0.000185787
0.000185571
0.000185338
0.000185097
0.000184853
0.000184611
0.000184376
0.000184151
0.000183938
0.000183738
0.000183554
0.000183385
0.000183233
0.000183096
0.000182976
0.000182871
0.000182781
0.000182706
0.000182644
0.000182594
0.000182556
0.000182529
0.000182512
0.000182504
0.000181876
0.000181766
0.000181614
0.00018143
0.000181224
0.000181002
0.000180772
0.00018054
0.00018031
0.000180086
0.000179871
0.000179668
0.000179478
0.000179302
0.000179142
0.000178996
0.000178866
0.000178752
0.000178652
0.000178566
0.000178494
0.000178435
0.000178387
0.000178351
0.000178325
0.000178309
0.000178301
0.000177702
0.000177597
0.000177452
0.000177277
0.000177079
0.000176867
0.000176648
0.000176426
0.000176206
0.000175992
0.000175786
0.000175592
0.00017541
0.000175242
0.000175088
0.000174949
0.000174825
0.000174715
0.00017462
0.000174538
0.000174469
0.000174412
0.000174367
0.000174332
0.000174307
0.000174292
0.000174284
0.000173711
0.00017361
0.000173471
0.000173303
0.000173114
0.00017291
0.0001727
0.000172487
0.000172276
0.00017207
0.000171873
0.000171687
0.000171512
0.000171351
0.000171203
0.00017107
0.000170951
0.000170845
0.000170754
0.000170675
0.000170609
0.000170554
0.000170511
0.000170478
0.000170454
0.000170439
0.000170432
0.000169882
0.000169785
0.000169651
0.000169489
0.000169307
0.000169112
0.000168909
0.000168704
0.000168501
0.000168304
0.000168114
0.000167935
0.000167767
0.000167611
0.000167469
0.000167341
0.000167226
0.000167125
0.000167036
0.000166961
0.000166897
0.000166844
0.000166803
0.000166771
0.000166748
0.000166733
0.000166726
0.000166197
0.000166104
0.000165975
0.000165819
0.000165643
0.000165455
0.00016526
0.000165062
0.000164866
0.000164676
0.000164493
0.00016432
0.000164158
0.000164008
0.000163871
0.000163747
0.000163636
0.000163539
0.000163453
0.00016338
0.000163319
0.000163268
0.000163228
0.000163197
0.000163175
0.000163161
0.000163154
0.000162645
0.000162554
0.00016243
0.000162279
0.000162109
0.000161928
0.000161739
0.000161548
0.000161359
0.000161175
0.000160998
0.000160831
0.000160674
0.000160529
0.000160397
0.000160277
0.00016017
0.000160076
0.000159993
0.000159923
0.000159863
0.000159814
0.000159775
0.000159746
0.000159724
0.000159711
0.000159704
0.000159212
0.000159125
0.000159004
0.000158858
0.000158694
0.000158518
0.000158336
0.000158151
0.000157968
0.00015779
0.000157619
0.000157457
0.000157305
0.000157165
0.000157037
0.000156921
0.000156818
0.000156726
0.000156646
0.000156578
0.00015652
0.000156473
0.000156435
0.000156406
0.000156386
0.000156373
0.000156366
0.000155891
0.000155806
0.00015569
0.000155548
0.000155389
0.000155219
0.000155042
0.000154863
0.000154686
0.000154513
0.000154347
0.00015419
0.000154044
0.000153908
0.000153784
0.000153671
0.000153571
0.000153482
0.000153405
0.000153338
0.000153283
0.000153237
0.0001532
0.000153172
0.000153152
0.00015314
0.000153134
0.000152674
0.000152592
0.000152479
0.000152342
0.000152187
0.000152022
0.00015185
0.000151677
0.000151505
0.000151337
0.000151177
0.000151024
0.000150882
0.00015075
0.00015063
0.000150521
0.000150423
0.000150337
0.000150262
0.000150198
0.000150144
0.0001501
0.000150064
0.000150037
0.000150018
0.000150005
0.000149999
0.000149555
0.000149475
0.000149365
0.000149232
0.000149083
0.000148922
0.000148756
0.000148587
0.00014842
0.000148258
0.000148102
0.000147954
0.000147816
0.000147688
0.000147571
0.000147465
0.000147371
0.000147287
0.000147215
0.000147152
0.0001471
0.000147057
0.000147022
0.000146996
0.000146977
0.000146965
0.000146959
0.000146529
0.000146452
0.000146345
0.000146216
0.000146071
0.000145915
0.000145754
0.00014559
0.000145428
0.00014527
0.000145119
0.000144976
0.000144842
0.000144717
0.000144604
0.000144501
0.00014441
0.000144328
0.000144258
0.000144197
0.000144146
0.000144104
0.000144071
0.000144045
0.000144027
0.000144016
0.00014401
0.000143594
0.00014352
0.000143416
0.000143291
0.00014315
0.000142998
0.000142842
0.000142683
0.000142526
0.000142372
0.000142225
0.000142086
0.000141956
0.000141836
0.000141726
0.000141626
0.000141537
0.000141458
0.00014139
0.000141331
0.000141281
0.000141241
0.000141208
0.000141183
0.000141166
0.000141154
0.000141149
0.000140748
0.000140675
0.000140574
0.000140453
0.000140316
0.000140169
0.000140017
0.000139863
0.000139711
0.000139562
0.000139419
0.000139284
0.000139158
0.000139041
0.000138934
0.000138838
0.000138751
0.000138675
0.000138608
0.000138551
0.000138503
0.000138464
0.000138433
0.000138408
0.000138391
0.00013838
0.000138375
0.000137988
0.000137918
0.00013782
0.000137702
0.00013757
0.000137427
0.00013728
0.00013713
0.000136982
0.000136838
0.0001367
0.000136569
0.000136447
0.000136333
0.00013623
0.000136136
0.000136052
0.000135978
0.000135914
0.000135859
0.000135812
0.000135774
0.000135743
0.00013572
0.000135703
0.000135693
0.000135688
0.000135315
0.000135247
0.000135152
0.000135038
0.00013491
0.000134772
0.000134629
0.000134484
0.000134341
0.000134202
0.000134068
0.000133941
0.000133822
0.000133713
0.000133612
0.000133522
0.000133441
0.000133369
0.000133307
0.000133253
0.000133208
0.000133171
0.000133142
0.000133119
0.000133103
0.000133093
0.000133088
0.00013273
0.000132664
0.000132572
0.000132462
0.000132338
0.000132204
0.000132066
0.000131926
0.000131788
0.000131653
0.000131523
0.000131401
0.000131286
0.00013118
0.000131083
0.000130996
0.000130917
0.000130848
0.000130788
0.000130736
0.000130692
0.000130657
0.000130628
0.000130606
0.000130591
0.000130581
0.000130576
0.000130233
0.000130169
0.000130081
0.000129975
0.000129855
0.000129726
0.000129593
0.000129458
0.000129324
0.000129194
0.000129069
0.000128951
0.00012884
0.000128738
0.000128644
0.00012856
0.000128484
0.000128418
0.000128359
0.00012831
0.000128268
0.000128233
0.000128206
0.000128185
0.000128169
0.00012816
0.000128155
0.000127828
0.000127767
0.000127682
0.000127579
0.000127464
0.00012734
0.000127211
0.000127082
0.000126953
0.000126828
0.000126707
0.000126594
0.000126487
0.000126389
0.000126299
0.000126218
0.000126145
0.000126081
0.000126025
0.000125977
0.000125937
0.000125903
0.000125877
0.000125857
0.000125842
0.000125833
0.000125829
0.000125518
0.000125459
0.000125377
0.000125279
0.000125168
0.000125049
0.000124926
0.000124801
0.000124678
0.000124558
0.000124442
0.000124333
0.000124231
0.000124137
0.000124051
0.000123973
0.000123903
0.000123841
0.000123788
0.000123742
0.000123703
0.000123671
0.000123646
0.000123627
0.000123613
0.000123604
0.0001236
0.000123306
0.00012325
0.000123172
0.000123077
0.000122971
0.000122858
0.00012274
0.000122621
0.000122503
0.000122388
0.000122278
0.000122174
0.000122076
0.000121986
0.000121904
0.000121829
0.000121763
0.000121704
0.000121653
0.000121609
0.000121572
0.000121542
0.000121518
0.000121499
0.000121486
0.000121477
0.000121474
0.000121198
0.000121144
0.00012107
0.00012098
0.000120879
0.000120771
0.000120659
0.000120545
0.000120433
0.000120324
0.000120219
0.00012012
0.000120028
0.000119942
0.000119864
0.000119793
0.00011973
0.000119674
0.000119625
0.000119584
0.000119549
0.00011952
0.000119497
0.000119479
0.000119467
0.000119459
0.000119455
0.000119198
0.000119147
0.000119077
0.000118992
0.000118896
0.000118794
0.000118688
0.000118581
0.000118475
0.000118371
0.000118272
0.000118179
0.000118091
0.00011801
0.000117936
0.000117869
0.00011781
0.000117757
0.000117711
0.000117672
0.000117639
0.000117612
0.00011759
0.000117573
0.000117562
0.000117554
0.00011755
0.000117313
0.000117265
0.000117199
0.000117119
0.000117029
0.000116933
0.000116833
0.000116733
0.000116633
0.000116536
0.000116443
0.000116355
0.000116273
0.000116197
0.000116128
0.000116065
0.000116009
0.000115959
0.000115916
0.00011588
0.000115849
0.000115823
0.000115803
0.000115787
0.000115776
0.000115769
0.000115766
0.000115549
0.000115504
0.000115443
0.000115368
0.000115284
0.000115194
0.000115101
0.000115007
0.000114914
0.000114824
0.000114737
0.000114656
0.000114579
0.000114508
0.000114444
0.000114386
0.000114333
0.000114288
0.000114248
0.000114213
0.000114184
0.000114161
0.000114142
0.000114128
0.000114117
0.000114111
0.000114108
0.000113912
0.000113871
0.000113813
0.000113744
0.000113667
0.000113584
0.000113498
0.000113411
0.000113325
0.000113242
0.000113162
0.000113087
0.000113016
0.000112951
0.000112891
0.000112838
0.00011279
0.000112747
0.000112711
0.000112679
0.000112653
0.000112631
0.000112613
0.0001126
0.000112591
0.000112585
0.000112582
0.000112408
0.00011237
0.000112318
0.000112255
0.000112184
0.000112108
0.000112029
0.00011195
0.000111872
0.000111795
0.000111723
0.000111654
0.000111589
0.00011153
0.000111476
0.000111427
0.000111383
0.000111345
0.000111311
0.000111283
0.000111258
0.000111239
0.000111223
0.000111211
0.000111202
0.000111197
0.000111194
0.000111042
0.000111008
0.000110961
0.000110903
0.000110839
0.000110771
0.0001107
0.000110629
0.000110558
0.000110489
0.000110424
0.000110362
0.000110304
0.00011025
0.000110202
0.000110158
0.000110118
0.000110084
0.000110054
0.000110028
0.000110006
0.000109989
0.000109974
0.000109964
0.000109956
0.000109951
0.000109949
0.000109818
0.000109788
0.000109746
0.000109695
0.000109638
0.000109577
0.000109514
0.000109451
0.000109388
0.000109327
0.000109269
0.000109214
0.000109162
0.000109115
0.000109072
0.000109033
0.000108998
0.000108968
0.000108941
0.000108918
0.000108899
0.000108884
0.000108871
0.000108862
0.000108855
0.00010885
0.000108848
0.000108739
0.000108712
0.000108676
0.000108631
0.000108581
0.000108528
0.000108473
0.000108417
0.000108363
0.000108309
0.000108259
0.000108211
0.000108166
0.000108125
0.000108087
0.000108054
0.000108023
0.000107997
0.000107974
0.000107954
0.000107938
0.000107924
0.000107913
0.000107905
0.000107899
0.000107895
0.000107893
0.000107804
0.000107781
0.00010775
0.000107712
0.000107669
0.000107623
0.000107576
0.000107528
0.000107481
0.000107436
0.000107393
0.000107352
0.000107314
0.000107278
0.000107247
0.000107218
0.000107192
0.000107169
0.00010715
0.000107133
0.000107119
0.000107107
0.000107098
0.000107091
0.000107086
0.000107083
0.000107081
0.000107011
0.000106992
0.000106965
0.000106933
0.000106897
0.000106859
0.000106819
0.000106779
0.00010674
0.000106702
0.000106666
0.000106632
0.0001066
0.000106571
0.000106544
0.00010652
0.000106499
0.00010648
0.000106464
0.00010645
0.000106438
0.000106429
0.000106421
0.000106415
0.000106411
0.000106408
0.000106407
0.000106353
0.000106337
0.000106316
0.000106289
0.00010626
0.000106228
0.000106196
0.000106164
0.000106132
0.000106101
0.000106071
0.000106043
0.000106018
0.000105994
0.000105972
0.000105953
0.000105935
0.00010592
0.000105907
0.000105896
0.000105886
0.000105879
0.000105872
0.000105868
0.000105864
0.000105862
0.000105861
0.000105822
0.000105809
0.000105792
0.000105771
0.000105747
0.000105722
0.000105697
0.000105671
0.000105645
0.000105621
0.000105597
0.000105575
0.000105555
0.000105536
0.000105519
0.000105504
0.00010549
0.000105478
0.000105468
0.000105459
0.000105452
0.000105446
0.000105441
0.000105437
0.000105435
0.000105433
0.000105432
0.000105404
0.000105394
0.000105381
0.000105365
0.000105347
0.000105327
0.000105307
0.000105288
0.000105268
0.000105249
0.000105231
0.000105214
0.000105199
0.000105185
0.000105172
0.00010516
0.000105149
0.00010514
0.000105132
0.000105126
0.00010512
0.000105115
0.000105112
0.000105109
0.000105107
0.000105106
0.000105105
0.000105086
0.000105079
0.000105069
0.000105057
0.000105043
0.000105029
0.000105014
0.000104999
0.000104985
0.000104971
0.000104957
0.000104945
0.000104933
0.000104923
0.000104913
0.000104905
0.000104897
0.00010489
0.000104884
0.00010488
0.000104875
0.000104872
0.000104869
0.000104867
0.000104866
0.000104865
0.000104864
0.000104852
0.000104847
0.000104839
0.000104831
0.000104821
0.00010481
0.0001048
0.000104789
0.000104779
0.000104769
0.000104759
0.00010475
0.000104742
0.000104735
0.000104728
0.000104722
0.000104716
0.000104711
0.000104707
0.000104704
0.000104701
0.000104699
0.000104697
0.000104695
0.000104694
0.000104693
0.000104693
0.000104685
0.000104681
0.000104676
0.00010467
0.000104663
0.000104656
0.000104649
0.000104641
0.000104634
0.000104627
0.000104621
0.000104615
0.000104609
0.000104604
0.000104599
0.000104595
0.000104591
0.000104588
0.000104585
0.000104582
0.00010458
0.000104579
0.000104577
0.000104576
0.000104576
0.000104575
0.000104575
0.00010457
0.000104567
0.000104564
0.00010456
0.000104555
0.00010455
0.000104545
0.00010454
0.000104536
0.000104531
0.000104526
0.000104522
0.000104519
0.000104515
0.000104512
0.000104509
0.000104507
0.000104504
0.000104502
0.000104501
0.0001045
0.000104498
0.000104498
0.000104497
0.000104496
0.000104496
0.000104496
0.000104493
0.000104491
0.000104489
0.000104486
0.000104483
0.00010448
0.000104477
0.000104473
0.00010447
0.000104467
0.000104464
0.000104462
0.000104459
0.000104457
0.000104455
0.000104453
0.000104451
0.00010445