/*--------------------------------*- C++ -*----------------------------------*\
| =========                 |                                                 |
| \\      /  F ield         | OpenFOAM: The Open Source CFD Toolbox           |
|  \\    /   O peration     | Version:  2106                                  |
|   \\  /    A nd           | Website:  www.openfoam.com                      |
|    \\/     M anipulation  |                                                 |
\*---------------------------------------------------------------------------*/
FoamFile
{
    version     2.0;
    format      ascii;
    arch        "LSB;label=32;scalar=64";
    class       volScalarField;
    location    "90.00055";
    object      C4H612_0;
}
// * * * * * * * * * * * * * * * * * * * * * * * * * * * * * * * * * * * * * //

dimensions      [0 0 0 0 0 0 0];

internalField   nonuniform List<scalar> 
3360
(
4.29778e-18
4.43608e-18
4.62853e-18
4.86394e-18
5.13249e-18
5.42538e-18
5.73464e-18
6.0531e-18
6.37436e-18
6.69277e-18
7.00344e-18
7.30222e-18
7.58567e-18
7.85106e-18
8.09631e-18
8.31997e-18
8.52115e-18
8.69945e-18
8.85497e-18
8.98815e-18
9.09979e-18
9.19098e-18
9.263e-18
9.31733e-18
9.35556e-18
9.37933e-18
9.39037e-18
1.88539e-17
1.95469e-17
2.05248e-17
2.17425e-17
2.31629e-17
2.47533e-17
2.64847e-17
2.83305e-17
3.0266e-17
3.22676e-17
3.43131e-17
3.63806e-17
3.84484e-17
4.04955e-17
4.25008e-17
4.44437e-17
4.63042e-17
4.80627e-17
4.97005e-17
5.12001e-17
5.25453e-17
5.37218e-17
5.47177e-17
5.55231e-17
5.61309e-17
5.65368e-17
5.67392e-17
5.91559e-17
6.17522e-17
6.54415e-17
7.00773e-17
7.55383e-17
8.17153e-17
8.85045e-17
9.58035e-17
1.03509e-16
1.11515e-16
1.19714e-16
1.27998e-16
1.36262e-16
1.444e-16
1.52311e-16
1.59898e-16
1.67074e-16
1.73756e-16
1.79877e-16
1.85379e-16
1.90217e-16
1.9436e-16
1.9779e-16
2.00501e-16
2.025e-16
2.03803e-16
2.04437e-16
1.7228e-16
1.80837e-16
1.93079e-16
2.08567e-16
2.26935e-16
2.47841e-16
2.70942e-16
2.95881e-16
3.22288e-16
3.49769e-16
3.7792e-16
4.06329e-16
4.34587e-16
4.62295e-16
4.89077e-16
5.14584e-16
5.38509e-16
5.6059e-16
5.80618e-16
5.98436e-16
6.13939e-16
6.27072e-16
6.37828e-16
6.46241e-16
6.5238e-16
6.56344e-16
6.58256e-16
5.03335e-16
5.3033e-16
5.69021e-16
6.18087e-16
6.76406e-16
7.42899e-16
8.1646e-16
8.95913e-16
9.80007e-16
1.06742e-15
1.1568e-15
1.24675e-15
1.33593e-15
1.42306e-15
1.50693e-15
1.58649e-15
1.6608e-15
1.7291e-15
1.79081e-15
1.8455e-15
1.89292e-15
1.93295e-15
1.96564e-15
1.99114e-15
2.0097e-15
2.02166e-15
2.02741e-15
1.48416e-15
1.56707e-15
1.68604e-15
1.83705e-15
2.01663e-15
2.22144e-15
2.44802e-15
2.69268e-15
2.95148e-15
3.22027e-15
3.49479e-15
3.77074e-15
4.04392e-15
4.31037e-15
4.56642e-15
4.80885e-15
5.03488e-15
5.24226e-15
5.42929e-15
5.59476e-15
5.73797e-15
5.85871e-15
5.95715e-15
6.03381e-15
6.08954e-15
6.12541e-15
6.14265e-15
4.40876e-15
4.66068e-15
5.02219e-15
5.48104e-15
6.0267e-15
6.64888e-15
7.3369e-15
8.0794e-15
8.86426e-15
9.67877e-15
1.05099e-14
1.13445e-14
1.21699e-14
1.29742e-14
1.37465e-14
1.4477e-14
1.51575e-14
1.57814e-14
1.63437e-14
1.6841e-14
1.72711e-14
1.76336e-14
1.7929e-14
1.81591e-14
1.83262e-14
1.84338e-14
1.84855e-14
1.31405e-14
1.38986e-14
1.4987e-14
1.63689e-14
1.80128e-14
1.98874e-14
2.19605e-14
2.41977e-14
2.65621e-14
2.90152e-14
3.15176e-14
3.40297e-14
3.65133e-14
3.89324e-14
4.12539e-14
4.3449e-14
4.54931e-14
4.73664e-14
4.90539e-14
5.05454e-14
5.18352e-14
5.29216e-14
5.38066e-14
5.44955e-14
5.4996e-14
5.53179e-14
5.54725e-14
3.927e-14
4.15485e-14
4.48191e-14
4.89714e-14
5.39099e-14
5.95408e-14
6.57666e-14
7.24831e-14
7.95796e-14
8.69398e-14
9.44452e-14
1.01977e-13
1.09421e-13
1.1667e-13
1.23624e-13
1.30198e-13
1.36318e-13
1.41926e-13
1.46977e-13
1.5144e-13
1.553e-13
1.58551e-13
1.61199e-13
1.6326e-13
1.64758e-13
1.65721e-13
1.66184e-13
1.17371e-13
1.24196e-13
1.33995e-13
1.46437e-13
1.61234e-13
1.78107e-13
1.96761e-13
2.16884e-13
2.38143e-13
2.6019e-13
2.82668e-13
3.05223e-13
3.2751e-13
3.49207e-13
3.7002e-13
3.89689e-13
4.07998e-13
4.24769e-13
4.39872e-13
4.53216e-13
4.64751e-13
4.74465e-13
4.82376e-13
4.88533e-13
4.93005e-13
4.9588e-13
4.97262e-13
3.50992e-13
3.7143e-13
4.00766e-13
4.38006e-13
4.82289e-13
5.3277e-13
5.88568e-13
6.48742e-13
7.12295e-13
7.78183e-13
8.4534e-13
9.12705e-13
9.79251e-13
1.04402e-12
1.10613e-12
1.16481e-12
1.21942e-12
1.26944e-12
1.31447e-12
1.35425e-12
1.38863e-12
1.41759e-12
1.44117e-12
1.45951e-12
1.47284e-12
1.48141e-12
1.48553e-12
1.04873e-12
1.10977e-12
1.19739e-12
1.3086e-12
1.44082e-12
1.59151e-12
1.75802e-12
1.93755e-12
2.1271e-12
2.32356e-12
2.52373e-12
2.72444e-12
2.92266e-12
3.1155e-12
3.30036e-12
3.47497e-12
3.6374e-12
3.78612e-12
3.91997e-12
4.03818e-12
4.14033e-12
4.22631e-12
4.29631e-12
4.35077e-12
4.39031e-12
4.41573e-12
4.42794e-12
3.13052e-12
3.31255e-12
3.57374e-12
3.90513e-12
4.29894e-12
4.74753e-12
5.24295e-12
5.77677e-12
6.34005e-12
6.92347e-12
7.51756e-12
8.1129e-12
8.70045e-12
9.27175e-12
9.8191e-12
1.03358e-11
1.08163e-11
1.12559e-11
1.16515e-11
1.20007e-11
1.23023e-11
1.25561e-11
1.27627e-11
1.29234e-11
1.304e-11
1.3115e-11
1.3151e-11
9.31991e-12
9.8604e-12
1.06357e-11
1.16188e-11
1.27865e-11
1.41157e-11
1.55827e-11
1.7162e-11
1.88272e-11
2.05504e-11
2.23035e-11
2.40588e-11
2.57896e-11
2.7471e-11
2.90805e-11
3.05987e-11
3.20092e-11
3.32991e-11
3.44586e-11
3.54815e-11
3.63645e-11
3.71071e-11
3.77112e-11
3.81808e-11
3.85216e-11
3.87405e-11
3.88456e-11
2.76534e-11
2.92499e-11
3.15383e-11
3.44379e-11
3.78782e-11
4.17902e-11
4.61022e-11
5.07388e-11
5.56205e-11
6.06655e-11
6.5791e-11
7.09157e-11
7.59619e-11
8.08575e-11
8.5538e-11
8.99474e-11
9.40392e-11
9.77768e-11
1.01133e-10
1.04092e-10
1.06643e-10
1.08788e-10
1.10531e-10
1.11885e-10
1.12867e-10
1.13497e-10
1.138e-10
8.15883e-11
8.62596e-11
9.29498e-11
1.01417e-10
1.1145e-10
1.22841e-10
1.35376e-10
1.48831e-10
1.62971e-10
1.77557e-10
1.92347e-10
2.07107e-10
2.21613e-10
2.35661e-10
2.49068e-10
2.61677e-10
2.73358e-10
2.84011e-10
2.93565e-10
3.01974e-10
3.09217e-10
3.15296e-10
3.20233e-10
3.24064e-10
3.2684e-10
3.28622e-10
3.29476e-10
2.38913e-10
2.52407e-10
2.71708e-10
2.96095e-10
3.24935e-10
3.57606e-10
3.93473e-10
4.31875e-10
4.72128e-10
5.13539e-10
5.55419e-10
5.97103e-10
6.37966e-10
6.77438e-10
7.15017e-10
7.50277e-10
7.82872e-10
8.12538e-10
8.3909e-10
8.62417e-10
8.82478e-10
8.99291e-10
9.12924e-10
9.23492e-10
9.3114e-10
9.36043e-10
9.38392e-10
6.92384e-10
7.30646e-10
7.85279e-10
8.54155e-10
9.35389e-10
1.02714e-09
1.12754e-09
1.23467e-09
1.34658e-09
1.4613e-09
1.57692e-09
1.6916e-09
1.80363e-09
1.91151e-09
2.01389e-09
2.10967e-09
2.19796e-09
2.27811e-09
2.34968e-09
2.41241e-09
2.46624e-09
2.51128e-09
2.54774e-09
2.57595e-09
2.59634e-09
2.6094e-09
2.61565e-09
1.97902e-09
2.08483e-09
2.23556e-09
2.42501e-09
2.64767e-09
2.89818e-09
3.17115e-09
3.46116e-09
3.76275e-09
4.07055e-09
4.37938e-09
4.6844e-09
4.98117e-09
5.26577e-09
5.53487e-09
5.78573e-09
6.01621e-09
6.22479e-09
6.4105e-09
6.57286e-09
6.71187e-09
6.8279e-09
6.92165e-09
6.99407e-09
7.04633e-09
7.07975e-09
7.09572e-09
5.55365e-09
5.83672e-09
6.2388e-09
6.7423e-09
7.33148e-09
7.99117e-09
8.70638e-09
9.46225e-09
1.02441e-08
1.1038e-08
1.18303e-08
1.2609e-08
1.3363e-08
1.40829e-08
1.47606e-08
1.53899e-08
1.59659e-08
1.64854e-08
1.69465e-08
1.73485e-08
1.76917e-08
1.79775e-08
1.8208e-08
1.83857e-08
1.85137e-08
1.85954e-08
1.86345e-08
1.5219e-08
1.59456e-08
1.69742e-08
1.82567e-08
1.97498e-08
2.14124e-08
2.32046e-08
2.50874e-08
2.70237e-08
2.8978e-08
3.09178e-08
3.28139e-08
3.46406e-08
3.6376e-08
3.80026e-08
3.95066e-08
4.0878e-08
4.21105e-08
4.32009e-08
4.41487e-08
4.49559e-08
4.56265e-08
4.6166e-08
4.65812e-08
4.68798e-08
4.70702e-08
4.7161e-08
4.04696e-08
4.22452e-08
4.47495e-08
4.78575e-08
5.14567e-08
5.54412e-08
5.97103e-08
6.4168e-08
6.87242e-08
7.32959e-08
7.78081e-08
8.21947e-08
8.63992e-08
9.03749e-08
9.40848e-08
9.75011e-08
1.00605e-07
1.03385e-07
1.05836e-07
1.07961e-07
1.09766e-07
1.11263e-07
1.12464e-07
1.13387e-07
1.1405e-07
1.14472e-07
1.14673e-07
1.03762e-07
1.07871e-07
1.13645e-07
1.20778e-07
1.28996e-07
1.38043e-07
1.47679e-07
1.57683e-07
1.67849e-07
1.77994e-07
1.87953e-07
1.97587e-07
2.06779e-07
2.15432e-07
2.23475e-07
2.30853e-07
2.37535e-07
2.435e-07
2.48747e-07
2.53284e-07
2.57129e-07
2.6031e-07
2.62859e-07
2.64815e-07
2.66217e-07
2.67108e-07
2.67532e-07
2.55115e-07
2.64102e-07
2.76693e-07
2.92185e-07
3.0995e-07
3.29411e-07
3.50035e-07
3.71337e-07
3.92879e-07
4.14271e-07
4.35179e-07
4.55318e-07
4.74454e-07
4.92405e-07
5.09032e-07
5.2424e-07
5.37971e-07
5.50199e-07
5.60929e-07
5.70187e-07
5.7802e-07
5.84488e-07
5.89664e-07
5.93629e-07
5.96468e-07
5.98272e-07
5.99129e-07
5.99412e-07
6.18046e-07
6.44083e-07
6.76015e-07
7.12494e-07
7.52296e-07
7.94304e-07
8.37515e-07
8.81038e-07
9.24095e-07
9.66022e-07
1.00627e-06
1.04439e-06
1.08005e-06
1.11298e-06
1.14303e-06
1.1701e-06
1.19415e-06
1.21522e-06
1.23336e-06
1.24869e-06
1.26133e-06
1.27143e-06
1.27916e-06
1.28469e-06
1.2882e-06
1.28987e-06
1.3442e-06
1.38101e-06
1.43235e-06
1.49514e-06
1.56667e-06
1.64447e-06
1.72631e-06
1.81023e-06
1.89447e-06
1.97756e-06
2.05822e-06
2.13543e-06
2.20837e-06
2.27642e-06
2.33913e-06
2.39622e-06
2.44755e-06
2.49309e-06
2.53291e-06
2.56715e-06
2.59604e-06
2.61983e-06
2.63883e-06
2.65335e-06
2.66373e-06
2.67031e-06
2.67343e-06
2.87626e-06
2.94595e-06
3.04299e-06
3.16145e-06
3.29609e-06
3.44216e-06
3.59545e-06
3.75222e-06
3.90921e-06
4.06365e-06
4.21324e-06
4.35609e-06
4.49075e-06
4.61612e-06
4.73144e-06
4.83623e-06
4.93028e-06
5.01358e-06
5.08631e-06
5.14877e-06
5.20139e-06
5.24469e-06
5.27922e-06
5.30558e-06
5.32442e-06
5.33635e-06
5.34201e-06
5.86215e-06
5.98944e-06
6.16647e-06
6.3823e-06
6.62719e-06
6.8924e-06
7.17016e-06
7.45361e-06
7.73682e-06
8.01477e-06
8.28332e-06
8.53913e-06
8.77964e-06
9.00294e-06
9.20778e-06
9.39341e-06
9.55954e-06
9.70628e-06
9.83404e-06
9.94348e-06
1.00354e-05
1.01109e-05
1.01709e-05
1.02166e-05
1.02492e-05
1.02698e-05
1.02796e-05
1.1322e-05
1.15463e-05
1.1858e-05
1.22376e-05
1.26676e-05
1.31326e-05
1.36184e-05
1.4113e-05
1.46056e-05
1.50874e-05
1.5551e-05
1.59906e-05
1.64016e-05
1.6781e-05
1.71267e-05
1.74378e-05
1.77139e-05
1.79558e-05
1.81645e-05
1.83415e-05
1.84887e-05
1.86083e-05
1.87024e-05
1.87733e-05
1.88232e-05
1.88544e-05
1.8869e-05
2.04522e-05
2.08244e-05
2.13411e-05
2.19692e-05
2.26795e-05
2.34452e-05
2.42427e-05
2.50509e-05
2.58516e-05
2.66297e-05
2.73724e-05
2.80702e-05
2.87157e-05
2.9304e-05
2.98324e-05
3.03001e-05
3.07077e-05
3.10572e-05
3.13518e-05
3.15953e-05
3.1792e-05
3.19467e-05
3.20641e-05
3.21491e-05
3.22065e-05
3.22407e-05
3.22559e-05
3.37343e-05
3.42762e-05
3.50263e-05
3.59346e-05
3.69564e-05
3.80511e-05
3.91829e-05
4.03202e-05
4.14361e-05
4.25085e-05
4.35197e-05
4.44565e-05
4.53097e-05
4.60739e-05
4.67469e-05
4.73294e-05
4.78245e-05
4.8237e-05
4.85734e-05
4.88409e-05
4.90476e-05
4.92014e-05
4.93107e-05
4.93837e-05
4.94279e-05
4.9451e-05
4.94596e-05
4.92735e-05
4.98929e-05
5.07438e-05
5.17641e-05
5.28979e-05
5.40955e-05
5.53139e-05
5.65168e-05
5.76744e-05
5.87637e-05
5.97678e-05
6.06756e-05
6.14807e-05
6.21807e-05
6.27772e-05
6.32752e-05
6.36815e-05
6.40048e-05
6.42541e-05
6.44393e-05
6.45706e-05
6.46577e-05
6.47102e-05
6.47369e-05
6.47461e-05
6.47457e-05
6.47426e-05
6.23922e-05
6.2882e-05
6.35447e-05
6.43232e-05
6.51669e-05
6.60316e-05
6.68808e-05
6.76869e-05
6.84301e-05
6.90969e-05
6.96795e-05
7.01752e-05
7.05848e-05
7.09135e-05
7.11671e-05
7.13531e-05
7.148e-05
7.15566e-05
7.15921e-05
7.15954e-05
7.15752e-05
7.15395e-05
7.14956e-05
7.14503e-05
7.14091e-05
7.13774e-05
7.13596e-05
6.84223e-05
6.86168e-05
6.88682e-05
6.91447e-05
6.94188e-05
6.96701e-05
6.9882e-05
7.0044e-05
7.0151e-05
7.02018e-05
7.01989e-05
7.01471e-05
7.00529e-05
6.99239e-05
6.97679e-05
6.95927e-05
6.94059e-05
6.92144e-05
6.90247e-05
6.88423e-05
6.86723e-05
6.85191e-05
6.83861e-05
6.82764e-05
6.8192e-05
6.81346e-05
6.81055e-05
6.61401e-05
6.60424e-05
6.5894e-05
6.56939e-05
6.54417e-05
6.51394e-05
6.47909e-05
6.44022e-05
6.39811e-05
6.3536e-05
6.3076e-05
6.261e-05
6.21464e-05
6.16929e-05
6.12562e-05
6.08419e-05
6.04549e-05
6.00987e-05
5.97762e-05
5.94891e-05
5.92385e-05
5.90253e-05
5.88495e-05
5.87109e-05
5.86087e-05
5.85418e-05
5.85091e-05
5.77103e-05
5.74322e-05
5.7041e-05
5.65576e-05
5.60008e-05
5.53883e-05
5.47367e-05
5.40617e-05
5.33772e-05
5.26959e-05
5.20289e-05
5.13851e-05
5.07723e-05
5.01963e-05
4.96614e-05
4.91708e-05
4.87262e-05
4.83286e-05
4.79779e-05
4.76735e-05
4.74142e-05
4.71984e-05
4.70243e-05
4.68897e-05
4.67923e-05
4.67297e-05
4.66996e-05
4.65251e-05
4.61926e-05
4.57315e-05
4.51717e-05
4.45396e-05
4.38587e-05
4.31497e-05
4.24305e-05
4.17163e-05
4.10193e-05
4.03496e-05
3.97148e-05
3.91207e-05
3.8571e-05
3.80682e-05
3.76135e-05
3.7207e-05
3.68481e-05
3.65355e-05
3.62673e-05
3.60415e-05
3.58557e-05
3.57073e-05
3.55938e-05
3.55125e-05
3.54608e-05
3.54362e-05
3.54247e-05
3.51201e-05
3.47002e-05
3.41943e-05
3.36279e-05
3.30236e-05
3.24003e-05
3.17742e-05
3.11582e-05
3.05628e-05
2.99958e-05
2.94629e-05
2.89681e-05
2.8514e-05
2.81016e-05
2.77313e-05
2.74025e-05
2.71141e-05
2.68644e-05
2.66515e-05
2.64733e-05
2.63274e-05
2.62117e-05
2.61236e-05
2.60609e-05
2.60212e-05
2.60025e-05
2.5974e-05
2.57303e-05
2.53954e-05
2.49934e-05
2.45452e-05
2.40692e-05
2.35807e-05
2.30923e-05
2.26141e-05
2.2154e-05
2.17177e-05
2.13096e-05
2.09321e-05
2.0587e-05
2.02748e-05
1.99955e-05
1.97482e-05
1.95321e-05
1.93455e-05
1.91869e-05
1.90545e-05
1.89465e-05
1.8861e-05
1.87962e-05
1.87501e-05
1.87211e-05
1.87074e-05
1.86407e-05
1.84602e-05
1.82125e-05
1.79156e-05
1.75854e-05
1.72355e-05
1.68772e-05
1.65199e-05
1.61708e-05
1.58358e-05
1.55188e-05
1.52227e-05
1.49496e-05
1.47003e-05
1.44751e-05
1.4274e-05
1.40963e-05
1.39411e-05
1.38074e-05
1.36939e-05
1.35993e-05
1.35222e-05
1.34613e-05
1.34151e-05
1.33823e-05
1.33617e-05
1.3352e-05
1.32693e-05
1.31413e-05
1.29658e-05
1.27557e-05
1.25223e-05
1.2275e-05
1.20222e-05
1.17703e-05
1.15245e-05
1.12887e-05
1.10659e-05
1.0858e-05
1.06663e-05
1.04915e-05
1.03338e-05
1.01929e-05
1.00686e-05
9.96008e-06
9.86663e-06
9.78735e-06
9.7213e-06
9.66751e-06
9.62501e-06
9.59282e-06
9.57e-06
9.55564e-06
9.54887e-06
9.46973e-06
9.38114e-06
9.25966e-06
9.11425e-06
8.95271e-06
8.78173e-06
8.60691e-06
8.43278e-06
8.26293e-06
8.10006e-06
7.94617e-06
7.80263e-06
7.67031e-06
7.54965e-06
7.4408e-06
7.34364e-06
7.25786e-06
7.18302e-06
7.11856e-06
7.06389e-06
7.01835e-06
6.98127e-06
6.95196e-06
6.92977e-06
6.91404e-06
6.90415e-06
6.89948e-06
6.83267e-06
6.77193e-06
6.68866e-06
6.58897e-06
6.47822e-06
6.36099e-06
6.24111e-06
6.1217e-06
6.0052e-06
5.89349e-06
5.78792e-06
5.68944e-06
5.59864e-06
5.51584e-06
5.44114e-06
5.37444e-06
5.31555e-06
5.26416e-06
5.21991e-06
5.18236e-06
5.15108e-06
5.12561e-06
5.10548e-06
5.09023e-06
5.07942e-06
5.07262e-06
5.06942e-06
5.0163e-06
4.97469e-06
4.91764e-06
4.84933e-06
4.77341e-06
4.69303e-06
4.61081e-06
4.52888e-06
4.44893e-06
4.37223e-06
4.29972e-06
4.23206e-06
4.16966e-06
4.11274e-06
4.06136e-06
4.01549e-06
3.97497e-06
3.9396e-06
3.90914e-06
3.88329e-06
3.86175e-06
3.8442e-06
3.83033e-06
3.81983e-06
3.81238e-06
3.80769e-06
3.80548e-06
3.76423e-06
3.73557e-06
3.69624e-06
3.64915e-06
3.59679e-06
3.54133e-06
3.48457e-06
3.42799e-06
3.37274e-06
3.31972e-06
3.26957e-06
3.22275e-06
3.17955e-06
3.14013e-06
3.10454e-06
3.07274e-06
3.04465e-06
3.02012e-06
2.99898e-06
2.98105e-06
2.96609e-06
2.95391e-06
2.94428e-06
2.93699e-06
2.93181e-06
2.92855e-06
2.92702e-06
2.89505e-06
2.87509e-06
2.8477e-06
2.81488e-06
2.77838e-06
2.73969e-06
2.70008e-06
2.66056e-06
2.62196e-06
2.58489e-06
2.54981e-06
2.51704e-06
2.48679e-06
2.45917e-06
2.43422e-06
2.41192e-06
2.39221e-06
2.375e-06
2.36016e-06
2.34757e-06
2.33707e-06
2.32851e-06
2.32174e-06
2.31661e-06
2.31298e-06
2.31069e-06
2.30961e-06
2.28457e-06
2.27047e-06
2.25113e-06
2.22793e-06
2.20212e-06
2.17475e-06
2.1467e-06
2.11871e-06
2.09134e-06
2.06504e-06
2.04014e-06
2.01687e-06
1.99537e-06
1.97574e-06
1.95799e-06
1.94212e-06
1.92809e-06
1.91583e-06
1.90526e-06
1.89629e-06
1.8888e-06
1.8827e-06
1.87788e-06
1.87422e-06
1.87163e-06
1.86999e-06
1.86922e-06
1.84929e-06
1.83917e-06
1.82527e-06
1.80861e-06
1.79005e-06
1.77036e-06
1.75017e-06
1.73001e-06
1.71028e-06
1.69131e-06
1.67334e-06
1.65653e-06
1.641e-06
1.6268e-06
1.61396e-06
1.60248e-06
1.59232e-06
1.58344e-06
1.57578e-06
1.56928e-06
1.56385e-06
1.55943e-06
1.55593e-06
1.55328e-06
1.5514e-06
1.55021e-06
1.54966e-06
1.53349e-06
1.52609e-06
1.51593e-06
1.50374e-06
1.49016e-06
1.47573e-06
1.46094e-06
1.44614e-06
1.43167e-06
1.41773e-06
1.40452e-06
1.39216e-06
1.38073e-06
1.37027e-06
1.36081e-06
1.35235e-06
1.34486e-06
1.33831e-06
1.33266e-06
1.32786e-06
1.32386e-06
1.3206e-06
1.31801e-06
1.31606e-06
1.31467e-06
1.31379e-06
1.31338e-06
1.30003e-06
1.29452e-06
1.28695e-06
1.27787e-06
1.26773e-06
1.25697e-06
1.24591e-06
1.23486e-06
1.22403e-06
1.2136e-06
1.2037e-06
1.19444e-06
1.18587e-06
1.17802e-06
1.17092e-06
1.16457e-06
1.15894e-06
1.15402e-06
1.14977e-06
1.14617e-06
1.14315e-06
1.1407e-06
1.13876e-06
1.13729e-06
1.13624e-06
1.13558e-06
1.13527e-06
1.12407e-06
1.11989e-06
1.11414e-06
1.10724e-06
1.09953e-06
1.09134e-06
1.08293e-06
1.07451e-06
1.06625e-06
1.05829e-06
1.05074e-06
1.04367e-06
1.03712e-06
1.03112e-06
1.02569e-06
1.02083e-06
1.01652e-06
1.01275e-06
1.0095e-06
1.00674e-06
1.00443e-06
1.00255e-06
1.00107e-06
9.99938e-07
9.99138e-07
9.98635e-07
9.98398e-07
9.88865e-07
9.8563e-07
9.81181e-07
9.75835e-07
9.69868e-07
9.6352e-07
9.56995e-07
9.50459e-07
9.44048e-07
9.37867e-07
9.31996e-07
9.26492e-07
9.21394e-07
9.16725e-07
9.12496e-07
9.08707e-07
9.05352e-07
9.02415e-07
8.99881e-07
8.97726e-07
8.95928e-07
8.94462e-07
8.93302e-07
8.92423e-07
8.918e-07
8.91407e-07
8.91222e-07
8.83007e-07
8.80459e-07
8.76955e-07
8.72742e-07
8.68037e-07
8.63029e-07
8.57878e-07
8.52716e-07
8.47649e-07
8.42762e-07
8.38117e-07
8.33761e-07
8.29724e-07
8.26026e-07
8.22675e-07
8.19672e-07
8.17012e-07
8.14684e-07
8.12674e-07
8.10966e-07
8.0954e-07
8.08377e-07
8.07458e-07
8.06761e-07
8.06267e-07
8.05956e-07
8.0581e-07
7.98652e-07
7.96612e-07
7.93805e-07
7.90429e-07
7.86657e-07
7.8264e-07
7.78507e-07
7.74362e-07
7.70292e-07
7.66364e-07
7.62629e-07
7.59125e-07
7.55877e-07
7.529e-07
7.50202e-07
7.47784e-07
7.45642e-07
7.43767e-07
7.42148e-07
7.40772e-07
7.39624e-07
7.38687e-07
7.37947e-07
7.37386e-07
7.36989e-07
7.36739e-07
7.36621e-07
7.30325e-07
7.28667e-07
7.26383e-07
7.23636e-07
7.20566e-07
7.17295e-07
7.13927e-07
7.10549e-07
7.0723e-07
7.04026e-07
7.00979e-07
6.98118e-07
6.95466e-07
6.93035e-07
6.90831e-07
6.88856e-07
6.87105e-07
6.85573e-07
6.8425e-07
6.83126e-07
6.82188e-07
6.81424e-07
6.8082e-07
6.80362e-07
6.80037e-07
6.79833e-07
6.79737e-07
6.74153e-07
6.72786e-07
6.70902e-07
6.68636e-07
6.66102e-07
6.63402e-07
6.60621e-07
6.5783e-07
6.55087e-07
6.52438e-07
6.49918e-07
6.47551e-07
6.45357e-07
6.43345e-07
6.41522e-07
6.39887e-07
6.38438e-07
6.37171e-07
6.36076e-07
6.35146e-07
6.34371e-07
6.33738e-07
6.33239e-07
6.32861e-07
6.32593e-07
6.32424e-07
6.32345e-07
6.27354e-07
6.26212e-07
6.2464e-07
6.22747e-07
6.2063e-07
6.18373e-07
6.16048e-07
6.13714e-07
6.1142e-07
6.09204e-07
6.07095e-07
6.05115e-07
6.03278e-07
6.01594e-07
6.00067e-07
5.98699e-07
5.97487e-07
5.96426e-07
5.9551e-07
5.94732e-07
5.94083e-07
5.93555e-07
5.93138e-07
5.92822e-07
5.92598e-07
5.92457e-07
5.92391e-07
5.87899e-07
5.86935e-07
5.85607e-07
5.84009e-07
5.82221e-07
5.80315e-07
5.7835e-07
5.76378e-07
5.74439e-07
5.72565e-07
5.70782e-07
5.69108e-07
5.67555e-07
5.66131e-07
5.6484e-07
5.63683e-07
5.62658e-07
5.61762e-07
5.60988e-07
5.60331e-07
5.59783e-07
5.59338e-07
5.58985e-07
5.58719e-07
5.58531e-07
5.58412e-07
5.58357e-07
5.54286e-07
5.53465e-07
5.52334e-07
5.50971e-07
5.49447e-07
5.47821e-07
5.46146e-07
5.44463e-07
5.42809e-07
5.41211e-07
5.39689e-07
5.38261e-07
5.36936e-07
5.35721e-07
5.3462e-07
5.33634e-07
5.3276e-07
5.31996e-07
5.31337e-07
5.30777e-07
5.30311e-07
5.29932e-07
5.29633e-07
5.29407e-07
5.29247e-07
5.29146e-07
5.29099e-07
5.25389e-07
5.24683e-07
5.23711e-07
5.22539e-07
5.21229e-07
5.19831e-07
5.18391e-07
5.16944e-07
5.15522e-07
5.14147e-07
5.12839e-07
5.11611e-07
5.10472e-07
5.09428e-07
5.08482e-07
5.07635e-07
5.06885e-07
5.06229e-07
5.05663e-07
5.05184e-07
5.04784e-07
5.0446e-07
5.04204e-07
5.0401e-07
5.03873e-07
5.03788e-07
5.03748e-07
5.00346e-07
4.99735e-07
4.98893e-07
4.97879e-07
4.96745e-07
4.95535e-07
4.94288e-07
4.93035e-07
4.91804e-07
4.90614e-07
4.89482e-07
4.88419e-07
4.87434e-07
4.86531e-07
4.85713e-07
4.84981e-07
4.84333e-07
4.83767e-07
4.83279e-07
4.82866e-07
4.82521e-07
4.82242e-07
4.82022e-07
4.81855e-07
4.81738e-07
4.81665e-07
4.8163e-07
4.78495e-07
4.77962e-07
4.77229e-07
4.76346e-07
4.75358e-07
4.74305e-07
4.73218e-07
4.72128e-07
4.71056e-07
4.7002e-07
4.69035e-07
4.6811e-07
4.67253e-07
4.66469e-07
4.65758e-07
4.65122e-07
4.6456e-07
4.64069e-07
4.63647e-07
4.63289e-07
4.62991e-07
4.6275e-07
4.62559e-07
4.62416e-07
4.62315e-07
4.62252e-07
4.62222e-07
4.59316e-07
4.58851e-07
4.58209e-07
4.57436e-07
4.56572e-07
4.5565e-07
4.54699e-07
4.53745e-07
4.52808e-07
4.51902e-07
4.51041e-07
4.50234e-07
4.49486e-07
4.48801e-07
4.48181e-07
4.47627e-07
4.47138e-07
4.46711e-07
4.46344e-07
4.46033e-07
4.45775e-07
4.45566e-07
4.45402e-07
4.45278e-07
4.45191e-07
4.45137e-07
4.45111e-07
4.42404e-07
4.41995e-07
4.41431e-07
4.40752e-07
4.39993e-07
4.39183e-07
4.38349e-07
4.37511e-07
4.36689e-07
4.35895e-07
4.3514e-07
4.34433e-07
4.33778e-07
4.33179e-07
4.32638e-07
4.32154e-07
4.31727e-07
4.31356e-07
4.31036e-07
4.30766e-07
4.30543e-07
4.30362e-07
4.30219e-07
4.30113e-07
4.30038e-07
4.29991e-07
4.29969e-07
4.27434e-07
4.27074e-07
4.26577e-07
4.25979e-07
4.25311e-07
4.24598e-07
4.23864e-07
4.23128e-07
4.22405e-07
4.21708e-07
4.21046e-07
4.20425e-07
4.19852e-07
4.19327e-07
4.18854e-07
4.18432e-07
4.1806e-07
4.17736e-07
4.17459e-07
4.17225e-07
4.17031e-07
4.16875e-07
4.16752e-07
4.1666e-07
4.16596e-07
4.16556e-07
4.16538e-07
4.14151e-07
4.13834e-07
4.13396e-07
4.12869e-07
4.1228e-07
4.11652e-07
4.11006e-07
4.10359e-07
4.09723e-07
4.09111e-07
4.0853e-07
4.07987e-07
4.07485e-07
4.07027e-07
4.06614e-07
4.06246e-07
4.05923e-07
4.05642e-07
4.05402e-07
4.052e-07
4.05033e-07
4.04899e-07
4.04794e-07
4.04715e-07
4.04661e-07
4.04627e-07
4.04611e-07
4.02353e-07
4.02073e-07
4.01687e-07
4.01223e-07
4.00705e-07
4.00153e-07
3.99586e-07
3.99017e-07
3.9846e-07
3.97924e-07
3.97416e-07
3.96941e-07
3.96504e-07
3.96106e-07
3.95747e-07
3.95429e-07
3.95149e-07
3.94907e-07
3.94701e-07
3.94528e-07
3.94386e-07
3.94272e-07
3.94183e-07
3.94117e-07
3.94071e-07
3.94043e-07
3.9403e-07
3.91881e-07
3.91635e-07
3.91296e-07
3.90889e-07
3.90435e-07
3.89952e-07
3.89455e-07
3.88959e-07
3.88473e-07
3.88006e-07
3.87565e-07
3.87154e-07
3.86775e-07
3.86432e-07
3.86123e-07
3.8585e-07
3.85612e-07
3.85406e-07
3.85231e-07
3.85086e-07
3.84966e-07
3.84871e-07
3.84798e-07
3.84743e-07
3.84706e-07
3.84683e-07
3.84673e-07
3.82614e-07
3.824e-07
3.82105e-07
3.8175e-07
3.81355e-07
3.80935e-07
3.80505e-07
3.80075e-07
3.79656e-07
3.79254e-07
3.78874e-07
3.78522e-07
3.78199e-07
3.77907e-07
3.77646e-07
3.77417e-07
3.77217e-07
3.77045e-07
3.76901e-07
3.76781e-07
3.76684e-07
3.76607e-07
3.76548e-07
3.76505e-07
3.76476e-07
3.76458e-07
3.7645e-07
3.74465e-07
3.7428e-07
3.74026e-07
3.73721e-07
3.73382e-07
3.73022e-07
3.72654e-07
3.72288e-07
3.71932e-07
3.71592e-07
3.71272e-07
3.70977e-07
3.70708e-07
3.70466e-07
3.70251e-07
3.70063e-07
3.69901e-07
3.69763e-07
3.69648e-07
3.69554e-07
3.69478e-07
3.6942e-07
3.69375e-07
3.69344e-07
3.69323e-07
3.6931e-07
3.69305e-07
3.67375e-07
3.67218e-07
3.67004e-07
3.66747e-07
3.66462e-07
3.66161e-07
3.65854e-07
3.65551e-07
3.65256e-07
3.64977e-07
3.64716e-07
3.64477e-07
3.64261e-07
3.64068e-07
3.63899e-07
3.63754e-07
3.63629e-07
3.63526e-07
3.63441e-07
3.63373e-07
3.63319e-07
3.63279e-07
3.6325e-07
3.6323e-07
3.63217e-07
3.6321e-07
3.63207e-07
3.61313e-07
3.61185e-07
3.6101e-07
3.60802e-07
3.60571e-07
3.60329e-07
3.60083e-07
3.59842e-07
3.5961e-07
3.59393e-07
3.59192e-07
3.5901e-07
3.58848e-07
3.58707e-07
3.58585e-07
3.58482e-07
3.58398e-07
3.58329e-07
3.58275e-07
3.58234e-07
3.58205e-07
3.58184e-07
3.5817e-07
3.58163e-07
3.58159e-07
3.58158e-07
3.58158e-07
3.56279e-07
3.5618e-07
3.56046e-07
3.55887e-07
3.55712e-07
3.5553e-07
3.55349e-07
3.55172e-07
3.55006e-07
3.54853e-07
3.54715e-07
3.54593e-07
3.54489e-07
3.54401e-07
3.54329e-07
3.54273e-07
3.5423e-07
3.542e-07
3.54179e-07
3.54168e-07
3.54163e-07
3.54164e-07
3.54167e-07
3.54173e-07
3.54179e-07
3.54184e-07
3.54187e-07
3.523e-07
3.52232e-07
3.52141e-07
3.52034e-07
3.5192e-07
3.51803e-07
3.51689e-07
3.51582e-07
3.51486e-07
3.51402e-07
3.51332e-07
3.51276e-07
3.51234e-07
3.51205e-07
3.51188e-07
3.51182e-07
3.51186e-07
3.51197e-07
3.51214e-07
3.51235e-07
3.51258e-07
3.51282e-07
3.51305e-07
3.51326e-07
3.51343e-07
3.51355e-07
3.51361e-07
3.49439e-07
3.49405e-07
3.49361e-07
3.49312e-07
3.49262e-07
3.49217e-07
3.49178e-07
3.49149e-07
3.4913e-07
3.49123e-07
3.49129e-07
3.49146e-07
3.49173e-07
3.4921e-07
3.49256e-07
3.49307e-07
3.49363e-07
3.49421e-07
3.4948e-07
3.49538e-07
3.49594e-07
3.49644e-07
3.49689e-07
3.49727e-07
3.49756e-07
3.49777e-07
3.49787e-07
3.47798e-07
3.47802e-07
3.47811e-07
3.47827e-07
3.47852e-07
3.47887e-07
3.47933e-07
3.47992e-07
3.48062e-07
3.48144e-07
3.48236e-07
3.48337e-07
3.48445e-07
3.48558e-07
3.48675e-07
3.48792e-07
3.48909e-07
3.49022e-07
3.4913e-07
3.49231e-07
3.49324e-07
3.49406e-07
3.49476e-07
3.49534e-07
3.49578e-07
3.49608e-07
3.49623e-07
3.47529e-07
3.47577e-07
3.47648e-07
3.4774e-07
3.47851e-07
3.47981e-07
3.48127e-07
3.48289e-07
3.48463e-07
3.48649e-07
3.48843e-07
3.49043e-07
3.49246e-07
3.49449e-07
3.4965e-07
3.49846e-07
3.50034e-07
3.50213e-07
3.50379e-07
3.50531e-07
3.50668e-07
3.50787e-07
3.50888e-07
3.50969e-07
3.51031e-07
3.51072e-07
3.51093e-07
3.4885e-07
3.48952e-07
3.49097e-07
3.49279e-07
3.49494e-07
3.49737e-07
3.50003e-07
3.50289e-07
3.50589e-07
3.509e-07
3.51217e-07
3.51536e-07
3.51854e-07
3.52166e-07
3.52469e-07
3.5276e-07
3.53036e-07
3.53293e-07
3.5353e-07
3.53744e-07
3.53934e-07
3.54098e-07
3.54235e-07
3.54346e-07
3.54428e-07
3.54483e-07
3.5451e-07
3.5207e-07
3.52236e-07
3.52472e-07
3.52766e-07
3.53109e-07
3.53491e-07
3.53905e-07
3.54343e-07
3.54798e-07
3.55263e-07
3.55732e-07
3.562e-07
3.56659e-07
3.57106e-07
3.57535e-07
3.57943e-07
3.58326e-07
3.5868e-07
3.59003e-07
3.59294e-07
3.59549e-07
3.59769e-07
3.59951e-07
3.60097e-07
3.60205e-07
3.60276e-07
3.60311e-07
3.5762e-07
3.57868e-07
3.58219e-07
3.58653e-07
3.59156e-07
3.59713e-07
3.60313e-07
3.60944e-07
3.61594e-07
3.62254e-07
3.62915e-07
3.63568e-07
3.64206e-07
3.64822e-07
3.65409e-07
3.65964e-07
3.66481e-07
3.66957e-07
3.67389e-07
3.67775e-07
3.68112e-07
3.684e-07
3.68639e-07
3.68827e-07
3.68967e-07
3.69059e-07
3.69104e-07
3.6611e-07
3.66464e-07
3.66961e-07
3.67575e-07
3.68284e-07
3.69068e-07
3.69907e-07
3.70784e-07
3.71685e-07
3.72595e-07
3.73502e-07
3.74393e-07
3.75259e-07
3.76091e-07
3.76881e-07
3.77623e-07
3.78311e-07
3.78942e-07
3.79511e-07
3.80016e-07
3.80457e-07
3.80831e-07
3.8114e-07
3.81383e-07
3.81563e-07
3.8168e-07
3.81738e-07
3.78401e-07
3.78892e-07
3.79581e-07
3.80432e-07
3.8141e-07
3.82488e-07
3.83639e-07
3.8484e-07
3.86067e-07
3.87302e-07
3.88528e-07
3.89729e-07
3.9089e-07
3.92002e-07
3.93053e-07
3.94036e-07
3.94945e-07
3.95773e-07
3.96517e-07
3.97176e-07
3.97747e-07
3.98231e-07
3.98629e-07
3.98941e-07
3.9917e-07
3.9932e-07
3.99393e-07
3.95701e-07
3.96374e-07
3.97317e-07
3.98478e-07
3.99813e-07
4.0128e-07
4.02843e-07
4.04467e-07
4.06124e-07
4.07786e-07
4.09429e-07
4.11033e-07
4.1258e-07
4.14055e-07
4.15445e-07
4.1674e-07
4.17931e-07
4.19014e-07
4.19983e-07
4.20838e-07
4.21576e-07
4.22199e-07
4.22709e-07
4.23108e-07
4.234e-07
4.2359e-07
4.23682e-07
4.19666e-07
4.2058e-07
4.2186e-07
4.23433e-07
4.25238e-07
4.27218e-07
4.29322e-07
4.31504e-07
4.33723e-07
4.35943e-07
4.38131e-07
4.40261e-07
4.42308e-07
4.44253e-07
4.46079e-07
4.47774e-07
4.49329e-07
4.50737e-07
4.51993e-07
4.53095e-07
4.54045e-07
4.54844e-07
4.55495e-07
4.56003e-07
4.56373e-07
4.56613e-07
4.56729e-07
4.52476e-07
4.53706e-07
4.55425e-07
4.57536e-07
4.59954e-07
4.626e-07
4.65406e-07
4.68308e-07
4.71252e-07
4.74189e-07
4.77076e-07
4.79876e-07
4.82559e-07
4.851e-07
4.87479e-07
4.89679e-07
4.91689e-07
4.93503e-07
4.95117e-07
4.96528e-07
4.97739e-07
4.98755e-07
4.99579e-07
5.00221e-07
5.00687e-07
5.00988e-07
5.01133e-07
4.9677e-07
4.98398e-07
5.00673e-07
5.03462e-07
5.06649e-07
5.1013e-07
5.13812e-07
5.17611e-07
5.21453e-07
5.25275e-07
5.29019e-07
5.3264e-07
5.36099e-07
5.39363e-07
5.42408e-07
5.45216e-07
5.47773e-07
5.50073e-07
5.52111e-07
5.53889e-07
5.5541e-07
5.5668e-07
5.57708e-07
5.58506e-07
5.59084e-07
5.59456e-07
5.59635e-07
5.5526e-07
5.57363e-07
5.60295e-07
5.63884e-07
5.67975e-07
5.72432e-07
5.77131e-07
5.81965e-07
5.86838e-07
5.91667e-07
5.96382e-07
6.00926e-07
6.0525e-07
6.09318e-07
6.13099e-07
6.16575e-07
6.19731e-07
6.2256e-07
6.2506e-07
6.27233e-07
6.29087e-07
6.3063e-07
6.31877e-07
6.32841e-07
6.33538e-07
6.33985e-07
6.34199e-07
6.29801e-07
6.3241e-07
6.36044e-07
6.40483e-07
6.45532e-07
6.51018e-07
6.56785e-07
6.62699e-07
6.68642e-07
6.74513e-07
6.80227e-07
6.85715e-07
6.90921e-07
6.958e-07
7.00322e-07
7.04463e-07
7.08211e-07
7.11559e-07
7.14508e-07
7.17065e-07
7.1924e-07
7.21046e-07
7.225e-07
7.23622e-07
7.24431e-07
7.24948e-07
7.25196e-07
7.20408e-07
7.23475e-07
7.27739e-07
7.32934e-07
7.38826e-07
7.45208e-07
7.51896e-07
7.58729e-07
7.65571e-07
7.72306e-07
7.78837e-07
7.85086e-07
7.90993e-07
7.9651e-07
8.01606e-07
8.06258e-07
8.10454e-07
8.14192e-07
8.17476e-07
8.20314e-07
8.22723e-07
8.24718e-07
8.26321e-07
8.27555e-07
8.28444e-07
8.29012e-07
8.29283e-07
8.23632e-07
8.26999e-07
8.31669e-07
8.37344e-07
8.43762e-07
8.5069e-07
8.57924e-07
8.65288e-07
8.72634e-07
8.79836e-07
8.86795e-07
8.93429e-07
8.99677e-07
9.05493e-07
9.10847e-07
9.15719e-07
9.20101e-07
9.23994e-07
9.27404e-07
9.30345e-07
9.32834e-07
9.34892e-07
9.36542e-07
9.3781e-07
9.38721e-07
9.39302e-07
9.3958e-07
9.32784e-07
9.36209e-07
9.4095e-07
9.46698e-07
9.53179e-07
9.60151e-07
9.67407e-07
9.74766e-07
9.8208e-07
9.89226e-07
9.96105e-07
1.00264e-06
1.00878e-06
1.01447e-06
1.01969e-06
1.02443e-06
1.02868e-06