/*--------------------------------*- C++ -*----------------------------------*\
| =========                 |                                                 |
| \\      /  F ield         | OpenFOAM: The Open Source CFD Toolbox           |
|  \\    /   O peration     | Version:  2106                                  |
|   \\  /    A nd           | Website:  www.openfoam.com                      |
|    \\/     M anipulation  |                                                 |
\*---------------------------------------------------------------------------*/
FoamFile
{
    version     2.0;
    format      ascii;
    arch        "LSB;label=32;scalar=64";
    class       volScalarField;
    location    "90.00055";
    object      C4H61;
}
// * * * * * * * * * * * * * * * * * * * * * * * * * * * * * * * * * * * * * //

dimensions      [0 0 0 0 0 0 0];

internalField   nonuniform List<scalar> 
3360
(
6.77134e-19
6.98923e-19
7.29245e-19
7.66335e-19
8.08646e-19
8.54792e-19
9.03517e-19
9.53692e-19
1.00431e-18
1.05447e-18
1.10342e-18
1.1505e-18
1.19515e-18
1.23697e-18
1.27561e-18
1.31085e-18
1.34254e-18
1.37064e-18
1.39514e-18
1.41612e-18
1.43371e-18
1.44808e-18
1.45943e-18
1.46799e-18
1.47401e-18
1.47775e-18
1.47949e-18
2.97051e-18
3.07969e-18
3.23376e-18
3.42563e-18
3.64941e-18
3.89999e-18
4.17278e-18
4.4636e-18
4.76853e-18
5.08391e-18
5.40618e-18
5.73191e-18
6.05772e-18
6.38024e-18
6.69618e-18
7.0023e-18
7.29543e-18
7.57249e-18
7.83054e-18
8.06679e-18
8.27873e-18
8.46411e-18
8.62101e-18
8.7479e-18
8.84367e-18
8.90762e-18
8.9395e-18
9.32027e-18
9.72933e-18
1.03106e-17
1.1041e-17
1.19014e-17
1.28746e-17
1.39443e-17
1.50943e-17
1.63083e-17
1.75697e-17
1.88614e-17
2.01667e-17
2.14686e-17
2.27508e-17
2.39972e-17
2.51927e-17
2.63232e-17
2.73761e-17
2.83405e-17
2.92073e-17
2.99696e-17
3.06223e-17
3.11627e-17
3.15898e-17
3.19047e-17
3.211e-17
3.221e-17
2.71434e-17
2.84917e-17
3.04204e-17
3.28607e-17
3.57547e-17
3.90485e-17
4.2688e-17
4.66174e-17
5.07778e-17
5.51076e-17
5.95429e-17
6.40188e-17
6.8471e-17
7.28366e-17
7.70561e-17
8.10749e-17
8.48443e-17
8.83234e-17
9.14789e-17
9.42862e-17
9.67287e-17
9.87979e-17
1.00493e-16
1.01818e-16
1.02785e-16
1.0341e-16
1.03711e-16
7.93026e-17
8.35558e-17
8.96517e-17
9.73823e-17
1.06571e-16
1.17047e-16
1.28637e-16
1.41155e-16
1.54404e-16
1.68177e-16
1.82258e-16
1.96431e-16
2.10482e-16
2.24209e-16
2.37424e-16
2.49958e-16
2.61665e-16
2.72427e-16
2.8215e-16
2.90766e-16
2.98237e-16
3.04545e-16
3.09696e-16
3.13713e-16
3.16637e-16
3.18521e-16
3.19427e-16
2.33835e-16
2.46898e-16
2.65643e-16
2.89435e-16
3.17729e-16
3.49998e-16
3.85696e-16
4.24243e-16
4.65018e-16
5.07368e-16
5.50619e-16
5.94096e-16
6.37137e-16
6.79117e-16
7.19459e-16
7.57655e-16
7.93267e-16
8.25941e-16
8.55408e-16
8.81478e-16
9.04043e-16
9.23065e-16
9.38574e-16
9.50653e-16
9.59434e-16
9.65084e-16
9.67801e-16
6.94619e-16
7.3431e-16
7.91267e-16
8.63562e-16
9.49533e-16
1.04756e-15
1.15596e-15
1.27295e-15
1.3966e-15
1.52493e-15
1.65587e-15
1.78737e-15
1.91742e-15
2.04415e-15
2.16582e-15
2.28091e-15
2.38813e-15
2.48643e-15
2.57503e-15
2.65337e-15
2.72114e-15
2.77825e-15
2.8248e-15
2.86104e-15
2.88738e-15
2.90432e-15
2.91247e-15
2.07034e-15
2.18978e-15
2.36126e-15
2.579e-15
2.83799e-15
3.13334e-15
3.45998e-15
3.81245e-15
4.18497e-15
4.57147e-15
4.96573e-15
5.36153e-15
5.75283e-15
6.13396e-15
6.49974e-15
6.84558e-15
7.16764e-15
7.46278e-15
7.72866e-15
7.96365e-15
8.16686e-15
8.33802e-15
8.47747e-15
8.586e-15
8.66485e-15
8.71557e-15
8.73994e-15
6.18716e-15
6.54614e-15
7.06144e-15
7.71566e-15
8.49374e-15
9.38092e-15
1.03618e-14
1.142e-14
1.25381e-14
1.36977e-14
1.48802e-14
1.6067e-14
1.72398e-14
1.83818e-14
1.94775e-14
2.05132e-14
2.14775e-14
2.2361e-14
2.31568e-14
2.38601e-14
2.44682e-14
2.49803e-14
2.53976e-14
2.57224e-14
2.59583e-14
2.61101e-14
2.6183e-14
1.84922e-14
1.95676e-14
2.11115e-14
2.30717e-14
2.54031e-14
2.80615e-14
3.10005e-14
3.4171e-14
3.75204e-14
4.0994e-14
4.45356e-14
4.80892e-14
5.16006e-14
5.50191e-14
5.82982e-14
6.13972e-14
6.42818e-14
6.69242e-14
6.93037e-14
7.14061e-14
7.32235e-14
7.4754e-14
7.60005e-14
7.69705e-14
7.7675e-14
7.81281e-14
7.83458e-14
5.53004e-14
5.85204e-14
6.31424e-14
6.90098e-14
7.59868e-14
8.39403e-14
9.27314e-14
1.02212e-13
1.12225e-13
1.22606e-13
1.33187e-13
1.43801e-13
1.54285e-13
1.64489e-13
1.74275e-13
1.83521e-13
1.92125e-13
2.00005e-13
2.071e-13
2.13368e-13
2.18785e-13
2.23347e-13
2.27062e-13
2.29953e-13
2.32052e-13
2.33402e-13
2.34051e-13
1.65231e-13
1.74849e-13
1.88654e-13
2.06175e-13
2.27007e-13
2.50749e-13
2.76984e-13
3.0527e-13
3.35135e-13
3.66087e-13
3.97624e-13
4.29248e-13
4.60477e-13
4.9086e-13
5.19986e-13
5.47496e-13
5.73088e-13
5.9652e-13
6.17609e-13
6.36233e-13
6.52326e-13
6.65873e-13
6.76902e-13
6.85482e-13
6.91712e-13
6.95717e-13
6.97641e-13
4.93227e-13
5.21907e-13
5.63059e-13
6.15271e-13
6.77317e-13
7.47994e-13
8.2605e-13
9.10156e-13
9.98903e-13
1.09082e-12
1.18442e-12
1.27822e-12
1.37079e-12
1.4608e-12
1.54704e-12
1.62845e-12
1.70415e-12
1.77342e-12
1.83574e-12
1.89076e-12
1.93828e-12
1.97827e-12
2.01082e-12
2.03613e-12
2.05451e-12
2.06632e-12
2.07199e-12
1.46839e-12
1.55355e-12
1.6757e-12
1.8306e-12
2.01457e-12
2.224e-12
2.45512e-12
2.70395e-12
2.9663e-12
3.2378e-12
3.51401e-12
3.79057e-12
4.06326e-12
4.32817e-12
4.58177e-12
4.82097e-12
5.04319e-12
5.24641e-12
5.4291e-12
5.59026e-12
5.72938e-12
5.84639e-12
5.94157e-12
6.01555e-12
6.06924e-12
6.10373e-12
6.12029e-12
4.35692e-12
4.60846e-12
4.969e-12
5.42585e-12
5.96789e-12
6.58424e-12
7.26362e-12
7.99412e-12
8.76326e-12
9.55812e-12
1.03657e-11
1.11731e-11
1.19681e-11
1.27395e-11
1.34769e-11
1.41716e-11
1.48163e-11
1.54052e-11
1.5934e-11
1.64001e-11
1.68021e-11
1.714e-11
1.74146e-11
1.76279e-11
1.77827e-11
1.7882e-11
1.79297e-11
1.28547e-11
1.35907e-11
1.46447e-11
1.59788e-11
1.75596e-11
1.93543e-11
2.13292e-11
2.3449e-11
2.56769e-11
2.79749e-11
3.03052e-11
3.26306e-11
3.49162e-11
3.71295e-11
3.92418e-11
4.12283e-11
4.30688e-11
4.47473e-11
4.62525e-11
4.75773e-11
4.87185e-11
4.96764e-11
5.04542e-11
5.10578e-11
5.14952e-11
5.17758e-11
5.19104e-11
3.76423e-11
3.97683e-11
4.28091e-11
4.66515e-11
5.11953e-11
5.63428e-11
6.19939e-11
6.80442e-11
7.43863e-11
8.09108e-11
8.75092e-11
9.40768e-11
1.00515e-10
1.06734e-10
1.12655e-10
1.1821e-10
1.23345e-10
1.28019e-10
1.32203e-10
1.35878e-10
1.39039e-10
1.41688e-10
1.43836e-10
1.45501e-10
1.46706e-10
1.47478e-10
1.47848e-10
1.09091e-10
1.15119e-10
1.23727e-10
1.34579e-10
1.47377e-10
1.61833e-10
1.77652e-10
1.94532e-10
2.12163e-10
2.30238e-10
2.48454e-10
2.66522e-10
2.84174e-10
3.0117e-10
3.17301e-10
3.32391e-10
3.46303e-10
3.58931e-10
3.70206e-10
3.8009e-10
3.88572e-10
3.95667e-10
4.01411e-10
4.05857e-10
4.0907e-10
4.11127e-10
4.12111e-10
3.11818e-10
3.2849e-10
3.52238e-10
3.82088e-10
4.1717e-10
4.56639e-10
4.99648e-10
5.45341e-10
5.92859e-10
6.41356e-10
6.90016e-10
7.38074e-10
7.84832e-10
8.29674e-10
8.72072e-10
9.11597e-10
9.47911e-10
9.80775e-10
1.01004e-09
1.03562e-09
1.05752e-09
1.0758e-09
1.09057e-09
1.10198e-09
1.11022e-09
1.11548e-09
1.118e-09
8.75082e-10
9.19685e-10
9.83039e-10
1.06237e-09
1.15521e-09
1.25915e-09
1.37185e-09
1.49095e-09
1.61415e-09
1.73923e-09
1.86408e-09
1.98678e-09
2.10559e-09
2.21901e-09
2.3258e-09
2.42495e-09
2.51571e-09
2.59757e-09
2.67022e-09
2.73356e-09
2.78765e-09
2.83269e-09
2.869e-09
2.897e-09
2.91717e-09
2.93005e-09
2.9362e-09
2.39826e-09
2.51276e-09
2.67484e-09
2.87694e-09
3.11224e-09
3.37425e-09
3.65667e-09
3.95338e-09
4.25851e-09
4.56649e-09
4.87219e-09
5.171e-09
5.45886e-09
5.73236e-09
5.9887e-09
6.22572e-09
6.44185e-09
6.63609e-09
6.80793e-09
6.9573e-09
7.08452e-09
7.1902e-09
7.27522e-09
7.34066e-09
7.38773e-09
7.41773e-09
7.43204e-09
6.37839e-09
6.65827e-09
7.05302e-09
7.54292e-09
8.11027e-09
8.73836e-09
9.41132e-09
1.0114e-08
1.08323e-08
1.1553e-08
1.22643e-08
1.29558e-08
1.36187e-08
1.42454e-08
1.48303e-08
1.53689e-08
1.58583e-08
1.62965e-08
1.66831e-08
1.70181e-08
1.73027e-08
1.75387e-08
1.77281e-08
1.78736e-08
1.79781e-08
1.80447e-08
1.80764e-08
1.63594e-08
1.70073e-08
1.7918e-08
1.90431e-08
2.03393e-08
2.17662e-08
2.32863e-08
2.48643e-08
2.6468e-08
2.80684e-08
2.96396e-08
3.11596e-08
3.26097e-08
3.3975e-08
3.5244e-08
3.64083e-08
3.74626e-08
3.84039e-08
3.92319e-08
3.99478e-08
4.05546e-08
4.10566e-08
4.14589e-08
4.17675e-08
4.19888e-08
4.21295e-08
4.21965e-08
4.02482e-08
4.16673e-08
4.36555e-08
4.61019e-08
4.89075e-08
5.19809e-08
5.52384e-08
5.86031e-08
6.20058e-08
6.53853e-08
6.86885e-08
7.18703e-08
7.4894e-08
7.77305e-08
8.0358e-08
8.27614e-08
8.49314e-08
8.68642e-08
8.85601e-08
9.00235e-08
9.12616e-08
9.22841e-08
9.31023e-08
9.37292e-08
9.41781e-08
9.44632e-08
9.45988e-08
9.46807e-08
9.76303e-08
1.01752e-07
1.06807e-07
1.12583e-07
1.18887e-07
1.2554e-07
1.32386e-07
1.39282e-07
1.46105e-07
1.5275e-07
1.5913e-07
1.65175e-07
1.70829e-07
1.76053e-07
1.80819e-07
1.85113e-07
1.8893e-07
1.92274e-07
1.95154e-07
1.97587e-07
1.99594e-07
2.01198e-07
2.02425e-07
2.03303e-07
2.0386e-07
2.04125e-07
2.12796e-07
2.18655e-07
2.26826e-07
2.36826e-07
2.48221e-07
2.60621e-07
2.73673e-07
2.87063e-07
3.00514e-07
3.13789e-07
3.26685e-07
3.39036e-07
3.50712e-07
3.61611e-07
3.71662e-07
3.80817e-07
3.89051e-07
3.9636e-07
4.02753e-07
4.08253e-07
4.12895e-07
4.16719e-07
4.19773e-07
4.22108e-07
4.23778e-07
4.24836e-07
4.25339e-07
4.57333e-07
4.68559e-07
4.84199e-07
5.03311e-07
5.25056e-07
5.48678e-07
5.735e-07
5.98921e-07
6.24416e-07
6.49535e-07
6.73902e-07
6.97207e-07
7.19206e-07
7.39716e-07
7.58607e-07
7.75795e-07
7.9124e-07
8.04934e-07
8.16902e-07
8.27191e-07
8.35866e-07
8.43009e-07
8.48709e-07
8.53064e-07
8.56176e-07
8.58149e-07
8.59085e-07
9.40512e-07
9.61459e-07
9.90633e-07
1.02627e-06
1.06679e-06
1.1108e-06
1.15703e-06
1.20435e-06
1.2518e-06
1.29853e-06
1.34386e-06
1.3872e-06
1.4281e-06
1.46623e-06
1.50133e-06
1.53326e-06
1.56195e-06
1.58738e-06
1.60959e-06
1.62869e-06
1.64478e-06
1.65803e-06
1.6686e-06
1.67668e-06
1.68245e-06
1.68611e-06
1.68785e-06
1.84659e-06
1.88479e-06
1.93802e-06
2.00309e-06
2.07716e-06
2.15768e-06
2.24236e-06
2.32916e-06
2.41633e-06
2.50233e-06
2.58589e-06
2.66593e-06
2.74161e-06
2.81225e-06
2.87735e-06
2.93656e-06
2.98969e-06
3.03663e-06
3.07749e-06
3.1125e-06
3.14192e-06
3.16607e-06
3.18529e-06
3.19995e-06
3.2104e-06
3.21701e-06
3.22014e-06
3.43192e-06
3.4988e-06
3.59207e-06
3.70617e-06
3.83611e-06
3.97732e-06
4.12559e-06
4.27706e-06
4.42818e-06
4.5763e-06
4.7194e-06
4.85582e-06
4.98429e-06
5.10385e-06
5.21382e-06
5.3138e-06
5.4036e-06
5.48323e-06
5.55284e-06
5.61272e-06
5.66327e-06
5.70493e-06
5.73822e-06
5.76369e-06
5.78193e-06
5.79351e-06
5.79902e-06
5.91757e-06
6.01979e-06
6.16209e-06
6.33579e-06
6.53323e-06
6.74754e-06
6.97264e-06
7.20318e-06
7.43454e-06
7.6628e-06
7.88471e-06
8.09758e-06
8.29929e-06
8.48818e-06
8.66304e-06
8.82302e-06
8.96764e-06
9.09667e-06
9.21017e-06
9.30836e-06
9.39169e-06
9.46072e-06
9.51615e-06
9.55877e-06
9.58941e-06
9.60895e-06
9.61828e-06
9.20356e-06
9.33973e-06
9.52919e-06
9.76034e-06
1.0023e-05
1.03081e-05
1.06076e-05
1.09146e-05
1.12229e-05
1.15275e-05
1.18241e-05
1.21089e-05
1.23793e-05
1.26329e-05
1.28681e-05
1.30839e-05
1.32796e-05
1.34549e-05
1.36096e-05
1.37441e-05
1.38588e-05
1.39543e-05
1.40315e-05
1.40911e-05
1.41342e-05
1.41618e-05
1.4175e-05
1.28409e-05
1.2989e-05
1.31943e-05
1.34436e-05
1.37253e-05
1.40292e-05
1.43464e-05
1.46696e-05
1.49927e-05
1.53103e-05
1.56183e-05
1.59133e-05
1.61926e-05
1.64541e-05
1.66963e-05
1.69183e-05
1.71194e-05
1.72994e-05
1.74583e-05
1.75965e-05
1.77144e-05
1.78127e-05
1.78921e-05
1.79536e-05
1.7998e-05
1.80265e-05
1.80402e-05
1.5923e-05
1.60439e-05
1.62106e-05
1.64114e-05
1.66364e-05
1.68767e-05
1.7125e-05
1.73751e-05
1.7622e-05
1.78619e-05
1.80916e-05
1.83089e-05
1.85121e-05
1.87002e-05
1.88725e-05
1.90288e-05
1.91689e-05
1.92931e-05
1.94018e-05
1.94955e-05
1.95748e-05
1.96405e-05
1.96932e-05
1.97337e-05
1.97629e-05
1.97815e-05
1.97904e-05
1.75992e-05
1.76635e-05
1.77509e-05
1.78541e-05
1.79671e-05
1.80845e-05
1.82022e-05
1.8317e-05
1.84263e-05
1.85287e-05
1.8623e-05
1.87088e-05
1.87859e-05
1.88545e-05
1.89149e-05
1.89676e-05
1.9013e-05
1.90519e-05
1.90848e-05
1.91122e-05
1.91347e-05
1.91527e-05
1.91669e-05
1.91775e-05
1.9185e-05
1.91897e-05
1.91919e-05
1.75474e-05
1.75488e-05
1.75489e-05
1.75462e-05
1.75394e-05
1.75277e-05
1.75107e-05
1.74885e-05
1.74615e-05
1.74303e-05
1.73959e-05
1.73592e-05
1.73212e-05
1.72829e-05
1.72451e-05
1.72087e-05
1.71742e-05
1.71423e-05
1.71133e-05
1.70874e-05
1.7065e-05
1.7046e-05
1.70305e-05
1.70183e-05
1.70095e-05
1.70038e-05
1.70011e-05
1.60327e-05
1.5987e-05
1.59225e-05
1.58425e-05
1.57498e-05
1.56472e-05
1.55375e-05
1.54231e-05
1.53064e-05
1.51896e-05
1.50747e-05
1.49632e-05
1.48567e-05
1.47562e-05
1.46627e-05
1.45769e-05
1.4499e-05
1.44294e-05
1.43681e-05
1.4315e-05
1.427e-05
1.42327e-05
1.42027e-05
1.41797e-05
1.41631e-05
1.41526e-05
1.41476e-05
1.36675e-05
1.35991e-05
1.3504e-05
1.33882e-05
1.32568e-05
1.31146e-05
1.29658e-05
1.2814e-05
1.26625e-05
1.25138e-05
1.23703e-05
1.22335e-05
1.21049e-05
1.19855e-05
1.18758e-05
1.17763e-05
1.16872e-05
1.16083e-05
1.15394e-05
1.14803e-05
1.14305e-05
1.13895e-05
1.13568e-05
1.13318e-05
1.13139e-05
1.13026e-05
1.12972e-05
1.10779e-05
1.1007e-05
1.09091e-05
1.07907e-05
1.06576e-05
1.05148e-05
1.03669e-05
1.02175e-05
1.00698e-05
9.92621e-06
9.78877e-06
9.65897e-06
9.53787e-06
9.42621e-06
9.32439e-06
9.23259e-06
9.15078e-06
9.07877e-06
9.01623e-06
8.96276e-06
8.91789e-06
8.88109e-06
8.85181e-06
8.8295e-06
8.81358e-06
8.8035e-06
8.79872e-06
8.69168e-06
8.62958e-06
8.54402e-06
8.44096e-06
8.32564e-06
8.20262e-06
8.07579e-06
7.94839e-06
7.82306e-06
7.70189e-06
7.58646e-06
7.47795e-06
7.37717e-06
7.28461e-06
7.20053e-06
7.12499e-06
7.05788e-06
6.99898e-06
6.94796e-06
6.90444e-06
6.868e-06
6.83816e-06
6.81447e-06
6.79644e-06
6.78359e-06
6.77546e-06
6.77162e-06
6.70562e-06
6.65601e-06
6.58777e-06
6.50576e-06
6.41424e-06
6.31688e-06
6.21679e-06
6.11656e-06
6.01825e-06
5.92346e-06
5.83342e-06
5.74899e-06
5.67077e-06
5.59909e-06
5.53411e-06
5.47585e-06
5.42418e-06
5.3789e-06
5.33973e-06
5.30637e-06
5.27846e-06
5.25564e-06
5.23753e-06
5.22376e-06
5.21395e-06
5.20776e-06
5.20482e-06
5.15289e-06
5.11532e-06
5.06369e-06
5.00172e-06
4.93265e-06
4.85929e-06
4.78399e-06
4.70871e-06
4.63498e-06
4.564e-06
4.49667e-06
4.43363e-06
4.3753e-06
4.32191e-06
4.27357e-06
4.23027e-06
4.1919e-06
4.1583e-06
4.12927e-06
4.10455e-06
4.08389e-06
4.067e-06
4.0536e-06
4.04342e-06
4.03617e-06
4.03159e-06
4.02943e-06
3.98361e-06
3.95599e-06
3.91804e-06
3.87252e-06
3.82183e-06
3.76802e-06
3.71283e-06
3.65769e-06
3.60372e-06
3.55181e-06
3.50261e-06
3.45657e-06
3.41399e-06
3.37504e-06
3.33979e-06
3.30823e-06
3.28028e-06
3.25581e-06
3.23468e-06
3.21669e-06
3.20166e-06
3.18938e-06
3.17963e-06
3.17223e-06
3.16696e-06
3.16364e-06
3.16206e-06
3.12081e-06
3.10078e-06
3.07327e-06
3.04027e-06
3.00353e-06
2.96454e-06
2.92456e-06
2.88462e-06
2.84555e-06
2.80797e-06
2.77236e-06
2.73904e-06
2.70824e-06
2.68006e-06
2.65457e-06
2.63175e-06
2.61154e-06
2.59385e-06
2.57857e-06
2.56557e-06
2.55471e-06
2.54583e-06
2.53879e-06
2.53345e-06
2.52964e-06
2.52724e-06
2.5261e-06
2.48935e-06
2.47487e-06
2.45498e-06
2.43113e-06
2.40457e-06
2.37638e-06
2.34747e-06
2.31859e-06
2.29034e-06
2.26316e-06
2.2374e-06
2.2133e-06
2.19101e-06
2.17063e-06
2.15219e-06
2.13568e-06
2.12105e-06
2.10826e-06
2.0972e-06
2.08779e-06
2.07993e-06
2.07351e-06
2.06842e-06
2.06455e-06
2.0618e-06
2.06006e-06
2.05924e-06
2.02694e-06
2.01643e-06
2.00199e-06
1.98467e-06
1.96538e-06
1.9449e-06
1.9239e-06
1.90291e-06
1.88236e-06
1.8626e-06
1.84386e-06
1.82632e-06
1.8101e-06
1.79527e-06
1.78184e-06
1.76981e-06
1.75916e-06
1.74984e-06
1.74179e-06
1.73494e-06
1.72921e-06
1.72453e-06
1.72083e-06
1.71801e-06
1.716e-06
1.71473e-06
1.71414e-06
1.68603e-06
1.67833e-06
1.66775e-06
1.65505e-06
1.64091e-06
1.62589e-06
1.61048e-06
1.59507e-06
1.57998e-06
1.56546e-06
1.55169e-06
1.5388e-06
1.52687e-06
1.51596e-06
1.50608e-06
1.49723e-06
1.48939e-06
1.48253e-06
1.4766e-06
1.47155e-06
1.46734e-06
1.46389e-06
1.46116e-06
1.45909e-06
1.45761e-06
1.45668e-06
1.45624e-06
1.43189e-06
1.42617e-06
1.41832e-06
1.4089e-06
1.3984e-06
1.38724e-06
1.37578e-06
1.36433e-06
1.3531e-06
1.3423e-06
1.33204e-06
1.32244e-06
1.31355e-06
1.30542e-06
1.29805e-06
1.29145e-06
1.28561e-06
1.28049e-06
1.27606e-06
1.2723e-06
1.26915e-06
1.26658e-06
1.26455e-06
1.263e-06
1.2619e-06
1.2612e-06
1.26087e-06
1.2398e-06
1.2355e-06
1.22959e-06
1.22249e-06
1.21458e-06
1.20616e-06
1.19752e-06
1.18888e-06
1.18041e-06
1.17224e-06
1.1645e-06
1.15724e-06
1.15052e-06
1.14437e-06
1.13879e-06
1.1338e-06
1.12937e-06
1.1255e-06
1.12215e-06
1.1193e-06
1.11692e-06
1.11497e-06
1.11343e-06
1.11226e-06
1.11143e-06
1.1109e-06
1.11065e-06
1.09238e-06
1.0891e-06
1.08458e-06
1.07915e-06
1.07309e-06
1.06665e-06
1.06003e-06
1.05341e-06
1.04691e-06
1.04065e-06
1.03471e-06
1.02914e-06
1.02398e-06
1.01926e-06
1.01498e-06
1.01114e-06
1.00774e-06
1.00476e-06
1.00219e-06
1e-06
9.9817e-07
9.96675e-07
9.95489e-07
9.94589e-07
9.93949e-07
9.93545e-07
9.93354e-07
9.77456e-07
9.74905e-07
9.71396e-07
9.67179e-07
9.62473e-07
9.57466e-07
9.5232e-07
9.47167e-07
9.42112e-07
9.37239e-07
9.3261e-07
9.2827e-07
9.2425e-07
9.20567e-07
9.1723e-07
9.14239e-07
9.11588e-07
9.09267e-07
9.07261e-07
9.05553e-07
9.04126e-07
9.02961e-07
9.02037e-07
9.01335e-07
9.00837e-07
9.00522e-07
9.00373e-07
8.8647e-07
8.84459e-07
8.81694e-07
8.7837e-07
8.7466e-07
8.70711e-07
8.66651e-07
8.62583e-07
8.58592e-07
8.54744e-07
8.51087e-07
8.47658e-07
8.44481e-07
8.41571e-07
8.38933e-07
8.36568e-07
8.34473e-07
8.32638e-07
8.31052e-07
8.29702e-07
8.28575e-07
8.27654e-07
8.26924e-07
8.2637e-07
8.25976e-07
8.25728e-07
8.2561e-07
8.13379e-07
8.11774e-07
8.09565e-07
8.06909e-07
8.03944e-07
8.00788e-07
7.97541e-07
7.94288e-07
7.91095e-07
7.88016e-07
7.85089e-07
7.82345e-07
7.79802e-07
7.77472e-07
7.7536e-07
7.73467e-07
7.7179e-07
7.70321e-07
7.69052e-07
7.67972e-07
7.6707e-07
7.66334e-07
7.6575e-07
7.65307e-07
7.64993e-07
7.64794e-07
7.647e-07
7.53871e-07
7.52573e-07
7.50787e-07
7.48639e-07
7.46241e-07
7.43687e-07
7.4106e-07
7.38427e-07
7.35843e-07
7.3335e-07
7.30981e-07
7.28759e-07
7.26699e-07
7.24813e-07
7.23103e-07
7.21571e-07
7.20214e-07
7.19025e-07
7.17999e-07
7.17125e-07
7.16396e-07
7.15801e-07
7.15329e-07
7.14971e-07
7.14717e-07
7.14557e-07
7.14481e-07
7.04829e-07
7.03768e-07
7.02308e-07
7.00553e-07
6.98592e-07
6.96504e-07
6.94355e-07
6.92202e-07
6.90089e-07
6.8805e-07
6.86112e-07
6.84295e-07
6.82611e-07
6.81069e-07
6.79672e-07
6.78419e-07
6.7731e-07
6.76339e-07
6.75501e-07
6.74788e-07
6.74193e-07
6.73707e-07
6.73323e-07
6.73031e-07
6.72824e-07
6.72694e-07
6.72632e-07
6.6397e-07
6.63095e-07
6.61891e-07
6.60442e-07
6.58824e-07
6.57101e-07
6.55329e-07
6.53552e-07
6.51808e-07
6.50126e-07
6.48528e-07
6.47029e-07
6.45641e-07
6.44369e-07
6.43218e-07
6.42186e-07
6.41273e-07
6.40473e-07
6.39783e-07
6.39197e-07
6.38708e-07
6.38309e-07
6.37993e-07
6.37754e-07
6.37584e-07
6.37477e-07
6.37427e-07
6.296e-07
6.28873e-07
6.27871e-07
6.26667e-07
6.25321e-07
6.23889e-07
6.22415e-07
6.20938e-07
6.19489e-07
6.18091e-07
6.16763e-07
6.15518e-07
6.14366e-07
6.1331e-07
6.12355e-07
6.11499e-07
6.10742e-07
6.1008e-07
6.09509e-07
6.09024e-07
6.08619e-07
6.08289e-07
6.08028e-07
6.07831e-07
6.07691e-07
6.07603e-07
6.07561e-07
6.00444e-07
5.99834e-07
5.98996e-07
5.97988e-07
5.96862e-07
5.95664e-07
5.94431e-07
5.93196e-07
5.91984e-07
5.90816e-07
5.89707e-07
5.88667e-07
5.87705e-07
5.86824e-07
5.86028e-07
5.85315e-07
5.84684e-07
5.84133e-07
5.83658e-07
5.83255e-07
5.82919e-07
5.82645e-07
5.82429e-07
5.82265e-07
5.82149e-07
5.82076e-07
5.82042e-07
5.75528e-07
5.75015e-07
5.7431e-07
5.73462e-07
5.72515e-07
5.71508e-07
5.70472e-07
5.69435e-07
5.68417e-07
5.67437e-07
5.66506e-07
5.65635e-07
5.64829e-07
5.64092e-07
5.63425e-07
5.62829e-07
5.62303e-07
5.61843e-07
5.61447e-07
5.61111e-07
5.60831e-07
5.60604e-07
5.60424e-07
5.60288e-07
5.60192e-07
5.60132e-07
5.60103e-07
5.54105e-07
5.53672e-07
5.53077e-07
5.52362e-07
5.51563e-07
5.50714e-07
5.49841e-07
5.48967e-07
5.48111e-07
5.47286e-07
5.46504e-07
5.45772e-07
5.45096e-07
5.44478e-07
5.4392e-07
5.43421e-07
5.42981e-07
5.42597e-07
5.42266e-07
5.41987e-07
5.41754e-07
5.41565e-07
5.41416e-07
5.41304e-07
5.41224e-07
5.41174e-07
5.41151e-07
5.35596e-07
5.3523e-07
5.34727e-07
5.34123e-07
5.33449e-07
5.32732e-07
5.31996e-07
5.3126e-07
5.30539e-07
5.29845e-07
5.29188e-07
5.28574e-07
5.28007e-07
5.2749e-07
5.27023e-07
5.26606e-07
5.26239e-07
5.2592e-07
5.25645e-07
5.25413e-07
5.2522e-07
5.25064e-07
5.24941e-07
5.24848e-07
5.24782e-07
5.24741e-07
5.24722e-07
5.19551e-07
5.19242e-07
5.18818e-07
5.18308e-07
5.1774e-07
5.17137e-07
5.16517e-07
5.15899e-07
5.15294e-07
5.14713e-07
5.14163e-07
5.13649e-07
5.13176e-07
5.12745e-07
5.12357e-07
5.12012e-07
5.11708e-07
5.11444e-07
5.11217e-07
5.11026e-07
5.10868e-07
5.10739e-07
5.10639e-07
5.10563e-07
5.1051e-07
5.10477e-07
5.10461e-07
5.05623e-07
5.05364e-07
5.05007e-07
5.0458e-07
5.04104e-07
5.03599e-07
5.03082e-07
5.02566e-07
5.02062e-07
5.01579e-07
5.01123e-07
5.00698e-07
5.00308e-07
4.99953e-07
4.99634e-07
4.99351e-07
4.99102e-07
4.98887e-07
4.98703e-07
4.98548e-07
4.9842e-07
4.98317e-07
4.98237e-07
4.98176e-07
4.98134e-07
4.98107e-07
4.98095e-07
4.93548e-07
4.93333e-07
4.93037e-07
4.92683e-07
4.9229e-07
4.91873e-07
4.91446e-07
4.91022e-07
4.90609e-07
4.90214e-07
4.89842e-07
4.89496e-07
4.8918e-07
4.88894e-07
4.88637e-07
4.88411e-07
4.88213e-07
4.88042e-07
4.87896e-07
4.87775e-07
4.87675e-07
4.87594e-07
4.87532e-07
4.87485e-07
4.87453e-07
4.87433e-07
4.87423e-07
4.83132e-07
4.82957e-07
4.82717e-07
4.8243e-07
4.82111e-07
4.81775e-07
4.81432e-07
4.81092e-07
4.80763e-07
4.80449e-07
4.80155e-07
4.79883e-07
4.79636e-07
4.79413e-07
4.79215e-07
4.79041e-07
4.7889e-07
4.78761e-07
4.78652e-07
4.78561e-07
4.78488e-07
4.78429e-07
4.78384e-07
4.7835e-07
4.78327e-07
4.78313e-07
4.78306e-07
4.74241e-07
4.74104e-07
4.73916e-07
4.73692e-07
4.73445e-07
4.73185e-07
4.72922e-07
4.72662e-07
4.72412e-07
4.72176e-07
4.71957e-07
4.71756e-07
4.71575e-07
4.71414e-07
4.71272e-07
4.7115e-07
4.71044e-07
4.70956e-07
4.70882e-07
4.70822e-07
4.70773e-07
4.70736e-07
4.70707e-07
4.70687e-07
4.70673e-07
4.70665e-07
4.70661e-07
4.66796e-07
4.66696e-07
4.66559e-07
4.66397e-07
4.6622e-07
4.66035e-07
4.6585e-07
4.6567e-07
4.65499e-07
4.6534e-07
4.65195e-07
4.65065e-07
4.6495e-07
4.64851e-07
4.64766e-07
4.64694e-07
4.64635e-07
4.64587e-07
4.64549e-07
4.6452e-07
4.64498e-07
4.64482e-07
4.6447e-07
4.64463e-07
4.64459e-07
4.64456e-07
4.64456e-07
4.60768e-07
4.60705e-07
4.60621e-07
4.60522e-07
4.60416e-07
4.60309e-07
4.60204e-07
4.60105e-07
4.60016e-07
4.59936e-07
4.59868e-07
4.59811e-07
4.59766e-07
4.5973e-07
4.59705e-07
4.59687e-07
4.59676e-07
4.59671e-07
4.59671e-07
4.59674e-07
4.59679e-07
4.59686e-07
4.59693e-07
4.59699e-07
4.59705e-07
4.59709e-07
4.59712e-07
4.56182e-07
4.56159e-07
4.56129e-07
4.56098e-07
4.56067e-07
4.56041e-07
4.56022e-07
4.56011e-07
4.56008e-07
4.56014e-07
4.56028e-07
4.5605e-07
4.56079e-07
4.56113e-07
4.56151e-07
4.56192e-07
4.56234e-07
4.56276e-07
4.56317e-07
4.56355e-07
4.56391e-07
4.56422e-07
4.56449e-07
4.56471e-07
4.56488e-07
4.56499e-07
4.56505e-07
4.53115e-07
4.53136e-07
4.53166e-07
4.53208e-07
4.53261e-07
4.53325e-07
4.53399e-07
4.53484e-07
4.53577e-07
4.53678e-07
4.53784e-07
4.53894e-07
4.54006e-07
4.54118e-07
4.54227e-07
4.54333e-07
4.54434e-07
4.54529e-07
4.54616e-07
4.54695e-07
4.54764e-07
4.54824e-07
4.54873e-07
4.54913e-07
4.54942e-07
4.54961e-07
4.54971e-07
4.51705e-07
4.51775e-07
4.51874e-07
4.51998e-07
4.52145e-07
4.52311e-07
4.52493e-07
4.52687e-07
4.5289e-07
4.53099e-07
4.5331e-07
4.53521e-07
4.53728e-07
4.53929e-07
4.54121e-07
4.54302e-07
4.54472e-07
4.54627e-07
4.54768e-07
4.54892e-07
4.55001e-07
4.55094e-07
4.5517e-07
4.55229e-07
4.55273e-07
4.55302e-07
4.55316e-07
4.5216e-07
4.52286e-07
4.52464e-07
4.52686e-07
4.52942e-07
4.53227e-07
4.53534e-07
4.53856e-07
4.54188e-07
4.54523e-07
4.54857e-07
4.55186e-07
4.55505e-07
4.55811e-07
4.56101e-07
4.56371e-07
4.56621e-07
4.56848e-07
4.57052e-07
4.57232e-07
4.57388e-07
4.57519e-07
4.57626e-07
4.5771e-07
4.57771e-07
4.57811e-07
4.5783e-07
4.54771e-07
4.54965e-07
4.55237e-07
4.55574e-07
4.55961e-07
4.56388e-07
4.56844e-07
4.57319e-07
4.57804e-07
4.58291e-07
4.58773e-07
4.59244e-07
4.59698e-07
4.6013e-07
4.60536e-07
4.60914e-07
4.61261e-07
4.61575e-07
4.61856e-07
4.62102e-07
4.62314e-07
4.62492e-07
4.62637e-07
4.6275e-07
4.62832e-07
4.62885e-07
4.62911e-07
4.59938e-07
4.60214e-07
4.60601e-07
4.61077e-07
4.61623e-07
4.62223e-07
4.6286e-07
4.63522e-07
4.64194e-07
4.64866e-07
4.65529e-07
4.66173e-07
4.66791e-07
4.67378e-07
4.67928e-07
4.68437e-07
4.68903e-07
4.69323e-07
4.69698e-07
4.70025e-07
4.70306e-07
4.70542e-07
4.70733e-07
4.70882e-07
4.7099e-07
4.7106e-07
4.71093e-07
4.68201e-07
4.68578e-07
4.69106e-07
4.69755e-07
4.70498e-07
4.71311e-07
4.72173e-07
4.73065e-07
4.7397e-07
4.74872e-07
4.75758e-07
4.76617e-07
4.7744e-07
4.78219e-07
4.78947e-07
4.79619e-07
4.80233e-07
4.80786e-07
4.81277e-07
4.81706e-07
4.82073e-07
4.82381e-07
4.8263e-07
4.82823e-07
4.82963e-07
4.83053e-07
4.83096e-07
4.80285e-07
4.8079e-07
4.81495e-07
4.82361e-07
4.8335e-07
4.84432e-07
4.85576e-07
4.86759e-07
4.87956e-07
4.89147e-07
4.90315e-07
4.91446e-07
4.92527e-07
4.93547e-07
4.945e-07
4.95378e-07
4.96179e-07
4.96899e-07
4.97537e-07
4.98093e-07
4.98569e-07
4.98967e-07
4.99288e-07
4.99538e-07
4.99718e-07
4.99834e-07
4.9989e-07
4.97175e-07
4.97842e-07
4.98773e-07
4.99914e-07
5.01218e-07
5.02642e-07
5.04148e-07
5.05701e-07
5.07271e-07
5.08831e-07
5.1036e-07
5.11837e-07
5.13247e-07
5.14576e-07
5.15816e-07
5.16958e-07
5.17997e-07
5.1893e-07
5.19756e-07
5.20476e-07
5.2109e-07
5.21603e-07
5.22017e-07
5.22338e-07
5.2257e-07
5.22719e-07
5.22791e-07
5.20211e-07
5.21087e-07
5.2231e-07
5.23809e-07
5.2552e-07
5.27387e-07
5.29359e-07
5.31391e-07
5.33444e-07
5.35482e-07
5.37477e-07
5.39403e-07
5.41239e-07
5.42969e-07
5.4458e-07
5.46062e-07
5.4741e-07
5.48619e-07
5.49688e-07
5.50618e-07
5.51412e-07
5.52074e-07
5.52608e-07
5.53021e-07
5.53319e-07
5.53511e-07
5.53603e-07
5.51242e-07
5.52392e-07
5.53998e-07
5.55965e-07
5.58209e-07
5.60656e-07
5.6324e-07
5.65901e-07
5.68587e-07
5.71252e-07
5.73858e-07
5.76372e-07
5.78767e-07
5.81022e-07
5.8312e-07
5.85048e-07
5.868e-07
5.8837e-07
5.89758e-07
5.90964e-07
5.91992e-07
5.92848e-07
5.93539e-07
5.94072e-07
5.94458e-07
5.94705e-07
5.94823e-07
5.92839e-07
5.94354e-07
5.96468e-07
5.99056e-07
6.02009e-07
6.05227e-07
6.08623e-07
6.12119e-07
6.15645e-07
6.19143e-07
6.2256e-07
6.25855e-07
6.28991e-07
6.31942e-07
6.34684e-07
6.37205e-07
6.39491e-07
6.4154e-07
6.43348e-07
6.44919e-07
6.46258e-07
6.47371e-07
6.48268e-07
6.48961e-07
6.49461e-07
6.49782e-07
6.49935e-07
6.4861e-07
6.50615e-07
6.53411e-07
6.56834e-07
6.60738e-07
6.64991e-07
6.69478e-07
6.74094e-07
6.78748e-07
6.83362e-07
6.87867e-07
6.92208e-07
6.96338e-07
7.00221e-07
7.03828e-07
7.07139e-07
7.10142e-07
7.1283e-07
7.15201e-07
7.17259e-07
7.19011e-07
7.20467e-07
7.2164e-07
7.22545e-07
7.23198e-07
7.23616e-07
7.23815e-07
7.23623e-07
7.26291e-07
7.30011e-07
7.34564e-07
7.39754e-07
7.45409e-07
7.51371e-07
7.57502e-07
7.63681e-07
7.69802e-07
7.75777e-07
7.8153e-07
7.87e-07
7.92138e-07
7.96909e-07
8.01286e-07
8.05252e-07
8.088e-07
8.11927e-07
8.1464e-07
8.16947e-07
8.18864e-07
8.20407e-07
8.21596e-07
8.22453e-07
8.23001e-07
8.23263e-07
8.24933e-07
8.28501e-07
8.33475e-07
8.39561e-07
8.46497e-07
8.5405e-07
8.62009e-07
8.70191e-07
8.78431e-07
8.86591e-07
8.9455e-07
9.02208e-07
9.09484e-07
9.16316e-07
9.22653e-07
9.28463e-07
9.33725e-07
9.38427e-07
9.4257e-07
9.4616e-07
9.49212e-07
9.51744e-07
9.53782e-07
9.55352e-07
9.56482e-07
9.57204e-07
9.5755e-07
9.62104e-07
9.66884e-07
9.73548e-07
9.81697e-07
9.90981e-07
1.00108e-06
1.01173e-06
1.02266e-06
1.03366e-06
1.04455e-06
1.05516e-06
1.06537e-06
1.07505e-06
1.08414e-06
1.09257e-06
1.10029e-06
1.10727e-06
1.11351e-06
1.119e-06
1.12375e-06
1.12779e-06
1.13114e-06
1.13383e-06
1.1359e-06
1.1374e-06
1.13835e-06
1.1388e-06
1.14744e-06
1.15382e-06
1.16272e-06
1.17358e-06
1.18596e-06
1.19942e-06
1.21358e-06
1.22812e-06
1.24274e-06
1.2572e-06
1.27127e-06
1.2848e-06
1.29762e-06
1.30965e-06
1.32078e-06
1.33097e-06
1.34019e-06
1.34841e-06
1.35565e-06
1.36191e-06
1.36722e-06
1.37162e-06
1.37516e-06
1.37788e-06
1.37984e-06
1.38109e-06
1.38168e-06
1.39542e-06
1.40383e-06
1.41555e-06
1.42986e-06
1.44614e-06
1.46383e-06
1.48243e-06
1.5015e-06
1.52065e-06
1.53957e-06
1.55797e-06
1.57563e-06
1.59236e-06
1.60802e-06
1.62251e-06
1.63577e-06
1.64774e-06
1.65841e-06
1.66779e-06
1.6759e-06
1.68278e-06
1.68848e-06
1.69305e-06
1.69657e-06
1.69909e-06
1.7007e-06
1.70147e-06
1.72053e-06
1.73136e-06
1.74644e-06
1.76483e-06
1.78573e-06
1.8084e-06
1.83221e-06
1.85657e-06
1.88101e-06
1.9051e-06
1.92849e-06
1.9509e-06
1.97211e-06
1.99193e-06
2.01024e-06
2.02696e-06
2.04205e-06
2.05548e-06
2.06728e-06
2.07746e-06
2.0861e-06
2.09324e-06
2.09897e-06
2.10337e-06
2.10653e-06
2.10855e-06
2.10951e-06
2.13298e-06
2.14643e-06
2.16513e-06
2.18793e-06
2.21379e-06
2.24181e-06
2.27119e-06
2.30122e-06
2.3313e-06
2.36091e-06
2.38962e-06
2.41709e-06
2.44305e-06
2.46729e-06
2.48966e-06
2.51007e-06
2.52845e-06
2.54481e-06
2.55916e-06
2.57154e-06
2.58203e-06
2.5907e-06
2.59765e-06
2.60299e-06
2.60682e-06
2.60926e-06
2.61042e-06
2.63468e-06
2.65073e-06
2.67301e-06
2.70014e-06
2.73088e-06
2.76414e-06
2.79895e-06
2.83447e-06
2.86998e-06
2.90489e-06
2.93868e-06
2.97096e-06
3.00141e-06
3.0298e-06
3.05597e-06
3.07981e-06
3.10126e-06
3.12033e-06
3.13703e-06
3.15143e-06
3.16362e-06
3.17368e-06
3.18175e-06
3.18794e-06
3.19238e-06
3.1952e-06
3.19655e-06
3.21485e-06
3.23299e-06
3.25817e-06
3.28877e-06
3.32338e-06
3.36075e-06
3.39979e-06
3.43953e-06
3.47919e-06
3.51807e-06
3.55564e-06
3.59145e-06
3.62517e-06
3.65655e-06
3.68541e-06
3.71166e-06
3.73525e-06
3.75618e-06
3.7745e-06
3.79028e-06
3.8036e-06
3.81461e-06
3.82341e-06
3.83016e-06
3.83501e-06
3.83809e-06
3.83955e-06
3.84288e-06
3.86197e-06
3.88841e-06
3.92049e-06
3.95669e-06
3.99566e-06
4.03625e-06
4.07745e-06
4.11844e-06
4.1585e-06
4.19709e-06
4.23376e-06
4.2682e-06
4.30015e-06
4.32947e-06
4.35608e-06
4.37993e-06
4.40106e-06
4.41951e-06