/*--------------------------------*- C++ -*----------------------------------*\
| =========                 |                                                 |
| \\      /  F ield         | OpenFOAM: The Open Source CFD Toolbox           |
|  \\    /   O peration     | Version:  2106                                  |
|   \\  /    A nd           | Website:  www.openfoam.com                      |
|    \\/     M anipulation  |                                                 |
\*---------------------------------------------------------------------------*/
FoamFile
{
    version     2.0;
    format      ascii;
    arch        "LSB;label=32;scalar=64";
    class       volScalarField;
    location    "90.00055";
    object      C5H6_0;
}
// * * * * * * * * * * * * * * * * * * * * * * * * * * * * * * * * * * * * * //

dimensions      [0 0 0 0 0 0 0];

internalField   nonuniform List<scalar> 
3360
(
9.23752e-17
9.53476e-17
9.94842e-17
1.04544e-16
1.10316e-16
1.16611e-16
1.23259e-16
1.30103e-16
1.37008e-16
1.43852e-16
1.5053e-16
1.56952e-16
1.63044e-16
1.68748e-16
1.7402e-16
1.78827e-16
1.83151e-16
1.86983e-16
1.90326e-16
1.93188e-16
1.95588e-16
1.97548e-16
1.99096e-16
2.00264e-16
2.01085e-16
2.01596e-16
2.01834e-16
4.05239e-16
4.20134e-16
4.41153e-16
4.67327e-16
4.97856e-16
5.3204e-16
5.69254e-16
6.08927e-16
6.50527e-16
6.9355e-16
7.37515e-16
7.81952e-16
8.26398e-16
8.70397e-16
9.13498e-16
9.5526e-16
9.95249e-16
1.03305e-15
1.06825e-15
1.10048e-15
1.12939e-15
1.15468e-15
1.17608e-15
1.1934e-15
1.20646e-15
1.21518e-15
1.21953e-15
1.27148e-15
1.32728e-15
1.40658e-15
1.50622e-15
1.6236e-15
1.75636e-15
1.90229e-15
2.05917e-15
2.22479e-15
2.39687e-15
2.57309e-15
2.75115e-15
2.92877e-15
3.10368e-15
3.27372e-15
3.4368e-15
3.59103e-15
3.73467e-15
3.86623e-15
3.98449e-15
4.08847e-15
4.17752e-15
4.25124e-15
4.30951e-15
4.35246e-15
4.38048e-15
4.39411e-15
3.70293e-15
3.88686e-15
4.14998e-15
4.48288e-15
4.87768e-15
5.32702e-15
5.82353e-15
6.35958e-15
6.92715e-15
7.51782e-15
8.12289e-15
8.7335e-15
9.34087e-15
9.93643e-15
1.05121e-14
1.10603e-14
1.15745e-14
1.20491e-14
1.24796e-14
1.28626e-14
1.31958e-14
1.34781e-14
1.37093e-14
1.38901e-14
1.4022e-14
1.41073e-14
1.41484e-14
1.08185e-14
1.13987e-14
1.22304e-14
1.3285e-14
1.45384e-14
1.59676e-14
1.75487e-14
1.92565e-14
2.1064e-14
2.29429e-14
2.48638e-14
2.67972e-14
2.87141e-14
3.05868e-14
3.23896e-14
3.40994e-14
3.56966e-14
3.71647e-14
3.84911e-14
3.96666e-14
4.06857e-14
4.15463e-14
4.22489e-14
4.2797e-14
4.31959e-14
4.34528e-14
4.35765e-14
3.19e-14
3.3682e-14
3.62393e-14
3.94849e-14
4.33448e-14
4.7747e-14
5.2617e-14
5.78756e-14
6.34381e-14
6.92155e-14
7.51159e-14
8.10471e-14
8.69188e-14
9.26457e-14
9.81492e-14
1.0336e-13
1.08218e-13
1.12676e-13
1.16695e-13
1.20252e-13
1.2333e-13
1.25925e-13
1.28041e-13
1.29689e-13
1.30887e-13
1.31658e-13
1.32028e-13
9.47604e-14
1.00175e-13
1.07945e-13
1.17808e-13
1.29536e-13
1.42909e-13
1.57697e-13
1.73656e-13
1.90526e-13
2.08032e-13
2.25895e-13
2.43834e-13
2.61576e-13
2.78864e-13
2.95462e-13
3.11163e-13
3.2579e-13
3.39201e-13
3.51287e-13
3.61974e-13
3.7122e-13
3.79011e-13
3.85361e-13
3.90305e-13
3.93898e-13
3.9621e-13
3.97321e-13
2.82438e-13
2.98732e-13
3.22125e-13
3.51829e-13
3.8716e-13
4.27453e-13
4.72013e-13
5.20097e-13
5.70917e-13
6.23644e-13
6.77429e-13
7.31424e-13
7.84806e-13
8.368e-13
8.86699e-13
9.3388e-13
9.77815e-13
1.01808e-12
1.05435e-12
1.08641e-12
1.11413e-12
1.13748e-12
1.1565e-12
1.17131e-12
1.18207e-12
1.18898e-12
1.19231e-12
8.44057e-13
8.9303e-13
9.63328e-13
1.05258e-12
1.15872e-12
1.27975e-12
1.41357e-12
1.55793e-12
1.71046e-12
1.86866e-12
2.02998e-12
2.19187e-12
2.35187e-12
2.50766e-12
2.65713e-12
2.79843e-12
2.92998e-12
3.05051e-12
3.15907e-12
3.25501e-12
3.33797e-12
3.40784e-12
3.46476e-12
3.50907e-12
3.54125e-12
3.56196e-12
3.5719e-12
2.52273e-12
2.66943e-12
2.88004e-12
3.14746e-12
3.46552e-12
3.82817e-12
4.22911e-12
4.66163e-12
5.11857e-12
5.59244e-12
6.07558e-12
6.56036e-12
7.0394e-12
7.50575e-12
7.95308e-12
8.37586e-12
8.76937e-12
9.12986e-12
9.45447e-12
9.74127e-12
9.98921e-12
1.0198e-11
1.0368e-11
1.05004e-11
1.05965e-11
1.06583e-11
1.0688e-11
7.54412e-12
7.98339e-12
8.61393e-12
9.41437e-12
1.03662e-11
1.14512e-11
1.26505e-11
1.39439e-11
1.53098e-11
1.6726e-11
1.81695e-11
1.96174e-11
2.10477e-11
2.24398e-11
2.37747e-11
2.5036e-11
2.62098e-11
2.72849e-11
2.82528e-11
2.91078e-11
2.98469e-11
3.04692e-11
3.0976e-11
3.13703e-11
3.16568e-11
3.18409e-11
3.19294e-11
2.2541e-11
2.3853e-11
2.57363e-11
2.81266e-11
3.09685e-11
3.42074e-11
3.77864e-11
4.16452e-11
4.57193e-11
4.99418e-11
5.42442e-11
5.85584e-11
6.28187e-11
6.69635e-11
7.09369e-11
7.46899e-11
7.81812e-11
8.13777e-11
8.42547e-11
8.67954e-11
8.89908e-11
9.08389e-11
9.23435e-11
9.3514e-11
9.43639e-11
9.49103e-11
9.51728e-11
6.72863e-11
7.1199e-11
7.68129e-11
8.39357e-11
9.24001e-11
1.02042e-10
1.1269e-10
1.24164e-10
1.36271e-10
1.48811e-10
1.6158e-10
1.74376e-10
1.87005e-10
1.99284e-10
2.11049e-10
2.22155e-10
2.32481e-10
2.41932e-10
2.50434e-10
2.57939e-10
2.64422e-10
2.69877e-10
2.74317e-10
2.77771e-10
2.80278e-10
2.81889e-10
2.82663e-10
2.00319e-10
2.11936e-10
2.286e-10
2.49732e-10
2.74829e-10
3.03399e-10
3.34929e-10
3.68875e-10
4.04665e-10
4.41703e-10
4.79384e-10
5.17112e-10
5.54313e-10
5.90452e-10
6.25048e-10
6.5768e-10
6.87997e-10
7.15719e-10
7.40642e-10
7.62628e-10
7.81607e-10
7.97569e-10
8.10553e-10
8.20646e-10
8.27971e-10
8.32676e-10
8.34936e-10
5.94374e-10
6.28688e-10
6.77874e-10
7.40197e-10
8.14143e-10
8.98226e-10
9.90907e-10
1.09056e-09
1.19549e-09
1.30393e-09
1.41409e-09
1.52424e-09
1.6327e-09
1.73793e-09
1.83853e-09
1.9333e-09
2.02125e-09
2.10158e-09
2.17373e-09
2.23732e-09
2.29216e-09
2.33825e-09
2.37571e-09
2.40482e-09
2.42593e-09
2.43948e-09
2.44599e-09
1.75363e-09
1.85404e-09
1.99783e-09
2.17983e-09
2.39548e-09
2.64032e-09
2.90974e-09
3.19893e-09
3.50286e-09
3.81635e-09
4.13425e-09
4.45149e-09
4.76329e-09
5.06524e-09
5.3534e-09
5.6244e-09
5.87548e-09
6.10446e-09
6.30981e-09
6.49054e-09
6.64622e-09
6.77689e-09
6.883e-09
6.96534e-09
7.02501e-09
7.0633e-09
7.08166e-09
5.13512e-09
5.42516e-09
5.84e-09
6.36417e-09
6.98405e-09
7.68628e-09
8.4572e-09
9.2826e-09
1.01478e-08
1.10379e-08
1.1938e-08
1.2834e-08
1.37123e-08
1.45607e-08
1.53684e-08
1.61263e-08
1.68269e-08
1.74645e-08
1.80352e-08
1.85366e-08
1.89678e-08
1.93291e-08
1.96222e-08
1.98493e-08
2.00137e-08
2.01191e-08
2.01696e-08
1.48818e-08
1.57042e-08
1.68785e-08
1.83589e-08
2.0105e-08
2.20771e-08
2.42351e-08
2.65378e-08
2.89432e-08
3.1409e-08
3.38941e-08
3.63589e-08
3.87671e-08
4.10857e-08
4.32863e-08
4.5345e-08
4.72427e-08
4.89655e-08
5.05037e-08
5.18521e-08
5.30092e-08
5.39772e-08
5.47608e-08
5.53672e-08
5.58056e-08
5.60862e-08
5.62205e-08
4.25359e-08
4.48103e-08
4.80501e-08
5.21223e-08
5.69082e-08
6.22927e-08
6.81602e-08
7.43938e-08
8.08763e-08
8.74924e-08
9.41307e-08
1.00687e-07
1.07066e-07
1.13183e-07
1.18968e-07
1.2436e-07
1.29314e-07
1.33797e-07
1.37789e-07
1.41279e-07
1.44267e-07
1.46761e-07
1.48776e-07
1.50333e-07
1.51456e-07
1.52174e-07
1.52518e-07
1.19364e-07
1.25449e-07
1.34091e-07
1.44915e-07
1.5758e-07
1.7176e-07
1.87135e-07
2.03383e-07
2.2019e-07
2.37254e-07
2.54287e-07
2.71026e-07
2.87235e-07
3.02709e-07
3.17278e-07
3.30805e-07
3.43187e-07
3.54355e-07
3.64266e-07
3.72907e-07
3.80286e-07
3.8643e-07
3.91384e-07
3.95204e-07
3.97956e-07
3.99713e-07
4.00551e-07
3.27078e-07
3.42699e-07
3.64812e-07
3.92383e-07
4.24484e-07
4.60229e-07
4.9876e-07
5.39241e-07
5.80869e-07
6.22887e-07
6.64595e-07
7.05361e-07
7.44635e-07
7.81948e-07
8.16921e-07
8.49258e-07
8.78745e-07
9.05245e-07
9.28689e-07
9.49067e-07
9.66423e-07
9.80841e-07
9.92441e-07
1.00137e-06
1.00779e-06
1.01188e-06
1.01383e-06
8.69603e-07
9.07786e-07
9.61642e-07
1.02848e-06
1.10589e-06
1.19158e-06
1.2834e-06
1.37928e-06
1.47728e-06
1.57561e-06
1.67267e-06
1.76702e-06
1.85746e-06
1.94299e-06
2.02279e-06
2.09628e-06
2.16305e-06
2.22284e-06
2.27558e-06
2.3213e-06
2.36013e-06
2.39232e-06
2.41817e-06
2.43802e-06
2.45228e-06
2.46136e-06
2.46568e-06
2.22878e-06
2.31718e-06
2.44144e-06
2.59495e-06
2.77182e-06
2.96653e-06
3.17396e-06
3.38931e-06
3.60818e-06
3.82659e-06
4.04104e-06
4.24849e-06
4.44642e-06
4.63278e-06
4.80599e-06
4.96492e-06
5.10882e-06
5.23731e-06
5.35032e-06
5.44804e-06
5.53087e-06
5.59939e-06
5.6543e-06
5.69643e-06
5.72663e-06
5.74583e-06
5.75497e-06
5.47526e-06
5.66889e-06
5.94019e-06
6.27405e-06
6.65695e-06
7.07648e-06
7.52119e-06
7.9806e-06
8.44528e-06
8.90685e-06
9.35805e-06
9.79274e-06
1.02059e-05
1.05935e-05
1.09526e-05
1.12812e-05
1.15778e-05
1.18421e-05
1.2074e-05
1.22741e-05
1.24435e-05
1.25833e-05
1.26953e-05
1.2781e-05
1.28424e-05
1.28815e-05
1.29e-05
1.28425e-05
1.32449e-05
1.38073e-05
1.44973e-05
1.52859e-05
1.61467e-05
1.70557e-05
1.79913e-05
1.89342e-05
1.98675e-05
2.07769e-05
2.16504e-05
2.24782e-05
2.32529e-05
2.39689e-05
2.46224e-05
2.52113e-05
2.5735e-05
2.61937e-05
2.6589e-05
2.6923e-05
2.71984e-05
2.74186e-05
2.75872e-05
2.77078e-05
2.77843e-05
2.78207e-05
2.8706e-05
2.95045e-05
3.06186e-05
3.19825e-05
3.35374e-05
3.52302e-05
3.70129e-05
3.88425e-05
4.06812e-05
4.24963e-05
4.42601e-05
4.59499e-05
4.75475e-05
4.9039e-05
5.04145e-05
5.16676e-05
5.27947e-05
5.37951e-05
5.46701e-05
5.5423e-05
5.60583e-05
5.65816e-05
5.69995e-05
5.73191e-05
5.75475e-05
5.76923e-05
5.77611e-05
6.1068e-05
6.25879e-05
6.47061e-05
6.72953e-05
7.02423e-05
7.34451e-05
7.68119e-05
8.02614e-05
8.37222e-05
8.71331e-05
9.04428e-05
9.36091e-05
9.65987e-05
9.93864e-05
0.000101954
0.000104291
0.00010639
0.000108252
0.000109879
0.000111277
0.000112456
0.000113427
0.000114201
0.000114793
0.000115215
0.000115483
0.00011561
0.000123181
0.000125967
0.000129849
0.000134593
0.000139991
0.000145857
0.000152022
0.000158338
0.000164675
0.00017092
0.000176981
0.00018278
0.000188255
0.000193361
0.000198065
0.000202345
0.00020619
0.0002096
0.00021258
0.00021514
0.000217298
0.000219075
0.000220491
0.000221573
0.000222345
0.000222835
0.000223066
0.000234077
0.000238974
0.000245801
0.000254152
0.000263667
0.000274019
0.000284917
0.000296103
0.000307347
0.000318453
0.000329255
0.000339613
0.000349418
0.000358583
0.000367047
0.000374766
0.000381719
0.000387896
0.000393305
0.000397963
0.000401896
0.000405138
0.000407728
0.000409708
0.000411124
0.000412022
0.000412448
0.000414442
0.000422471
0.000433674
0.000447392
0.000463041
0.000480098
0.000498089
0.000516595
0.000535243
0.000553711
0.000571721
0.000589043
0.000605487
0.000620904
0.000635183
0.000648246
0.000660044
0.000670558
0.000679788
0.000687757
0.000694503
0.000700075
0.000704535
0.000707952
0.000710399
0.000711952
0.00071269
0.000674291
0.000685918
0.00070212
0.000721928
0.000744481
0.000769006
0.000794809
0.000821275
0.000847864
0.000874109
0.000899615
0.000924057
0.000947171
0.000968757
0.000988669
0.00100681
0.00102313
0.00103761
0.00105028
0.00106118
0.00107039
0.00107798
0.00108405
0.0010887
0.00109203
0.00109414
0.00109515
0.000995525
0.00100947
0.00102881
0.00105231
0.00107886
0.00110749
0.00113733
0.00116763
0.00119777
0.0012272
0.00125552
0.00128239
0.00130759
0.00133096
0.00135238
0.00137175
0.00138906
0.00140431
0.00141755
0.00142887
0.00143835
0.0014461
0.00145224
0.0014569
0.00146021
0.00146229
0.00146327
0.00132254
0.00133572
0.00135388
0.00137576
0.00140025
0.00142639
0.00145337
0.00148045
0.00150701
0.00153258
0.0015568
0.0015794
0.00160023
0.00161918
0.00163622
0.00165135
0.00166462
0.00167612
0.00168593
0.00169418
0.00170098
0.00170646
0.00171074
0.00171395
0.00171619
0.00171758
0.00171823
0.00158622
0.0015958
0.00160887
0.00162439
0.00164145
0.00165929
0.00167726
0.00169485
0.00171166
0.00172741
0.00174193
0.0017551
0.00176689
0.0017773
0.00178639
0.00179423
0.00180091
0.00180653
0.00181118
0.00181499
0.00181803
0.00182042
0.00182223
0.00182355
0.00182445
0.001825
0.00182524
0.00173402
0.00173842
0.00174428
0.00175103
0.00175818
0.00176533
0.00177216
0.00177846
0.00178409
0.00178897
0.00179309
0.00179647
0.00179916
0.00180124
0.00180278
0.00180387
0.00180459
0.00180501
0.0018052
0.00180523
0.00180515
0.00180501
0.00180483
0.00180465
0.0018045
0.00180438
0.00180432
0.00175152
0.00175128
0.00175077
0.00174991
0.00174862
0.00174686
0.00174462
0.00174193
0.00173885
0.00173546
0.00173185
0.0017281
0.0017243
0.00172054
0.0017169
0.00171343
0.00171019
0.00170721
0.00170453
0.00170216
0.00170011
0.00169839
0.00169699
0.0016959
0.00169511
0.0016946
0.00169435
0.00166337
0.0016601
0.00165549
0.00164979
0.00164319
0.00163592
0.00162816
0.00162011
0.00161192
0.00160376
0.00159576
0.00158803
0.00158068
0.00157377
0.00156737
0.00156151
0.00155622
0.0015515
0.00154736
0.00154379
0.00154077
0.00153827
0.00153627
0.00153474
0.00153364
0.00153294
0.00153261
0.00150976
0.00150504
0.00149849
0.00149051
0.00148148
0.00147171
0.00146151
0.00145112
0.00144077
0.00143063
0.00142085
0.00141155
0.00140282
0.00139473
0.00138731
0.00138059
0.00137458
0.00136926
0.00136463
0.00136066
0.00135732
0.00135458
0.00135239
0.00135072
0.00134953
0.00134878
0.00134842
0.00132725
0.00132216
0.00131513
0.00130662
0.00129705
0.00128677
0.00127611
0.00126534
0.00125467
0.00124429
0.00123434
0.00122494
0.00121616
0.00120805
0.00120065
0.00119397
0.00118802
0.00118277
0.00117821
0.00117431
0.00117104
0.00116835
0.00116621
0.00116458
0.00116342
0.00116269
0.00116234
0.00114144
0.00113659
0.00112988
0.00112178
0.0011127
0.00110298
0.00109293
0.0010828
0.0010728
0.00106309
0.00105381
0.00104506
0.0010369
0.00102938
0.00102254
0.00101636
0.00101087
0.00100603
0.00100183
0.000998236
0.000995223
0.000992753
0.000990787
0.00098929
0.000988221
0.000987545
0.000987224
0.00096728
0.000962916
0.000956897
0.000949639
0.000941505
0.000932812
0.000923832
0.000914791
0.000905877
0.000897236
0.000888984
0.000881206
0.000873962
0.000867293
0.000861219
0.000855747
0.000850875
0.000846589
0.000842868
0.000839689
0.00083702
0.000834832
0.000833092
0.000831765
0.000830819
0.000830219
0.000829935
0.000811909
0.000808122
0.000802902
0.000796609
0.00078956
0.00078203
0.000774256
0.000766433
0.000758722
0.000751252
0.00074412
0.000737399
0.000731143
0.000725383
0.000720138
0.000715414
0.000711208
0.000707507
0.000704295
0.000701549
0.000699245
0.000697356
0.000695852
0.000694706
0.000693888
0.00069337
0.000693124
0.00067761
0.000674393
0.000669957
0.000664611
0.000658624
0.00065223
0.00064563
0.00063899
0.000632446
0.000626107
0.000620056
0.000614355
0.000609048
0.000604163
0.000599714
0.000595708
0.00059214
0.000589001
0.000586276
0.000583947
0.000581992
0.000580389
0.000579113
0.00057814
0.000577445
0.000577005
0.000576797
0.000563938
0.00056124
0.000557521
0.00055304
0.000548022
0.000542663
0.000537132
0.000531569
0.000526087
0.000520776
0.000515708
0.000510933
0.000506488
0.000502397
0.000498671
0.000495316
0.000492328
0.0004897
0.000487418
0.000485467
0.000483829
0.000482486
0.000481417
0.000480602
0.00048002
0.000479651
0.000479476
0.0004691
0.000466859
0.00046377
0.000460049
0.000455881
0.000451432
0.00044684
0.000442221
0.000437671
0.000433263
0.000429057
0.000425095
0.000421407
0.000418012
0.000414921
0.000412137
0.000409659
0.000407478
0.000405585
0.000403966
0.000402608
0.000401493
0.000400606
0.00039993
0.000399447
0.000399141
0.000398996
0.00039077
0.000388921
0.000386374
0.000383304
0.000379867
0.000376198
0.000372411
0.000368604
0.000364852
0.00036122
0.000357753
0.000354488
0.000351449
0.000348652
0.000346106
0.000343813
0.000341771
0.000339975
0.000338415
0.000337082
0.000335963
0.000335045
0.000334315
0.000333758
0.00033336
0.000333108
0.000332988
0.000326536
0.000325019
0.000322928
0.00032041
0.00031759
0.00031458
0.000311474
0.000308351
0.000305275
0.000302297
0.000299455
0.000296779
0.000294288
0.000291996
0.000289909
0.000288031
0.000286358
0.000284886
0.000283609
0.000282517
0.000281601
0.000280849
0.00028025
0.000279794
0.000279468
0.000279262
0.000279164
0.000274127
0.000272887
0.000271178
0.00026912
0.000266815
0.000264356
0.000261819
0.000259268
0.000256756
0.000254324
0.000252003
0.000249819
0.000247785
0.000245915
0.000244212
0.000242679
0.000241314
0.000240113
0.000239071
0.00023818
0.000237433
0.00023682
0.000236331
0.000235959
0.000235693
0.000235525
0.000235445
0.000231515
0.000230504
0.000229112
0.000227434
0.000225557
0.000223554
0.000221487
0.00021941
0.000217364
0.000215384
0.000213495
0.000211717
0.000210062
0.00020854
0.000207154
0.000205907
0.000204796
0.00020382
0.000202972
0.000202248
0.00020164
0.000201141
0.000200744
0.000200441
0.000200225
0.000200088
0.000200023
0.000196946
0.000196124
0.000194992
0.000193628
0.000192102
0.000190474
0.000188794
0.000187106
0.000185444
0.000183835
0.000182301
0.000180856
0.000179512
0.000178276
0.000177151
0.000176138
0.000175236
0.000174443
0.000173755
0.000173167
0.000172673
0.000172269
0.000171946
0.000171701
0.000171525
0.000171414
0.000171362
0.000168938
0.000168271
0.000167351
0.000166244
0.000165006
0.000163684
0.000162321
0.00016095
0.000159602
0.000158296
0.000157051
0.000155879
0.000154789
0.000153786
0.000152873
0.000152052
0.000151321
0.000150678
0.00015012
0.000149643
0.000149243
0.000148915
0.000148653
0.000148454
0.000148312
0.000148222
0.000148179
0.000146255
0.000145714
0.000144968
0.00014407
0.000143065
0.000141993
0.000140887
0.000139776
0.000138682
0.000137623
0.000136613
0.000135663
0.000134779
0.000133966
0.000133226
0.00013256
0.000131968
0.000131447
0.000130994
0.000130608
0.000130283
0.000130017
0.000129806
0.000129644
0.000129529
0.000129456
0.000129422
0.00012788
0.000127441
0.000126836
0.000126107
0.000125292
0.000124422
0.000123525
0.000122624
0.000121736
0.000120878
0.000120059
0.000119288
0.000118571
0.000117912
0.000117312
0.000116772
0.000116292
0.000115869
0.000115502
0.000115189
0.000114926
0.00011471
0.000114539
0.000114408
0.000114315
0.000114255
0.000114227
0.00011298
0.000112623
0.000112132
0.00011154
0.000110879
0.000110172
0.000109444
0.000108713
0.000107992
0.000107296
0.000106631
0.000106005
0.000105424
0.000104889
0.000104402
0.000103964
0.000103574
0.000103231
0.000102933
0.000102679
0.000102466
0.000102291
0.000102152
0.000102045
0.00010197
0.000101922
0.000101899
0.000100878
0.000100588
0.000100189
9.9708e-05
9.91701e-05
9.85963e-05
9.80046e-05
9.741e-05
9.68247e-05
9.62583e-05
9.57183e-05
9.52099e-05
9.47372e-05
9.43023e-05
9.39067e-05
9.35507e-05
9.32338e-05
9.29552e-05
9.27134e-05
9.25068e-05
9.23335e-05
9.21913e-05
9.20782e-05
9.1992e-05
9.19304e-05
9.18915e-05
9.1873e-05
9.10276e-05
9.07918e-05
9.04668e-05
9.00755e-05
8.96377e-05
8.91706e-05
8.86889e-05
8.82048e-05
8.77283e-05
8.72672e-05
8.68276e-05
8.64137e-05
8.60288e-05
8.56748e-05
8.53527e-05
8.50629e-05
8.48049e-05
8.45781e-05
8.43812e-05
8.42131e-05
8.40719e-05
8.39562e-05
8.38641e-05
8.37939e-05
8.37438e-05
8.37121e-05
8.3697e-05
8.29894e-05
8.2797e-05
8.2532e-05
8.22127e-05
8.18556e-05
8.14745e-05
8.10815e-05
8.06866e-05
8.02978e-05
7.99216e-05
7.95628e-05
7.92251e-05
7.89111e-05
7.86222e-05
7.83594e-05
7.81228e-05
7.79123e-05
7.77272e-05
7.75666e-05
7.74294e-05
7.73142e-05
7.72198e-05
7.71447e-05
7.70874e-05
7.70465e-05
7.70207e-05
7.70084e-05
7.64094e-05
7.6252e-05
7.60353e-05
7.57742e-05
7.54821e-05
7.51704e-05
7.4849e-05
7.45259e-05
7.42079e-05
7.39001e-05
7.36066e-05
7.33304e-05
7.30734e-05
7.28371e-05
7.2622e-05
7.24285e-05
7.22563e-05
7.21048e-05
7.19734e-05
7.18612e-05
7.17669e-05
7.16897e-05
7.16282e-05
7.15814e-05
7.15479e-05
7.15268e-05
7.15167e-05
7.10043e-05
7.08752e-05
7.06974e-05
7.04833e-05
7.02437e-05
6.99881e-05
6.97244e-05
6.94594e-05
6.91985e-05
6.8946e-05
6.87052e-05
6.84785e-05
6.82677e-05
6.80737e-05
6.78973e-05
6.77385e-05
6.75972e-05
6.74729e-05
6.73651e-05
6.72729e-05
6.71957e-05
6.71323e-05
6.70818e-05
6.70434e-05
6.7016e-05
6.69986e-05
6.69904e-05
6.65475e-05
6.64413e-05
6.62951e-05
6.61189e-05
6.59218e-05
6.57114e-05
6.54945e-05
6.52764e-05
6.50617e-05
6.48539e-05
6.46558e-05
6.44692e-05
6.42957e-05
6.41361e-05
6.39909e-05
6.38602e-05
6.37439e-05
6.36416e-05
6.35529e-05
6.3477e-05
6.34134e-05
6.33613e-05
6.33198e-05
6.32882e-05
6.32656e-05
6.32513e-05
6.32445e-05
6.28582e-05
6.27706e-05
6.26499e-05
6.25045e-05
6.23419e-05
6.21683e-05
6.19892e-05
6.18092e-05
6.1632e-05
6.14605e-05
6.1297e-05
6.1143e-05
6.09997e-05
6.0868e-05
6.07481e-05
6.06402e-05
6.05442e-05
6.04598e-05
6.03866e-05
6.0324e-05
6.02715e-05
6.02285e-05
6.01942e-05
6.01681e-05
6.01495e-05
6.01377e-05
6.01321e-05
5.97923e-05
5.97198e-05
5.96199e-05
5.94997e-05
5.9365e-05
5.92214e-05
5.90732e-05
5.89242e-05
5.87776e-05
5.86356e-05
5.85002e-05
5.83728e-05
5.82543e-05
5.81452e-05
5.8046e-05
5.79568e-05
5.78773e-05
5.78075e-05
5.77469e-05
5.76951e-05
5.76517e-05
5.76161e-05
5.75878e-05
5.75662e-05
5.75508e-05
5.75411e-05
5.75364e-05
5.72354e-05
5.71752e-05
5.70924e-05
5.69926e-05
5.6881e-05
5.67618e-05
5.66389e-05
5.65154e-05
5.63938e-05
5.62761e-05
5.61638e-05
5.60581e-05
5.59598e-05
5.58694e-05
5.57872e-05
5.57132e-05
5.56474e-05
5.55895e-05
5.55393e-05
5.54964e-05
5.54604e-05
5.54309e-05
5.54075e-05
5.53896e-05
5.53769e-05
5.53688e-05
5.5365e-05
5.50967e-05
5.50468e-05
5.4978e-05
5.48952e-05
5.48025e-05
5.47035e-05
5.46015e-05
5.4499e-05
5.4398e-05
5.43003e-05
5.42072e-05
5.41195e-05
5.4038e-05
5.3963e-05
5.38948e-05
5.38334e-05
5.37788e-05
5.37309e-05
5.36893e-05
5.36537e-05
5.3624e-05
5.35995e-05
5.35801e-05
5.35653e-05
5.35548e-05
5.35481e-05
5.3545e-05
5.3305e-05
5.32635e-05
5.32065e-05
5.31377e-05
5.30608e-05
5.29788e-05
5.28941e-05
5.28091e-05
5.27254e-05
5.26445e-05
5.25673e-05
5.24946e-05
5.24271e-05
5.23651e-05
5.23086e-05
5.22579e-05
5.22127e-05
5.21731e-05
5.21387e-05
5.21093e-05
5.20847e-05
5.20646e-05
5.20485e-05
5.20363e-05
5.20276e-05
5.20221e-05
5.20195e-05
5.18044e-05
5.17701e-05
5.17229e-05
5.16661e-05
5.16025e-05
5.15347e-05
5.14649e-05
5.13947e-05
5.13256e-05
5.12588e-05
5.11952e-05
5.11353e-05
5.10797e-05
5.10286e-05
5.09822e-05
5.09404e-05
5.09033e-05
5.08707e-05
5.08425e-05
5.08184e-05
5.07982e-05
5.07817e-05
5.07686e-05
5.07586e-05
5.07515e-05
5.0747e-05
5.07448e-05
5.05521e-05
5.0524e-05
5.04852e-05
5.04387e-05
5.03866e-05
5.03311e-05
5.02739e-05
5.02165e-05
5.016e-05
5.01055e-05
5.00536e-05
5.00048e-05
4.99595e-05
4.99179e-05
4.98801e-05
4.98462e-05
4.98161e-05
4.97896e-05
4.97668e-05
4.97472e-05
4.97309e-05
4.97175e-05
4.97069e-05
4.96989e-05
4.96931e-05
4.96895e-05
4.96878e-05
4.95156e-05
4.94929e-05
4.94617e-05
4.94241e-05
4.93821e-05
4.93375e-05
4.92915e-05
4.92453e-05
4.92001e-05
4.91564e-05
4.91148e-05
4.90758e-05
4.90397e-05
4.90065e-05
4.89764e-05
4.89495e-05
4.89256e-05
4.89046e-05
4.88865e-05
4.88711e-05
4.88582e-05
4.88476e-05
4.88393e-05
4.88329e-05
4.88284e-05
4.88256e-05
4.88242e-05
4.86717e-05
4.86538e-05
4.86293e-05
4.85999e-05
4.85671e-05
4.85322e-05
4.84963e-05
4.84605e-05
4.84253e-05
4.83915e-05
4.83594e-05
4.83293e-05
4.83015e-05
4.82761e-05
4.82531e-05
4.82325e-05
4.82143e-05
4.81984e-05
4.81847e-05
4.8173e-05
4.81633e-05
4.81553e-05
4.81491e-05
4.81443e-05
4.81409e-05
4.81388e-05
4.81378e-05
4.80043e-05
4.7991e-05
4.79728e-05
4.7951e-05
4.79267e-05
4.79009e-05
4.78746e-05
4.78483e-05
4.78227e-05
4.77981e-05
4.77749e-05
4.77533e-05
4.77334e-05
4.77152e-05
4.76989e-05
4.76844e-05
4.76716e-05
4.76604e-05
4.76509e-05
4.76428e-05
4.7636e-05
4.76306e-05
4.76263e-05
4.7623e-05
4.76208e-05
4.76193e-05
4.76186e-05
4.75042e-05
4.74954e-05
4.74832e-05
4.74687e-05
4.74526e-05
4.74358e-05
4.74186e-05
4.74017e-05
4.73853e-05
4.73697e-05
4.73552e-05
4.73418e-05
4.73296e-05
4.73186e-05
4.73088e-05
4.73002e-05
4.72926e-05
4.72862e-05
4.72807e-05
4.72762e-05
4.72724e-05
4.72694e-05
4.7267e-05
4.72653e-05
4.72641e-05
4.72633e-05
4.7263e-05
4.71682e-05
4.71637e-05
4.71575e-05
4.71504e-05
4.71426e-05
4.71345e-05
4.71266e-05
4.7119e-05
4.71119e-05
4.71054e-05
4.70996e-05
4.70945e-05
4.70901e-05
4.70863e-05
4.70831e-05
4.70805e-05
4.70784e-05
4.70767e-05
4.70754e-05
4.70744e-05
4.70736e-05
4.70731e-05
4.70728e-05
4.70725e-05
4.70724e-05
4.70723e-05
4.70723e-05
4.69982e-05
4.69982e-05
4.69982e-05
4.69986e-05
4.69993e-05
4.70005e-05
4.70021e-05
4.70041e-05
4.70067e-05
4.70096e-05
4.70128e-05
4.70163e-05
4.702e-05
4.70237e-05
4.70275e-05
4.70311e-05
4.70346e-05
4.70379e-05
4.7041e-05
4.70437e-05
4.70461e-05
4.70482e-05
4.705e-05
4.70513e-05
4.70524e-05
4.7053e-05
4.70533e-05
4.70013e-05
4.7006e-05
4.70127e-05
4.70211e-05
4.70308e-05
4.70416e-05
4.70534e-05
4.70658e-05
4.70785e-05
4.70915e-05
4.71044e-05
4.71171e-05
4.71294e-05
4.71411e-05
4.71523e-05
4.71626e-05
4.71721e-05
4.71808e-05
4.71885e-05
4.71953e-05
4.72011e-05
4.7206e-05
4.721e-05
4.72131e-05
4.72153e-05
4.72168e-05
4.72175e-05
4.71894e-05
4.71993e-05
4.72131e-05
4.72301e-05
4.72495e-05
4.72709e-05
4.72936e-05
4.73172e-05
4.73411e-05
4.73649e-05
4.73883e-05
4.7411e-05
4.74327e-05
4.74532e-05
4.74724e-05
4.74901e-05
4.75062e-05
4.75206e-05
4.75334e-05
4.75446e-05
4.75541e-05
4.75621e-05
4.75685e-05
4.75735e-05
4.75771e-05
4.75794e-05
4.75805e-05
4.75787e-05
4.75942e-05
4.76158e-05
4.76423e-05
4.76725e-05
4.77054e-05
4.77402e-05
4.7776e-05
4.78121e-05
4.78479e-05
4.78829e-05
4.79166e-05
4.79487e-05
4.79788e-05
4.80069e-05
4.80326e-05
4.80559e-05
4.80768e-05
4.80953e-05
4.81113e-05
4.81249e-05
4.81362e-05
4.81454e-05
4.81524e-05
4.81575e-05
4.81608e-05
4.81623e-05
4.81892e-05
4.82109e-05
4.82411e-05
4.82781e-05
4.83202e-05
4.83659e-05
4.8414e-05
4.84634e-05
4.8513e-05
4.85621e-05
4.86099e-05
4.86558e-05
4.86993e-05
4.87401e-05
4.8778e-05
4.88126e-05
4.8844e-05
4.8872e-05
4.88967e-05
4.8918e-05
4.89362e-05
4.89513e-05
4.89634e-05
4.89728e-05
4.89795e-05
4.89838e-05
4.89859e-05
4.90438e-05
4.90724e-05
4.91122e-05
4.91608e-05
4.92159e-05
4.92758e-05
4.93387e-05
4.9403e-05
4.94676e-05
4.95313e-05
4.95932e-05
4.96526e-05
4.97088e-05
4.97614e-05
4.98101e-05
4.98546e-05
4.98948e-05
4.99306e-05
4.99622e-05
4.99895e-05
5.00126e-05
5.00318e-05
5.00473e-05
5.00591e-05
5.00677e-05
5.00731e-05
5.00758e-05
5.01668e-05
5.0203e-05
5.02532e-05
5.03145e-05
5.0384e-05
5.04594e-05
5.05384e-05
5.06192e-05
5.07001e-05
5.07799e-05
5.08572e-05
5.09313e-05
5.10013e-05
5.10668e-05
5.11273e-05
5.11825e-05
5.12324e-05
5.12768e-05
5.13158e-05
5.13495e-05
5.13781e-05
5.14018e-05
5.14208e-05
5.14354e-05
5.1446e-05
5.14527e-05
5.14559e-05
5.1581e-05
5.16253e-05
5.16868e-05
5.17618e-05
5.18468e-05
5.19388e-05
5.20352e-05
5.21336e-05
5.22321e-05
5.2329e-05
5.24229e-05
5.25128e-05
5.25976e-05
5.26768e-05
5.27499e-05
5.28166e-05
5.28767e-05
5.29303e-05
5.29772e-05
5.30178e-05
5.30522e-05
5.30806e-05
5.31035e-05
5.3121e-05
5.31337e-05
5.31417e-05
5.31456e-05
5.33037e-05
5.33566e-05
5.343e-05
5.35193e-05
5.36205e-05
5.37299e-05
5.38444e-05
5.39612e-05
5.4078e-05
5.41927e-05
5.43038e-05
5.44099e-05
5.45101e-05
5.46035e-05
5.46896e-05
5.47682e-05
5.48389e-05
5.49018e-05
5.49569e-05
5.50045e-05
5.50448e-05
5.50782e-05
5.51049e-05
5.51255e-05
5.51403e-05
5.51497e-05
5.51542e-05
5.53418e-05
5.54032e-05
5.54885e-05
5.55921e-05
5.57095e-05
5.58363e-05
5.59688e-05
5.61039e-05
5.62388e-05
5.63712e-05
5.64992e-05
5.66214e-05
5.67367e-05
5.6844e-05
5.69429e-05
5.7033e-05
5.71141e-05
5.71861e-05
5.72492e-05
5.73037e-05
5.73498e-05
5.73879e-05
5.74184e-05
5.74418e-05
5.74587e-05
5.74694e-05
5.74745e-05
5.76842e-05
5.77537e-05
5.78501e-05
5.79672e-05
5.80996e-05
5.82426e-05
5.83918e-05
5.85438e-05
5.86953e-05
5.88439e-05
5.89875e-05
5.91244e-05
5.92533e-05
5.93733e-05
5.94838e-05
5.95843e-05
5.96746e-05
5.97549e-05
5.98251e-05
5.98857e-05
5.99369e-05
5.99792e-05
6.00132e-05
6.00392e-05
6.00579e-05
6.00698e-05
6.00754e-05
6.02961e-05
6.03724e-05
6.04781e-05
6.06065e-05
6.07514e-05
6.09078e-05
6.10708e-05
6.12366e-05
6.14018e-05
6.15636e-05
6.17197e-05
6.18683e-05
6.20082e-05
6.21382e-05
6.22577e-05
6.23664e-05
6.2464e-05
6.25506e-05
6.26264e-05
6.26917e-05
6.27469e-05
6.27924e-05
6.28289e-05
6.28569e-05
6.28769e-05
6.28897e-05
6.28958e-05
6.31133e-05
6.31942e-05
6.33063e-05
6.34423e-05
6.35958e-05
6.3761e-05
6.39331e-05
6.41079e-05
6.42818e-05
6.44519e-05
6.46159e-05
6.47717e-05
6.49182e-05
6.50542e-05
6.51791e-05
6.52926e-05
6.53944e-05
6.54846e-05
6.55635e-05
6.56314e-05
6.56887e-05
6.5736e-05
6.57739e-05
6.58029e-05
6.58237e-05
6.5837e-05
6.58433e-05
6.6042e-05
6.61247e-05
6.62392e-05
6.63779e-05
6.65342e-05
6.67023e-05
6.68772e-05
6.70545e-05
6.72306e-05
6.74026e-05
6.75682e-05
6.77254e-05
6.78728e-05
6.80096e-05
6.8135e-05
6.82488e-05
6.83508e-05
6.84411e-05
6.852e-05
6.85878e-05
6.86451e-05
6.86923e-05
6.873e-05
6.8759e-05
6.87797e-05
6.87929e-05
6.87992e-05
6.89652e-05
6.90462e-05
6.91583e-05
6.92938e-05
6.94464e-05
6.96103e-05
6.97805e-05
6.99527e-05
7.01236e-05
7.02901e-05
7.04501e-05
7.06018e-05
7.07439e-05
7.08754e-05
7.09959e-05
7.11051e-05
7.12028e-05
7.12892e-05
7.13646e-05
7.14293e-05
7.14839e-05
7.15289e-05
7.15649e-05
7.15924e-05
7.16122e-05
7.16247e-05
7.16307e-05
7.17554e-05
7.18311e-05
7.19357e-05
7.2062e-05
7.2204e-05
7.23563e-05
7.25141e-05
7.26736e-05
7.28314e-05
7.2985e-05
7.31323e-05
7.32717e-05
7.34021e-05
7.35226e-05
7.36328e-05
7.37325e-05
7.38217e-05
7.39004e-05
7.39691e-05
7.4028e-05
7.40776e-05
7.41184e-05
7.41511e-05
7.4176e-05
7.41939e-05
7.42053e-05
7.42107e-05
7.42934e-05
7.43608e-05
7.44538e-05
7.45661e-05
7.46921e-05
7.4827e-05
7.49666e-05
7.51074e-05
7.52465e-05
7.53816e-05
7.5511e-05
7.56332e-05
7.57473e-05
7.58526e-05
7.59488e-05
7.60356e-05
7.61132e-05
7.61817e-05
7.62413e-05
7.62924e-05
7.63354e-05
7.63708e-05
7.6399e-05
7.64206e-05
7.64361e-05
7.64459e-05
7.64506e-05
7.6496e-05
7.65533e-05
7.66323e-05
7.67275e-05
7.68342e-05
7.69483e-05
7.70661e-05
7.71847e-05
7.73016e-05
7.74151e-05
7.75235e-05
7.76257e-05
7.7721e-05
7.78088e-05
7.78889e-05
7.79612e-05
7.80256e-05
7.80824e-05
7.81318e-05
7.81742e-05
7.82098e-05
7.8239e-05
7.82624e-05
7.82802e-05
7.8293e-05
7.83011e-05
7.83049e-05
7.83225e-05
7.8369e-05
7.84331e-05
7.85102e-05
7.85965e-05
7.86887e-05
7.87837e-05
7.88792e-05
7.89732e-05
7.90643e-05
7.91512e-05
7.9233e-05
7.93091e-05
7.93792e-05
7.94431e-05
7.95006e-05
7.95519e-05
7.9597e-05
7.96362e-05
7.96698e-05
7.9698e-05
7.97211e-05
7.97396e-05
7.97537e-05
7.97638e-05
7.97703e-05
7.97733e-05
7.97735e-05
7.98096e-05
7.98595e-05
7.99194e-05
7.99864e-05
8.00578e-05
8.01314e-05
8.02053e-05
8.02779e-05
8.03481e-05