/*--------------------------------*- C++ -*----------------------------------*\
| =========                 |                                                 |
| \\      /  F ield         | OpenFOAM: The Open Source CFD Toolbox           |
|  \\    /   O peration     | Version:  2106                                  |
|   \\  /    A nd           | Website:  www.openfoam.com                      |
|    \\/     M anipulation  |                                                 |
\*---------------------------------------------------------------------------*/
FoamFile
{
    version     2.0;
    format      ascii;
    arch        "LSB;label=32;scalar=64";
    class       volScalarField;
    location    "90.00055";
    object      PC3H4;
}
// * * * * * * * * * * * * * * * * * * * * * * * * * * * * * * * * * * * * * //

dimensions      [0 0 0 0 0 0 0];

internalField   nonuniform List<scalar> 
3360
(
6.59831e-17
6.81063e-17
7.1061e-17
7.46752e-17
7.87982e-17
8.32949e-17
8.80429e-17
9.29322e-17
9.78644e-17
1.02753e-16
1.07523e-16
1.1211e-16
1.16461e-16
1.20536e-16
1.24301e-16
1.27735e-16
1.30824e-16
1.33561e-16
1.35949e-16
1.37993e-16
1.39707e-16
1.41107e-16
1.42213e-16
1.43047e-16
1.43634e-16
1.43999e-16
1.44169e-16
2.8946e-16
3.001e-16
3.15113e-16
3.33809e-16
3.55616e-16
3.80033e-16
4.06615e-16
4.34953e-16
4.64668e-16
4.95399e-16
5.26803e-16
5.58544e-16
5.90292e-16
6.21719e-16
6.52506e-16
6.82336e-16
7.109e-16
7.37898e-16
7.63043e-16
7.86065e-16
8.06718e-16
8.24782e-16
8.40071e-16
8.52436e-16
8.61767e-16
8.67999e-16
8.71106e-16
9.0821e-16
9.4807e-16
1.00471e-15
1.07588e-15
1.15973e-15
1.25456e-15
1.35879e-15
1.47085e-15
1.58915e-15
1.71207e-15
1.83794e-15
1.96513e-15
2.092e-15
2.21694e-15
2.3384e-15
2.45489e-15
2.56505e-15
2.66765e-15
2.76163e-15
2.8461e-15
2.92037e-15
2.98398e-15
3.03664e-15
3.07826e-15
3.10894e-15
3.12895e-15
3.13869e-15
2.64498e-15
2.77636e-15
2.96431e-15
3.20209e-15
3.4841e-15
3.80506e-15
4.15972e-15
4.54261e-15
4.94802e-15
5.36993e-15
5.80213e-15
6.23829e-15
6.67213e-15
7.09753e-15
7.5087e-15
7.90031e-15
8.26762e-15
8.60664e-15
8.91413e-15
9.18768e-15
9.42569e-15
9.62732e-15
9.79246e-15
9.92162e-15
1.00159e-14
1.00767e-14
1.01061e-14
7.72761e-15
8.14206e-15
8.73608e-15
9.48938e-15
1.03847e-14
1.14056e-14
1.2535e-14
1.37548e-14
1.50459e-14
1.63879e-14
1.77601e-14
1.91411e-14
2.05103e-14
2.1848e-14
2.31357e-14
2.4357e-14
2.54979e-14
2.65465e-14
2.74939e-14
2.83336e-14
2.90616e-14
2.96763e-14
3.01782e-14
3.05696e-14
3.08546e-14
3.10381e-14
3.11265e-14
2.2786e-14
2.40589e-14
2.58855e-14
2.82039e-14
3.0961e-14
3.41054e-14
3.7584e-14
4.13402e-14
4.53135e-14
4.94403e-14
5.36549e-14
5.78914e-14
6.20856e-14
6.61763e-14
7.01074e-14
7.38293e-14
7.72995e-14
8.04835e-14
8.33548e-14
8.58952e-14
8.80941e-14
8.99477e-14
9.1459e-14
9.2636e-14
9.34917e-14
9.40422e-14
9.4307e-14
6.76868e-14
7.15545e-14
7.71047e-14
8.41495e-14
9.25269e-14
1.02079e-13
1.12642e-13
1.24042e-13
1.36091e-13
1.48596e-13
1.61356e-13
1.74169e-13
1.86843e-13
1.99191e-13
2.11047e-13
2.22262e-13
2.3271e-13
2.42289e-13
2.50923e-13
2.58556e-13
2.6516e-13
2.70725e-13
2.75261e-13
2.78793e-13
2.81359e-13
2.8301e-13
2.83804e-13
2.01744e-13
2.13382e-13
2.30092e-13
2.51309e-13
2.76546e-13
3.05327e-13
3.37156e-13
3.71502e-13
4.07803e-13
4.45465e-13
4.83884e-13
5.22452e-13
5.60582e-13
5.97721e-13
6.33364e-13
6.67065e-13
6.98448e-13
7.27208e-13
7.53116e-13
7.76014e-13
7.95816e-13
8.12495e-13
8.26083e-13
8.3666e-13
8.44343e-13
8.49285e-13
8.5166e-13
6.02905e-13
6.37886e-13
6.88099e-13
7.51849e-13
8.27669e-13
9.1412e-13
1.0097e-12
1.11282e-12
1.22177e-12
1.33477e-12
1.45e-12
1.56564e-12
1.67993e-12
1.79121e-12
1.89798e-12
1.9989e-12
2.09286e-12
2.17896e-12
2.2565e-12
2.32503e-12
2.38429e-12
2.4342e-12
2.47486e-12
2.50651e-12
2.5295e-12
2.54428e-12
2.55139e-12
1.80197e-12
1.90676e-12
2.0572e-12
2.24821e-12
2.4754e-12
2.73444e-12
3.02083e-12
3.32978e-12
3.65616e-12
3.99465e-12
4.33975e-12
4.68603e-12
5.0282e-12
5.36131e-12
5.68084e-12
5.98283e-12
6.26391e-12
6.5214e-12
6.75327e-12
6.95814e-12
7.13524e-12
7.28437e-12
7.40584e-12
7.50036e-12
7.56901e-12
7.61316e-12
7.63437e-12
5.38872e-12
5.70249e-12
6.15288e-12
6.72463e-12
7.4045e-12
8.17952e-12
9.03617e-12
9.96001e-12
1.09357e-11
1.19473e-11
1.29784e-11
1.40126e-11
1.50343e-11
1.60286e-11
1.69821e-11
1.78831e-11
1.87215e-11
1.94894e-11
2.01808e-11
2.07915e-11
2.13195e-11
2.1764e-11
2.2126e-11
2.24077e-11
2.26122e-11
2.27438e-11
2.2807e-11
1.61009e-11
1.70381e-11
1.83833e-11
2.00907e-11
2.21206e-11
2.44341e-11
2.69906e-11
2.97469e-11
3.2657e-11
3.56731e-11
3.87463e-11
4.18279e-11
4.4871e-11
4.78316e-11
5.06698e-11
5.33506e-11
5.58444e-11
5.81276e-11
6.01826e-11
6.19974e-11
6.35656e-11
6.48857e-11
6.59604e-11
6.67965e-11
6.74036e-11
6.77939e-11
6.79814e-11
4.80622e-11
5.0857e-11
5.4867e-11
5.99548e-11
6.60008e-11
7.28879e-11
8.04941e-11
8.86897e-11
9.73376e-11
1.06295e-10
1.15416e-10
1.24556e-10
1.33576e-10
1.42347e-10
1.50751e-10
1.58684e-10
1.6606e-10
1.7281e-10
1.78883e-10
1.84244e-10
1.88875e-10
1.92772e-10
1.95943e-10
1.9841e-10
2.00201e-10
2.01352e-10
2.01905e-10
1.43087e-10
1.51385e-10
1.63288e-10
1.78382e-10
1.96309e-10
2.16716e-10
2.39238e-10
2.63485e-10
2.8905e-10
3.15506e-10
3.42421e-10
3.6937e-10
3.95943e-10
4.21757e-10
4.46468e-10
4.69777e-10
4.91432e-10
5.11234e-10
5.29036e-10
5.44741e-10
5.58298e-10
5.69699e-10
5.78973e-10
5.86183e-10
5.91415e-10
5.94776e-10
5.9639e-10
4.24557e-10
4.49068e-10
4.84201e-10
5.28718e-10
5.81537e-10
6.41597e-10
7.07799e-10
7.78983e-10
8.53932e-10
9.31387e-10
1.01008e-09
1.08876e-09
1.16623e-09
1.24139e-09
1.31325e-09
1.38095e-09
1.44377e-09
1.50115e-09
1.55268e-09
1.5981e-09
1.63728e-09
1.6702e-09
1.69696e-09
1.71775e-09
1.73282e-09
1.74251e-09
1.74715e-09
1.25261e-09
1.32433e-09
1.42704e-09
1.55704e-09
1.71108e-09
1.88596e-09
2.07841e-09
2.28498e-09
2.50207e-09
2.726e-09
2.95307e-09
3.17967e-09
3.40239e-09
3.61807e-09
3.8239e-09
4.01748e-09
4.19682e-09
4.36038e-09
4.50706e-09
4.63615e-09
4.74735e-09
4.84069e-09
4.91648e-09
4.9753e-09
5.01792e-09
5.04527e-09
5.05839e-09
3.66798e-09
3.87515e-09
4.17147e-09
4.54588e-09
4.98866e-09
5.49026e-09
6.04092e-09
6.6305e-09
7.2485e-09
7.88428e-09
8.52726e-09
9.16724e-09
9.7946e-09
1.04006e-08
1.09776e-08
1.15189e-08
1.20193e-08
1.24748e-08
1.28824e-08
1.32406e-08
1.35486e-08
1.38067e-08
1.4016e-08
1.41782e-08
1.42957e-08
1.43709e-08
1.4407e-08
1.063e-08
1.12174e-08
1.20562e-08
1.31136e-08
1.43608e-08
1.57695e-08
1.73109e-08
1.89558e-08
2.06739e-08
2.24352e-08
2.42102e-08
2.59709e-08
2.7691e-08
2.93472e-08
3.0919e-08
3.23895e-08
3.37451e-08
3.49757e-08
3.60744e-08
3.70375e-08
3.78641e-08
3.85555e-08
3.91152e-08
3.95484e-08
3.98615e-08
4.00619e-08
4.01579e-08
3.03829e-08
3.20075e-08
3.43217e-08
3.72304e-08
4.06489e-08
4.4495e-08
4.8686e-08
5.31386e-08
5.77691e-08
6.24949e-08
6.72365e-08
7.19196e-08
7.6476e-08
8.08456e-08
8.49772e-08
8.88286e-08
9.23674e-08
9.55698e-08
9.8421e-08
1.00914e-07
1.03048e-07
1.0483e-07
1.06269e-07
1.07381e-07
1.08183e-07
1.08696e-07
1.08942e-07
8.52596e-08
8.96059e-08
9.57794e-08
1.0351e-07
1.12556e-07
1.22685e-07
1.33667e-07
1.45273e-07
1.57278e-07
1.69466e-07
1.81633e-07
1.93589e-07
2.05167e-07
2.1622e-07
2.26626e-07
2.36288e-07
2.45132e-07
2.53109e-07
2.60189e-07
2.66361e-07
2.71631e-07
2.7602e-07
2.79558e-07
2.82286e-07
2.84252e-07
2.85507e-07
2.86106e-07
2.33624e-07
2.44781e-07
2.60576e-07
2.80269e-07
3.03197e-07
3.28729e-07
3.56249e-07
3.85163e-07
4.14896e-07
4.44908e-07
4.74698e-07
5.03815e-07
5.31867e-07
5.58518e-07
5.83497e-07
6.06594e-07
6.27655e-07
6.46583e-07
6.63328e-07
6.77883e-07
6.90279e-07
7.00577e-07
7.08863e-07
7.15239e-07
7.19825e-07
7.22749e-07
7.24143e-07
6.21127e-07
6.48397e-07
6.86862e-07
7.34599e-07
7.89882e-07
8.51087e-07
9.16662e-07
9.85137e-07
1.05513e-06
1.12536e-06
1.19468e-06
1.26207e-06
1.32666e-06
1.38774e-06
1.44473e-06
1.49722e-06
1.5449e-06
1.58761e-06
1.62527e-06
1.65792e-06
1.68566e-06
1.70865e-06
1.72711e-06
1.74129e-06
1.75147e-06
1.75795e-06
1.76104e-06
1.5919e-06
1.65503e-06
1.74376e-06
1.85338e-06
1.97968e-06
2.11872e-06
2.26684e-06
2.42061e-06
2.5769e-06
2.73286e-06
2.88599e-06
3.03412e-06
3.17545e-06
3.30852e-06
3.43221e-06
3.54569e-06
3.64844e-06
3.7402e-06
3.82089e-06
3.89067e-06
3.94982e-06
3.99874e-06
4.03796e-06
4.06804e-06
4.0896e-06
4.10332e-06
4.10984e-06
3.91066e-06
4.04887e-06
4.24252e-06
4.48082e-06
4.75413e-06
5.05357e-06
5.37098e-06
5.69888e-06
6.03054e-06
6.35997e-06
6.68201e-06
6.99226e-06
7.28714e-06
7.56381e-06
7.82012e-06
8.05461e-06
8.26636e-06
8.45498e-06
8.62052e-06
8.76338e-06
8.88426e-06
8.9841e-06
9.06401e-06
9.12523e-06
9.16908e-06
9.19694e-06
9.21018e-06
9.17326e-06
9.46023e-06
9.86131e-06
1.03533e-05
1.09156e-05
1.15294e-05
1.21775e-05
1.28445e-05
1.35167e-05
1.4182e-05
1.48303e-05
1.54528e-05
1.60429e-05
1.6595e-05
1.71052e-05
1.75709e-05
1.79906e-05
1.83637e-05
1.86905e-05
1.89721e-05
1.921e-05
1.94063e-05
1.95631e-05
1.96832e-05
1.97691e-05
1.98236e-05
1.98495e-05
2.05115e-05
2.10799e-05
2.18729e-05
2.28435e-05
2.39498e-05
2.51539e-05
2.64217e-05
2.77224e-05
2.90293e-05
3.0319e-05
3.15719e-05
3.27719e-05
3.39061e-05
3.49648e-05
3.5941e-05
3.68301e-05
3.76297e-05
3.83393e-05
3.896e-05
3.9494e-05
3.99446e-05
4.03157e-05
4.06121e-05
4.08387e-05
4.10007e-05
4.11034e-05
4.11522e-05
4.36735e-05
4.4752e-05
4.62547e-05
4.8091e-05
5.01803e-05
5.24501e-05
5.48352e-05
5.72781e-05
5.97282e-05
6.21423e-05
6.44842e-05
6.6724e-05
6.88384e-05
7.08095e-05
7.2625e-05
7.42767e-05
7.57607e-05
7.70764e-05
7.82261e-05
7.92144e-05
8.00475e-05
8.07333e-05
8.12805e-05
8.16986e-05
8.19973e-05
8.21866e-05
8.22763e-05
8.83124e-05
9.02878e-05
9.30395e-05
9.64009e-05
0.000100225
0.000104377
0.000108741
0.000113209
0.000117689
0.000122104
0.000126386
0.000130482
0.000134349
0.000137953
0.000141273
0.000144294
0.000147008
0.000149413
0.000151516
0.000153322
0.000154845
0.000156098
0.000157098
0.000157861
0.000158406
0.000158752
0.000158915
0.000169
0.000172494
0.000177364
0.00018332
0.000190102
0.000197478
0.00020524
0.000213204
0.000221206
0.000229108
0.00023679
0.000244155
0.000251126
0.000257641
0.000263656
0.000269143
0.000274084
0.000278476
0.000282322
0.000285635
0.000288433
0.00029074
0.000292584
0.000293995
0.000295003
0.000295643
0.000295947
0.000303811
0.000309676
0.000317861
0.000327884
0.000339324
0.000351797
0.000364961
0.000378511
0.000392178
0.000405727
0.000418956
0.000431698
0.000443813
0.000455193
0.000465753
0.000475435
0.000484202
0.000492033
0.000498927
0.000504896
0.000509964
0.000514163
0.000517535
0.000520127
0.000521989
0.000523175
0.00052374
0.000508118
0.000517117
0.00052968
0.000545075
0.000562658
0.000581847
0.000602122
0.00062302
0.000644129
0.000665093
0.000685602
0.000705398
0.000724265
0.000742032
0.000758563
0.000773762
0.000787564
0.000799931
0.000810853
0.00082034
0.000828421
0.00083514
0.000840555
0.00084473
0.000847741
0.000849665
0.000850586
0.000784005
0.000796091
0.000812935
0.000833529
0.000856984
0.000882505
0.000909383
0.000936992
0.000964783
0.000992285
0.0010191
0.00104489
0.0010694
0.0010924
0.00111375
0.00113332
0.00115105
0.00116689
0.00118086
0.00119296
0.00120325
0.00121179
0.00121866
0.00122395
0.00122776
0.0012302
0.00123136
0.00111074
0.00112456
0.00114374
0.00116709
0.00119352
0.0012221
0.001252
0.00128248
0.00131293
0.00134283
0.00137174
0.00139932
0.00142531
0.00144951
0.00147178
0.00149205
0.00151026
0.00152643
0.00154057
0.00155276
0.00156305
0.00157154
0.00157834
0.00158355
0.00158729
0.00158966
0.00159079
0.00144686
0.00146022
0.00147869
0.00150101
0.00152609
0.00155297
0.00158081
0.00160892
0.0016367
0.00166369
0.0016895
0.00171387
0.00173659
0.00175753
0.00177661
0.0017938
0.0018091
0.00182256
0.00183425
0.00184423
0.0018526
0.00185946
0.00186492
0.00186907
0.00187203
0.00187391
0.00187479
0.00174577
0.00175672
0.00177176
0.00178982
0.00180995
0.00183133
0.00185326
0.00187516
0.00189658
0.00191716
0.00193664
0.00195484
0.00197162
0.00198693
0.00200075
0.00201308
0.00202397
0.00203347
0.00204164
0.00204858
0.00205435
0.00205905
0.00206277
0.00206559
0.00206759
0.00206884
0.00206944
0.00197479
0.00198245
0.00199293
0.00200542
0.00201924
0.00203379
0.00204858
0.0020632
0.00207737
0.00209084
0.00210347
0.00211515
0.00212582
0.00213547
0.0021441
0.00215174
0.00215843
0.00216422
0.00216917
0.00217335
0.0021768
0.0021796
0.0021818
0.00218346
0.00218464
0.00218537
0.00218572
0.00212484
0.00212941
0.00213564
0.00214301
0.00215111
0.00215956
0.00216807
0.0021764
0.00218438
0.0021919
0.00219887
0.00220525
0.00221102
0.00221619
0.00222076
0.00222478
0.00222826
0.00223126
0.0022338
0.00223592
0.00223767
0.00223908
0.00224018
0.00224101
0.00224159
0.00224196
0.00224213
0.00220539
0.00220761
0.00221062
0.00221414
0.00221797
0.00222191
0.00222582
0.00222958
0.00223313
0.00223642
0.0022394
0.00224209
0.00224447
0.00224656
0.00224837
0.00224994
0.00225127
0.00225239
0.00225333
0.0022541
0.00225473
0.00225523
0.00225561
0.00225589
0.00225609
0.00225621
0.00225627
0.00223384
0.0022345
0.00223537
0.00223636
0.00223739
0.00223838
0.00223931
0.00224014
0.00224084
0.00224143
0.00224189
0.00224225
0.0022425
0.00224267
0.00224277
0.00224282
0.00224282
0.0022428
0.00224275
0.0022427
0.00224264
0.00224258
0.00224252
0.00224248
0.00224244
0.00224242
0.00224241
0.00222747
0.00222719
0.00222679
0.00222625
0.00222561
0.00222486
0.00222402
0.00222311
0.00222215
0.00222115
0.00222014
0.00221914
0.00221816
0.00221722
0.00221633
0.0022155
0.00221474
0.00221405
0.00221344
0.00221291
0.00221246
0.00221208
0.00221177
0.00221154
0.00221137
0.00221126
0.00221121
0.00219995
0.00219915
0.00219804
0.00219668
0.00219511
0.00219341
0.00219161
0.00218975
0.00218788
0.00218603
0.00218423
0.0021825
0.00218086
0.00217932
0.0021779
0.00217661
0.00217544
0.0021744
0.00217349
0.00217271
0.00217204
0.00217149
0.00217106
0.00217072
0.00217048
0.00217033
0.00217025
0.00216081
0.00215975
0.00215829
0.00215651
0.0021545
0.00215232
0.00215005
0.00214773
0.00214542
0.00214316
0.00214097
0.00213889
0.00213693
0.00213512
0.00213345
0.00213193
0.00213057
0.00212937
0.00212832
0.00212742
0.00212665
0.00212603
0.00212553
0.00212515
0.00212487
0.0021247
0.00212462
0.00211619
0.00211503
0.00211342
0.00211147
0.00210927
0.00210691
0.00210445
0.00210195
0.00209947
0.00209705
0.00209473
0.00209252
0.00209045
0.00208853
0.00208677
0.00208518
0.00208375
0.00208249
0.0020814
0.00208045
0.00207966
0.00207901
0.00207849
0.00207809
0.00207781
0.00207763
0.00207754
0.00206982
0.00206864
0.002067
0.00206502
0.00206279
0.00206039
0.00205791
0.00205539
0.00205289
0.00205046
0.00204812
0.00204591
0.00204384
0.00204192
0.00204016
0.00203858
0.00203716
0.0020359
0.00203481
0.00203388
0.00203309
0.00203244
0.00203192
0.00203153
0.00203125
0.00203107
0.00203098
0.00202385
0.00202269
0.00202109
0.00201915
0.00201697
0.00201463
0.0020122
0.00200974
0.00200731
0.00200494
0.00200267
0.00200051
0.0019985
0.00199664
0.00199493
0.0019934
0.00199202
0.0019908
0.00198975
0.00198884
0.00198808
0.00198745
0.00198695
0.00198657
0.00198629
0.00198612
0.00198604
0.00197944
0.00197833
0.00197679
0.00197493
0.00197283
0.00197059
0.00196826
0.00196591
0.00196358
0.00196131
0.00195914
0.00195708
0.00195515
0.00195337
0.00195175
0.00195028
0.00194896
0.0019478
0.00194679
0.00194593
0.0019452
0.0019446
0.00194412
0.00194376
0.0019435
0.00194333
0.00194325
0.00193715
0.00193609
0.00193463
0.00193286
0.00193087
0.00192874
0.00192653
0.0019243
0.00192209
0.00191994
0.00191788
0.00191592
0.0019141
0.00191241
0.00191087
0.00190948
0.00190824
0.00190714
0.00190618
0.00190536
0.00190467
0.0019041
0.00190365
0.00190331
0.00190306
0.0019029
0.00190283
0.00189717
0.00189617
0.00189479
0.00189312
0.00189124
0.00188923
0.00188714
0.00188503
0.00188295
0.00188092
0.00187897
0.00187713
0.0018754
0.00187381
0.00187236
0.00187104
0.00186987
0.00186883
0.00186793
0.00186716
0.00186651
0.00186597
0.00186555
0.00186522
0.00186499
0.00186484
0.00186477
0.00185951
0.00185856
0.00185726
0.00185569
0.00185392
0.00185202
0.00185005
0.00184806
0.0018461
0.00184418
0.00184235
0.00184061
0.00183899
0.00183749
0.00183612
0.00183488
0.00183377
0.00183279
0.00183194
0.00183121
0.0018306
0.0018301
0.0018297
0.00182939
0.00182917
0.00182903
0.00182896
0.00182405
0.00182316
0.00182193
0.00182045
0.00181878
0.00181699
0.00181513
0.00181326
0.0018114
0.0018096
0.00180787
0.00180623
0.0018047
0.00180329
0.00180199
0.00180082
0.00179978
0.00179886
0.00179806
0.00179737
0.00179679
0.00179631
0.00179594
0.00179565
0.00179544
0.00179531
0.00179524
0.00179063
0.0017898
0.00178864
0.00178723
0.00178566
0.00178397
0.00178222
0.00178045
0.00177869
0.00177699
0.00177535
0.00177381
0.00177236
0.00177102
0.0017698
0.0017687
0.00176771
0.00176684
0.00176608
0.00176543
0.00176489
0.00176444
0.00176408
0.0017638
0.00176361
0.00176348
0.00176343
0.00175908
0.00175829
0.00175719
0.00175586
0.00175437
0.00175277
0.00175111
0.00174944
0.00174778
0.00174616
0.00174461
0.00174315
0.00174178
0.00174051
0.00173936
0.00173831
0.00173738
0.00173655
0.00173583
0.00173522
0.0017347
0.00173427
0.00173393
0.00173367
0.00173349
0.00173337
0.00173331
0.0017292
0.00172844
0.0017274
0.00172614
0.00172473
0.00172321
0.00172163
0.00172004
0.00171847
0.00171693
0.00171546
0.00171407
0.00171277
0.00171157
0.00171047
0.00170948
0.00170859
0.0017078
0.00170712
0.00170654
0.00170604
0.00170564
0.00170532
0.00170507
0.00170489
0.00170478
0.00170473
0.00170081
0.00170009
0.0016991
0.0016979
0.00169655
0.00169511
0.00169361
0.00169209
0.00169059
0.00168913
0.00168773
0.00168641
0.00168517
0.00168402
0.00168297
0.00168203
0.00168118
0.00168043
0.00167978
0.00167922
0.00167876
0.00167837
0.00167806
0.00167783
0.00167766
0.00167755
0.0016775
0.00167376
0.00167307
0.00167212
0.00167098
0.00166969
0.00166831
0.00166688
0.00166543
0.001664
0.0016626
0.00166126
0.00165999
0.00165881
0.00165771
0.00165671
0.00165581
0.001655
0.00165428
0.00165366
0.00165313
0.00165268
0.00165231
0.00165202
0.00165179
0.00165163
0.00165153
0.00165148
0.00164789
0.00164723
0.00164632
0.00164522
0.00164399
0.00164267
0.0016413
0.00163991
0.00163853
0.0016372
0.00163591
0.0016347
0.00163356
0.00163251
0.00163155
0.00163068
0.00162991
0.00162922
0.00162862
0.00162811
0.00162768
0.00162733
0.00162705
0.00162683
0.00162668
0.00162658
0.00162653
0.00162307
0.00162244
0.00162157
0.00162052
0.00161933
0.00161806
0.00161674
0.00161541
0.00161408
0.0016128
0.00161156
0.0016104
0.0016093
0.00160829
0.00160737
0.00160654
0.00160579
0.00160513
0.00160456
0.00160406
0.00160365
0.00160331
0.00160304
0.00160283
0.00160268
0.00160259
0.00160254
0.0015992
0.0015986
0.00159776
0.00159674
0.0015956
0.00159437
0.0015931
0.00159181
0.00159054
0.0015893
0.00158811
0.00158699
0.00158593
0.00158496
0.00158407
0.00158326
0.00158254
0.00158191
0.00158135
0.00158088
0.00158048
0.00158015
0.00157989
0.00157969
0.00157954
0.00157945
0.00157941
0.00157618
0.00157559
0.00157478
0.0015738
0.0015727
0.00157151
0.00157028
0.00156904
0.00156781
0.00156661
0.00156546
0.00156438
0.00156336
0.00156242
0.00156156
0.00156078
0.00156008
0.00155947
0.00155893
0.00155847
0.00155809
0.00155777
0.00155751
0.00155732
0.00155718
0.00155709
0.00155705
0.00155392
0.00155335
0.00155257
0.00155162
0.00155055
0.0015494
0.00154821
0.00154701
0.00154582
0.00154466
0.00154355
0.00154249
0.00154151
0.00154059
0.00153976
0.00153901
0.00153833
0.00153774
0.00153722
0.00153677
0.0015364
0.00153609
0.00153585
0.00153566
0.00153552
0.00153544
0.0015354
0.00153236
0.00153181
0.00153105
0.00153012
0.00152909
0.00152798
0.00152682
0.00152566
0.0015245
0.00152337
0.00152229
0.00152127
0.00152031
0.00151943
0.00151862
0.00151789
0.00151723
0.00151666
0.00151615
0.00151572
0.00151536
0.00151506
0.00151482
0.00151464
0.00151451
0.00151443
0.00151439
0.00151143
0.0015109
0.00151016
0.00150926
0.00150826
0.00150718
0.00150606
0.00150492
0.0015038
0.00150271
0.00150166
0.00150066
0.00149973
0.00149887
0.00149809
0.00149737
0.00149674
0.00149618
0.00149569
0.00149527
0.00149491
0.00149462
0.00149439
0.00149421
0.00149409
0.00149401
0.00149397
0.0014911
0.00149058
0.00148986
0.00148899
0.00148801
0.00148696
0.00148587
0.00148477
0.00148367
0.00148261
0.00148159
0.00148062
0.00147972
0.00147888
0.00147811
0.00147742
0.0014768
0.00147626
0.00147578
0.00147537
0.00147503
0.00147475
0.00147452
0.00147435
0.00147423
0.00147415
0.00147411
0.00147132
0.00147081
0.00147011
0.00146926
0.00146831
0.00146729
0.00146622
0.00146515
0.00146409
0.00146305
0.00146206
0.00146112
0.00146024
0.00145942
0.00145868
0.001458
0.0014574
0.00145687
0.0014564
0.00145601
0.00145567
0.0014554
0.00145518
0.00145501
0.00145489
0.00145481
0.00145478
0.00145206
0.00145157
0.00145088
0.00145006
0.00144913
0.00144813
0.0014471
0.00144605
0.00144502
0.00144401
0.00144304
0.00144212
0.00144127
0.00144047
0.00143975
0.00143909
0.0014385
0.00143798
0.00143753
0.00143715
0.00143682
0.00143655
0.00143634
0.00143617
0.00143606
0.00143598
0.00143595
0.00143331
0.00143283
0.00143216
0.00143136
0.00143045
0.00142948
0.00142847
0.00142746
0.00142645
0.00142546
0.00142452
0.00142363
0.00142279
0.00142202
0.00142131
0.00142067
0.0014201
0.00141959
0.00141915
0.00141878
0.00141846
0.0014182
0.00141799
0.00141783
0.00141772
0.00141764
0.00141761
0.00141504
0.00141457
0.00141393
0.00141314
0.00141226
0.00141132
0.00141033
0.00140934
0.00140836
0.0014074
0.00140648
0.00140561
0.0014048
0.00140404
0.00140336
0.00140273
0.00140217
0.00140168
0.00140125
0.00140089
0.00140058
0.00140032
0.00140012
0.00139996
0.00139985
0.00139978
0.00139975
0.00139726
0.0013968
0.00139617
0.00139541
0.00139455
0.00139363
0.00139268
0.00139171
0.00139075
0.00138982
0.00138892
0.00138808
0.00138728
0.00138655
0.00138588
0.00138527
0.00138473
0.00138425
0.00138383
0.00138348
0.00138318
0.00138293
0.00138273
0.00138258
0.00138247
0.0013824
0.00138237
0.00137996
0.00137951
0.0013789
0.00137816
0.00137732
0.00137643
0.0013755
0.00137456
0.00137363
0.00137272
0.00137185
0.00137102
0.00137025
0.00136954
0.00136889
0.0013683
0.00136777
0.0013673
0.0013669
0.00136655
0.00136626
0.00136602
0.00136582
0.00136568
0.00136557
0.00136551
0.00136547
0.00136314
0.00136271
0.00136211
0.00136139
0.00136058
0.00135971
0.00135881
0.00135789
0.00135699
0.00135611
0.00135526
0.00135446
0.00135371
0.00135302
0.00135238
0.00135181
0.0013513
0.00135085
0.00135045
0.00135011
0.00134983
0.0013496
0.00134941
0.00134927
0.00134916
0.0013491
0.00134907
0.00134682
0.0013464
0.00134582
0.00134512
0.00134433
0.00134349
0.00134261
0.00134173
0.00134085
0.00133999
0.00133917
0.0013384
0.00133767
0.001337
0.00133638
0.00133583
0.00133533
0.00133489
0.00133451
0.00133418
0.00133391
0.00133368
0.0013335
0.00133336
0.00133326
0.0013332
0.00133317
0.00133101
0.0013306
0.00133004
0.00132936
0.0013286
0.00132778
0.00132693
0.00132608
0.00132523
0.0013244
0.00132361
0.00132286
0.00132215
0.0013215
0.00132091
0.00132037
0.00131989
0.00131947
0.0013191
0.00131878
0.00131851
0.00131829
0.00131812
0.00131799
0.00131789
0.00131783
0.0013178
0.00131573
0.00131534
0.0013148
0.00131414
0.0013134
0.00131262
0.0013118
0.00131097
0.00131015
0.00130935
0.00130858
0.00130786
0.00130718
0.00130655
0.00130598
0.00130546
0.001305
0.00130459
0.00130423
0.00130393
0.00130367
0.00130346
0.00130329
0.00130316
0.00130307
0.00130301
0.00130299
0.00130101
0.00130063
0.00130011
0.00129948
0.00129877
0.00129801
0.00129723
0.00129643
0.00129564
0.00129487
0.00129414
0.00129344
0.00129279
0.00129218
0.00129163
0.00129114
0.00129069
0.0012903
0.00128995
0.00128966
0.00128941
0.00128921
0.00128905
0.00128893
0.00128884
0.00128878
0.00128876
0.00128688
0.00128652
0.00128602
0.00128542
0.00128474
0.00128401
0.00128325
0.00128249
0.00128174
0.001281
0.0012803
0.00127963
0.001279
0.00127843
0.0012779
0.00127742
0.001277
0.00127662
0.00127629
0.00127601
0.00127578
0.00127558
0.00127543
0.00127531
0.00127523
0.00127517
0.00127515
0.00127338
0.00127304
0.00127256
0.00127198
0.00127134
0.00127064
0.00126992
0.0012692
0.00126848
0.00126777
0.0012671
0.00126647
0.00126587
0.00126532
0.00126482
0.00126437
0.00126396
0.00126361
0.00126329
0.00126303
0.0012628
0.00126262
0.00126247
0.00126236
0.00126228
0.00126223
0.0012622
0.00126055
0.00126023
0.00125977
0.00125923
0.00125861
0.00125796
0.00125727
0.00125658
0.0012559
0.00125524
0.0012546
0.001254
0.00125344
0.00125292
0.00125244
0.00125201
0.00125163
0.00125129
0.001251
0.00125075
0.00125053
0.00125036
0.00125022
0.00125011
0.00125004
0.00124999
0.00124997
0.00124844
0.00124813
0.00124771
0.00124719
0.00124661
0.00124599
0.00124535
0.0012447
0.00124406
0.00124344
0.00124284
0.00124227
0.00124175
0.00124126
0.00124081
0.00124041
0.00124005
0.00123973
0.00123946
0.00123922
0.00123902
0.00123886
0.00123873
0.00123863
0.00123856
0.00123851
0.00123849
0.00123709
0.0012368
0.0012364
0.00123592
0.00123538
0.00123481
0.00123421
0.0012336
0.001233
0.00123242
0.00123187
0.00123134
0.00123085
0.00123039
0.00122998
0.0012296
0.00122927
0.00122897
0.00122872
0.0012285
0.00122831
0.00122816
0.00122804
0.00122795
0.00122788
0.00122784
0.00122782
0.00122655
0.00122629
0.00122592
0.00122548
0.00122498
0.00122444
0.00122389
0.00122333
0.00122278
0.00122224
0.00122173
0.00122124
0.00122079
0.00122037
0.00121999
0.00121964
0.00121934
0.00121906
0.00121883
0.00121863
0.00121846
0.00121832
0.00121821
0.00121812
0.00121806
0.00121802
0.001218
0.00121688
0.00121663
0.0012163
0.00121589
0.00121544
0.00121495
0.00121444
0.00121393
0.00121343
0.00121294
0.00121247
0.00121203
0.00121162
0.00121124
0.00121089
0.00121058
0.0012103
0.00121005
0.00120984
0.00120965
0.0012095
0.00120937
0.00120927
0.00120919
0.00120914
0.0012091
0.00120909
0.00120811
0.00120789
0.00120758
0.00120722
0.00120681
0.00120637
0.00120591
0.00120546
0.001205
0.00120456
0.00120414
0.00120375
0.00120338
0.00120304
0.00120272
0.00120244
0.00120219
0.00120197
0.00120178
0.00120162
0.00120148
0.00120136
0.00120127
0.00120121
0.00120116
0.00120113
0.00120111
0.00120027
0.00120008
0.00119981
0.00119948
0.00119912
0.00119873
0.00119833
0.00119792
0.00119752
0.00119714
0.00119677
0.00119642
0.00119609
0.00119579
0.00119551
0.00119527
0.00119505
0.00119485
0.00119468
0.00119454
0.00119442
0.00119432
0.00119424
0.00119418
0.00119414
0.00119411
0.0011941
0.0011934
0.00119323
0.00119299
0.00119271
0.0011924
0.00119206
0.00119171
0.00119136
0.00119101
0.00119067
0.00119035
0.00119005
0.00118977
0.00118951
0.00118927
0.00118906
0.00118887
0.0011887
0.00118856
0.00118843
0.00118833
0.00118824
0.00118817
0.00118812
0.00118808
0.00118806
0.00118805
0.00118748
0.00118734
0.00118714
0.0011869
0.00118663
0.00118634
0.00118605
0.00118575
0.00118545
0.00118517
0.0011849
0.00118464
0.0011844
0.00118418
0.00118398
0.0011838
0.00118364
0.0011835
0.00118338
0.00118327
0.00118319
0.00118311
0.00118306
0.00118301
0.00118298
0.00118296
0.00118295
0.00118251
0.00118239
0.00118222
0.00118202
0.0011818
0.00118156
0.00118131
0.00118107
0.00118082
0.00118059
0.00118036
0.00118015
0.00117995
0.00117977
0.00117961
0.00117946
0.00117932
0.00117921
0.00117911
0.00117902
0.00117895
0.00117889
0.00117884
0.00117881
0.00117878
0.00117876
0.00117876
0.00117842
0.00117832
0.00117819
0.00117803
0.00117784
0.00117765
0.00117745
0.00117725
0.00117705
0.00117686
0.00117668
0.00117651
0.00117635
0.0011762
0.00117607
0.00117595
0.00117584
0.00117575
0.00117567
0.0011756
0.00117554
0.0011755
0.00117546
0.00117543
0.00117541
0.0011754
0.00117539
0.00117514
0.00117506
0.00117496
0.00117483
0.00117468
0.00117453
0.00117437
0.00117421
0.00117406
0.0011739
0.00117376
0.00117362
0.0011735
0.00117338
0.00117328
0.00117318
0.0011731
0.00117303
0.00117296
0.00117291
0.00117286
0.00117282
0.00117279
0.00117277
0.00117275
0.00117274
0.00117274
0.00117256
0.0011725
0.00117241
0.00117231
0.0011722
0.00117208
0.00117196
0.00117183
0.00117171
0.00117159
0.00117148
0.00117137
0.00117127
0.00117118
0.0011711
0.00117102
0.00117096
0.0011709
0.00117085
0.0011708
0.00117077
0.00117074
0.00117071
0.0011707
0.00117068
0.00117068
0.00117067
0.00117055
0.0011705
0.00117043
0.00117036
0.00117027
0.00117017
0.00117007
0.00116998
0.00116988
0.00116979
0.0011697
0.00116961
0.00116954
0.00116947
0.0011694
0.00116934
0.00116929
0.00116924
0.0011692
0.00116917
0.00116914
0.00116912
0.0011691
0.00116908
0.00116907
0.00116907
0.00116906
0.00116899
0.00116895
0.0011689
0.00116884
0.00116877
0.00116869
0.00116862
0.00116854
0.00116846
0.00116839
0.00116832
0.00116825
0.00116819
0.00116814
0.00116809
0.00116804
0.001168
0.00116796
0.00116793
0.0011679
0.00116788
0.00116786
0.00116785
0.00116784
0.00116783
0.00116782
0.00116782
0.00116778
0.00116776
0.00116772
0.00116767
0.00116761
0.00116756
0.0011675
0.00116744
0.00116738
0.00116732
0.00116727
0.00116722
0.00116717
0.00116713
0.00116709
0.00116705
0.00116702
0.00116699
0.00116697
0.00116695
0.00116693
0.00116692
0.00116691
0.0011669
0.00116689
0.00116689
0.00116689
0.00116688
0.00116686
0.00116683
0.0011668
0.00116676
0.00116672
0.00116668
0.00116664
0.00116659
0.00116655
0.00116652
0.00116648
0.00116645
0.00116642
0.0011664
0.00116637
0.00116635
0.00116633
0.00116632
0.00116631
0.0011663
0.00116629
0.00116628
0.00116627
0.00116627
0.00116627
0.00116627
0.00116626
0.00116625
0.00116623
0.00116621
0.00116619
0.00116617
0.00116614
0.00116612
0.0011661
0.00116607
0.00116605
0.00116603
0.00116602
0.001166
0.00116598
0.00116597
0.00116596
0.00116595
0.00116594
0.00116593
0.00116593
0.00116592
0.00116592
0.00116592
0.00116591
0.00116591
0.00116591
0.0011659
0.00116589
0.00116588
0.00116587
0.00116586
0.00116585
0.00116583
0.00116582
0.00116581
0.0011658
0.00116579
0.00116577
0.00116576
0.00116576
0.00116575
0.00116574
0.00116573
0.00116573
0.00116572
0.00116572
0.00116571
0.00116571
0.00116571
0.00116571
0.00116571
0.00116571
0.00116571
0.00116569
0.00116569
0.00116568
0.00116568
0.00116567
0.00116566
0.00116566
0.00116565
0.00116564
0.00116563
0.00116563
0.00116562
0.00116561
0.00116561
0.0011656
0.0011656
0.0011656
0.00116559
0.00116559
0.00116559
0.00116558
0.00116558
0.00116558
0.00116558
0.00116558
0.00116558
0.00116558
0.00116557
0.00116557
0.00116556
0.00116556
0.00116556