/*--------------------------------*- C++ -*----------------------------------*\
| =========                 |                                                 |
| \\      /  F ield         | OpenFOAM: The Open Source CFD Toolbox           |
|  \\    /   O peration     | Version:  2106                                  |
|   \\  /    A nd           | Website:  www.openfoam.com                      |
|    \\/     M anipulation  |                                                 |
\*---------------------------------------------------------------------------*/
FoamFile
{
    version     2.0;
    format      ascii;
    arch        "LSB;label=32;scalar=64";
    class       volVectorField;
    location    "90.00055";
    object      U_0;
}
// * * * * * * * * * * * * * * * * * * * * * * * * * * * * * * * * * * * * * //

dimensions      [0 1 -1 0 0 0 0];

internalField   nonuniform List<vector> 
3360
(
(0.161457 -0.00691758 -7.39099e-12)
(0.161892 -0.0107887 -1.03345e-11)
(0.162471 -0.0147407 -1.06414e-11)
(0.163139 -0.0184793 -7.52921e-12)
(0.163827 -0.0220295 -1.61373e-13)
(0.164463 -0.0253641 1.00081e-11)
(0.164969 -0.0284554 2.25081e-11)
(0.165262 -0.0312745 3.64341e-11)
(0.165262 -0.0338066 5.18012e-11)
(0.16483 -0.0359434 7.33767e-11)
(0.163547 -0.0377634 2.97953e-11)
(0.161447 -0.0391611 -2.03133e-12)
(0.158528 -0.0401282 -3.40485e-11)
(0.154765 -0.0406419 -1.37231e-11)
(0.150122 -0.0406837 -1.87554e-12)
(0.144555 -0.0402386 6.71303e-12)
(0.138021 -0.0392955 1.31548e-11)
(0.130475 -0.0378474 1.82979e-11)
(0.121871 -0.035892 2.26387e-11)
(0.112169 -0.0334314 2.63143e-11)
(0.101328 -0.0304723 3.08227e-11)
(0.0893091 -0.0270226 2.35241e-11)
(0.0760745 -0.0231088 1.81224e-11)
(0.0615631 -0.0187293 1.32809e-11)
(0.0457526 -0.0139233 8.99581e-12)
(0.0286186 -0.0086923 5.16213e-12)
(0.01013 -0.00292165 1.65267e-12)
(0.203084 -0.00476594 1.39034e-10)
(0.202951 -0.0072477 2.3213e-10)
(0.202636 -0.00964856 3.34828e-10)
(0.202017 -0.0117163 4.49112e-10)
(0.200975 -0.0134532 3.96222e-10)
(0.199395 -0.0148368 3.82589e-10)
(0.197169 -0.0158586 2.98553e-10)
(0.194207 -0.0165161 2.42859e-10)
(0.190436 -0.0167997 2.05127e-10)
(0.185857 -0.016796 1.79562e-10)
(0.180747 -0.0164334 1.63256e-10)
(0.174936 -0.015817 1.55319e-10)
(0.168395 -0.0149803 1.54753e-10)
(0.161096 -0.0139504 1.6128e-10)
(0.153011 -0.0127646 1.71314e-10)
(0.144125 -0.0114624 1.48442e-10)
(0.134446 -0.0100837 1.30336e-10)
(0.124 -0.00866867 1.17116e-10)
(0.112835 -0.00725646 1.07001e-10)
(0.101023 -0.00588504 9.83396e-11)
(0.0886441 -0.00458967 9.23516e-11)
(0.0757828 -0.00340554 7.94725e-11)
(0.0625223 -0.0023491 6.90176e-11)
(0.0489716 -0.00146663 5.87297e-11)
(0.035199 -0.000767137 4.87126e-11)
(0.0212682 -0.000279107 3.22154e-11)
(0.00723699 -2.39445e-05 1.05066e-11)
(0.228921 -0.00376487 7.12867e-11)
(0.227313 -0.00575075 1.02337e-10)
(0.22491 -0.00757443 1.07984e-10)
(0.221695 -0.00905189 7.51416e-11)
(0.217646 -0.0101931 1.70681e-10)
(0.212747 -0.0109968 2.18337e-10)
(0.206996 -0.0114788 2.40609e-10)
(0.200417 -0.011667 2.5056e-10)
(0.193046 -0.0115958 2.5137e-10)
(0.184928 -0.0112989 1.92722e-10)
(0.176108 -0.0108056 1.99409e-10)
(0.166664 -0.0101564 2.07244e-10)
(0.156622 -0.00936871 2.16631e-10)
(0.146056 -0.00848554 2.28156e-10)
(0.135077 -0.00754001 2.3949e-10)
(0.123804 -0.00656376 2.19765e-10)
(0.112351 -0.00558879 1.75935e-10)
(0.100826 -0.00464173 1.36269e-10)
(0.0893224 -0.00374731 1.02041e-10)
(0.0779111 -0.00292496 8.04166e-11)
(0.0666517 -0.00219003 6.24939e-11)
(0.0555968 -0.00155374 5.55791e-11)
(0.044791 -0.00102354 4.91345e-11)
(0.0342708 -0.00060306 4.2658e-11)
(0.024065 -0.000293077 2.97224e-11)
(0.0141959 -9.52054e-05 1.7307e-11)
(0.00468054 -2.69983e-06 5.58539e-12)
(0.252726 -0.00181184 -2.99584e-10)
(0.249999 -0.00267499 -4.90071e-10)
(0.246052 -0.00345926 -6.89276e-10)
(0.240979 -0.00405703 -5.44125e-10)
(0.234854 -0.00448456 -4.80328e-10)
(0.227749 -0.00472339 -3.50115e-10)
(0.219787 -0.00482023 -2.90816e-10)
(0.211056 -0.00477098 -2.76953e-10)
(0.201648 -0.00460286 -2.10099e-10)
(0.191661 -0.00434369 -1.20582e-10)
(0.181219 -0.00401092 -5.64945e-11)
(0.170412 -0.00362778 -1.17848e-11)
(0.159311 -0.00321586 1.89556e-11)
(0.147984 -0.00279608 3.96304e-11)
(0.136498 -0.00238549 5.28449e-11)
(0.124919 -0.00199704 6.0253e-11)
(0.11331 -0.001638 6.3631e-11)
(0.101727 -0.00131456 3.9701e-11)
(0.0902191 -0.00102899 1.44415e-11)
(0.0788297 -0.000781946 7.68016e-12)
(0.0675958 -0.000572982 4.55043e-13)
(0.0565486 -0.000400706 1.03604e-11)
(0.045714 -0.000263008 8.70473e-12)
(0.0351135 -0.000157248 6.67742e-12)
(0.0247643 -8.03559e-05 4.55923e-12)
(0.0146802 -2.93476e-05 2.60628e-12)
(0.00487179 -3.67676e-06 8.27172e-13)
(0.255271 -0.000894653 2.08917e-10)
(0.251999 -0.00136605 4.42648e-11)
(0.247313 -0.00176126 -2.41865e-11)
(0.241373 -0.00204415 -2.88257e-11)
(0.234315 -0.00221657 -6.27596e-14)
(0.226271 -0.00231662 5.37011e-11)
(0.217363 -0.0023243 1.35266e-10)
(0.207722 -0.00227453 1.55454e-10)
(0.197471 -0.00217393 1.28595e-10)
(0.186725 -0.00203581 1.29482e-10)
(0.175596 -0.00187085 1.47672e-10)
(0.164185 -0.00168777 1.18744e-10)
(0.15259 -0.0014946 1.01403e-10)
(0.140895 -0.00129883 8.85919e-11)
(0.12918 -0.00110697 7.88598e-11)
(0.117513 -0.00092426 7.12945e-11)
(0.105955 -0.000754616 6.53552e-11)
(0.0945581 -0.000600748 6.05459e-11)
(0.0833668 -0.00046434 5.6885e-11)
(0.0724174 -0.000346243 5.4301e-11)
(0.0617392 -0.000246642 5.25314e-11)
(0.0513555 -0.000165217 5.10329e-11)
(0.0412836 -0.000101266 3.40648e-11)
(0.0315359 -5.38121e-05 2.52569e-11)
(0.0221204 -2.17945e-05 1.74076e-11)
(0.0130413 -4.41886e-06 1.00807e-11)
(0.00429956 1.51897e-06 3.24605e-12)
(0.263299 -0.000461497 3.03927e-11)
(0.259536 -0.000652027 2.93846e-11)
(0.254221 -0.000816476 3.03242e-11)
(0.247602 -0.000925002 3.76456e-11)
(0.239895 -0.000984214 5.06256e-11)
(0.231285 -0.000998009 6.68478e-11)
(0.221895 -0.000976169 8.27917e-11)
(0.211852 -0.000926743 9.41395e-11)
(0.201278 -0.000857508 1.0273e-10)
(0.190284 -0.000775666 1.11569e-10)
(0.178975 -0.00068735 1.21486e-10)
(0.167445 -0.000597552 8.36694e-11)
(0.155776 -0.000510149 5.08763e-11)
(0.144041 -0.000427976 2.13262e-11)
(0.132303 -0.000352934 -5.81102e-12)
(0.120619 -0.000286128 -3.07426e-11)
(0.109032 -0.000228006 -2.70832e-11)
(0.0975842 -0.0001785 -2.2977e-11)
(0.0863066 -0.000137164 -2.01553e-11)
(0.0752264 -0.000103297 -6.19352e-12)
(0.064366 -7.60437e-05 6.34237e-12)
(0.0537432 -5.44768e-05 8.45546e-12)
(0.0433723 -3.76614e-05 1.06822e-11)
(0.0332647 -2.4698e-05 1.19445e-11)
(0.0234291 -1.46802e-05 1.29414e-11)
(0.0138718 -6.70669e-06 7.54644e-12)
(0.00459748 -1.67639e-06 2.44088e-12)
(0.26261 -0.000216699 2.74051e-11)
(0.258714 -0.000346752 3.96192e-11)
(0.253209 -0.000457151 4.56537e-11)
(0.246351 -0.000540634 5.27427e-11)
(0.238357 -0.000598033 6.12929e-11)
(0.229416 -0.000628932 7.30743e-11)
(0.21969 -0.000635439 8.62903e-12)
(0.209329 -0.000621839 -4.67866e-11)
(0.198464 -0.000592642 -9.99377e-11)
(0.187215 -0.000552132 -9.95168e-11)
(0.175691 -0.00050409 -1.05566e-10)
(0.163987 -0.000451701 -1.18904e-10)
(0.152187 -0.00039755 -1.37596e-10)
(0.140367 -0.000343668 -1.63553e-10)
(0.12859 -0.000291604 -1.51052e-10)
(0.116914 -0.0002425 -1.46525e-10)
(0.105385 -0.000197167 -1.44994e-10)
(0.0940448 -0.000156153 -1.44571e-10)
(0.0829267 -0.000119799 -1.29612e-10)
(0.0720585 -8.82877e-05 -1.1227e-10)
(0.0614624 -6.16828e-05 -9.06633e-11)
(0.0511559 -3.99546e-05 -6.5641e-11)
(0.041152 -2.30006e-05 -5.25409e-11)
(0.03146 -1.06595e-05 -3.90731e-11)
(0.022086 -2.78179e-06 -2.66905e-11)
(0.0130331 6.58305e-07 -1.53653e-11)
(0.00430197 1.04849e-06 -4.92524e-12)
(0.265404 -9.50573e-05 2.39522e-10)
(0.261449 -0.00012394 4.07417e-10)
(0.255868 -0.000151735 1.57228e-10)
(0.248926 -0.000169543 -1.4016e-11)
(0.240848 -0.000178138 -1.56245e-10)
(0.231828 -0.000178057 -2.99699e-10)
(0.222038 -0.000170693 -3.69203e-10)
(0.21163 -0.000157853 -3.55788e-10)
(0.200738 -0.00014141 -3.73428e-10)
(0.18948 -0.000123088 -3.54832e-10)
(0.17796 -0.000104336 -2.99772e-10)
(0.166271 -8.62788e-05 -2.58276e-10)
(0.15449 -6.97131e-05 -2.26181e-10)
(0.142686 -5.51386e-05 -1.99548e-10)
(0.130917 -4.28007e-05 -1.75811e-10)
(0.119234 -3.27408e-05 -1.5498e-10)
(0.107678 -2.48446e-05 -1.61608e-10)
(0.0962845 -1.88878e-05 -1.68297e-10)
(0.0850835 -1.45749e-05 -1.67005e-10)
(0.074099 -1.15715e-05 -1.50153e-10)
(0.0633506 -9.53086e-06 -1.35026e-10)
(0.0528544 -8.11348e-06 -1.10855e-10)
(0.042623 -7.00466e-06 -8.97718e-11)
(0.032666 -5.92366e-06 -5.85983e-11)
(0.0229909 -4.583e-06 -4.15914e-11)
(0.0136025 -2.65943e-06 -2.42608e-11)
(0.00450436 -9.83771e-07 -7.8458e-12)
(0.264654 -7.99372e-05 6.07969e-11)
(0.260634 -0.000132059 7.72916e-11)
(0.254963 -0.00017447 5.49197e-11)
(0.247914 -0.000205787 2.82942e-11)
(0.239717 -0.000226763 1.1897e-11)
(0.230573 -0.000238257 -1.00342e-10)
(0.22066 -0.000241496 -1.7892e-10)
(0.210132 -0.000237847 -2.33696e-10)
(0.199128 -0.000228693 -2.73953e-10)
(0.187768 -0.000215336 -3.03919e-10)
(0.176158 -0.000198945 -3.29069e-10)
(0.164391 -0.000180539 -3.52785e-10)
(0.152549 -0.000160979 -3.31186e-10)
(0.140702 -0.000140986 -3.14823e-10)
(0.128911 -0.00012115 -3.04141e-10)
(0.117227 -0.000101953 -2.98279e-10)
(0.105695 -8.37833e-05 -2.96412e-10)
(0.0943523 -6.69505e-05 -2.96221e-10)
(0.0832299 -5.16975e-05 -2.85451e-10)
(0.0723532 -3.82097e-05 -2.56273e-10)
(0.061743 -2.66225e-05 -2.27319e-10)
(0.0514154 -1.70274e-05 -1.85062e-10)
(0.0413828 -9.47505e-06 -1.45057e-10)
(0.0316539 -3.97804e-06 -1.0843e-10)
(0.0222348 -5.44696e-07 -7.45492e-11)
(0.0131287 7.60943e-07 -4.31168e-11)
(0.00433675 5.52472e-07 -1.3859e-11)
(0.266169 -3.52871e-05 -5.3508e-12)
(0.262138 -4.22271e-05 -2.1405e-11)
(0.256454 -5.00101e-05 -5.55229e-11)
(0.249394 -5.45983e-05 -1.00191e-10)
(0.24119 -5.63499e-05 -1.52625e-10)
(0.232044 -5.54868e-05 -2.12471e-10)
(0.222134 -5.24934e-05 -2.71086e-10)
(0.211616 -4.79415e-05 -3.26022e-10)
(0.200626 -4.24093e-05 -3.76971e-10)
(0.189284 -3.64226e-05 -3.74531e-10)
(0.177695 -3.0423e-05 -3.74007e-10)
(0.165949 -2.47534e-05 -3.75613e-10)
(0.154123 -1.96571e-05 -3.79196e-10)
(0.142286 -1.52841e-05 -3.86262e-10)
(0.130495 -1.17027e-05 -3.5493e-10)
(0.118799 -8.91372e-06 -3.30094e-10)
(0.10724 -6.86377e-06 -3.09576e-10)
(0.0958527 -5.45936e-06 -2.92744e-10)
(0.0846659 -4.57945e-06 -2.60769e-10)
(0.0737038 -4.08703e-06 -2.20235e-10)
(0.0629857 -3.83864e-06 -1.8553e-10)
(0.0525274 -3.69244e-06 -1.40688e-10)
(0.042341 -3.51647e-06 -1.11892e-10)
(0.032436 -3.19193e-06 -8.40606e-11)
(0.0228191 -2.58146e-06 -5.80726e-11)
(0.013495 -1.51118e-06 -3.36974e-11)
(0.00446637 -7.41289e-07 -1.08511e-11)
(0.265904 -4.36719e-05 2.14123e-10)
(0.261843 -7.30597e-05 3.53736e-10)
(0.256119 -9.72071e-05 8.1418e-11)
(0.249009 -0.000115543 -1.19798e-10)
(0.24075 -0.000128447 -2.87999e-10)
(0.231545 -0.000136327 -4.49699e-10)
(0.221574 -0.00013975 -5.3104e-10)
(0.210995 -0.000139338 -5.20154e-10)
(0.199945 -0.000135726 -5.38405e-10)
(0.188545 -0.000129527 -5.13716e-10)
(0.176901 -0.000121313 -4.53646e-10)
(0.165104 -0.000111608 -4.04321e-10)
(0.153234 -0.000100881 -3.62236e-10)
(0.141361 -8.95452e-05 -3.24418e-10)
(0.129543 -7.79674e-05 -2.87897e-10)
(0.117832 -6.64613e-05 -2.53203e-10)
(0.10627 -5.53051e-05 -2.52144e-10)
(0.0948946 -4.47465e-05 -2.48523e-10)
(0.0837355 -3.4996e-05 -2.32009e-10)
(0.0728177 -2.62278e-05 -2.05105e-10)
(0.0621615 -1.85795e-05 -1.7967e-10)
(0.0517829 -1.21535e-05 -1.46455e-10)
(0.0416942 -7.0188e-06 -1.16355e-10)
(0.0319042 -3.21106e-06 -7.97578e-11)
(0.0224192 -7.42269e-07 -5.57611e-11)
(0.0132429 3.62421e-07 -3.24453e-11)
(0.00437657 4.84471e-08 -1.04566e-11)
(0.267144 -3.16e-05 4.78763e-11)
(0.263088 -4.11831e-05 5.37272e-11)
(0.257371 -5.10954e-05 1.74918e-11)
(0.250271 -5.83634e-05 -2.10173e-11)
(0.242024 -6.31752e-05 -5.67966e-11)
(0.232835 -6.55962e-05 -1.62149e-10)
(0.222881 -6.5879e-05 -2.39313e-10)
(0.21232 -6.43589e-05 -2.87279e-10)
(0.201287 -6.14059e-05 -3.16707e-10)
(0.189902 -5.73887e-05 -3.32297e-10)
(0.17827 -5.26507e-05 -3.38819e-10)
(0.16648 -4.74958e-05 -3.41144e-10)
(0.154611 -4.2181e-05 -3.42149e-10)
(0.14273 -3.69111e-05 -3.43673e-10)
(0.130895 -3.18045e-05 -3.472e-10)
(0.119154 -2.71217e-05 -3.52741e-10)
(0.107551 -2.27159e-05 -3.28382e-10)
(0.096121 -1.87773e-05 -3.07401e-10)
(0.0848931 -1.52892e-05 -2.74905e-10)
(0.0738921 -1.2249e-05 -2.25161e-10)
(0.0631379 -9.63517e-06 -1.78812e-10)
(0.0526465 -7.40893e-06 -1.35981e-10)
(0.0424305 -5.52255e-06 -9.66648e-11)
(0.0324992 -3.92053e-06 -6.75857e-11)
(0.0228597 -2.50369e-06 -4.08571e-11)
(0.0135166 -1.12668e-06 -2.36202e-11)
(0.0044725 -8.84369e-07 -7.599e-12)
(0.267763 -7.19331e-05 -4.10268e-11)
(0.263692 -0.000112788 -7.3014e-11)
(0.257953 -0.000148196 -1.12046e-10)
(0.250826 -0.000175491 -1.56849e-10)
(0.242547 -0.000195019 -2.06444e-10)
(0.23332 -0.000207102 -2.61222e-10)
(0.223325 -0.000212374 -3.16376e-10)
(0.212718 -0.000211633 -3.69782e-10)
(0.201636 -0.000205782 -4.19342e-10)
(0.190199 -0.00019576 -4.11901e-10)
(0.178513 -0.000182504 -4.07249e-10)
(0.166668 -0.000166912 -4.05829e-10)
(0.154743 -0.000149811 -4.07777e-10)
(0.142807 -0.000131953 -4.11079e-10)
(0.130919 -0.000114027 -3.80612e-10)
(0.11913 -9.64423e-05 -3.52906e-10)
(0.107483 -7.98652e-05 -3.27895e-10)
(0.0960157 -6.4481e-05 -3.04055e-10)
(0.0847581 -5.0557e-05 -2.74462e-10)
(0.0737359 -3.82464e-05 -2.31129e-10)
(0.0629698 -2.76399e-05 -1.91573e-10)
(0.0524763 -1.87812e-05 -1.47439e-10)
(0.0422684 -1.16766e-05 -1.16506e-10)
(0.0323556 -6.29689e-06 -8.75912e-11)
(0.0227447 -2.55646e-06 -6.04359e-11)
(0.01344 -3.44595e-07 -3.50251e-11)
(0.00444366 -6.84389e-07 -1.12696e-11)
(0.269938 -8.15502e-05 -8.30293e-11)
(0.265855 -0.000118779 -1.28166e-10)
(0.260101 -0.000152785 -1.81345e-10)
(0.252956 -0.000178576 -2.36847e-10)
(0.244654 -0.000196522 -2.91924e-10)
(0.235402 -0.000206889 -3.45123e-10)
(0.225379 -0.000210362 -3.96674e-10)
(0.214741 -0.000207849 -4.45629e-10)
(0.203624 -0.000200367 -4.95468e-10)
(0.19215 -0.000188967 -4.75175e-10)
(0.180421 -0.000174674 -4.62877e-10)
(0.168529 -0.000158444 -4.53507e-10)
(0.156552 -0.000141134 -4.46432e-10)
(0.144557 -0.000123483 -4.40575e-10)
(0.132604 -0.000106103 -4.0609e-10)
(0.120741 -8.94838e-05 -3.74967e-10)
(0.109011 -7.39915e-05 -3.46644e-10)
(0.09745 -5.98717e-05 -3.20095e-10)
(0.0860872 -4.72752e-05 -2.8727e-10)
(0.0749481 -3.62738e-05 -2.41871e-10)
(0.0640533 -2.68765e-05 -2.01141e-10)
(0.0534197 -1.90449e-05 -1.5556e-10)
(0.0430608 -1.271e-05 -1.22164e-10)
(0.0329869 -7.77342e-06 -9.15773e-11)
(0.0232058 -4.04904e-06 -6.3128e-11)
(0.0137228 -1.27814e-06 -3.65728e-11)
(0.0045413 -1.55082e-06 -1.17656e-11)
(0.272236 -0.000135223 2.71515e-10)
(0.26814 -0.000206488 -2.63214e-10)
(0.262365 -0.000270298 -1.72189e-10)
(0.255191 -0.000320387 -1.19108e-10)
(0.246856 -0.000357285 -1.03591e-10)
(0.237562 -0.000381359 -1.30597e-10)
(0.227489 -0.000393532 -1.69143e-10)
(0.216793 -0.000395037 -1.98454e-10)
(0.205611 -0.000387309 -2.1766e-10)
(0.19406 -0.000371872 -2.27549e-10)
(0.182247 -0.000350263 -2.30602e-10)
(0.170261 -0.000323968 -2.28581e-10)
(0.158182 -0.00029438 -2.22652e-10)
(0.146077 -0.000262774 -2.1361e-10)
(0.134008 -0.000230285 -2.02082e-10)
(0.122023 -0.000197897 -1.89007e-10)
(0.110169 -0.000166453 -1.75602e-10)
(0.0984812 -0.000136668 -1.62554e-10)
(0.0869923 -0.000109121 -1.34128e-10)
(0.0757288 -8.426e-05 -1.16833e-10)
(0.0647126 -6.24071e-05 -9.47602e-11)
(0.0539617 -4.37708e-05 -7.75252e-11)
(0.0434905 -2.84655e-05 -5.20705e-11)
(0.03331 -1.65113e-05 -3.97325e-11)
(0.0234285 -7.76926e-06 -2.76893e-11)
(0.0138515 -2.01098e-06 -1.61359e-11)
(0.00458262 -1.97736e-06 -5.20973e-12)
(0.276783 -0.000179278 1.03574e-10)
(0.272665 -0.000267452 1.67591e-10)
(0.266858 -0.000347411 -2.44112e-10)
(0.25964 -0.000409528 -2.17739e-10)
(0.251247 -0.000454474 -2.10022e-10)
(0.241882 -0.000482711 -2.23835e-10)
(0.231723 -0.000495502 -2.51504e-10)
(0.220924 -0.00049457 -2.87161e-10)
(0.209623 -0.000481918 -3.26476e-10)
(0.197939 -0.000459672 -3.15642e-10)
(0.185977 -0.000429956 -3.10587e-10)
(0.173827 -0.000394803 -3.10434e-10)
(0.161571 -0.000356089 -3.14589e-10)
(0.149276 -0.000315491 -3.21401e-10)
(0.137006 -0.000274464 -2.94895e-10)
(0.12481 -0.000234235 -2.72815e-10)
(0.112735 -0.000195799 -2.54506e-10)
(0.10082 -0.000159937 -2.38625e-10)
(0.0890972 -0.000127229 -2.16919e-10)
(0.0775943 -9.80743e-05 -1.83464e-10)
(0.0663345 -7.27172e-05 -1.52677e-10)
(0.0553369 -5.12688e-05 -1.16775e-10)
(0.0446167 -3.37399e-05 -9.27916e-11)
(0.0341859 -2.00432e-05 -6.95276e-11)
(0.0240537 -9.88403e-06 -4.78935e-11)
(0.0142266 -2.83643e-06 -2.77285e-11)
(0.00470883 -3.0692e-06 -8.91379e-12)
(0.282641 -0.000233247 -3.76036e-10)
(0.278489 -0.000352386 -6.32441e-10)
(0.272631 -0.000458374 -5.15015e-10)
(0.265345 -0.000539847 -4.71584e-10)
(0.256866 -0.000597816 -4.72318e-10)
(0.247396 -0.000633207 -4.9883e-10)
(0.237112 -0.000647988 -5.42531e-10)
(0.22617 -0.000644704 -5.99426e-10)
(0.214704 -0.0006262 -6.03489e-10)
(0.202836 -0.000595415 -5.46687e-10)
(0.19067 -0.000555227 -5.10064e-10)
(0.178298 -0.000508337 -4.84927e-10)
(0.165803 -0.000457201 -4.67799e-10)
(0.153254 -0.000403977 -4.54197e-10)
(0.140715 -0.000350511 -4.11042e-10)
(0.12824 -0.000298337 -3.72628e-10)
(0.115875 -0.000248685 -3.39692e-10)
(0.103663 -0.000202506 -3.14495e-10)
(0.0916376 -0.000160503 -2.74357e-10)
(0.0798287 -0.000123157 -2.31268e-10)
(0.0682616 -9.07589e-05 -1.92142e-10)
(0.0569569 -6.34425e-05 -1.48536e-10)
(0.0459316 -4.12223e-05 -1.15939e-10)
(0.0351993 -2.39922e-05 -8.63465e-11)
(0.0247703 -1.13802e-05 -5.92607e-11)
(0.0146522 -2.84858e-06 -3.42248e-11)
(0.00485033 -3.99922e-06 -1.09851e-11)
(0.29184 -0.000284811 -3.35066e-10)
(0.287639 -0.000425689 -5.50004e-10)
(0.281706 -0.000551377 -7.5547e-10)
(0.27432 -0.000647275 -6.18086e-10)
(0.265712 -0.000714641 -5.39953e-10)
(0.256084 -0.000754726 -4.9566e-10)
(0.24561 -0.000770056 -4.66609e-10)
(0.234447 -0.000763854 -4.44097e-10)
(0.222728 -0.000739694 -4.23012e-10)
(0.210575 -0.000701224 -4.02293e-10)
(0.198094 -0.000651974 -3.8238e-10)
(0.185378 -0.000595221 -3.63137e-10)
(0.172511 -0.0005339 -3.43851e-10)
(0.159567 -0.000470562 -3.27619e-10)
(0.146611 -0.000407355 -2.74933e-10)
(0.133699 -0.000346035 -2.30372e-10)
(0.120884 -0.000287986 -2.11087e-10)
(0.108207 -0.000234255 -1.94855e-10)
(0.095708 -0.000185589 -1.67361e-10)
(0.0834185 -0.000142476 -1.41647e-10)
(0.0713667 -0.000105184 -1.17462e-10)
(0.0595756 -7.38003e-05 -9.44721e-11)
(0.0480646 -4.8284e-05 -7.28089e-11)
(0.0368492 -2.8459e-05 -5.24829e-11)
(0.0259415 -1.38061e-05 -3.35149e-11)
(0.0153508 -3.58903e-06 -1.61234e-11)
(0.00508382 -5.53205e-06 -5.08204e-12)
(0.304384 -0.000332076 -4.68309e-10)
(0.30011 -0.000499209 -7.41689e-10)
(0.294068 -0.000646443 -6.40908e-10)
(0.286532 -0.000757732 -5.73696e-10)
(0.277734 -0.00083468 -5.35848e-10)
(0.267873 -0.000879125 -5.1646e-10)
(0.257122 -0.000894355 -5.10203e-10)
(0.245635 -0.00088444 -5.1429e-10)
(0.233549 -0.000853797 -5.23381e-10)
(0.220985 -0.000806864 -4.85044e-10)
(0.208052 -0.000747867 -4.54776e-10)
(0.194846 -0.000680675 -4.33134e-10)
(0.181455 -0.000608707 -4.17848e-10)
(0.167957 -0.000534894 -4.06265e-10)
(0.15442 -0.000461673 -3.67864e-10)
(0.140907 -0.000391006 -3.34387e-10)
(0.127473 -0.000324418 -3.05884e-10)
(0.114166 -0.000263043 -2.79131e-10)
(0.101027 -0.000207672 -2.47886e-10)
(0.0880934 -0.000158803 -2.10789e-10)
(0.0753966 -0.000116692 -1.73713e-10)
(0.0629628 -8.13948e-05 -1.36302e-10)
(0.0508141 -5.28339e-05 -1.06552e-10)
(0.0389688 -3.07802e-05 -7.97566e-11)
(0.0274411 -1.45842e-05 -5.48122e-11)
(0.0162423 -3.34793e-06 -3.167e-11)
(0.00538051 -7.04939e-06 -1.01643e-11)
(0.322386 -0.00035841 -4.93805e-10)
(0.318002 -0.0005351 -8.09563e-10)
(0.311791 -0.000690338 -6.79427e-10)
(0.30403 -0.000806577 -6.24231e-10)
(0.294944 -0.000885583 -5.95504e-10)
(0.284731 -0.000929638 -5.81791e-10)
(0.273563 -0.000942559 -5.77749e-10)
(0.261594 -0.000928977 -5.80111e-10)
(0.248962 -0.000893828 -5.83598e-10)
(0.235792 -0.000841994 -5.46087e-10)
(0.222196 -0.000778053 -5.13545e-10)
(0.208276 -0.000706128 -4.87719e-10)
(0.194124 -0.00062981 -4.67359e-10)
(0.179826 -0.000552128 -4.51784e-10)
(0.165456 -0.000475558 -4.06574e-10)
(0.151083 -0.000402062 -3.67831e-10)
(0.136768 -0.000333133 -3.3461e-10)
(0.122565 -0.000269855 -3.03809e-10)
(0.10852 -0.00021296 -2.69917e-10)
(0.0946769 -0.000162883 -2.26575e-10)
(0.0810702 -0.000119818 -1.89003e-10)
(0.0677309 -8.37661e-05 -1.4681e-10)
(0.0546848 -5.46046e-05 -1.14789e-10)
(0.0419531 -3.20593e-05 -8.56924e-11)
(0.0295531 -1.53468e-05 -5.88186e-11)
(0.0174983 -3.39022e-06 -3.39611e-11)
(0.00579882 -9.02503e-06 -1.08937e-11)
(0.346687 -0.000360567 -1.47643e-10)
(0.34213 -0.000540315 -2.19934e-10)
(0.335661 -0.000696541 -2.6094e-10)
(0.327553 -0.000812543 -2.8226e-10)
(0.318031 -0.00089022 -2.90259e-10)
(0.307291 -0.000932284 -2.91259e-10)
(0.295507 -0.000942917 -2.84301e-10)
(0.282834 -0.000927062 -3.32113e-10)
(0.269415 -0.000889888 -3.6794e-10)
(0.25538 -0.000836423 -3.47917e-10)
(0.240848 -0.000771314 -3.27471e-10)
(0.225931 -0.000698694 -3.061e-10)
(0.210728 -0.000622115 -2.84114e-10)
(0.195334 -0.00054454 -2.61895e-10)
(0.179833 -0.000468366 -2.39594e-10)
(0.164301 -0.000395472 -2.17595e-10)
(0.148807 -0.000327274 -1.95365e-10)
(0.133413 -0.000264788 -1.7228e-10)
(0.118174 -0.000208692 -1.45551e-10)
(0.103136 -0.000159381 -1.26385e-10)
(0.0883429 -0.000117022 -9.96968e-11)
(0.0738287 -8.16004e-05 -8.52284e-11)
(0.0596238 -5.29974e-05 -6.22687e-11)
(0.045753 -3.09377e-05 -4.67179e-11)
(0.0322367 -1.4548e-05 -3.21487e-11)
(0.019091 -2.62805e-06 -1.85885e-11)
(0.00632795 -1.09905e-05 -5.96655e-12)
(0.379481 -0.000329658 -3.29366e-10)
(0.374649 -0.000491678 -5.36793e-10)
(0.367773 -0.00063216 -4.23331e-10)
(0.359129 -0.000736002 -3.64952e-10)
(0.348945 -0.000804893 -3.33913e-10)
(0.337418 -0.00084153 -3.16818e-10)
(0.324726 -0.000849883 -3.07596e-10)
(0.311032 -0.000834566 -3.03238e-10)
(0.296487 -0.000800336 -3.00655e-10)
(0.281231 -0.000751763 -2.98006e-10)
(0.265395 -0.000693022 -2.95584e-10)
(0.249102 -0.000627786 -2.93829e-10)
(0.232464 -0.000559186 -2.93421e-10)
(0.215586 -0.000489813 -2.95774e-10)
(0.198564 -0.00042175 -2.71671e-10)
(0.181486 -0.000356626 -2.52443e-10)
(0.16443 -0.000295664 -2.36315e-10)
(0.147467 -0.000239745 -2.20811e-10)
(0.130659 -0.000189457 -1.99725e-10)
(0.114063 -0.000145152 -1.71895e-10)
(0.0977248 -0.000106983 -1.48037e-10)
(0.0816863 -7.49543e-05 -1.17607e-10)
(0.0659819 -4.89893e-05 -9.74838e-11)
(0.0506407 -2.88612e-05 -7.22071e-11)
(0.035686 -1.3647e-05 -4.95362e-11)
(0.0211368 -2.05399e-06 -2.85574e-11)
(0.00700721 -1.31699e-05 -9.1504e-12)
(0.421742 -0.000270158 -3.48227e-10)
(0.416483 -0.000405166 -5.49373e-10)
(0.408986 -0.000521577 -4.45122e-10)
(0.399537 -0.000607837 -3.83152e-10)
(0.388376 -0.000665335 -3.43522e-10)
(0.37571 -0.000696413 -3.17001e-10)
(0.361729 -0.000704373 -2.98468e-10)
(0.34661 -0.000692991 -2.84917e-10)
(0.330517 -0.000666116 -2.74538e-10)
(0.313609 -0.000627414 -2.66271e-10)
(0.29603 -0.000580222 -2.59588e-10)
(0.27792 -0.000527469 -2.54089e-10)
(0.259407 -0.000471654 -2.49883e-10)
(0.240611 -0.000414861 -2.44714e-10)
(0.221642 -0.000358784 -2.21539e-10)
(0.202599 -0.000304766 -1.99441e-10)
(0.183573 -0.000253847 -1.80237e-10)
(0.164644 -0.0002068 -1.62837e-10)
(0.145885 -0.000164177 -1.40187e-10)
(0.127357 -0.000126342 -1.07598e-10)
(0.109116 -9.3502e-05 -7.98134e-11)
(0.0912084 -6.5742e-05 -5.93697e-11)
(0.0736729 -4.30928e-05 -4.61838e-11)
(0.0565427 -2.54335e-05 -3.4499e-11)
(0.0398444 -1.18542e-05 -2.36975e-11)
(0.0235992 -1.037e-06 -1.36924e-11)
(0.00782327 -1.51398e-05 -4.39262e-12)
(0.474632 -0.000182644 -2.29152e-10)
(0.468745 -0.00027366 -3.66804e-10)
(0.460344 -0.000352759 -4.82588e-10)
(0.449745 -0.000412432 -3.70111e-10)
(0.43721 -0.000453451 -2.88253e-10)
(0.42297 -0.000477258 -2.27259e-10)
(0.407238 -0.000485867 -1.77637e-10)
(0.390212 -0.000481579 -1.33429e-10)
(0.372081 -0.000466744 -9.57458e-11)
(0.353022 -0.000443607 -9.39162e-11)
(0.333204 -0.000414224 -9.1862e-11)
(0.312786 -0.000380432 -8.65406e-11)
(0.291914 -0.000343829 -7.89751e-11)
(0.270726 -0.000305788 -6.95658e-11)
(0.249346 -0.000267468 -5.86937e-11)
(0.227888 -0.000229838 -4.62564e-11)
(0.206455 -0.000193694 -5.03169e-11)
(0.185138 -0.000159677 -5.33769e-11)
(0.164018 -0.000128295 -4.83695e-11)
(0.143166 -9.99371e-05 -4.40404e-11)
(0.122643 -7.48856e-05 -3.92206e-11)
(0.102501 -5.33372e-05 -3.45445e-11)
(0.0827831 -3.5464e-05 -2.96652e-11)
(0.0635264 -2.12898e-05 -2.12622e-11)
(0.0447601 -9.96665e-06 -1.29499e-11)
(0.0265075 -1.95984e-07 -5.57937e-12)
(0.00878617 -1.69006e-05 -1.69976e-12)
(0.537475 -7.1891e-05 -3.09214e-10)
(0.530732 -0.000110885 -4.71379e-10)
(0.521112 -0.000145497 -3.74316e-10)
(0.508981 -0.000173463 -2.93555e-10)
(0.494642 -0.00019501 -2.39649e-10)
(0.478365 -0.000210427 -2.01868e-10)
(0.460397 -0.000220135 -1.7442e-10)
(0.44097 -0.000224626 -1.53833e-10)
(0.420303 -0.000224423 -1.38311e-10)
(0.398601 -0.000220062 -1.26935e-10)
(0.37606 -0.000212079 -1.18214e-10)
(0.352861 -0.000201018 -1.11296e-10)
(0.329172 -0.000187422 -1.05714e-10)
(0.30515 -0.000171838 -1.01195e-10)
(0.280935 -0.000154807 -9.75966e-11)
(0.256656 -0.000136862 -9.49402e-11)
(0.232428 -0.000118518 -9.32081e-11)
(0.208353 -0.000100264 -9.40953e-11)
(0.18452 -8.25544e-05 -8.40983e-11)
(0.161008 -6.58049e-05 -7.12351e-11)
(0.137883 -5.03806e-05 -5.84731e-11)
(0.115203 -3.66037e-05 -4.7164e-11)
(0.0930158 -2.48027e-05 -3.69272e-11)
(0.0713598 -1.51667e-05 -2.7541e-11)
(0.0502668 -6.96207e-06 -1.8896e-11)
(0.0297614 1.03153e-06 -1.09047e-11)
(0.00986189 -1.80335e-05 -3.49635e-12)
(0.608752 6.36616e-05 -2.72456e-10)
(0.600934 9.19642e-05 -4.29728e-10)
(0.589794 0.000114657 -3.54936e-10)
(0.575771 0.000128274 -3.10484e-10)
(0.559227 0.000133174 -2.8345e-10)
(0.540486 0.000130461 -2.68525e-10)
(0.519842 0.000121599 -2.6248e-10)
(0.497571 0.000108219 -2.6301e-10)
(0.473928 9.19472e-05 -2.68292e-10)
(0.449153 7.42816e-05 -2.77602e-10)
(0.423471 5.65083e-05 -2.64017e-10)
(0.39709 3.96611e-05 -2.35129e-10)
(0.3702 2.45088e-05 -2.09568e-10)
(0.342977 1.15641e-05 -1.89099e-10)
(0.31558 1.10712e-06 -1.72298e-10)
(0.28815 -6.78209e-06 -1.58525e-10)
(0.260814 -1.21869e-05 -1.47379e-10)
(0.233685 -1.53173e-05 -1.36596e-10)
(0.20686 -1.64751e-05 -1.23497e-10)
(0.180424 -1.60213e-05 -1.01691e-10)
(0.154448 -1.43462e-05 -8.37885e-11)
(0.128995 -1.18562e-05 -6.75348e-11)
(0.104115 -9.00805e-06 -5.2823e-11)
(0.0798488 -6.14815e-06 -3.9367e-11)
(0.0562293 -2.69977e-06 -2.69994e-11)
(0.0332817 2.44655e-06 -1.55813e-11)
(0.0110247 -1.84284e-05 -4.99628e-12)
(0.68507 0.000223928 -2.7013e-10)
(0.676007 0.000330359 -4.36605e-10)
(0.663118 0.000420823 -3.40589e-10)
(0.64693 0.000485064 -2.86098e-10)
(0.627882 0.000523731 -2.51743e-10)
(0.606364 0.000539233 -2.28113e-10)
(0.582729 0.000534892 -2.10776e-10)
(0.557301 0.000514507 -1.97244e-10)
(0.530381 0.000481961 -1.85866e-10)
(0.502246 0.000440936 -1.75504e-10)
(0.473153 0.000394734 -1.65413e-10)
(0.443336 0.000346178 -1.55477e-10)
(0.413011 0.000297575 -1.46016e-10)
(0.382372 0.000250723 -1.37142e-10)
(0.351593 0.000206946 -1.28874e-10)
(0.32083 0.000167146 -1.21243e-10)
(0.290222 0.000131863 -1.142e-10)
(0.259889 0.000101336 -1.09869e-10)
(0.229935 7.55657e-05 -9.85798e-11)
(0.200452 5.43689e-05 -8.23394e-11)
(0.171515 3.74324e-05 -6.81971e-11)
(0.143188 2.4346e-05 -5.54107e-11)
(0.115524 1.4586e-05 -4.36233e-11)
(0.0885659 7.68701e-06 -3.26759e-11)
(0.062346 4.05076e-06 -2.24927e-11)
(0.0368898 4.60842e-06 -1.30122e-11)
(0.0122151 -1.77875e-05 -4.17908e-12)
(0.762462 0.000408855 -2.22713e-10)
(0.752064 0.000608682 -3.84189e-10)
(0.737304 0.00078089 -2.81843e-10)
(0.718812 0.000907747 -2.37985e-10)
(0.697113 0.000990017 -2.07505e-10)
(0.672672 0.00103134 -1.85068e-10)
(0.645904 0.00103685 -1.67761e-10)
(0.61719 0.00101253 -1.5384e-10)
(0.586877 0.000964618 -1.42234e-10)
(0.555282 0.000899141 -1.32298e-10)
(0.522693 0.000821621 -1.23641e-10)
(0.489374 0.000736913 -1.16034e-10)
(0.455561 0.000649135 -1.09352e-10)
(0.421467 0.000561743 -1.03548e-10)
(0.387283 0.000477369 -9.86373e-11)
(0.353176 0.000397933 -9.46218e-11)
(0.319293 0.000324869 -9.15099e-11)
(0.285764 0.000259115 -8.93101e-11)
(0.252698 0.000201187 -8.0002e-11)
(0.22019 0.000151268 -6.75571e-11)
(0.18832 0.00010928 -5.53905e-11)
(0.157153 7.49349e-05 -4.46406e-11)
(0.126742 4.77466e-05 -3.49449e-11)
(0.0971309 2.72016e-05 -2.60837e-11)
(0.0683524 1.35352e-05 -1.79178e-11)
(0.0404308 7.46497e-06 -1.03538e-11)
(0.0133827 -1.61352e-05 -3.32327e-12)
(0.836324 0.000609264 2.06765e-10)
(0.824594 0.000909795 7.87883e-11)
(0.807973 0.00117154 9.26337e-12)
(0.787195 0.00136861 -2.5034e-11)
(0.762877 0.00150152 -1.51087e-11)
(0.735557 0.00157514 -2.66301e-11)
(0.705721 0.00159607 -3.49419e-11)
(0.673801 0.00157203 -3.80196e-11)
(0.640192 0.00151151 -3.71812e-11)
(0.605249 0.00142287 -3.38954e-11)
(0.569294 0.00131387 -2.92241e-11)
(0.532613 0.0011915 -2.37652e-11)
(0.495467 0.00106183 -1.79189e-11)
(0.458083 0.000929995 -1.19721e-11)
(0.420667 0.000800168 -1.81113e-11)
(0.383395 0.000675669 -2.29181e-11)
(0.346423 0.000559032 -3.82563e-11)
(0.309886 0.000452087 -4.32228e-11)
(0.273899 0.000356069 -3.97228e-11)
(0.238558 0.000271705 -3.3776e-11)
(0.203945 0.000199314 -3.17211e-11)
(0.170126 0.000138871 -2.95896e-11)
(0.137157 9.00444e-05 -2.28326e-11)
(0.105078 5.23617e-05 -1.70677e-11)
(0.0739223 2.5903e-05 -1.17206e-11)
(0.0437126 1.11912e-05 -6.76909e-12)
(0.0144642 -1.35182e-05 -2.17107e-12)
(0.902858 0.000807719 -1.61979e-10)
(0.889887 0.00121018 -2.72759e-10)
(0.871535 0.0015632 -1.85671e-10)
(0.848637 0.00183303 -1.33558e-10)
(0.821895 0.00201984 -1.05167e-10)
(0.791923 0.00212891 -8.79733e-11)
(0.759266 0.00216819 -7.67975e-11)
(0.724411 0.00214738 -6.91748e-11)
(0.687794 0.00207693 -6.37308e-11)
(0.649807 0.00196728 -5.97468e-11)
(0.6108 0.00182832 -5.68744e-11)
(0.571083 0.00166911 -5.49279e-11)
(0.530934 0.00149769 -5.38083e-11)
(0.490596 0.00132085 -5.34115e-11)
(0.450283 0.00114442 -5.36812e-11)
(0.410183 0.000973229 -5.45265e-11)