/*--------------------------------*- C++ -*----------------------------------*\
| =========                 |                                                 |
| \\      /  F ield         | OpenFOAM: The Open Source CFD Toolbox           |
|  \\    /   O peration     | Version:  2106                                  |
|   \\  /    A nd           | Website:  www.openfoam.com                      |
|    \\/     M anipulation  |                                                 |
\*---------------------------------------------------------------------------*/
FoamFile
{
    version     2.0;
    format      ascii;
    arch        "LSB;label=32;scalar=64";
    class       volScalarField;
    location    "150.00049";
    object      AC3H4_0;
}
// * * * * * * * * * * * * * * * * * * * * * * * * * * * * * * * * * * * * * //

dimensions      [0 0 0 0 0 0 0];

internalField   nonuniform List<scalar> 
3360
(
4.67617e-19
4.82665e-19
5.03607e-19
5.29222e-19
5.58445e-19
5.90314e-19
6.23965e-19
6.58617e-19
6.93573e-19
7.2822e-19
7.62023e-19
7.94532e-19
8.25373e-19
8.54249e-19
8.80934e-19
9.0527e-19
9.27159e-19
9.46559e-19
9.6348e-19
9.7797e-19
9.90117e-19
1.00004e-18
1.00788e-18
1.01379e-18
1.01795e-18
1.02053e-18
1.02173e-18
2.05132e-18
2.12672e-18
2.23312e-18
2.36563e-18
2.52018e-18
2.69324e-18
2.88163e-18
3.08248e-18
3.29308e-18
3.51089e-18
3.73347e-18
3.95843e-18
4.18344e-18
4.40617e-18
4.62436e-18
4.83577e-18
5.0382e-18
5.22953e-18
5.40773e-18
5.57088e-18
5.71724e-18
5.84526e-18
5.95361e-18
6.04124e-18
6.10737e-18
6.15153e-18
6.17355e-18
6.43651e-18
6.71901e-18
7.12042e-18
7.62483e-18
8.21902e-18
8.8911e-18
9.62979e-18
1.0424e-17
1.12623e-17
1.21334e-17
1.30255e-17
1.39269e-17
1.4826e-17
1.57114e-17
1.65722e-17
1.73977e-17
1.81784e-17
1.89055e-17
1.95715e-17
2.01701e-17
2.06965e-17
2.11473e-17
2.15205e-17
2.18154e-17
2.20329e-17
2.21747e-17
2.22437e-17
1.87454e-17
1.96764e-17
2.10084e-17
2.26935e-17
2.4692e-17
2.69667e-17
2.948e-17
3.21935e-17
3.50665e-17
3.80565e-17
4.11193e-17
4.42103e-17
4.72848e-17
5.02995e-17
5.32134e-17
5.59887e-17
5.85918e-17
6.09944e-17
6.31736e-17
6.51123e-17
6.6799e-17
6.8228e-17
6.93983e-17
7.03137e-17
7.09816e-17
7.14129e-17
7.1621e-17
5.47681e-17
5.77055e-17
6.19154e-17
6.72541e-17
7.35995e-17
8.08343e-17
8.8838e-17
9.74827e-17
1.06632e-16
1.16143e-16
1.25867e-16
1.35654e-16
1.45357e-16
1.54836e-16
1.63961e-16
1.72616e-16
1.80701e-16
1.88132e-16
1.94846e-16
2.00796e-16
2.05955e-16
2.10311e-16
2.13868e-16
2.16642e-16
2.18661e-16
2.19962e-16
2.20588e-16
1.61483e-16
1.70503e-16
1.83448e-16
1.99878e-16
2.19417e-16
2.41701e-16
2.66353e-16
2.92972e-16
3.2113e-16
3.50376e-16
3.80244e-16
4.10267e-16
4.3999e-16
4.68979e-16
4.96838e-16
5.23214e-16
5.47806e-16
5.70369e-16
5.90717e-16
6.08719e-16
6.24301e-16
6.37437e-16
6.48147e-16
6.56488e-16
6.62551e-16
6.66453e-16
6.68329e-16
4.79691e-16
5.07102e-16
5.46436e-16
5.96361e-16
6.55729e-16
7.23422e-16
7.98279e-16
8.79061e-16
9.64451e-16
1.05306e-15
1.14348e-15
1.23428e-15
1.32408e-15
1.41158e-15
1.4956e-15
1.57506e-15
1.6491e-15
1.71697e-15
1.77815e-15
1.83224e-15
1.87903e-15
1.91846e-15
1.9506e-15
1.97562e-15
1.99381e-15
2.00551e-15
2.01113e-15
1.42963e-15
1.51211e-15
1.63052e-15
1.78087e-15
1.95971e-15
2.16366e-15
2.3892e-15
2.63258e-15
2.8898e-15
3.15666e-15
3.42888e-15
3.70216e-15
3.97232e-15
4.23546e-15
4.48799e-15
4.72677e-15
4.94911e-15
5.15287e-15
5.33641e-15
5.49864e-15
5.63892e-15
5.75708e-15
5.85335e-15
5.92827e-15
5.9827e-15
6.01771e-15
6.03453e-15
4.272e-15
4.51987e-15
4.87567e-15
5.32738e-15
5.86459e-15
6.47712e-15
7.15434e-15
7.88491e-15
8.65678e-15
9.45732e-15
1.02736e-14
1.10928e-14
1.19024e-14
1.26906e-14
1.34469e-14
1.41617e-14
1.48273e-14
1.5437e-14
1.59862e-14
1.64716e-14
1.68912e-14
1.72447e-14
1.75326e-14
1.77567e-14
1.79195e-14
1.80242e-14
1.80746e-14
1.27655e-14
1.35079e-14
1.45736e-14
1.59268e-14
1.75361e-14
1.9371e-14
2.13996e-14
2.35878e-14
2.58995e-14
2.82966e-14
3.07406e-14
3.31927e-14
3.56157e-14
3.79743e-14
4.02366e-14
4.23746e-14
4.43646e-14
4.61874e-14
4.78287e-14
4.92789e-14
5.05324e-14
5.1588e-14
5.24477e-14
5.31166e-14
5.36025e-14
5.39149e-14
5.40651e-14
3.81626e-14
4.03846e-14
4.35741e-14
4.76227e-14
5.24368e-14
5.79243e-14
6.39894e-14
7.05297e-14
7.74368e-14
8.45971e-14
9.18946e-14
9.92142e-14
1.06444e-13
1.1348e-13
1.20227e-13
1.26601e-13
1.32532e-13
1.37964e-13
1.42854e-13
1.47174e-13
1.50908e-13
1.54051e-13
1.56611e-13
1.58603e-13
1.60049e-13
1.6098e-13
1.61426e-13
1.13969e-13
1.20602e-13
1.30123e-13
1.42206e-13
1.5657e-13
1.7294e-13
1.91028e-13
2.10527e-13
2.31112e-13
2.52444e-13
2.74177e-13
2.95967e-13
3.17483e-13
3.38412e-13
3.58474e-13
3.7742e-13
3.95044e-13
4.11177e-13
4.25697e-13
4.38518e-13
4.49596e-13
4.58919e-13
4.6651e-13
4.72415e-13
4.76702e-13
4.79458e-13
4.80781e-13
3.39957e-13
3.59721e-13
3.88078e-13
4.24053e-13
4.668e-13
5.15487e-13
5.6925e-13
6.27171e-13
6.88279e-13
7.51562e-13
8.1599e-13
8.80545e-13
9.44244e-13
1.00617e-12
1.06549e-12
1.12148e-12
1.17354e-12
1.22117e-12
1.26401e-12
1.30183e-12
1.33449e-12
1.36197e-12
1.38433e-12
1.40173e-12
1.41435e-12
1.42246e-12
1.42636e-12
1.01098e-12
1.06959e-12
1.15367e-12
1.26027e-12
1.38686e-12
1.53095e-12
1.68994e-12
1.86108e-12
2.04149e-12
2.22815e-12
2.41801e-12
2.60808e-12
2.79544e-12
2.97743e-12
3.15161e-12
3.31587e-12
3.46844e-12
3.60794e-12
3.73332e-12
3.84392e-12
3.93937e-12
4.01963e-12
4.08492e-12
4.13566e-12
4.17247e-12
4.19612e-12
4.20748e-12
2.99528e-12
3.16815e-12
3.41592e-12
3.72985e-12
4.10227e-12
4.52568e-12
4.99232e-12
5.494e-12
6.0221e-12
6.56775e-12
7.122e-12
7.67604e-12
8.22148e-12
8.75054e-12
9.25624e-12
9.73254e-12
1.01744e-11
1.0578e-11
1.09404e-11
1.12597e-11
1.15351e-11
1.17664e-11
1.19545e-11
1.21005e-11
1.22064e-11
1.22744e-11
1.23071e-11
8.82164e-12
9.32663e-12
1.00498e-11
1.09651e-11
1.20494e-11
1.32804e-11
1.46348e-11
1.60884e-11
1.76158e-11
1.91911e-11
2.07882e-11
2.23817e-11
2.39476e-11
2.54637e-11
2.69104e-11
2.82707e-11
2.95307e-11
3.06797e-11
3.17098e-11
3.26164e-11
3.33971e-11
3.40523e-11
3.45843e-11
3.49971e-11
3.52961e-11
3.5488e-11
3.558e-11
2.57804e-11
2.72369e-11
2.93202e-11
3.19525e-11
3.50654e-11
3.85917e-11
4.24629e-11
4.66074e-11
5.09516e-11
5.54205e-11
5.99398e-11
6.44376e-11
6.88466e-11
7.31051e-11
7.71591e-11
8.09627e-11
8.44784e-11
8.76779e-11
9.05413e-11
9.30568e-11
9.52198e-11
9.70323e-11
9.8502e-11
9.9641e-11
1.00465e-10
1.00994e-10
1.01247e-10
7.45543e-11
7.86812e-11
8.45742e-11
9.20047e-11
1.0077e-10
1.10671e-10
1.21508e-10
1.33074e-10
1.45158e-10
1.57547e-10
1.70035e-10
1.82424e-10
1.9453e-10
2.06187e-10
2.17252e-10
2.27605e-10
2.37149e-10
2.45814e-10
2.5355e-10
2.60333e-10
2.66153e-10
2.71022e-10
2.74964e-10
2.78014e-10
2.80219e-10
2.8163e-10
2.82305e-10
2.12692e-10
2.24114e-10
2.4039e-10
2.60856e-10
2.8492e-10
3.12007e-10
3.41539e-10
3.72932e-10
4.05596e-10
4.38952e-10
4.72438e-10
5.05527e-10
5.37737e-10
5.68641e-10
5.97873e-10
6.25134e-10
6.5019e-10
6.72872e-10
6.93071e-10
7.10736e-10
7.25862e-10
7.3849e-10
7.48694e-10
7.56577e-10
7.62267e-10
7.65905e-10
7.67644e-10
5.96216e-10
6.26891e-10
6.70489e-10
7.25127e-10
7.89119e-10
8.60841e-10
9.3868e-10
1.02103e-09
1.10631e-09
1.19298e-09
1.27958e-09
1.36477e-09
1.44734e-09
1.52624e-09
1.60057e-09
1.66965e-09
1.73292e-09
1.79002e-09
1.84072e-09
1.88494e-09
1.92272e-09
1.95418e-09
1.97956e-09
1.99913e-09
2.01324e-09
2.02224e-09
2.02654e-09
1.6349e-09
1.7143e-09
1.82682e-09
1.96728e-09
2.13106e-09
2.31371e-09
2.51092e-09
2.71846e-09
2.93224e-09
3.14838e-09
3.36326e-09
3.5736e-09
3.77653e-09
3.96959e-09
4.15075e-09
4.31845e-09
4.47152e-09
4.60921e-09
4.73111e-09
4.83715e-09
4.92751e-09
5.00262e-09
5.06308e-09
5.10962e-09
5.14311e-09
5.16446e-09
5.17464e-09
4.36324e-09
4.56013e-09
4.83821e-09
5.18394e-09
5.58511e-09
6.03021e-09
6.50817e-09
7.00842e-09
7.52089e-09
8.03625e-09
8.54599e-09
9.04253e-09
9.51937e-09
9.97104e-09
1.03932e-08
1.07825e-08
1.11366e-08
1.14542e-08
1.17346e-08
1.19778e-08
1.21846e-08
1.23561e-08
1.24939e-08
1.25998e-08
1.26759e-08
1.27244e-08
1.27475e-08
1.1277e-08
1.17427e-08
1.23982e-08
1.32098e-08
1.41471e-08
1.51818e-08
1.62871e-08
1.74377e-08
1.86102e-08
1.97835e-08
2.09383e-08
2.2058e-08
2.31287e-08
2.41388e-08
2.50795e-08
2.59439e-08
2.67279e-08
2.74289e-08
2.80461e-08
2.85804e-08
2.90337e-08
2.94089e-08
2.97099e-08
2.99409e-08
3.01066e-08
3.0212e-08
3.02622e-08
2.81042e-08
2.91528e-08
3.06247e-08
3.24403e-08
3.45281e-08
3.68223e-08
3.92613e-08
4.17884e-08
4.43518e-08
4.69052e-08
4.94079e-08
5.18249e-08
5.41273e-08
5.6292e-08
5.83013e-08
6.01426e-08
6.18079e-08
6.32933e-08
6.45984e-08
6.57258e-08
6.66807e-08
6.74699e-08
6.81019e-08
6.85864e-08
6.89336e-08
6.91542e-08
6.92591e-08
6.73451e-08
6.95982e-08
7.2753e-08
7.66321e-08
8.10772e-08
8.59429e-08
9.10956e-08
9.64138e-08
1.01788e-07
1.07122e-07
1.12331e-07
1.17347e-07
1.2211e-07
1.26576e-07
1.30711e-07
1.34491e-07
1.37902e-07
1.40939e-07
1.43603e-07
1.45901e-07
1.47844e-07
1.49448e-07
1.50731e-07
1.51714e-07
1.52417e-07
1.52864e-07
1.53076e-07
1.55003e-07
1.59644e-07
1.66131e-07
1.74087e-07
1.83181e-07
1.93106e-07
2.03586e-07
2.14372e-07
2.25241e-07
2.36e-07
2.46482e-07
2.5655e-07
2.66091e-07
2.75019e-07
2.83269e-07
2.908e-07
2.97586e-07
3.03619e-07
3.08904e-07
3.13458e-07
3.17305e-07
3.20477e-07
3.23013e-07
3.24954e-07
3.26342e-07
3.27223e-07
3.27642e-07
3.42837e-07
3.52065e-07
3.64946e-07
3.80722e-07
3.98719e-07
4.18328e-07
4.38994e-07
4.60225e-07
4.81582e-07
5.02687e-07
5.23219e-07
5.4291e-07
5.61547e-07
5.78964e-07
5.95044e-07
6.09705e-07
6.22906e-07
6.34632e-07
6.44896e-07
6.53734e-07
6.61196e-07
6.67347e-07
6.72261e-07
6.7602e-07
6.78708e-07
6.80413e-07
6.81223e-07
7.29511e-07
7.47344e-07
7.7222e-07
8.02664e-07
8.37364e-07
8.75138e-07
9.14915e-07
9.55745e-07
9.96788e-07
1.03732e-06
1.07673e-06
1.1145e-06
1.15023e-06
1.18362e-06
1.21443e-06
1.24251e-06
1.26779e-06
1.29023e-06
1.30988e-06
1.32679e-06
1.34107e-06
1.35284e-06
1.36224e-06
1.36943e-06
1.37457e-06
1.37783e-06
1.37938e-06
1.49396e-06
1.5276e-06
1.57452e-06
1.63195e-06
1.69741e-06
1.76867e-06
1.84372e-06
1.92078e-06
1.99826e-06
2.07481e-06
2.14926e-06
2.22067e-06
2.28825e-06
2.35143e-06
2.40976e-06
2.46297e-06
2.51088e-06
2.55346e-06
2.59075e-06
2.62286e-06
2.64998e-06
2.67235e-06
2.69022e-06
2.70389e-06
2.71367e-06
2.71988e-06
2.72282e-06
2.93894e-06
3.00082e-06
3.08718e-06
3.19293e-06
3.31358e-06
3.44505e-06
3.58369e-06
3.72623e-06
3.86977e-06
4.01181e-06
4.1502e-06
4.28316e-06
4.40925e-06
4.52733e-06
4.63657e-06
4.73639e-06
4.82646e-06
4.90665e-06
4.977e-06
5.03769e-06
5.08904e-06
5.13145e-06
5.16539e-06
5.1914e-06
5.21003e-06
5.22187e-06
5.22749e-06
5.52659e-06
5.6364e-06
5.78977e-06
5.97778e-06
6.19256e-06
6.42699e-06
6.67466e-06
6.9298e-06
7.18733e-06
7.44278e-06
7.69231e-06
7.9327e-06
8.1613e-06
8.37599e-06
8.57519e-06
8.75774e-06
8.92294e-06
9.07044e-06
9.20019e-06
9.31245e-06
9.40767e-06
9.48652e-06
9.54979e-06
9.59838e-06
9.63326e-06
9.65546e-06
9.66604e-06
9.86537e-06
1.00495e-05
1.03067e-05
1.06223e-05
1.0983e-05
1.13771e-05
1.1794e-05
1.22239e-05
1.26584e-05
1.309e-05
1.35123e-05
1.39198e-05
1.43079e-05
1.4673e-05
1.50124e-05
1.53239e-05
1.56063e-05
1.58589e-05
1.60814e-05
1.62742e-05
1.6438e-05
1.65739e-05
1.6683e-05
1.6767e-05
1.68273e-05
1.68658e-05
1.68841e-05
1.66101e-05
1.68948e-05
1.72924e-05
1.77797e-05
1.83363e-05
1.89436e-05
1.95852e-05
2.02461e-05
2.09133e-05
2.15751e-05
2.22216e-05
2.28447e-05
2.34373e-05
2.3994e-05
2.45108e-05
2.49846e-05
2.54134e-05
2.57965e-05
2.61337e-05
2.64255e-05
2.66732e-05
2.68784e-05
2.70431e-05
2.71696e-05
2.72605e-05
2.73183e-05
2.73459e-05
2.62817e-05
2.66814e-05
2.72384e-05
2.79195e-05
2.86952e-05
2.95389e-05
3.0427e-05
3.13385e-05
3.22549e-05
3.31604e-05
3.40415e-05
3.4887e-05
3.56881e-05
3.64377e-05
3.71308e-05
3.77639e-05
3.8335e-05
3.88434e-05
3.92894e-05
3.96743e-05
4e-05
4.02692e-05
4.04847e-05
4.06499e-05
4.07683e-05
4.08436e-05
4.08795e-05
3.90745e-05
3.95825e-05
4.02888e-05
4.11495e-05
4.21259e-05
4.31835e-05
4.42915e-05
4.54231e-05
4.65551e-05
4.76678e-05
4.87451e-05
4.97738e-05
5.07436e-05
5.16469e-05
5.24782e-05
5.32343e-05
5.39135e-05
5.45159e-05
5.50424e-05
5.54952e-05
5.58773e-05
5.61921e-05
5.64435e-05
5.66358e-05
5.67734e-05
5.68607e-05
5.69021e-05
5.47705e-05
5.53616e-05
5.61813e-05
5.71772e-05
5.83027e-05
5.95167e-05
6.07829e-05
6.20701e-05
6.33518e-05
6.46058e-05
6.58143e-05
6.69631e-05
6.80415e-05
6.90418e-05
6.99589e-05
7.079e-05
7.15341e-05
7.21918e-05
7.27652e-05
7.3257e-05
7.3671e-05
7.40114e-05
7.42827e-05
7.44899e-05
7.46379e-05
7.47317e-05
7.47762e-05
7.2829e-05
7.34704e-05
7.43583e-05
7.54341e-05
7.66464e-05
7.79498e-05
7.93047e-05
8.06772e-05
8.20391e-05
8.33672e-05
8.46427e-05
8.58515e-05
8.69828e-05
8.80292e-05
8.89861e-05
8.98512e-05
9.0624e-05
9.13059e-05
9.18993e-05
9.24075e-05
9.28347e-05
9.31855e-05
9.34649e-05
9.3678e-05
9.38302e-05
9.39266e-05
9.39723e-05
9.25782e-05
9.32406e-05
9.41563e-05
9.52641e-05
9.65101e-05
9.78469e-05
9.92336e-05
0.000100635
0.000102023
0.000103374
0.000104669
0.000105894
0.000107038
0.000108095
0.00010906
0.000109932
0.00011071
0.000111396
0.000111992
0.000112503
0.000112931
0.000113283
0.000113564
0.000113777
0.00011393
0.000114027
0.000114073
0.000113384
0.000114046
0.000114962
0.000116069
0.000117312
0.000118645
0.000120026
0.00012142
0.0001228
0.000124141
0.000125426
0.00012664
0.000127774
0.000128821
0.000129777
0.000130639
0.000131409
0.000132087
0.000132677
0.000133182
0.000133606
0.000133955
0.000134232
0.000134443
0.000134594
0.00013469
0.000134736
0.000134733
0.000135384
0.000136284
0.00013737
0.000138591
0.000139899
0.000141253
0.000142621
0.000143973
0.000145288
0.000146547
0.000147737
0.000148849
0.000149875
0.000150811
0.000151657
0.000152412
0.000153077
0.000153655
0.000154151
0.000154567
0.000154909
0.000155181
0.000155389
0.000155538
0.000155632
0.000155676
0.000156251
0.000156885
0.00015776
0.000158818
0.000160006
0.000161279
0.000162598
0.000163929
0.000165246
0.000166527
0.000167753
0.000168913
0.000169996
0.000170996
0.00017191
0.000172735
0.000173471
0.000174121
0.000174686
0.00017517
0.000175577
0.000175911
0.000176177
0.000176381
0.000176526
0.000176618
0.000176662
0.000177677
0.000178291
0.000179139
0.000180165
0.000181317
0.000182552
0.000183831
0.000185123
0.000186402
0.000187645
0.000188836
0.000189963
0.000191016
0.000191989
0.000192878
0.000193681
0.000194398
0.00019503
0.00019558
0.000196052
0.000196449
0.000196775
0.000197035
0.000197233
0.000197375
0.000197465
0.000197507
0.000198833
0.000199428
0.000200249
0.000201242
0.000202357
0.000203553
0.000204793
0.000206045
0.000207285
0.000208491
0.000209647
0.00021074
0.000211763
0.000212707
0.000213571
0.000214351
0.000215048
0.000215663
0.000216198
0.000216657
0.000217043
0.00021736
0.000217613
0.000217807
0.000217945
0.000218032
0.000218074
0.000219604
0.000220179
0.000220973
0.000221934
0.000223014
0.000224172
0.000225373
0.000226586
0.000227787
0.000228956
0.000230077
0.000231138
0.000232129
0.000233046
0.000233884
0.000234641
0.000235318
0.000235916
0.000236436
0.000236882
0.000237257
0.000237565
0.000237811
0.000237999
0.000238133
0.000238219
0.000238259
0.000239911
0.000240468
0.000241237
0.000242167
0.000243212
0.000244333
0.000245496
0.000246671
0.000247835
0.000248967
0.000250053
0.000251082
0.000252043
0.000252932
0.000253745
0.00025448
0.000255136
0.000255716
0.000256221
0.000256654
0.000257018
0.000257317
0.000257556
0.000257739
0.000257869
0.000257952
0.000257991
0.000259707
0.000260246
0.00026099
0.00026189
0.000262902
0.000263987
0.000265113
0.00026625
0.000267377
0.000268474
0.000269527
0.000270523
0.000271455
0.000272316
0.000273104
0.000273816
0.000274453
0.000275015
0.000275505
0.000275924
0.000276278
0.000276568
0.0002768
0.000276977
0.000277104
0.000277184
0.000277222
0.00027896
0.000279481
0.000280201
0.000281072
0.000282051
0.000283102
0.000284191
0.000285293
0.000286384
0.000287446
0.000288465
0.00028943
0.000290332
0.000291167
0.00029193
0.00029262
0.000293237
0.000293781
0.000294256
0.000294663
0.000295005
0.000295287
0.000295511
0.000295683
0.000295806
0.000295883
0.00029592
0.000297653
0.000298157
0.000298853
0.000299696
0.000300643
0.00030166
0.000302714
0.00030378
0.000304836
0.000305864
0.00030685
0.000307784
0.000308657
0.000309465
0.000310204
0.000310872
0.000311469
0.000311996
0.000312456
0.00031285
0.000313181
0.000313454
0.000313671
0.000313838
0.000313957
0.000314032
0.000314068
0.000315776
0.000316263
0.000316937
0.000317752
0.000318668
0.000319651
0.000320671
0.000321702
0.000322723
0.000323718
0.000324672
0.000325575
0.00032642
0.000327202
0.000327917
0.000328563
0.000329141
0.000329651
0.000330096
0.000330477
0.000330798
0.000331062
0.000331272
0.000331433
0.000331548
0.000331621
0.000331656
0.000333328
0.000333799
0.00033445
0.000335238
0.000336124
0.000337074
0.00033806
0.000339057
0.000340045
0.000341006
0.000341929
0.000342802
0.00034362
0.000344375
0.000345067
0.000345692
0.00034625
0.000346744
0.000347174
0.000347542
0.000347853
0.000348108
0.000348311
0.000348467
0.000348578
0.000348649
0.000348682
0.000350311
0.000350767
0.000351396
0.000352157
0.000353013
0.000353932
0.000354885
0.000355848
0.000356803
0.000357732
0.000358624
0.000359468
0.000360258
0.000360988
0.000361656
0.00036226
0.0003628
0.000363277
0.000363693
0.000364049
0.000364349
0.000364595
0.000364792
0.000364942
0.00036505
0.000365118
0.000365151
0.000366732
0.000367172
0.00036778
0.000368515
0.000369342
0.00037023
0.00037115
0.000372081
0.000373003
0.000373901
0.000374762
0.000375578
0.000376341
0.000377046
0.000377691
0.000378275
0.000378797
0.000379257
0.000379659
0.000380003
0.000380293
0.000380531
0.000380721
0.000380866
0.00038097
0.000381036
0.000381067
0.000382599
0.000383024
0.000383611
0.000384321
0.00038512
0.000385977
0.000386866
0.000387764
0.000388655
0.000389521
0.000390353
0.000391141
0.000391877
0.000392559
0.000393182
0.000393745
0.000394249
0.000394694
0.000395081
0.000395414
0.000395693
0.000395924
0.000396107
0.000396247
0.000396348
0.000396411
0.000396442
0.000397923
0.000398333
0.000398899
0.000399585
0.000400356
0.000401183
0.000402041
0.000402909
0.000403768
0.000404605
0.000405408
0.000406168
0.000406879
0.000407536
0.000408138
0.000408682
0.000409168
0.000409597
0.000409971
0.000410292
0.000410562
0.000410784
0.000410961
0.000411097
0.000411193
0.000411255
0.000411284
0.000412714
0.00041311
0.000413657
0.000414319
0.000415063
0.000415861
0.000416689
0.000417526
0.000418355
0.000419162
0.000419937
0.000420671
0.000421357
0.000421991
0.000422571
0.000423096
0.000423565
0.00042398
0.000424341
0.00042465
0.00042491
0.000425125
0.000425296
0.000425426
0.000425519
0.000425579
0.000425607
0.000426987
0.000427369
0.000427897
0.000428535
0.000429252
0.000430022
0.000430821
0.000431628
0.000432428
0.000433207
0.000433954
0.000434662
0.000435324
0.000435936
0.000436495
0.000437001
0.000437454
0.000437853
0.000438201
0.0004385
0.000438751
0.000438958
0.000439123
0.000439248
0.000439339
0.000439396
0.000439423
0.000440754
0.000441122
0.000441631
0.000442246
0.000442938
0.000443681
0.000444451
0.00044523
0.000446001
0.000446752
0.000447472
0.000448154
0.000448793
0.000449383
0.000449922
0.00045041
0.000450847
0.000451232
0.000451567
0.000451855
0.000452097
0.000452296
0.000452455
0.000452577
0.000452664
0.000452719
0.000452745
0.000454028
0.000454383
0.000454873
0.000455466
0.000456134
0.000456849
0.000457592
0.000458342
0.000459086
0.00045981
0.000460504
0.000461162
0.000461777
0.000462346
0.000462866
0.000463336
0.000463757
0.000464128
0.000464451
0.000464729
0.000464962
0.000465154
0.000465307
0.000465424
0.000465508
0.000465561
0.000465586
0.000466822
0.000467164
0.000467637
0.000468209
0.000468851
0.000469541
0.000470257
0.00047098
0.000471696
0.000472394
0.000473063
0.000473697
0.000474289
0.000474838
0.000475339
0.000475792
0.000476197
0.000476555
0.000476866
0.000477134
0.000477359
0.000477544
0.000477691
0.000477804
0.000477884
0.000477936
0.00047796
0.00047915
0.000479479
0.000479935
0.000480486
0.000481105
0.000481769
0.000482459
0.000483155
0.000483846
0.000484518
0.000485162
0.000485773
0.000486343
0.000486871
0.000487354
0.000487791
0.000488181
0.000488525
0.000488826
0.000489083
0.0004893
0.000489478
0.00048962
0.000489728
0.000489806
0.000489855
0.000489879
0.000491024
0.000491341
0.00049178
0.00049231
0.000492907
0.000493546
0.00049421
0.000494881
0.000495546
0.000496193
0.000496814
0.000497401
0.000497951
0.000498459
0.000498924
0.000499344
0.00049972
0.000500052
0.000500341
0.000500589
0.000500797
0.000500969
0.000501106
0.00050121
0.000501285
0.000501332
0.000501355
0.000502456
0.000502762
0.000503184
0.000503694
0.000504269
0.000504885
0.000505523
0.000506169
0.000506809
0.000507432
0.000508029
0.000508595
0.000509124
0.000509613
0.000510061
0.000510465
0.000510827
0.000511146
0.000511424
0.000511663
0.000511863
0.000512028
0.00051216
0.000512261
0.000512333
0.000512378
0.0005124
0.000513458
0.000513752
0.000514159
0.00051465
0.000515202
0.000515795
0.00051641
0.000517031
0.000517647
0.000518246
0.000518821
0.000519365
0.000519874
0.000520344
0.000520775
0.000521164
0.000521512
0.000521819
0.000522086
0.000522316
0.000522509
0.000522667
0.000522794
0.000522891
0.00052296
0.000523004
0.000523025
0.000524041
0.000524324
0.000524715
0.000525187
0.000525718
0.000526288
0.000526879
0.000527477
0.000528069
0.000528645
0.000529198
0.000529721
0.00053021
0.000530663
0.000531076
0.000531451
0.000531785
0.00053208
0.000532337
0.000532558
0.000532743
0.000532896
0.000533018
0.000533111
0.000533177
0.000533219
0.000533239
0.000534215
0.000534486
0.000534862
0.000535316
0.000535826
0.000536374
0.000536942
0.000537516
0.000538085
0.000538639
0.00053917
0.000539672
0.000540143
0.000540577
0.000540975
0.000541334
0.000541655
0.000541939
0.000542186
0.000542398
0.000542576
0.000542723
0.00054284
0.000542929
0.000542993
0.000543033
0.000543053
0.000543987
0.000544248
0.000544608
0.000545045
0.000545535
0.000546061
0.000546606
0.000547157
0.000547703
0.000548235
0.000548745
0.000549227
0.000549679
0.000550096
0.000550478
0.000550823
0.000551131
0.000551403
0.00055164
0.000551844
0.000552015
0.000552155
0.000552268
0.000552353
0.000552415
0.000552454
0.000552472
0.000553366
0.000553616
0.000553962
0.00055438
0.000554851
0.000555355
0.000555879
0.000556407
0.000556931
0.000557441
0.00055793
0.000558393
0.000558826
0.000559226
0.000559592
0.000559922
0.000560218
0.000560479
0.000560706
0.000560901
0.000561065
0.0005612
0.000561308
0.00056139
0.000561449
0.000561486
0.000561504
0.000562357
0.000562597
0.000562929
0.00056333
0.00056378
0.000564264
0.000564765
0.000565272
0.000565773
0.000566262
0.00056673
0.000567173
0.000567588
0.000567971
0.000568322
0.000568638
0.000568921
0.000569171
0.000569389
0.000569576
0.000569733
0.000569862
0.000569965
0.000570044
0.0005701
0.000570135
0.000570152
0.000570966
0.000571195
0.000571512
0.000571896
0.000572327
0.00057279
0.000573269
0.000573754
0.000574234
0.000574701
0.000575149
0.000575573
0.000575969
0.000576336
0.000576671
0.000576974
0.000577244
0.000577483
0.000577691
0.00057787
0.00057802
0.000578143
0.000578242
0.000578317
0.000578371
0.000578405
0.000578421
0.000579193
0.000579413
0.000579716
0.000580082
0.000580494
0.000580935
0.000581393
0.000581856
0.000582314
0.00058276
0.000583188
0.000583593
0.000583971
0.000584321
0.000584641
0.00058493
0.000585188
0.000585416
0.000585614
0.000585785
0.000585928
0.000586045
0.000586139
0.000586211
0.000586262
0.000586295
0.00058631
0.000587041
0.00058725
0.000587539
0.000587888
0.000588281
0.000588701
0.000589138
0.000589579
0.000590015
0.00059044
0.000590847
0.000591232
0.000591593
0.000591926
0.00059223
0.000592505
0.000592751
0.000592968
0.000593157
0.000593319
0.000593455
0.000593567
0.000593657
0.000593725
0.000593774
0.000593805
0.000593819
0.000594508
0.000594707
0.000594981
0.000595313
0.000595686
0.000596086
0.0005965
0.000596919
0.000597333
0.000597737
0.000598124
0.000598489
0.000598831
0.000599148
0.000599436
0.000599698
0.000599931
0.000600137
0.000600316
0.00060047
0.000600599
0.000600705
0.00060079
0.000600855
0.000600901
0.00060093
0.000600944
0.00060159
0.000601778
0.000602038
0.000602352
0.000602705
0.000603084
0.000603476
0.000603873
0.000604265
0.000604647
0.000605013
0.000605359
0.000605682
0.000605981
0.000606254
0.000606501
0.000606722
0.000606916
0.000607086
0.000607231
0.000607353
0.000607454
0.000607534
0.000607595
0.000607639
0.000607666
0.000607679
0.00060828
0.000608458
0.000608703
0.000608999
0.000609332
0.000609689
0.000610059
0.000610433
0.000610802
0.000611162
0.000611507
0.000611833
0.000612137
0.000612419
0.000612676
0.000612908
0.000613116
0.000613299
0.000613458
0.000613595
0.00061371
0.000613804
0.000613879
0.000613937
0.000613978
0.000614004
0.000614017
0.000614571
0.000614738
0.000614968
0.000615246
0.000615558
0.000615893
0.00061624
0.00061659
0.000616937
0.000617274
0.000617596
0.000617902
0.000618187
0.00061845
0.000618691
0.000618909
0.000619103
0.000619274
0.000619423
0.000619551
0.000619658
0.000619746
0.000619817
0.00061987
0.000619909
0.000619933
0.000619945
0.000620452
0.000620607
0.000620822
0.000621081
0.000621372
0.000621684
0.000622007
0.000622333
0.000622656
0.000622969
0.00062327
0.000623554
0.000623819
0.000624064
0.000624287
0.000624489
0.00062467
0.000624829
0.000624967
0.000625086
0.000625185
0.000625267
0.000625333
0.000625383
0.000625418
0.000625441
0.000625451
0.000625909
0.000626053
0.000626251
0.000626491
0.00062676
0.000627049
0.000627347
0.000627648
0.000627946
0.000628236
0.000628513
0.000628775
0.000629019
0.000629245
0.000629451
0.000629637
0.000629803
0.000629949
0.000630077
0.000630186
0.000630277
0.000630353
0.000630413
0.000630459
0.000630491
0.000630512
0.000630522
0.000630929
0.000631061
0.000631243
0.000631462
0.000631709
0.000631972
0.000632245
0.000632521
0.000632793
0.000633057
0.00063331
0.000633549
0.000633772
0.000633978
0.000634166
0.000634335
0.000634487
0.00063462
0.000634736
0.000634835
0.000634918
0.000634987
0.000635041
0.000635083
0.000635113
0.000635132
0.000635141
0.000635497
0.000635616
0.00063578
0.000635979
0.000636202
0.00063644
0.000636687
0.000636935
0.000637181
0.000637419
0.000637647
0.000637862
0.000638063
0.000638248
0.000638417
0.000638569
0.000638705
0.000638825
0.000638929
0.000639018
0.000639092
0.000639154
0.000639203
0.00063924
0.000639267
0.000639284
0.000639292
0.000639596
0.000639703
0.000639849
0.000640026
0.000640224
0.000640436
0.000640656
0.000640877
0.000641095
0.000641306
0.000641508
0.000641699
0.000641876
0.00064204
0.000642189
0.000642324
0.000642444
0.000642549
0.000642641
0.00064272
0.000642785
0.000642839
0.000642882
0.000642915
0.000642939
0.000642954
0.000642961
0.000643215
0.000643308
0.000643436
0.00064359
0.000643763
0.000643948
0.00064414
0.000644332
0.000644522
0.000644705
0.000644881
0.000645046
0.0006452
0.000645342
0.000645471
0.000645587
0.000645691
0.000645782
0.000645861
0.000645929
0.000645985
0.000646032
0.000646069
0.000646097
0.000646117
0.00064613
0.000646136
0.000646341
0.000646421
0.00064653
0.000646662
0.000646809
0.000646967
0.000647129
0.000647292
0.000647453
0.000647609
0.000647757
0.000647897
0.000648026
0.000648146
0.000648255
0.000648352
0.000648439
0.000648516
0.000648582
0.000648638
0.000648686
0.000648725
0.000648756
0.000648779
0.000648796
0.000648807
0.000648812
0.000648971
0.000649037
0.000649127
0.000649236
0.000649357
0.000649487
0.000649621
0.000649754
0.000649886
0.000650013
0.000650134
0.000650248
0.000650354
0.000650451
0.000650539
0.000650618
0.000650688
0.00065075
0.000650803
0.000650849
0.000650887
0.000650918
0.000650943
0.000650962
0.000650975
0.000650984
0.000650988
0.000651106
0.000651158
0.00065123
0.000651316
0.000651412
0.000651514
0.000651619
0.000651723
0.000651826
0.000651926
0.00065202
0.000652108
0.00065219
0.000652265
0.000652332
0.000652393
0.000652447
0.000652494
0.000652535
0.000652569
0.000652598
0.000652622
0.000652641
0.000652655
0.000652665
0.000652672
0.000652675
0.000652759
0.000652797
0.000652851
0.000652914
0.000652985
0.000653061
0.000653138
0.000653215
0.00065329
0.000653362
0.00065343
0.000653494
0.000653552
0.000653606
0.000653654
0.000653697
0.000653735
0.000653768
0.000653797
0.000653821
0.000653841
0.000653858
0.000653871
0.000653881
0.000653888
0.000653892
0.000653894
0.000653951
0.000653978
0.000654013
0.000654056
0.000654104
0.000654154
0.000654205
0.000654255
0.000654304
0.000654351
0.000654395
0.000654435
0.000654472
0.000654506
0.000654536
0.000654563
0.000654586
0.000654606
0.000654624
0.000654638
0.000654651
0.00065466
0.000654668
0.000654674
0.000654678
0.000654681
0.000654682
0.00065472
0.000654735
0.000654755
0.000654779
0.000654805
0.000654832
0.000654859
0.000654886
0.000654911
0.000654935
0.000654957
0.000654977
0.000654995
0.00065501
0.000655024
0.000655036
0.000655047
0.000655055
0.000655063
0.000655069
0.000655074
0.000655078
0.000655081
0.000655083
0.000655084
0.000655085
0.000655086
0.000655114
0.000655119
0.000655125
0.000655132
0.00065514
0.000655147
0.000655154
0.00065516
0.000655165
0.00065517
0.000655173
0.000655175
0.000655177
0.000655177
0.000655178
0.000655177
0.000655177
0.000655176
0.000655175
0.000655174
0.000655173
0.000655172
0.000655171
0.00065517
0.000655169
0.000655169
0.000655169
0.000655195
0.000655191
0.000655187
0.00065518
0.000655173
0.000655164
0.000655155
0.000655145
0.000655134
0.000655122
0.000655111
0.000655099
0.000655088
0.000655077
0.000655066
0.000655056
0.000655047
0.000655039
0.000655032
0.000655025
0.000655019
0.000655014
0.000655011
0.000655008
0.000655005
0.000655004
0.000655003
0.000655033
0.000655024
0.000655011
0.000654995
0.000654976
0.000654956
0.000654935
0.000654912
0.00065489
0.000654868
0.000654846
0.000654824
0.000654804
0.000654785
0.000654767
0.00065475
0.000654736
0.000654722
0.00065471
0.0006547
0.000654691
0.000654684
0.000654678
0.000654674
0.00065467
0.000654668
0.000654667
0.000654704
0.000654691
0.000654673
0.000654651
0.000654626
0.000654598
0.00065457
0.00065454
0.000654511
0.000654482
0.000654454
0.000654427
0.000654402
0.000654378
0.000654356