/*--------------------------------*- C++ -*----------------------------------*\
| =========                 |                                                 |
| \\      /  F ield         | OpenFOAM: The Open Source CFD Toolbox           |
|  \\    /   O peration     | Version:  2106                                  |
|   \\  /    A nd           | Website:  www.openfoam.com                      |
|    \\/     M anipulation  |                                                 |
\*---------------------------------------------------------------------------*/
FoamFile
{
    version     2.0;
    format      ascii;
    arch        "LSB;label=32;scalar=64";
    class       volScalarField;
    location    "150.00049";
    object      C2H2_0;
}
// * * * * * * * * * * * * * * * * * * * * * * * * * * * * * * * * * * * * * //

dimensions      [0 0 0 0 0 0 0];

internalField   nonuniform List<scalar> 
3360
(
0.334007
0.334007
0.334007
0.334007
0.334007
0.334007
0.334007
0.334007
0.334007
0.334007
0.334007
0.334007
0.334007
0.334007
0.334007
0.334007
0.334007
0.334007
0.334007
0.334007
0.334007
0.334007
0.334007
0.334007
0.334007
0.334007
0.334007
0.334007
0.334007
0.334007
0.334007
0.334007
0.334007
0.334007
0.334007
0.334007
0.334007
0.334007
0.334007
0.334007
0.334007
0.334007
0.334007
0.334007
0.334007
0.334007
0.334007
0.334007
0.334007
0.334007
0.334007
0.334007
0.334007
0.334007
0.334007
0.334007
0.334007
0.334007
0.334007
0.334007
0.334007
0.334007
0.334007
0.334007
0.334007
0.334007
0.334007
0.334007
0.334007
0.334007
0.334007
0.334007
0.334007
0.334007
0.334007
0.334007
0.334007
0.334007
0.334007
0.334007
0.334007
0.334007
0.334007
0.334007
0.334007
0.334007
0.334007
0.334007
0.334007
0.334007
0.334007
0.334007
0.334007
0.334007
0.334007
0.334007
0.334007
0.334007
0.334007
0.334007
0.334007
0.334007
0.334007
0.334007
0.334007
0.334007
0.334007
0.334007
0.334007
0.334007
0.334007
0.334007
0.334007
0.334007
0.334007
0.334007
0.334007
0.334007
0.334007
0.334007
0.334007
0.334007
0.334007
0.334007
0.334007
0.334007
0.334007
0.334007
0.334007
0.334007
0.334007
0.334007
0.334007
0.334007
0.334007
0.334007
0.334007
0.334007
0.334007
0.334007
0.334007
0.334007
0.334007
0.334007
0.334007
0.334007
0.334007
0.334007
0.334007
0.334007
0.334007
0.334007
0.334007
0.334007
0.334007
0.334007
0.334007
0.334007
0.334007
0.334007
0.334007
0.334007
0.334007
0.334007
0.334007
0.334007
0.334007
0.334007
0.334007
0.334007
0.334007
0.334007
0.334007
0.334007
0.334007
0.334007
0.334007
0.334007
0.334007
0.334007
0.334007
0.334007
0.334007
0.334007
0.334007
0.334007
0.334007
0.334007
0.334007
0.334007
0.334007
0.334007
0.334007
0.334007
0.334007
0.334007
0.334007
0.334007
0.334007
0.334007
0.334007
0.334007
0.334007
0.334007
0.334007
0.334007
0.334007
0.334007
0.334007
0.334007
0.334007
0.334007
0.334007
0.334007
0.334007
0.334007
0.334007
0.334007
0.334007
0.334007
0.334007
0.334007
0.334007
0.334007
0.334007
0.334007
0.334007
0.334007
0.334007
0.334007
0.334007
0.334007
0.334007
0.334007
0.334007
0.334007
0.334007
0.334007
0.334007
0.334007
0.334007
0.334007
0.334007
0.334007
0.334007
0.334007
0.334007
0.334007
0.334007
0.334007
0.334007
0.334007
0.334007
0.334007
0.334007
0.334007
0.334007
0.334007
0.334007
0.334007
0.334007
0.334007
0.334007
0.334007
0.334007
0.334007
0.334007
0.334007
0.334007
0.334007
0.334007
0.334007
0.334007
0.334007
0.334007
0.334007
0.334007
0.334007
0.334007
0.334007
0.334007
0.334007
0.334007
0.334007
0.334007
0.334007
0.334007
0.334007
0.334007
0.334007
0.334007
0.334007
0.334007
0.334007
0.334007
0.334007
0.334007
0.334007
0.334007
0.334007
0.334007
0.334007
0.334007
0.334007
0.334007
0.334007
0.334007
0.334007
0.334007
0.334007
0.334007
0.334007
0.334007
0.334007
0.334007
0.334007
0.334007
0.334007
0.334007
0.334007
0.334007
0.334007
0.334007
0.334007
0.334007
0.334007
0.334007
0.334007
0.334007
0.334007
0.334007
0.334007
0.334007
0.334007
0.334007
0.334007
0.334007
0.334007
0.334007
0.334007
0.334007
0.334007
0.334007
0.334007
0.334007
0.334007
0.334007
0.334007
0.334007
0.334007
0.334007
0.334007
0.334007
0.334007
0.334007
0.334007
0.334007
0.334007
0.334007
0.334007
0.334007
0.334007
0.334007
0.334007
0.334007
0.334007
0.334007
0.334007
0.334007
0.334007
0.334007
0.334007
0.334007
0.334007
0.334007
0.334007
0.334007
0.334007
0.334007
0.334007
0.334007
0.334007
0.334007
0.334007
0.334007
0.334007
0.334007
0.334007
0.334007
0.334007
0.334007
0.334007
0.334007
0.334007
0.334007
0.334007
0.334007
0.334007
0.334007
0.334007
0.334007
0.334007
0.334007
0.334007
0.334007
0.334007
0.334007
0.334007
0.334007
0.334007
0.334007
0.334007
0.334007
0.334007
0.334007
0.334007
0.334007
0.334007
0.334007
0.334007
0.334007
0.334007
0.334007
0.334007
0.334007
0.334007
0.334007
0.334007
0.334007
0.334007
0.334007
0.334007
0.334007
0.334007
0.334007
0.334007
0.334007
0.334007
0.334007
0.334007
0.334007
0.334007
0.334007
0.334007
0.334007
0.334007
0.334007
0.334007
0.334007
0.334007
0.334007
0.334007
0.334007
0.334007
0.334007
0.334007
0.334007
0.334007
0.334007
0.334007
0.334007
0.334007
0.334007
0.334007
0.334007
0.334007
0.334007
0.334007
0.334007
0.334007
0.334007
0.334007
0.334007
0.334007
0.334007
0.334007
0.334007
0.334007
0.334007
0.334007
0.334007
0.334007
0.334007
0.334007
0.334007
0.334007
0.334007
0.334007
0.334007
0.334007
0.334007
0.334007
0.334007
0.334007
0.334007
0.334007
0.334007
0.334007
0.334007
0.334007
0.334007
0.334007
0.334007
0.334007
0.334007
0.334007
0.334007
0.334007
0.334007
0.334007
0.334007
0.334007
0.334007
0.334007
0.334007
0.334007
0.334007
0.334007
0.334007
0.334007
0.334007
0.334007
0.334007
0.334007
0.334007
0.334007
0.334007
0.334007
0.334007
0.334007
0.334007
0.334007
0.334007
0.334007
0.334007
0.334007
0.334007
0.334007
0.334007
0.334007
0.334007
0.334007
0.334007
0.334007
0.334007
0.334007
0.334007
0.334007
0.334006
0.334006
0.334006
0.334006
0.334006
0.334006
0.334006
0.334006
0.334006
0.334006
0.334006
0.334006
0.334006
0.334006
0.334006
0.334006
0.334006
0.334006
0.334006
0.334006
0.334006
0.334006
0.334006
0.334006
0.334006
0.334006
0.334006
0.334006
0.334006
0.334006
0.334005
0.334005
0.334005
0.334005
0.334005
0.334005
0.334005
0.334005
0.334005
0.334005
0.334005
0.334005
0.334005
0.334005
0.334005
0.334005
0.334005
0.334005
0.334005
0.334005
0.334005
0.334004
0.334004
0.334004
0.334004
0.334004
0.334003
0.334003
0.334003
0.334003
0.334003
0.334003
0.334002
0.334002
0.334002
0.334002
0.334002
0.334002
0.334002
0.334002
0.334002
0.334002
0.334002
0.334002
0.334002
0.334002
0.334002
0.334001
0.334001
0.334
0.334
0.334
0.333999
0.333999
0.333998
0.333998
0.333997
0.333997
0.333997
0.333997
0.333996
0.333996
0.333996
0.333996
0.333996
0.333995
0.333995
0.333995
0.333995
0.333995
0.333996
0.333996
0.333995
0.333994
0.333994
0.333993
0.333992
0.333991
0.33399
0.333989
0.333988
0.333988
0.333987
0.333986
0.333985
0.333985
0.333984
0.333984
0.333983
0.333983
0.333982
0.333982
0.333982
0.333982
0.333982
0.333982
0.333982
0.333982
0.333981
0.33398
0.333979
0.333978
0.333976
0.333974
0.333973
0.333971
0.333969
0.333967
0.333966
0.333964
0.333963
0.333962
0.33396
0.333959
0.333958
0.333958
0.333957
0.333956
0.333956
0.333955
0.333955
0.333955
0.333955
0.333955
0.333954
0.333953
0.333951
0.333949
0.333946
0.333943
0.33394
0.333937
0.333934
0.333931
0.333928
0.333925
0.333922
0.33392
0.333917
0.333915
0.333913
0.333912
0.33391
0.333909
0.333908
0.333907
0.333906
0.333906
0.333905
0.333905
0.333905
0.333902
0.3339
0.333897
0.333892
0.333888
0.333883
0.333877
0.333872
0.333867
0.333861
0.333856
0.333851
0.333847
0.333842
0.333838
0.333835
0.333831
0.333828
0.333826
0.333824
0.333822
0.33382
0.333819
0.333818
0.333817
0.333817
0.333817
0.333811
0.333807
0.333801
0.333794
0.333787
0.333778
0.333769
0.33376
0.333751
0.333742
0.333733
0.333725
0.333717
0.333709
0.333703
0.333696
0.333691
0.333686
0.333681
0.333678
0.333674
0.333672
0.33367
0.333668
0.333667
0.333666
0.333666
0.333659
0.333653
0.333643
0.333632
0.33362
0.333606
0.333591
0.333577
0.333562
0.333547
0.333533
0.333519
0.333506
0.333494
0.333482
0.333472
0.333463
0.333455
0.333447
0.333441
0.333436
0.333432
0.333428
0.333425
0.333423
0.333422
0.333422
0.333422
0.333412
0.333398
0.333381
0.333362
0.33334
0.333318
0.333295
0.333272
0.33325
0.333228
0.333207
0.333187
0.333168
0.333151
0.333135
0.333121
0.333108
0.333097
0.333087
0.333079
0.333072
0.333067
0.333063
0.33306
0.333058
0.333057
0.333078
0.333063
0.333043
0.333019
0.332991
0.332961
0.332929
0.332897
0.332864
0.332832
0.332801
0.332772
0.332743
0.332717
0.332693
0.332671
0.332651
0.332633
0.332618
0.332604
0.332593
0.332583
0.332576
0.33257
0.332566
0.332564
0.332562
0.332613
0.332594
0.332568
0.332536
0.332499
0.33246
0.332419
0.332377
0.332335
0.332294
0.332254
0.332216
0.33218
0.332146
0.332115
0.332087
0.332062
0.33204
0.33202
0.332003
0.331989
0.331978
0.331968
0.331961
0.331956
0.331953
0.331951
0.33203
0.332007
0.331975
0.331937
0.331893
0.331846
0.331797
0.331748
0.331698
0.331649
0.331603
0.331558
0.331516
0.331477
0.331442
0.331409
0.33138
0.331355
0.331332
0.331313
0.331297
0.331283
0.331273
0.331265
0.331259
0.331255
0.331254
0.331345
0.33132
0.331285
0.331242
0.331194
0.331142
0.331088
0.331033
0.330978
0.330925
0.330874
0.330826
0.33078
0.330738
0.3307
0.330665
0.330634
0.330607
0.330583
0.330563
0.330545
0.330531
0.33052
0.330512
0.330505
0.330502
0.3305
0.330586
0.330559
0.330522
0.330477
0.330426
0.330372
0.330316
0.330259
0.330202
0.330147
0.330095
0.330045
0.329998
0.329955
0.329916
0.329881
0.329849
0.329821
0.329797
0.329776
0.329759
0.329744
0.329733
0.329724
0.329718
0.329714
0.329712
0.329778
0.329751
0.329713
0.329668
0.329617
0.329563
0.329506
0.329449
0.329393
0.329338
0.329285
0.329236
0.32919
0.329147
0.329108
0.329073
0.329041
0.329014
0.32899
0.328969
0.328952
0.328938
0.328927
0.328918
0.328912
0.328908
0.328906
0.328945
0.328918
0.328881
0.328837
0.328787
0.328733
0.328678
0.328622
0.328567
0.328513
0.328462
0.328413
0.328368
0.328326
0.328288
0.328254
0.328223
0.328197
0.328173
0.328153
0.328136
0.328122
0.328111
0.328103
0.328097
0.328093
0.328092
0.328102
0.328076
0.328041
0.327998
0.327949
0.327897
0.327844
0.327789
0.327736
0.327684
0.327634
0.327587
0.327543
0.327503
0.327466
0.327432
0.327403
0.327377
0.327354
0.327334
0.327318
0.327304
0.327294
0.327286
0.32728
0.327276
0.327274
0.327261
0.327236
0.327202
0.32716
0.327113
0.327063
0.327011
0.326959
0.326907
0.326857
0.326809
0.326763
0.326721
0.326681
0.326646
0.326613
0.326584
0.326559
0.326537
0.326518
0.326502
0.326489
0.326478
0.32647
0.326465
0.326461
0.326459
0.326428
0.326404
0.32637
0.32633
0.326285
0.326236
0.326186
0.326135
0.326085
0.326037
0.32599
0.325946
0.325904
0.325866
0.325831
0.3258
0.325772
0.325747
0.325726
0.325707
0.325692
0.325679
0.325669
0.325661
0.325655
0.325652
0.32565
0.325605
0.325582
0.325549
0.32551
0.325466
0.325419
0.325371
0.325321
0.325273
0.325225
0.32518
0.325137
0.325097
0.32506
0.325026
0.324995
0.324968
0.324944
0.324923
0.324905
0.324889
0.324877
0.324867
0.324859
0.324854
0.324851
0.324849
0.324794
0.324771
0.32474
0.324702
0.324659
0.324614
0.324566
0.324518
0.324471
0.324425
0.32438
0.324339
0.324299
0.324263
0.32423
0.3242
0.324173
0.32415
0.324129
0.324111
0.324097
0.324084
0.324075
0.324067
0.324062
0.324059
0.324057
0.323996
0.323974
0.323943
0.323906
0.323864
0.32382
0.323774
0.323727
0.32368
0.323635
0.323592
0.323551
0.323513
0.323477
0.323445
0.323415
0.323389
0.323366
0.323346
0.323329
0.323314
0.323302
0.323293
0.323285
0.32328
0.323277
0.323275
0.32321
0.323188
0.323158
0.323122
0.323081
0.323038
0.322992
0.322947
0.322901
0.322857
0.322815
0.322774
0.322737
0.322702
0.32267
0.322642
0.322616
0.322593
0.322573
0.322556
0.322542
0.32253
0.322521
0.322514
0.322509
0.322505
0.322504
0.322436
0.322415
0.322386
0.32235
0.32231
0.322267
0.322223
0.322178
0.322133
0.32209
0.322048
0.322009
0.321972
0.321938
0.321907
0.321878
0.321853
0.321831
0.321811
0.321795
0.321781
0.321769
0.32176
0.321753
0.321748
0.321745
0.321743
0.321674
0.321653
0.321625
0.32159
0.32155
0.321508
0.321465
0.321421
0.321377
0.321334
0.321293
0.321254
0.321218
0.321184
0.321154
0.321126
0.321101
0.321079
0.32106
0.321044
0.32103
0.321018
0.321009
0.321002
0.320997
0.320994
0.320993
0.320923
0.320903
0.320875
0.32084
0.320802
0.32076
0.320717
0.320674
0.320631
0.320589
0.320549
0.32051
0.320475
0.320442
0.320411
0.320384
0.320359
0.320338
0.320319
0.320303
0.320289
0.320278
0.320269
0.320262
0.320257
0.320254
0.320253
0.320183
0.320163
0.320135
0.320101
0.320063
0.320023
0.31998
0.319938
0.319895
0.319854
0.319814
0.319776
0.319741
0.319709
0.319679
0.319652
0.319628
0.319606
0.319588
0.319572
0.319558
0.319547
0.319539
0.319532
0.319527
0.319524
0.319523
0.319453
0.319434
0.319406
0.319373
0.319335
0.319295
0.319254
0.319211
0.31917
0.319129
0.31909
0.319053
0.319018
0.318986
0.318956
0.31893
0.318906
0.318885
0.318866
0.318851
0.318838
0.318827
0.318818
0.318811
0.318807
0.318804
0.318802
0.318733
0.318714
0.318687
0.318654
0.318617
0.318577
0.318536
0.318495
0.318453
0.318413
0.318375
0.318338
0.318304
0.318272
0.318243
0.318217
0.318193
0.318173
0.318155
0.318139
0.318126
0.318115
0.318107
0.3181
0.318095
0.318092
0.318091
0.318023
0.318004
0.317977
0.317945
0.317908
0.317869
0.317828
0.317787
0.317747
0.317707
0.317669
0.317633
0.317599
0.317568
0.317539
0.317513
0.31749
0.317469
0.317452
0.317436
0.317423
0.317413
0.317404
0.317398
0.317393
0.31739
0.317389
0.317322
0.317303
0.317276
0.317244
0.317208
0.31717
0.31713
0.317089
0.317049
0.31701
0.316972
0.316936
0.316903
0.316872
0.316844
0.316818
0.316795
0.316775
0.316757
0.316742
0.31673
0.316719
0.316711
0.316704
0.3167
0.316697
0.316695
0.316629
0.31661
0.316584
0.316553
0.316517
0.316479
0.316439
0.316399
0.31636
0.316321
0.316284
0.316248
0.316215
0.316185
0.316157
0.316132
0.316109
0.316089
0.316072
0.316057
0.316044
0.316034
0.316026
0.316019
0.316015
0.316012
0.316011
0.315945
0.315926
0.3159
0.315869
0.315834
0.315797
0.315757
0.315718
0.315679
0.31564
0.315604
0.315569
0.315536
0.315506
0.315478
0.315454
0.315431
0.315411
0.315394
0.315379
0.315367
0.315357
0.315349
0.315342
0.315338
0.315335
0.315334
0.315269
0.31525
0.315225
0.315194
0.31516
0.315122
0.315084
0.315045
0.315006
0.314968
0.314932
0.314897
0.314865
0.314835
0.314808
0.314783
0.314761
0.314742
0.314725
0.31471
0.314698
0.314688
0.31468
0.314673
0.314669
0.314666
0.314665
0.314601
0.314583
0.314557
0.314527
0.314493
0.314456
0.314418
0.314379
0.314341
0.314303
0.314267
0.314233
0.314202
0.314172
0.314145
0.314121
0.314099
0.31408
0.314063
0.314048
0.314036
0.314026
0.314018
0.314012
0.314008
0.314005
0.314004
0.313941
0.313923
0.313898
0.313868
0.313834
0.313797
0.313759
0.313721
0.313683
0.313646
0.313611
0.313577
0.313546
0.313517
0.31349
0.313466
0.313444
0.313425
0.313409
0.313394
0.313382
0.313372
0.313364
0.313358
0.313354
0.313351
0.31335
0.313288
0.31327
0.313245
0.313216
0.313182
0.313146
0.313109
0.313071
0.313033
0.312997
0.312962
0.312929
0.312897
0.312869
0.312842
0.312818
0.312797
0.312778
0.312762
0.312748
0.312736
0.312726
0.312718
0.312712
0.312708
0.312705
0.312704
0.312642
0.312625
0.3126
0.312571
0.312538
0.312502
0.312465
0.312428
0.312391
0.312355
0.31232
0.312287
0.312256
0.312228
0.312202
0.312178
0.312157
0.312138
0.312122
0.312108
0.312096
0.312087
0.312079
0.312073
0.312069
0.312066
0.312065
0.312004
0.311987
0.311963
0.311933
0.311901
0.311865
0.311829
0.311792
0.311755
0.311719
0.311685
0.311653
0.311622
0.311594
0.311568
0.311545
0.311524
0.311505
0.311489
0.311476
0.311464
0.311454
0.311447
0.311441
0.311437
0.311434
0.311433
0.311373
0.311356
0.311332
0.311303
0.311271
0.311236
0.3112
0.311163
0.311127
0.311091
0.311057
0.311025
0.310995
0.310967
0.310942
0.310919
0.310898
0.31088
0.310864
0.31085
0.310839
0.310829
0.310822
0.310816
0.310812
0.310809
0.310808
0.310749
0.310732
0.310708
0.31068
0.310648
0.310613
0.310577
0.310541
0.310505
0.31047
0.310437
0.310405
0.310375
0.310347
0.310322
0.310299
0.310279
0.310261
0.310245
0.310232
0.31022
0.310211
0.310203
0.310198
0.310194
0.310191
0.31019
0.310132
0.310115
0.310091
0.310063
0.310032
0.309997
0.309962
0.309926
0.309891
0.309856
0.309823
0.309791
0.309762
0.309735
0.30971
0.309687
0.309667
0.309649
0.309633
0.30962
0.309609
0.3096
0.309592
0.309587
0.309583
0.30958
0.309579
0.309521
0.309505
0.309482
0.309454
0.309422
0.309389
0.309354
0.309318
0.309283
0.309249
0.309216
0.309185
0.309156
0.309129
0.309104
0.309082
0.309062
0.309044
0.309029
0.309016
0.309005
0.308995
0.308988
0.308982
0.308978
0.308976
0.308975
0.308918
0.308902
0.308879
0.308852
0.30882
0.308787
0.308753
0.308718
0.308683
0.308649
0.308617
0.308586
0.308557
0.30853
0.308506
0.308484
0.308464
0.308447
0.308431
0.308418
0.308407
0.308398
0.308391
0.308385
0.308382
0.308379
0.308378
0.308322
0.308306
0.308284
0.308256
0.308226
0.308193
0.308159
0.308124
0.30809
0.308056
0.308024
0.307994
0.307965
0.307939
0.307915
0.307893
0.307873
0.307856
0.307841
0.307828
0.307817
0.307808
0.307801
0.307796
0.307792
0.307789
0.307788
0.307734
0.307718
0.307695
0.307669
0.307638
0.307606
0.307572
0.307538
0.307504
0.307471
0.307439
0.307409
0.307381
0.307355
0.307331
0.30731
0.30729
0.307273
0.307258
0.307246
0.307235
0.307226
0.307219
0.307214
0.30721
0.307207
0.307206
0.307153
0.307137
0.307115
0.307088
0.307059
0.307026
0.306993
0.306959
0.306926
0.306893
0.306862
0.306832
0.306805
0.306779
0.306755
0.306734
0.306715
0.306698
0.306684
0.306671
0.306661
0.306652
0.306645
0.30664
0.306636
0.306633
0.306632
0.30658
0.306564
0.306543
0.306516
0.306487
0.306455
0.306422
0.306389
0.306356
0.306324
0.306293
0.306264
0.306237
0.306211
0.306188
0.306167
0.306148
0.306132
0.306117
0.306105
0.306094
0.306086
0.306079
0.306074
0.30607
0.306068
0.306067
0.306016
0.306
0.305979
0.305953
0.305924
0.305893
0.30586
0.305828
0.305795
0.305763
0.305733
0.305704
0.305677
0.305652
0.30563
0.305609
0.30559
0.305574
0.30556
0.305548
0.305537
0.305529
0.305522
0.305517
0.305513
0.305511
0.30551
0.30546
0.305445
0.305424
0.305399
0.30537
0.305339
0.305308
0.305275
0.305243
0.305212
0.305182
0.305154
0.305128
0.305103
0.305081
0.30506
0.305042
0.305026
0.305012
0.305
0.30499
0.304982
0.304975
0.30497
0.304966
0.304964
0.304963
0.304915
0.3049
0.304879
0.304854
0.304826
0.304796
0.304765
0.304733
0.304702
0.304671
0.304642
0.304614
0.304588
0.304564
0.304542
0.304522
0.304504
0.304489
0.304475
0.304463
0.304453
0.304445
0.304439
0.304434
0.30443
0.304428
0.304427
0.30438
0.304366
0.304346
0.304321
0.304294
0.304264
0.304234
0.304203
0.304172
0.304142
0.304113
0.304086
0.30406
0.304037
0.304015
0.303996
0.303978
0.303963
0.30395
0.303938
0.303928
0.30392
0.303914
0.303909
0.303906
0.303903
0.303902
0.303858
0.303844
0.303824
0.3038
0.303773
0.303744
0.303714
0.303684
0.303654
0.303625
0.303597
0.30357
0.303545
0.303522
0.303501
0.303482
0.303465
0.30345
0.303437
0.303426
0.303416
0.303409
0.303402
0.303398
0.303394
0.303392
0.303391
0.303349
0.303335
0.303316
0.303292
0.303266
0.303238
0.303209
0.30318
0.30315
0.303122
0.303095
0.303069
0.303045
0.303022
0.303002
0.302983
0.302967
0.302952
0.302939
0.302928
0.302919
0.302912
0.302906
0.302901
0.302898
0.302896
0.302895
0.302855
0.302841
0.302823
0.3028
0.302775
0.302747
0.302719
0.302691
0.302662
0.302635
0.302608
0.302583
0.30256
0.302538
0.302518
0.3025
0.302484
0.30247
0.302458
0.302447
0.302438
0.302431
0.302425
0.302421
0.302418
0.302416
0.302415
0.302377
0.302364
0.302346
0.302325
0.3023
0.302274
0.302247
0.302219
0.302192
0.302165
0.30214
0.302116
0.302093
0.302072
0.302053
0.302036
0.30202
0.302007
0.301995
0.301985
0.301976
0.301969
0.301963
0.301959
0.301956
0.301954
0.301953
0.301919
0.301907
0.301889
0.301868
0.301845
0.30182
0.301794
0.301767
0.301741
0.301716
0.301691
0.301668
0.301647
0.301627
0.301608
0.301592
0.301577
0.301564
0.301553
0.301543
0.301535
0.301528
0.301523
0.301518
0.301515
0.301514
0.301513
0.301482
0.30147
0.301454
0.301434
0.301411
0.301387
0.301362
0.301337
0.301312
0.301288
0.301265
0.301243
0.301223
0.301204
0.301186
0.301171
0.301157
0.301144
0.301133
0.301124
0.301116
0.30111
0.301105
0.301101
0.301098
0.301096
0.301096
0.301068
0.301057
0.301042
0.301023
0.301002
0.300979
0.300956
0.300932
0.300908
0.300886
0.300864
0.300843
0.300824
0.300806
0.30079
0.300775
0.300762
0.30075
0.30074
0.300731
0.300724
0.300718
0.300713
0.30071
0.300707
0.300705
0.300704
0.300681
0.30067
0.300656
0.300638
0.300619
0.300598
0.300576
0.300554
0.300532
0.30051
0.30049
0.300471
0.300453
0.300436
0.300421
0.300407
0.300395
0.300384
0.300375
0.300367
0.30036
0.300354
0.30035
0.300347
0.300344
0.300343
0.300342
0.300322
0.300313
0.300299
0.300283
0.300265
0.300245
0.300225
0.300205
0.300185
0.300165
0.300146
0.300129
0.300112
0.300097
0.300083
0.30007
0.300059
0.300049
0.300041
0.300033
0.300027
0.300022
0.300018
0.300015
0.300012
0.300011
0.30001
0.299995
0.299986
0.299974
0.299959
0.299943
0.299925
0.299907
0.299888
0.29987
0.299852
0.299835
0.299819
0.299804
0.29979
0.299778
0.299766
0.299756
0.299747
0.299739
0.299733
0.299727
0.299723
0.299719
0.299716
0.299714
0.299713
0.299712
0.2997
0.299693
0.299682
0.299669
0.299654
0.299638
0.299622
0.299605
0.299589
0.299573
0.299558
0.299544
0.299531
0.299518
0.299507
0.299497
0.299488
0.29948
0.299473
0.299467
0.299462
0.299458
0.299455
0.299452
0.299451
0.29945
0.299449
0.299441
0.299434
0.299424
0.299413
0.2994
0.299386
0.299372
0.299358
0.299343
0.29933
0.299316
0.299304
0.299292
0.299282
0.299272
0.299263
0.299255
0.299249
0.299243
0.299237
0.299233
0.29923
0.299227
0.299225
0.299223
0.299222
0.299222
0.299217
0.299211
0.299203
0.299193
0.299182
0.29917
0.299158
0.299146
0.299133
0.299122
0.299111
0.2991
0.29909
0.299081
0.299073
0.299066
0.299059
0.299053
0.299048
0.299044
0.29904
0.299037
0.299035
0.299033
0.299032
0.299031
0.29903
0.299028
0.299023
0.299016
0.299008
0.298999
0.298989
0.298979
0.298969
0.298959
0.298949
0.29894
0.298931
0.298923
0.298916
0.298909
0.298903
0.298897
0.298893
0.298888
0.298885
0.298882
0.29888
0.298878
0.298876
0.298875
0.298874
0.298874
0.298874
0.29887
0.298864
0.298858
0.29885
0.298842
0.298834
0.298826
0.298818
0.29881
0.298803
0.298796
0.298789
0.298784
0.298778
0.298773
0.298769
0.298765
0.298762
0.298759
0.298757
0.298755
0.298753
0.298752
0.298751
0.298751
0.298751
0.298752
0.298749
0.298744
0.298739
0.298733
0.298727
0.298721
0.298715
0.298708
0.298702
0.298697
0.298691
0.298686
0.298682
0.298678
0.298674
0.298671
0.298668
0.298665
0.298663
0.298661
0.29866
0.298659
0.298658
0.298657
0.298657
0.298657
0.298658
0.298656
0.298653
0.298649
0.298645
0.29864
0.298635
0.298631
0.298626
0.298622
0.298617
0.298613
0.29861
0.298606
0.298603
0.298601
0.298598
0.298596
0.298594
0.298593
0.298592
0.29859
0.29859
0.298589
0.298589
0.298588
0.298588
0.29859
0.298588
0.298586
0.298583
0.29858
0.298577
0.298574
0.29857
0.298567
0.298564
0.298561
0.298558
0.298556
0.298553
0.298551
0.298549
0.298548
0.298546
0.298545
0.298544
0.298543
0.298542
0.298542
0.298541
0.298541
0.298541
0.298541
0.298542
0.298541
0.298539
0.298538
0.298535
0.298533
0.298531
0.298529
0.298527
0.298525
0.298523
0.298521
0.298519
0.298518
0.298516
0.298515
0.298514
0.298513
0.298512
0.298511
0.298511
0.29851
0.29851
0.29851
0.29851
0.298509
0.298509
0.29851
0.298509
0.298508
0.298507
0.298506
0.298505
0.298503
0.298502
0.298501
0.298499
0.298498
0.298497
0.298496
0.298495
0.298494
0.298493
0.298493
0.298492
0.298492
0.298491
0.298491
0.29849
0.29849
0.29849
0.29849
0.29849
0.29849
0.29849
0.29849
0.298489
0.298488
0.298488
0.298487
0.298486
0.298485
0.298484
0.298484
0.298483
0.298482
0.298482
0.298481
0.298481
0.29848
0.29848
0.298479
0.298479
0.298479
0.298479
0.298478
0.298478
0.298478
0.298478
0.298478
0.298478
0.298478
0.298478
0.298477
0.298477
0.298477
0.298476
0.298476
0.298475
0.298475
0.298474
0.298474
0.298474
0.298473
0.298473
0.298473
0.298472
0.298472
0.298472
0.298472
0.298472
0.298472
0.298471
0.298471
0.298471
0.298471
0.298471
0.298471
0.298471
0.298471
0.298471
0.29847
0.29847
0.29847
0.29847
0.298469
0.298469
0.298469
0.298469
0.298468
0.298468
0.298468
0.298468
0.298468
0.298468
0.298467
0.298467
0.298467
0.298467
0.298467
0.298467
0.298467
0.298467
0.298467
0.298467
0.298467
0.298467
0.298466
0.298466
0.298466
0.298466
0.298466
0.298466
0.298466
0.298465
0.298465
0.298465
0.298465
0.298465
0.298465
0.298465
0.298465
0.298465
0.298465
0.298464
0.298464
0.298464
0.298464
0.298464
0.298464
0.298464
0.298464
0.298464
0.298464
0.298464
0.298464
0.298464
0.298464
0.298464
0.298463
0.298463
0.298463
0.298463
0.298463
0.298463
0.298463
0.298463
0.298463
0.298463
0.298463
0.298463
0.298463
0.298463
0.298462
0.298462
0.298462
0.298462
0.298462
0.298462
0.298462
0.298462
0.298462
0.298462
0.298462
0.298462
0.298462
0.298462
0.298462
0.298462
0.298462
0.298462
0.298461
0.298461
0.298461
0.298461
0.298461
0.298461
0.298461
0.298461
0.298461
0.298461
0.298461
0.298461
0.298461
0.298461
0.298461
0.298461
0.298461
0.298461
0.298461
0.298461
0.298461
0.298461
0.298461
0.298461
0.298461
0.29846
0.29846
0.29846
0.29846
0.29846
0.29846
0.29846
0.29846
0.29846
0.29846
0.29846
0.29846
0.29846
0.29846
0.29846
0.29846
0.29846
0.29846
0.29846
0.29846
0.29846
0.29846
0.29846
0.29846
0.29846
0.29846
0.29846
0.29846
0.29846
0.29846
0.298459
0.298459
0.298459
0.298459
0.298459
0.298459
0.298459
0.298459
0.298459
0.298459
0.298459
0.298459
0.298459
0.298459
0.298459
0.298459
0.298459
0.298459
0.298459
0.298459
0.298459
0.298459
0.298459
0.298459
0.298459
0.298459
0.298459
0.298459
0.298459
0.298459
0.298459
0.298459
0.298459
0.298459
0.298459
0.298459
0.298459
0.298459
0.298459
0.298459
0.298459
0.298459
0.298459
0.298459
0.298459
0.298459
0.298459
0.298459
0.298459
0.298459
0.298459
0.298459
0.298459
0.298459
0.298459
0.298459
0.298458
0.298458
0.298458
0.298458
0.298458
0.298458
0.298458
0.298458
0.298458
0.298458
0.298458
0.298458
0.298458
0.298458
0.298458
0.298458
0.298458
0.298458
0.298458
0.298458
0.298458
0.298458
0.298458
0.298458
0.298458
0.298458
0.298458
0.298458
0.298458
0.298458
0.298458
0.298458
0.298458
0.298458
0.298458
0.298458
0.298458
0.298458
0.298458
0.298458
0.298458
0.298458
0.298458
0.298458
0.298458
0.298458
0.298458
0.298458
0.298458
0.298458
0.298458
0.298458
0.298458
0.298458
0.298458
0.298458
0.298458
0.298458
0.298458
0.298458
0.298458
0.298458
0.298458
0.298458
0.298458
0.298458
0.298458
0.298458
0.298458
0.298458
0.298458
0.298458
0.298458
0.298458
0.298458
0.298458
0.298458
0.298458
0.298458
0.298458
0.298458
0.298458
0.298458
0.298458
0.298458
0.298458
0.298458
0.298458
0.298458
0.298458
0.298458
0.298458
0.298458
0.298458
0.298458
0.298458
0.298458
0.298458
0.298458
0.298458
0.298458
0.298458
0.298458
0.298458
0.298458
0.298458
0.298458
0.298458
0.298458
0.298458
0.298458
0.298458
0.298458
0.298458
0.298458
0.298458
0.298458
0.298458
0.298458
0.298458
0.298458
0.298458
0.298458
0.298458
0.298458
0.298458
0.298458
0.298458
0.298458
0.298458
0.298458
0.298458
0.298458
0.298458
0.298458
0.298458
0.298458
0.298458
0.298458
0.298458
0.298458
0.298458
0.298458
0.298458
0.298458
0.298458
0.298458
0.298458
0.298458
0.298458
0.298458
0.298458
0.298458
0.298458
0.298458
0.298458
0.298458
0.298458
0.298458
0.298458
0.298458
0.298458
0.298458
0.298458
0.298458
0.298458
0.298458
0.298458
0.298458
0.298458
0.298458
0.298458
0.298458
0.298458
0.298458
0.298458
0.298458
0.298458
0.298458
0.298458
0.298458
0.298458
0.298458
0.298458
0.298458
0.298458
0.298458
0.298458
0.298458
0.298458
0.298458
0.298458
0.298458
0.298458
0.298458
0.298458
0.298458
0.298458
0.298458
0.298458
0.298458
0.298458
0.298458
0.298458
0.298458
0.298458
0.298458
0.298458
0.298458
0.298458
0.298458
0.298458
0.298458
0.298458
0.298458
0.298458
0.298458
0.298458
0.298458
0.298458
0.298458
0.298458
0.298458
0.298458
0.298458
0.298458
0.298458
0.298458
0.298458
0.298458
0.298458
0.298458
0.298458
0.298458
0.298458
0.298458
0.298458
0.298458
0.298458
0.298457
0.298457
0.298457
0.298457
0.298457
0.298457
0.298457
0.298457
0.298457
0.298457
0.298457
0.298457
0.298457
0.298457
0.298457
0.298457
0.298457
0.298457
0.298457
0.298457
0.298457
0.298457
0.298457
0.298457
0.298457
0.298457
0.298457
0.298457
0.298457
0.298457
0.298457
0.298457
0.298457
0.298457
0.298457
0.298457
0.298457
0.298457
0.298457
0.298457
0.298457
0.298457
0.298457
0.298457
0.298457
0.298457
0.298457
0.298457
0.298457
0.298457
0.298457
0.298457
0.298457
0.298457
0.298457
0.298457
0.298457
0.298457
0.298457
0.298457
0.298457
0.298457
0.298457
0.298457
0.298457
0.298457
0.298457
0.298457
0.298457
0.298457
0.298457
0.298457
0.298457
0.298457
0.298457
0.298457
0.298457
0.298457
0.298457
0.298457
0.298457
0.298457
0.298457
0.298457
0.298457
0.298457
0.298457
0.298457
0.298457
0.298457
0.298457
0.298457
0.298457
0.298457
0.298457
0.298457
0.298457
0.298457
0.298457
0.298457
0.298457
0.298457
0.298457
0.298457
0.298457
0.298457
0.298457
0.298457
0.298457
0.298457
0.298457
0.298457
0.298457
0.298457
0.298457
0.298457
0.298457
0.298457
0.298457
0.298457
0.298457
0.298457
0.298457
0.298457
0.298457
0.298457
0.298457
0.298457
0.298457
0.298457
0.298457
0.298457
0.298457
0.298457
0.298457
0.298457
0.298457
0.298457
0.298457
0.298457
0.298457
0.298457
0.298457
0.298457
0.298457
0.298457
0.298457
0.298457
0.298457
0.298457
0.298457
0.298457
0.298457
0.298457
0.298457
0.298457
0.298457
0.298457
0.298457
0.298457
0.298457
0.298457
0.298457
0.298457
0.298457
0.298457
0.298457
0.298457
0.298457
0.298457
0.298457
0.298457
0.298457
0.298457
0.298457
0.298457
0.298457
0.298457
0.298457
0.298457
0.298457
0.298457
0.298457
0.298457
0.298457
0.298457
0.298457
0.298457
0.298457
0.298457
0.298457
0.298457
0.298457
0.298457
0.298457
0.298457
0.298457
0.298457
0.298457
0.298457
0.298457
0.298457
0.298457
0.298457
0.298457
0.334007
0.334007
0.334007
0.334007
0.334007
0.334007
0.334007
0.334007
0.334007
0.334007
0.334007
0.334007
0.334007
0.334007
0.334007
0.334007
0.334007
0.334007
0.334007
0.334007
0.334007