/*--------------------------------*- C++ -*----------------------------------*\
| =========                 |                                                 |
| \\      /  F ield         | OpenFOAM: The Open Source CFD Toolbox           |
|  \\    /   O peration     | Version:  2106                                  |
|   \\  /    A nd           | Website:  www.openfoam.com                      |
|    \\/     M anipulation  |                                                 |
\*---------------------------------------------------------------------------*/
FoamFile
{
    version     2.0;
    format      ascii;
    arch        "LSB;label=32;scalar=64";
    class       volScalarField;
    location    "150.00049";
    object      C2H4_0;
}
// * * * * * * * * * * * * * * * * * * * * * * * * * * * * * * * * * * * * * //

dimensions      [0 0 0 0 0 0 0];

internalField   nonuniform List<scalar> 
3360
(
1.58202e-19
1.63293e-19
1.70378e-19
1.79044e-19
1.8893e-19
1.99712e-19
2.11097e-19
2.2282e-19
2.34646e-19
2.46368e-19
2.57804e-19
2.68802e-19
2.79236e-19
2.89005e-19
2.98033e-19
3.06266e-19
3.13672e-19
3.20235e-19
3.2596e-19
3.30862e-19
3.34972e-19
3.38328e-19
3.40979e-19
3.42979e-19
3.44386e-19
3.45262e-19
3.45668e-19
6.93992e-19
7.19501e-19
7.55499e-19
8.00327e-19
8.52614e-19
9.11162e-19
9.749e-19
1.04285e-18
1.1141e-18
1.18779e-18
1.26309e-18
1.3392e-18
1.41532e-18
1.49067e-18
1.56449e-18
1.63601e-18
1.7045e-18
1.76923e-18
1.82952e-18
1.88471e-18
1.93423e-18
1.97754e-18
2.01419e-18
2.04384e-18
2.06621e-18
2.08115e-18
2.0886e-18
2.17757e-18
2.27314e-18
2.40894e-18
2.57959e-18
2.78061e-18
3.00799e-18
3.2579e-18
3.52658e-18
3.81021e-18
4.10492e-18
4.40672e-18
4.71167e-18
5.01585e-18
5.31541e-18
5.60661e-18
5.88591e-18
6.15002e-18
6.39602e-18
6.62133e-18
6.82385e-18
7.00194e-18
7.15444e-18
7.28069e-18
7.38047e-18
7.45404e-18
7.50202e-18
7.52537e-18
6.34182e-18
6.65682e-18
7.10743e-18
7.67754e-18
8.35367e-18
9.1232e-18
9.97351e-18
1.08915e-17
1.18635e-17
1.2875e-17
1.39112e-17
1.49569e-17
1.59971e-17
1.7017e-17
1.80028e-17
1.89417e-17
1.98224e-17
2.06353e-17
2.13725e-17
2.20284e-17
2.2599e-17
2.30825e-17
2.34784e-17
2.37881e-17
2.40141e-17
2.416e-17
2.42304e-17
1.85288e-17
1.95225e-17
2.09468e-17
2.2753e-17
2.48997e-17
2.73473e-17
3.00551e-17
3.29797e-17
3.60751e-17
3.92928e-17
4.25824e-17
4.58934e-17
4.91761e-17
5.2383e-17
5.54702e-17
5.83984e-17
6.11335e-17
6.36476e-17
6.5919e-17
6.7932e-17
6.96773e-17
7.1151e-17
7.23543e-17
7.32928e-17
7.39759e-17
7.4416e-17
7.46278e-17
5.46317e-17
5.76834e-17
6.20628e-17
6.76212e-17
7.42315e-17
8.17704e-17
9.01106e-17
9.91163e-17
1.08642e-16
1.18537e-16
1.28641e-16
1.38799e-16
1.48854e-16
1.58661e-16
1.68086e-16
1.7701e-16
1.8533e-16
1.92963e-16
1.99847e-16
2.05937e-16
2.11209e-16
2.15653e-16
2.19276e-16
2.22098e-16
2.24149e-16
2.25469e-16
2.26104e-16
1.62286e-16
1.71559e-16
1.84866e-16
2.01756e-16
2.21841e-16
2.44743e-16
2.70067e-16
2.97397e-16
3.26285e-16
3.56264e-16
3.86854e-16
4.17572e-16
4.47953e-16
4.77556e-16
5.05978e-16
5.32863e-16
5.57909e-16
5.80873e-16
6.01568e-16
6.19867e-16
6.35698e-16
6.49038e-16
6.59911e-16
6.68376e-16
6.74529e-16
6.78487e-16
6.8039e-16
4.83661e-16
5.11564e-16
5.51625e-16
6.0249e-16
6.62993e-16
7.31991e-16
8.08293e-16
8.90631e-16
9.77651e-16
1.06794e-15
1.16003e-15
1.25248e-15
1.34388e-15
1.4329e-15
1.51834e-15
1.59912e-15
1.67434e-15
1.74327e-15
1.80537e-15
1.86025e-15
1.90771e-15
1.94769e-15
1.98025e-15
2.0056e-15
2.02402e-15
2.03586e-15
2.04155e-15
1.44526e-15
1.52912e-15
1.64949e-15
1.80231e-15
1.98406e-15
2.19128e-15
2.42039e-15
2.66755e-15
2.92868e-15
3.19951e-15
3.47568e-15
3.75281e-15
4.0267e-15
4.29338e-15
4.54922e-15
4.79107e-15
5.01622e-15
5.22251e-15
5.40831e-15
5.5725e-15
5.71447e-15
5.83405e-15
5.93147e-15
6.00728e-15
6.06236e-15
6.09779e-15
6.11481e-15
4.31871e-15
4.56985e-15
4.93041e-15
5.38819e-15
5.93264e-15
6.55341e-15
7.2397e-15
7.97999e-15
8.76205e-15
9.57304e-15
1.03999e-14
1.12294e-14
1.20491e-14
1.28471e-14
1.36125e-14
1.43358e-14
1.5009e-14
1.56257e-14
1.61809e-14
1.66715e-14
1.70956e-14
1.74527e-14
1.77436e-14
1.79699e-14
1.81343e-14
1.824e-14
1.82907e-14
1.29108e-14
1.36625e-14
1.47415e-14
1.61112e-14
1.77399e-14
1.95963e-14
2.16482e-14
2.38609e-14
2.61976e-14
2.862e-14
3.10888e-14
3.35651e-14
3.6011e-14
3.83914e-14
4.06738e-14
4.28303e-14
4.48369e-14
4.66746e-14
4.83289e-14
4.97904e-14
5.10534e-14
5.21169e-14
5.2983e-14
5.36568e-14
5.41462e-14
5.44609e-14
5.4612e-14
3.85568e-14
4.08008e-14
4.40216e-14
4.81094e-14
5.29691e-14
5.85072e-14
6.46264e-14
7.1223e-14
7.81871e-14
8.5404e-14
9.27565e-14
1.00128e-13
1.07407e-13
1.14488e-13
1.21275e-13
1.27685e-13
1.33647e-13
1.39105e-13
1.44017e-13
1.48354e-13
1.52102e-13
1.55256e-13
1.57824e-13
1.59822e-13
1.61272e-13
1.62205e-13
1.62652e-13
1.1501e-13
1.21697e-13
1.3129e-13
1.43461e-13
1.57922e-13
1.74393e-13
1.92582e-13
2.12177e-13
2.3285e-13
2.54259e-13
2.76056e-13
2.97895e-13
3.19445e-13
3.40395e-13
3.60464e-13
3.79407e-13
3.97017e-13
4.1313e-13
4.27624e-13
4.40418e-13
4.51467e-13
4.60764e-13
4.68331e-13
4.74215e-13
4.78486e-13
4.81231e-13
4.82549e-13
3.4202e-13
3.61851e-13
3.90292e-13
4.26357e-13
4.69185e-13
5.1793e-13
5.71717e-13
6.29617e-13
6.90649e-13
7.53797e-13
8.1803e-13
8.8233e-13
9.45718e-13
1.00729e-12
1.06621e-12
1.12178e-12
1.1734e-12
1.22059e-12
1.26301e-12
1.30042e-12
1.33272e-12
1.35987e-12
1.38196e-12
1.39912e-12
1.41158e-12
1.41958e-12
1.42342e-12
1.01332e-12
1.0718e-12
1.15562e-12
1.26183e-12
1.38782e-12
1.53106e-12
1.68893e-12
1.85865e-12
2.03731e-12
2.22191e-12
2.40941e-12
2.59685e-12
2.78137e-12
2.96036e-12
3.13144e-12
3.29257e-12
3.44207e-12
3.57861e-12
3.7012e-12
3.80923e-12
3.90238e-12
3.98065e-12
4.04426e-12
4.09368e-12
4.12951e-12
4.15251e-12
4.16355e-12
2.98438e-12
3.15522e-12
3.39987e-12
3.70951e-12
4.07635e-12
4.49279e-12
4.951e-12
5.44276e-12
5.95949e-12
6.49241e-12
7.03271e-12
7.57181e-12
8.10156e-12
8.61448e-12
9.10389e-12
9.56409e-12
9.99036e-12
1.03791e-11
1.07276e-11
1.10342e-11
1.12984e-11
1.152e-11
1.17e-11
1.18397e-11
1.19408e-11
1.20057e-11
1.20369e-11
8.72142e-12
9.21417e-12
9.91895e-12
1.08095e-11
1.18626e-11
1.30555e-11
1.43651e-11
1.57673e-11
1.72369e-11
1.87487e-11
2.02776e-11
2.17993e-11
2.32908e-11
2.47315e-11
2.6103e-11
2.73897e-11
2.85791e-11
2.96615e-11
3.06302e-11
3.14812e-11
3.2213e-11
3.28262e-11
3.33234e-11
3.37087e-11
3.39876e-11
3.41663e-11
3.42519e-11
2.52208e-11
2.66169e-11
2.86105e-11
3.11242e-11
3.40894e-11
3.74391e-11
4.11052e-11
4.50179e-11
4.91057e-11
5.32971e-11
5.75218e-11
6.17129e-11
6.58083e-11
6.97519e-11
7.34952e-11
7.69974e-11
8.02262e-11
8.31575e-11
8.57748e-11
8.80692e-11
9.00383e-11
9.16854e-11
9.30188e-11
9.40508e-11
9.47966e-11
9.5274e-11
9.55026e-11
7.19475e-11
7.58114e-11
8.13173e-11
8.82406e-11
9.6381e-11
1.05544e-10
1.15534e-10
1.26154e-10
1.37204e-10
1.48488e-10
1.59816e-10
1.71009e-10
1.81905e-10
1.9236e-10
2.02249e-10
2.1147e-10
2.19946e-10
2.27619e-10
2.34452e-10
2.40428e-10
2.45545e-10
2.49817e-10
2.53269e-10
2.55935e-10
2.5786e-10
2.59091e-10
2.59679e-10
2.01664e-10
2.1204e-10
2.26787e-10
2.45268e-10
2.66914e-10
2.91174e-10
3.17504e-10
3.45359e-10
3.74205e-10
4.03521e-10
4.32815e-10
4.61631e-10
4.8956e-10
5.16246e-10
5.41391e-10
5.64754e-10
5.86156e-10
6.05468e-10
6.22618e-10
6.37576e-10
6.50353e-10
6.60997e-10
6.69581e-10
6.76201e-10
6.80971e-10
6.84017e-10
6.85472e-10
5.52888e-10
5.79742e-10
6.17793e-10
6.65296e-10
7.20682e-10
7.82452e-10
8.49145e-10
9.19331e-10
9.91627e-10
1.06472e-09
1.13738e-09
1.20852e-09
1.27714e-09
1.34242e-09
1.40369e-09
1.46039e-09
1.51216e-09
1.55871e-09
1.59994e-09
1.63579e-09
1.66635e-09
1.69175e-09
1.71219e-09
1.72793e-09
1.73925e-09
1.74647e-09
1.74991e-09
1.47505e-09
1.54161e-09
1.63561e-09
1.75247e-09
1.88808e-09
2.03853e-09
2.20009e-09
2.36918e-09
2.54239e-09
2.71658e-09
2.88887e-09
3.05669e-09
3.21784e-09
3.37049e-09
3.51316e-09
3.64472e-09
3.7644e-09
3.87172e-09
3.96646e-09
4.04865e-09
4.11853e-09
4.17649e-09
4.22306e-09
4.25885e-09
4.28456e-09
4.30093e-09
4.30873e-09
3.80983e-09
3.96707e-09
4.18844e-09
4.4625e-09
4.77902e-09
5.12839e-09
5.50158e-09
5.89006e-09
6.28594e-09
6.68202e-09
7.07186e-09
7.44986e-09
7.81127e-09
8.15222e-09
8.4697e-09
8.76146e-09
9.02604e-09
9.26259e-09
9.47089e-09
9.65118e-09
9.80413e-09
9.93076e-09
1.00323e-08
1.01102e-08
1.01662e-08
1.02017e-08
1.02186e-08
9.48253e-09
9.83588e-09
1.03318e-08
1.09436e-08
1.1647e-08
1.24198e-08
1.32414e-08
1.40926e-08
1.49559e-08
1.58158e-08
1.66585e-08
1.74723e-08
1.82474e-08
1.89762e-08
1.96525e-08
2.02722e-08
2.08327e-08
2.13326e-08
2.17718e-08
2.21511e-08
2.24724e-08
2.27379e-08
2.29505e-08
2.31135e-08
2.32303e-08
2.33045e-08
2.33398e-08
2.26682e-08
2.34236e-08
2.44813e-08
2.57816e-08
2.72713e-08
2.89017e-08
3.06279e-08
3.24092e-08
3.42088e-08
3.59946e-08
3.77384e-08
3.94169e-08
4.10108e-08
4.25049e-08
4.38879e-08
4.51523e-08
4.62931e-08
4.73087e-08
4.81993e-08
4.89674e-08
4.9617e-08
5.01531e-08
5.05819e-08
5.09103e-08
5.11454e-08
5.12946e-08
5.13655e-08
5.19555e-08
5.34944e-08
5.56444e-08
5.82803e-08
6.12909e-08
6.45746e-08
6.80393e-08
7.16021e-08
7.51893e-08
7.87369e-08
8.219e-08
8.55034e-08
8.86404e-08
9.15729e-08
9.42804e-08
9.67492e-08
9.89719e-08
1.00946e-07
1.02674e-07
1.04162e-07
1.05418e-07
1.06453e-07
1.0728e-07
1.07913e-07
1.08365e-07
1.08652e-07
1.08789e-07
1.14127e-07
1.17117e-07
1.21284e-07
1.2638e-07
1.32181e-07
1.38487e-07
1.45116e-07
1.51908e-07
1.58721e-07
1.65435e-07
1.71949e-07
1.78179e-07
1.84061e-07
1.89544e-07
1.94596e-07
1.99192e-07
2.03323e-07
2.06986e-07
2.10188e-07
2.12942e-07
2.15264e-07
2.17176e-07
2.18703e-07
2.19869e-07
2.20703e-07
2.21232e-07
2.21483e-07
2.39785e-07
2.45318e-07
2.53019e-07
2.62417e-07
2.73094e-07
2.84674e-07
2.96822e-07
3.09242e-07
3.2168e-07
3.33917e-07
3.4577e-07
3.57093e-07
3.6777e-07
3.77715e-07
3.86866e-07
3.95187e-07
4.02659e-07
4.09282e-07
4.15067e-07
4.20038e-07
4.24229e-07
4.27679e-07
4.30432e-07
4.32535e-07
4.34038e-07
4.34991e-07
4.35443e-07
4.81122e-07
4.91057e-07
5.0488e-07
5.21738e-07
5.40878e-07
5.61624e-07
5.83374e-07
6.05601e-07
6.27844e-07
6.49716e-07
6.70893e-07
6.91112e-07
7.10169e-07
7.27911e-07
7.44232e-07
7.59065e-07
7.7238e-07
7.84177e-07
7.94478e-07
8.03328e-07
8.10786e-07
8.16923e-07
8.21819e-07
8.25558e-07
8.2823e-07
8.29922e-07
8.30725e-07
9.24556e-07
9.42053e-07
9.66395e-07
9.96087e-07
1.0298e-06
1.06635e-06
1.10468e-06
1.14386e-06
1.18307e-06
1.22164e-06
1.25899e-06
1.29465e-06
1.32828e-06
1.35959e-06
1.38839e-06
1.41457e-06
1.43807e-06
1.45889e-06
1.47708e-06
1.4927e-06
1.50586e-06
1.51668e-06
1.52532e-06
1.53191e-06
1.53662e-06
1.53961e-06
1.54102e-06
1.70253e-06
1.73262e-06
1.7745e-06
1.82561e-06
1.88368e-06
1.9467e-06
2.01283e-06
2.08049e-06
2.14828e-06
2.21503e-06
2.27973e-06
2.34158e-06
2.39994e-06
2.45433e-06
2.50442e-06
2.54997e-06
2.59089e-06
2.62717e-06
2.65886e-06
2.6861e-06
2.70906e-06
2.72795e-06
2.74302e-06
2.75453e-06
2.76275e-06
2.76795e-06
2.77042e-06
2.9961e-06
3.04585e-06
3.11513e-06
3.19973e-06
3.29593e-06
3.4004e-06
3.51015e-06
3.62254e-06
3.73529e-06
3.84641e-06
3.95427e-06
4.05749e-06
4.155e-06
4.24599e-06
4.32986e-06
4.40623e-06
4.4749e-06
4.53583e-06
4.58909e-06
4.6349e-06
4.67353e-06
4.70533e-06
4.7307e-06
4.75008e-06
4.76392e-06
4.77269e-06
4.77685e-06
5.0186e-06
5.09606e-06
5.20392e-06
5.33563e-06
5.48541e-06
5.64805e-06
5.81892e-06
5.99392e-06
6.16947e-06
6.3425e-06
6.51044e-06
6.67118e-06
6.82302e-06
6.9647e-06
7.0953e-06
7.21421e-06
7.32114e-06
7.416e-06
7.49894e-06
7.57026e-06
7.6304e-06
7.67991e-06
7.71942e-06
7.74958e-06
7.77112e-06
7.78477e-06
7.79124e-06
7.97676e-06
8.0885e-06
8.24397e-06
8.4336e-06
8.64894e-06
8.88243e-06
9.12734e-06
9.37774e-06
9.6285e-06
9.87524e-06
1.01143e-05
1.03428e-05
1.05583e-05
1.07591e-05
1.09439e-05
1.11119e-05
1.12629e-05
1.13967e-05
1.15135e-05
1.16139e-05
1.16985e-05
1.17681e-05
1.18236e-05
1.1866e-05
1.18962e-05
1.19154e-05
1.19245e-05
1.20178e-05
1.21662e-05
1.23723e-05
1.26233e-05
1.29077e-05
1.32153e-05
1.35372e-05
1.38653e-05
1.4193e-05
1.45147e-05
1.48255e-05
1.51217e-05
1.54005e-05
1.56596e-05
1.58977e-05
1.61137e-05
1.63074e-05
1.64788e-05
1.66283e-05
1.67566e-05
1.68647e-05
1.69535e-05
1.70242e-05
1.70782e-05
1.71168e-05
1.71411e-05
1.71527e-05
1.71889e-05
1.73714e-05
1.76246e-05
1.79323e-05
1.82801e-05
1.86553e-05
1.90467e-05
1.94448e-05
1.98412e-05
2.02292e-05
2.06031e-05
2.09586e-05
2.12924e-05
2.1602e-05
2.18858e-05
2.2143e-05
2.23732e-05
2.25766e-05
2.27538e-05
2.29058e-05
2.30336e-05
2.31387e-05
2.32224e-05
2.32862e-05
2.33318e-05
2.33606e-05
2.33743e-05
2.34358e-05
2.36467e-05
2.39388e-05
2.42932e-05
2.46929e-05
2.51233e-05
2.55713e-05
2.60259e-05
2.64776e-05
2.69187e-05
2.7343e-05
2.77457e-05
2.81231e-05
2.84726e-05
2.87926e-05
2.90822e-05
2.93412e-05
2.95699e-05
2.9769e-05
2.99396e-05
3.00831e-05
3.0201e-05
3.0295e-05
3.03666e-05
3.04178e-05
3.04502e-05
3.04655e-05
3.06348e-05
3.08673e-05
3.1189e-05
3.15789e-05
3.20181e-05
3.24903e-05
3.29811e-05
3.34783e-05
3.39718e-05
3.44531e-05
3.49155e-05
3.53538e-05
3.57643e-05
3.61441e-05
3.64916e-05
3.68059e-05
3.70869e-05
3.73349e-05
3.75508e-05
3.77359e-05
3.78915e-05
3.80194e-05
3.81213e-05
3.8199e-05
3.82546e-05
3.82897e-05
3.83064e-05
3.86346e-05
3.88828e-05
3.92261e-05
3.96419e-05
4.011e-05
4.06128e-05
4.1135e-05
4.16638e-05
4.21881e-05
4.26992e-05
4.319e-05
4.3655e-05
4.40903e-05
4.4493e-05
4.48614e-05
4.51946e-05
4.54924e-05
4.57554e-05
4.59843e-05
4.61805e-05
4.63456e-05
4.64813e-05
4.65894e-05
4.6672e-05
4.6731e-05
4.67684e-05
4.67862e-05
4.72881e-05
4.75477e-05
4.79068e-05
4.83415e-05
4.88307e-05
4.93561e-05
4.99017e-05
5.04538e-05
5.10013e-05
5.15349e-05
5.20472e-05
5.25326e-05
5.2987e-05
5.34074e-05
5.3792e-05
5.41399e-05
5.44509e-05
5.47256e-05
5.49648e-05
5.51699e-05
5.53426e-05
5.54845e-05
5.55976e-05
5.56841e-05
5.57459e-05
5.5785e-05
5.58037e-05
5.64683e-05
5.67364e-05
5.71073e-05
5.75562e-05
5.80615e-05
5.86041e-05
5.91675e-05
5.97377e-05
6.03031e-05
6.08542e-05
6.13834e-05
6.18849e-05
6.23544e-05
6.27888e-05
6.31864e-05
6.35461e-05
6.38678e-05
6.4152e-05
6.43996e-05
6.46119e-05
6.47907e-05
6.49377e-05
6.50549e-05
6.51445e-05
6.52086e-05
6.52492e-05
6.52685e-05
6.60713e-05
6.63461e-05
6.67263e-05
6.71864e-05
6.77043e-05
6.82606e-05
6.88382e-05
6.9423e-05
7.00028e-05
7.05681e-05
7.1111e-05
7.16256e-05
7.21074e-05
7.25534e-05
7.29616e-05
7.33311e-05
7.36616e-05
7.39535e-05
7.4208e-05
7.44263e-05
7.46101e-05
7.47613e-05
7.4882e-05
7.49742e-05
7.50401e-05
7.5082e-05
7.51019e-05
7.60145e-05
7.62948e-05
7.66825e-05
7.71519e-05
7.76802e-05
7.82477e-05
7.88372e-05
7.94339e-05
8.00258e-05
8.06028e-05
8.11572e-05
8.16827e-05
8.21748e-05
8.26304e-05
8.30475e-05
8.34251e-05
8.37629e-05
8.40614e-05
8.43216e-05
8.45449e-05
8.47329e-05
8.48876e-05
8.50111e-05
8.51055e-05
8.5173e-05
8.52159e-05
8.52362e-05
8.62321e-05
8.65171e-05
8.69112e-05
8.73883e-05
8.79255e-05
8.85025e-05
8.91018e-05
8.97087e-05
9.03107e-05
9.08977e-05
9.14617e-05
9.19964e-05
9.24972e-05
9.29609e-05
9.33855e-05
9.37699e-05
9.41138e-05
9.44179e-05
9.46829e-05
9.49103e-05
9.51019e-05
9.52595e-05
9.53854e-05
9.54816e-05
9.55504e-05
9.55941e-05
9.56148e-05
9.66715e-05
9.69604e-05
9.736e-05
9.78437e-05
9.83884e-05
9.89735e-05
9.95813e-05
0.000100197
0.000100807
0.000101403
0.000101975
0.000102517
0.000103025
0.000103496
0.000103927
0.000104317
0.000104666
0.000104975
0.000105244
0.000105475
0.000105669
0.000105829
0.000105957
0.000106055
0.000106125
0.000106169
0.00010619
0.00010729
0.000107582
0.000107986
0.000108476
0.000109027
0.000109619
0.000110234
0.000110856
0.000111474
0.000112077
0.000112656
0.000113205
0.000113719
0.000114195
0.000114631
0.000115026
0.00011538
0.000115692
0.000115964
0.000116198
0.000116395
0.000116557
0.000116687
0.000116786
0.000116856
0.000116901
0.000116923
0.000118052
0.000118347
0.000118755
0.000119249
0.000119805
0.000120403
0.000121024
0.000121653
0.000122277
0.000122885
0.00012347
0.000124024
0.000124543
0.000125024
0.000125465
0.000125864
0.000126221
0.000126536
0.000126811
0.000127047
0.000127246
0.00012741
0.000127541
0.000127641
0.000127712
0.000127758
0.000127779
0.000128927
0.000129224
0.000129636
0.000130134
0.000130695
0.000131297
0.000131923
0.000132557
0.000133186
0.000133799
0.000134388
0.000134947
0.00013547
0.000135955
0.000136399
0.000136801
0.000137161
0.000137479
0.000137756
0.000137994
0.000138195
0.00013836
0.000138492
0.000138592
0.000138664
0.00013871
0.000138732
0.000139891
0.00014019
0.000140604
0.000141106
0.00014167
0.000142276
0.000142906
0.000143544
0.000144177
0.000144794
0.000145387
0.000145949
0.000146476
0.000146963
0.00014741
0.000147814
0.000148177
0.000148497
0.000148776
0.000149015
0.000149217
0.000149383
0.000149515
0.000149617
0.000149689
0.000149735
0.000149757
0.000150922
0.000151223
0.000151639
0.000152143
0.00015271
0.000153319
0.000153952
0.000154593
0.000155228
0.000155848
0.000156444
0.000157009
0.000157538
0.000158028
0.000158477
0.000158883
0.000159247
0.000159569
0.000159849
0.000160089
0.000160292
0.000160459
0.000160592
0.000160694
0.000160767
0.000160813
0.000160835
0.000162002
0.000162304
0.000162722
0.000163227
0.000163796
0.000164407
0.000165042
0.000165685
0.000166323
0.000166945
0.000167543
0.00016811
0.000168641
0.000169133
0.000169583
0.00016999
0.000170355
0.000170678
0.000170959
0.0001712
0.000171404
0.000171571
0.000171705
0.000171807
0.00017188
0.000171926
0.000171948
0.000173114
0.000173417
0.000173835
0.000174342
0.000174912
0.000175525
0.000176162
0.000176806
0.000177445
0.000178069
0.000178668
0.000179236
0.000179768
0.000180261
0.000180712
0.00018112
0.000181486
0.000181809
0.000182091
0.000182333
0.000182536
0.000182704
0.000182838
0.00018294
0.000183013
0.00018306
0.000183082
0.000184245
0.000184548
0.000184967
0.000185474
0.000186045
0.000186659
0.000187296
0.000187941
0.000188581
0.000189205
0.000189805
0.000190374
0.000190906
0.000191399
0.000191851
0.00019226
0.000192626
0.000192949
0.000193231
0.000193473
0.000193677
0.000193845
0.000193979
0.000194081
0.000194155
0.000194201
0.000194223
0.000195381
0.000195684
0.000196104
0.000196611
0.000197182
0.000197796
0.000198433
0.000199079
0.000199719
0.000200343
0.000200943
0.000201511
0.000202044
0.000202537
0.000202989
0.000203398
0.000203764
0.000204087
0.000204369
0.000204611
0.000204815
0.000204983
0.000205117
0.000205219
0.000205292
0.000205339
0.000205361
0.000206513
0.000206816
0.000207235
0.000207742
0.000208313
0.000208926
0.000209563
0.000210208
0.000210848
0.000211471
0.000212071
0.000212639
0.000213171
0.000213664
0.000214115
0.000214524
0.000214889
0.000215212
0.000215494
0.000215736
0.000215939
0.000216107
0.000216241
0.000216343
0.000216416
0.000216463
0.000216485
0.00021763
0.000217932
0.000218351
0.000218857
0.000219427
0.00022004
0.000220676
0.00022132
0.000221958
0.000222581
0.00022318
0.000223747
0.000224278
0.00022477
0.000225221
0.000225629
0.000225994
0.000226316
0.000226597
0.000226839
0.000227042
0.000227209
0.000227343
0.000227445
0.000227518
0.000227565
0.000227587
0.000228724
0.000229025
0.000229443
0.000229948
0.000230517
0.000231128
0.000231763
0.000232406
0.000233043
0.000233664
0.000234261
0.000234827
0.000235357
0.000235848
0.000236298
0.000236705
0.000237069
0.00023739
0.000237671
0.000237912
0.000238115
0.000238282
0.000238415
0.000238517
0.00023859
0.000238636
0.000238658
0.000239786
0.000240087
0.000240504
0.000241008
0.000241575
0.000242184
0.000242817
0.000243458
0.000244093
0.000244713
0.000245308
0.000245873
0.000246401
0.000246891
0.000247339
0.000247744
0.000248107
0.000248428
0.000248708
0.000248948
0.00024915
0.000249317
0.000249449
0.000249551
0.000249624
0.00024967
0.000249692
0.000250811
0.000251111
0.000251526
0.000252028
0.000252594
0.000253201
0.000253831
0.00025447
0.000255103
0.000255721
0.000256314
0.000256876
0.000257403
0.000257891
0.000258337
0.000258741
0.000259103
0.000259422
0.000259701
0.00025994
0.000260142
0.000260308
0.00026044
0.000260541
0.000260614
0.00026066
0.000260681
0.000261791
0.00026209
0.000262503
0.000263003
0.000263566
0.000264171
0.000264799
0.000265435
0.000266066
0.000266681
0.000267272
0.000267832
0.000268356
0.000268842
0.000269286
0.000269689
0.000270049
0.000270367
0.000270645
0.000270883
0.000271083
0.000271248
0.00027138
0.000271481
0.000271553
0.000271599
0.000271621
0.000272719
0.000273017
0.000273428
0.000273926
0.000274487
0.000275089
0.000275714
0.000276347
0.000276975
0.000277587
0.000278175
0.000278732
0.000279254
0.000279738
0.00028018
0.000280581
0.000280939
0.000281256
0.000281532
0.000281769
0.000281968
0.000282133
0.000282264
0.000282364
0.000282436
0.000282481
0.000282503
0.000283591
0.000283887
0.000284296
0.000284792
0.000285349
0.000285948
0.00028657
0.0002872
0.000287824
0.000288433
0.000289018
0.000289572
0.000290092
0.000290572
0.000291012
0.000291411
0.000291767
0.000292082
0.000292357
0.000292593
0.000292791
0.000292955
0.000293085
0.000293185
0.000293256
0.000293301
0.000293323
0.000294399
0.000294693
0.0002951
0.000295593
0.000296147
0.000296743
0.000297361
0.000297987
0.000298608
0.000299213
0.000299795
0.000300346
0.000300862
0.00030134
0.000301777
0.000302173
0.000302527
0.000302841
0.000303114
0.000303348
0.000303545
0.000303708
0.000303837
0.000303936
0.000304007
0.000304052
0.000304074
0.000305137
0.00030543
0.000305834
0.000306323
0.000306874
0.000307466
0.00030808
0.000308702
0.000309319
0.000309921
0.000310498
0.000311046
0.000311558
0.000312033
0.000312468
0.000312861
0.000313213
0.000313524
0.000313795
0.000314028
0.000314224
0.000314385
0.000314514
0.000314612
0.000314683
0.000314727
0.000314749
0.000315799
0.000316089
0.00031649
0.000316976
0.000317523
0.000318111
0.000318721
0.000319338
0.000319951
0.000320548
0.000321121
0.000321665
0.000322174
0.000322645
0.000323076
0.000323467
0.000323816
0.000324125
0.000324394
0.000324625
0.00032482
0.00032498
0.000325108
0.000325205
0.000325275
0.00032532
0.000325341
0.000326376
0.000326664
0.000327062
0.000327544
0.000328087
0.00032867
0.000329275
0.000329888
0.000330495
0.000331087
0.000331656
0.000332195
0.0003327
0.000333168
0.000333595
0.000333983
0.000334329
0.000334635
0.000334902
0.000335131
0.000335324
0.000335483
0.00033561
0.000335707
0.000335776
0.00033582
0.000335841
0.00033686
0.000337145
0.00033754
0.000338018
0.000338556
0.000339134
0.000339734
0.000340341
0.000340943
0.00034153
0.000342094
0.000342628
0.000343128
0.000343591
0.000344015
0.000344399
0.000344742
0.000345046
0.00034531
0.000345537
0.000345728
0.000345886
0.000346011
0.000346107
0.000346176
0.000346219
0.00034624
0.000347241
0.000347524
0.000347915
0.000348388
0.000348921
0.000349493
0.000350087
0.000350688
0.000351284
0.000351865
0.000352423
0.000352952
0.000353447
0.000353906
0.000354325
0.000354705
0.000355045
0.000355345
0.000355607
0.000355831
0.000356021
0.000356176
0.0003563
0.000356395
0.000356463
0.000356507
0.000356527
0.000357508
0.000357788
0.000358175
0.000358643
0.000359169
0.000359735
0.000360322
0.000360917
0.000361506
0.00036208
0.000362632
0.000363155
0.000363644
0.000364098
0.000364512
0.000364888
0.000365224
0.00036552
0.000365779
0.000366001
0.000366188
0.000366342
0.000366465
0.000366558
0.000366626
0.000366668
0.000366688
0.000367647
0.000367923
0.000368305
0.000368767
0.000369288
0.000369846
0.000370426
0.000371012
0.000371594
0.000372161
0.000372706
0.000373222
0.000373705
0.000374152
0.000374561
0.000374932
0.000375263
0.000375556
0.000375811
0.00037603
0.000376215
0.000376367
0.000376488
0.00037658
0.000376647
0.000376689
0.000376709
0.000377642
0.000377914
0.000378291
0.000378746
0.000379259
0.000379809
0.00038038
0.000380959
0.000381532
0.00038209
0.000382627
0.000383135
0.000383611
0.000384052
0.000384455
0.000384819
0.000385146
0.000385434
0.000385686
0.000385901
0.000386083
0.000386232
0.000386351
0.000386443
0.000386508
0.000386549
0.000386569
0.000387474
0.000387742
0.000388112
0.00038856
0.000389064
0.000389605
0.000390167
0.000390735
0.000391298
0.000391847
0.000392375
0.000392874
0.000393342
0.000393775
0.000394171
0.000394529
0.00039485
0.000395133
0.00039538
0.000395592
0.00039577
0.000395917
0.000396034
0.000396124
0.000396188
0.000396228
0.000396248
0.00039712
0.000397383
0.000397746
0.000398185
0.000398679
0.00039921
0.00039976
0.000400318
0.00040087
0.000401408
0.000401925
0.000402414
0.000402872
0.000403296
0.000403684
0.000404036
0.00040435
0.000404627
0.000404869
0.000405076
0.000405251
0.000405395
0.000405509
0.000405597
0.00040566
0.0004057
0.000405719
0.000406554
0.000406811
0.000407166
0.000407595
0.000408078
0.000408596
0.000409134
0.000409679
0.000410218
0.000410744
0.000411249
0.000411727
0.000412174
0.000412588
0.000412967
0.000413309
0.000413616
0.000413887
0.000414123
0.000414325
0.000414496
0.000414636
0.000414748
0.000414833
0.000414894
0.000414933
0.000414952
0.000415745
0.000415995
0.00041634
0.000416758
0.000417229
0.000417733
0.000418257
0.000418786
0.000419311
0.000419822
0.000420313
0.000420778
0.000421213
0.000421615
0.000421983
0.000422316
0.000422614
0.000422877
0.000423107
0.000423303
0.000423469
0.000423605
0.000423714
0.000423797
0.000423856
0.000423894
0.000423912
0.000424658
0.0004249
0.000425234
0.000425639
0.000426095
0.000426583
0.00042709
0.000427603
0.000428111
0.000428605
0.00042908
0.00042953
0.00042995
0.00043034
0.000430696
0.000431018
0.000431305
0.00043156
0.000431781
0.000431971
0.000432131
0.000432263
0.000432368
0.000432448
0.000432506
0.000432542
0.000432559
0.000433251
0.000433484
0.000433807
0.000434196
0.000434635
0.000435105
0.000435593
0.000436086
0.000436575
0.000437051
0.000437507
0.000437939
0.000438344
0.000438718
0.00043906
0.000439369
0.000439645
0.000439889
0.000440102
0.000440285
0.000440438
0.000440565
0.000440665
0.000440742
0.000440797
0.000440832
0.000440849
0.000441481
0.000441704
0.000442012
0.000442385
0.000442804
0.000443253
0.000443719
0.00044419
0.000444657
0.000445111
0.000445546
0.000445959
0.000446344
0.000446701
0.000447027
0.000447322
0.000447585
0.000447818
0.000448021
0.000448194
0.000448341
0.000448461
0.000448557
0.00044863
0.000448683
0.000448716
0.000448732
0.000449298
0.000449509
0.000449801
0.000450154
0.000450551
0.000450977
0.000451418
0.000451864
0.000452306
0.000452735
0.000453147
0.000453537
0.000453902
0.000454239
0.000454546
0.000454825
0.000455074
0.000455293
0.000455485
0.000455649
0.000455787
0.0004559
0.000455991
0.00045606
0.000456109
0.000456141
0.000456156
0.000456649
0.000456848
0.000457122
0.000457453
0.000457825
0.000458224
0.000458638
0.000459056
0.000459469
0.000459871
0.000460256
0.000460621
0.000460962
0.000461277
0.000461564
0.000461824
0.000462057
0.000462262
0.00046244
0.000462593
0.000462722
0.000462828
0.000462912
0.000462977
0.000463023
0.000463052
0.000463066
0.000463483
0.000463667
0.000463921
0.000464228
0.000464573
0.000464942
0.000465325
0.000465711
0.000466093
0.000466465
0.000466821
0.000467157
0.000467472
0.000467762
0.000468027
0.000468267
0.000468481
0.00046867
0.000468834
0.000468975
0.000469094
0.000469191
0.000469269
0.000469328
0.00046937
0.000469397
0.00046941
0.000469749
0.000469917
0.000470149
0.000470429
0.000470744
0.000471081
0.000471429
0.000471781
0.000472129
0.000472467
0.000472791
0.000473097
0.000473383
0.000473646
0.000473887
0.000474105
0.000474299
0.00047447
0.000474619
0.000474746
0.000474854
0.000474942
0.000475012
0.000475066
0.000475105
0.000475129
0.000475141
0.0004754
0.000475551
0.00047576
0.000476011
0.000476293
0.000476595
0.000476908
0.000477223
0.000477534
0.000477836
0.000478125
0.000478399
0.000478653
0.000478889
0.000479103
0.000479297
0.00047947
0.000479622
0.000479755
0.000479868
0.000479964
0.000480042
0.000480105
0.000480152
0.000480186
0.000480208
0.000480218
0.000480403
0.000480536
0.000480719
0.00048094
0.000481188
0.000481453
0.000481728
0.000482004
0.000482277
0.000482541
0.000482794
0.000483033
0.000483256
0.000483461
0.000483649
0.000483818
0.000483968
0.000484101
0.000484216
0.000484315
0.000484398
0.000484467
0.000484521
0.000484562
0.000484592
0.000484611
0.00048462
0.000484735
0.00048485
0.000485007
0.000485198
0.000485411
0.000485638
0.000485874
0.00048611
0.000486344
0.00048657
0.000486787
0.000486991
0.000487181
0.000487356
0.000487515
0.000487659
0.000487787
0.0004879
0.000487998
0.000488082
0.000488153
0.000488211
0.000488257
0.000488292
0.000488317
0.000488333
0.000488341
0.000488398
0.000488494
0.000488626
0.000488785
0.000488964
0.000489154
0.000489351
0.000489549
0.000489743
0.000489932
0.000490112
0.000490282
0.00049044
0.000490585
0.000490717
0.000490836
0.000490943
0.000491036
0.000491117
0.000491187
0.000491245
0.000491293
0.000491331
0.00049136
0.000491381
0.000491394
0.0004914
0.000491412
0.00049149
0.000491598
0.000491728
0.000491873
0.000492028
0.000492188
0.000492349
0.000492507
0.00049266
0.000492805
0.000492943
0.00049307
0.000493187
0.000493294
0.00049339
0.000493476
0.000493551
0.000493616
0.000493672
0.000493719
0.000493757
0.000493788
0.000493811
0.000493828
0.000493838
0.000493843
0.000493825
0.000493887
0.000493972
0.000494075
0.00049419
0.000494313
0.000494439
0.000494566
0.000494691
0.000494811
0.000494926
0.000495034
0.000495134
0.000495226
0.000495309
0.000495385
0.000495452
0.00049551
0.000495561
0.000495605
0.000495642
0.000495672
0.000495696
0.000495714
0.000495727
0.000495735
0.000495739
0.000495704
0.000495752
0.000495818
0.000495898
0.000495987
0.000496081
0.000496179
0.000496276
0.000496372
0.000496465
0.000496553
0.000496635
0.000496712
0.000496783
0.000496847
0.000496904
0.000496955
0.000497
0.000497039
0.000497073
0.000497101
0.000497124
0.000497142
0.000497156
0.000497166
0.000497172
0.000497175
0.000497136
0.000497172
0.000497223
0.000497283
0.00049735
0.000497422
0.000497496
0.00049757
0.000497642
0.000497712
0.000497779
0.000497841
0.000497899
0.000497953
0.000498001
0.000498045
0.000498084
0.000498118
0.000498147
0.000498172
0.000498193
0.000498211
0.000498225
0.000498235
0.000498243
0.000498247
0.00049825
0.000498214
0.000498241
0.000498279
0.000498325
0.000498376
0.00049843
0.000498486
0.000498543
0.000498598
0.000498651
0.000498702
0.000498749
0.000498794
0.000498834
0.000498871
0.000498905