/*--------------------------------*- C++ -*----------------------------------*\
| =========                 |                                                 |
| \\      /  F ield         | OpenFOAM: The Open Source CFD Toolbox           |
|  \\    /   O peration     | Version:  2106                                  |
|   \\  /    A nd           | Website:  www.openfoam.com                      |
|    \\/     M anipulation  |                                                 |
\*---------------------------------------------------------------------------*/
FoamFile
{
    version     2.0;
    format      ascii;
    arch        "LSB;label=32;scalar=64";
    class       volScalarField;
    location    "150.00049";
    object      C2H5;
}
// * * * * * * * * * * * * * * * * * * * * * * * * * * * * * * * * * * * * * //

dimensions      [0 0 0 0 0 0 0];

internalField   nonuniform List<scalar> 
3360
(
5.03546e-23
5.1975e-23
5.42301e-23
5.69885e-23
6.01352e-23
6.3567e-23
6.71907e-23
7.09221e-23
7.46863e-23
7.84172e-23
8.20572e-23
8.55579e-23
8.8879e-23
9.19885e-23
9.4862e-23
9.74825e-23
9.98396e-23
1.01929e-22
1.03751e-22
1.05311e-22
1.06619e-22
1.07688e-22
1.08531e-22
1.09168e-22
1.09616e-22
1.09894e-22
1.10024e-22
2.20893e-22
2.29012e-22
2.4047e-22
2.54739e-22
2.71381e-22
2.90017e-22
3.10304e-22
3.31932e-22
3.54611e-22
3.78065e-22
4.02033e-22
4.26257e-22
4.50487e-22
4.74472e-22
4.97967e-22
5.20732e-22
5.42531e-22
5.63134e-22
5.82323e-22
5.99892e-22
6.15652e-22
6.29437e-22
6.41105e-22
6.50541e-22
6.57662e-22
6.62418e-22
6.64789e-22
6.93105e-22
7.23526e-22
7.66751e-22
8.21067e-22
8.85052e-22
9.57424e-22
1.03697e-21
1.12249e-21
1.21277e-21
1.30657e-21
1.40263e-21
1.4997e-21
1.59651e-21
1.69186e-21
1.78455e-21
1.87345e-21
1.95752e-21
2.03581e-21
2.10753e-21
2.17199e-21
2.22867e-21
2.27722e-21
2.3174e-21
2.34916e-21
2.37258e-21
2.38785e-21
2.39528e-21
2.01856e-21
2.11883e-21
2.26225e-21
2.44372e-21
2.65892e-21
2.90386e-21
3.17451e-21
3.46671e-21
3.77608e-21
4.09805e-21
4.42787e-21
4.76071e-21
5.09179e-21
5.41642e-21
5.7302e-21
6.02905e-21
6.30937e-21
6.56809e-21
6.80275e-21
7.01151e-21
7.19315e-21
7.34702e-21
7.47305e-21
7.57162e-21
7.64354e-21
7.68999e-21
7.71239e-21
5.89761e-21
6.21392e-21
6.66726e-21
7.24215e-21
7.92545e-21
8.70452e-21
9.56638e-21
1.04973e-20
1.14825e-20
1.25067e-20
1.35538e-20
1.46077e-20
1.56525e-20
1.66733e-20
1.76559e-20
1.85879e-20
1.94585e-20
2.02587e-20
2.09817e-20
2.16224e-20
2.2178e-20
2.2647e-20
2.303e-20
2.33288e-20
2.35462e-20
2.36863e-20
2.37537e-20
1.7389e-20
1.83604e-20
1.97543e-20
2.15235e-20
2.36275e-20
2.60272e-20
2.86818e-20
3.15483e-20
3.45804e-20
3.77297e-20
4.0946e-20
4.4179e-20
4.73796e-20
5.05013e-20
5.35012e-20
5.63415e-20
5.89896e-20
6.14193e-20
6.36104e-20
6.5549e-20
6.72269e-20
6.86414e-20
6.97947e-20
7.06929e-20
7.13458e-20
7.17659e-20
7.19679e-20
5.16548e-20
5.46065e-20
5.88421e-20
6.42182e-20
7.06112e-20
7.79006e-20
8.59614e-20
9.46604e-20
1.03855e-19
1.13398e-19
1.23134e-19
1.32912e-19
1.42582e-19
1.52004e-19
1.61051e-19
1.69608e-19
1.77581e-19
1.8489e-19
1.91477e-19
1.97301e-19
2.0234e-19
2.06587e-19
2.10047e-19
2.12742e-19
2.147e-19
2.1596e-19
2.16566e-19
1.53948e-19
1.62829e-19
1.7558e-19
1.91771e-19
2.11029e-19
2.3299e-19
2.57277e-19
2.83485e-19
3.11183e-19
3.39921e-19
3.69234e-19
3.98661e-19
4.27754e-19
4.5609e-19
4.83283e-19
5.08995e-19
5.32937e-19
5.54879e-19
5.74644e-19
5.92113e-19
6.07219e-19
6.19943e-19
6.30309e-19
6.38377e-19
6.44238e-19
6.48008e-19
6.4982e-19
4.60024e-19
4.86716e-19
5.25029e-19
5.73671e-19
6.3152e-19
6.97479e-19
7.70404e-19
8.49075e-19
9.32193e-19
1.0184e-18
1.1063e-18
1.19451e-18
1.28169e-18
1.36657e-18
1.44801e-18
1.52499e-18
1.59665e-18
1.66231e-18
1.72145e-18
1.77372e-18
1.81891e-18
1.85697e-18
1.88797e-18
1.91211e-18
1.92964e-18
1.94091e-18
1.94633e-18
1.37464e-18
1.45458e-18
1.56934e-18
1.71505e-18
1.88835e-18
2.08594e-18
2.30438e-18
2.54002e-18
2.78895e-18
3.04708e-18
3.31026e-18
3.57431e-18
3.83522e-18
4.08921e-18
4.33282e-18
4.56305e-18
4.77734e-18
4.97362e-18
5.15037e-18
5.30652e-18
5.44151e-18
5.55518e-18
5.64775e-18
5.71979e-18
5.77211e-18
5.80575e-18
5.82192e-18
4.10948e-18
4.34876e-18
4.69221e-18
5.12819e-18
5.64658e-18
6.2375e-18
6.8906e-18
7.59489e-18
8.33867e-18
9.10971e-18
9.89554e-18
1.06837e-17
1.14623e-17
1.22199e-17
1.29465e-17
1.36329e-17
1.42716e-17
1.48565e-17
1.53831e-17
1.58482e-17
1.62503e-17
1.65888e-17
1.68644e-17
1.70789e-17
1.72347e-17
1.73349e-17
1.7383e-17
1.22726e-17
1.29869e-17
1.40121e-17
1.53132e-17
1.68601e-17
1.86228e-17
2.05706e-17
2.26703e-17
2.4887e-17
2.71841e-17
2.95244e-17
3.18708e-17
3.41877e-17
3.64415e-17
3.86018e-17
4.0642e-17
4.25397e-17
4.42771e-17
4.58405e-17
4.72212e-17
4.84141e-17
4.94181e-17
5.02355e-17
5.08713e-17
5.1333e-17
5.16297e-17
5.17723e-17
3.66078e-17
3.87361e-17
4.17897e-17
4.56636e-17
5.02667e-17
5.55095e-17
6.12989e-17
6.7536e-17
7.41164e-17
8.09309e-17
8.78688e-17
9.48203e-17
1.0168e-16
1.08348e-16
1.14736e-16
1.20765e-16
1.26371e-16
1.315e-16
1.36113e-16
1.40185e-16
1.43702e-16
1.46662e-16
1.4907e-16
1.50943e-16
1.52302e-16
1.53176e-16
1.53596e-16
1.08866e-16
1.15178e-16
1.24231e-16
1.3571e-16
1.49342e-16
1.64858e-16
1.81979e-16
2.00408e-16
2.19835e-16
2.39935e-16
2.60381e-16
2.80847e-16
3.01024e-16
3.20621e-16
3.39377e-16
3.57065e-16
3.73495e-16
3.88516e-16
4.02018e-16
4.13927e-16
4.24206e-16
4.32849e-16
4.39879e-16
4.45343e-16
4.49307e-16
4.51854e-16
4.53076e-16
3.22543e-16
3.41159e-16
3.6784e-16
4.01645e-16
4.41748e-16
4.87343e-16
5.37593e-16
5.91614e-16
6.48482e-16
7.0724e-16
7.66923e-16
8.26585e-16
8.8532e-16
9.4229e-16
9.96746e-16
1.04804e-15
1.09562e-15
1.13908e-15
1.1781e-15
1.21249e-15
1.24214e-15
1.26705e-15
1.2873e-15
1.30303e-15
1.31443e-15
1.32176e-15
1.32527e-15
9.49954e-16
1.00433e-15
1.08221e-15
1.18076e-15
1.29753e-15
1.43009e-15
1.57594e-15
1.73246e-15
1.89694e-15
2.06657e-15
2.23855e-15
2.41015e-15
2.57877e-15
2.74203e-15
2.89781e-15
3.04429e-15
3.17998e-15
3.3037e-15
3.41463e-15
3.51225e-15
3.59632e-15
3.66688e-15
3.72416e-15
3.76861e-15
3.80082e-15
3.82148e-15
3.83139e-15
2.77617e-15
2.93302e-15
3.15735e-15
3.44081e-15
3.77601e-15
4.15574e-15
4.57259e-15
5.01889e-15
5.48668e-15
5.96791e-15
6.45456e-15
6.9389e-15
7.41367e-15
7.87224e-15
8.30879e-15
8.71837e-15
9.09695e-15
9.44149e-15
9.74983e-15
1.00207e-14
1.02536e-14
1.04488e-14
1.06071e-14
1.07297e-14
1.08185e-14
1.08754e-14
1.09026e-14
8.02858e-15
8.47297e-15
9.10755e-15
9.90768e-15
1.08515e-14
1.19177e-14
1.30847e-14
1.43301e-14
1.56313e-14
1.69654e-14
1.83102e-14
1.96442e-14
2.09478e-14
2.22031e-14
2.33946e-14
2.45094e-14
2.55371e-14
2.64701e-14
2.73033e-14
2.80336e-14
2.86604e-14
2.91846e-14
2.96091e-14
2.99375e-14
3.01749e-14
3.03269e-14
3.03997e-14
2.29054e-14
2.41353e-14
2.58879e-14
2.80917e-14
3.06828e-14
3.35995e-14
3.67796e-14
4.01599e-14
4.36773e-14
4.7269e-14
5.08748e-14
5.44378e-14
5.79061e-14
6.12338e-14
6.43816e-14
6.7317e-14
7.0015e-14
7.24574e-14
7.46325e-14
7.65346e-14
7.81634e-14
7.95232e-14
8.06219e-14
8.14708e-14
8.20835e-14
8.24752e-14
8.26625e-14
6.42151e-14
6.7518e-14
7.22124e-14
7.80954e-14
8.49857e-14
9.27081e-14
1.01089e-13
1.09956e-13
1.19139e-13
1.28471e-13
1.37795e-13
1.46968e-13
1.55859e-13
1.64353e-13
1.72358e-13
1.79795e-13
1.86608e-13
1.92755e-13
1.98215e-13
2.02976e-13
2.07044e-13
2.10432e-13
2.13165e-13
2.15272e-13
2.16791e-13
2.1776e-13
2.18223e-13
1.76131e-13
1.84679e-13
1.96792e-13
2.11914e-13
2.29545e-13
2.49208e-13
2.70439e-13
2.92781e-13
3.15796e-13
3.39064e-13
3.62196e-13
3.84841e-13
4.06688e-13
4.27471e-13
4.46975e-13
4.65028e-13
4.81508e-13
4.96331e-13
5.09455e-13
5.20871e-13
5.30599e-13
5.38686e-13
5.45194e-13
5.50205e-13
5.5381e-13
5.56109e-13
5.57205e-13
4.70344e-13
4.9153e-13
5.21452e-13
5.58652e-13
6.01818e-13
6.4971e-13
7.01139e-13
7.54965e-13
8.10107e-13
8.65559e-13
9.20407e-13
9.73836e-13
1.02514e-12
1.07375e-12
1.11917e-12
1.16106e-12
1.19917e-12
1.23335e-12
1.26351e-12
1.28969e-12
1.31195e-12
1.3304e-12
1.34523e-12
1.35663e-12
1.36482e-12
1.37004e-12
1.37252e-12
1.21738e-12
1.26741e-12
1.33784e-12
1.42504e-12
1.52575e-12
1.63691e-12
1.75564e-12
1.87925e-12
2.00523e-12
2.13127e-12
2.25533e-12
2.37563e-12
2.49066e-12
2.59919e-12
2.70025e-12
2.79314e-12
2.87738e-12
2.9527e-12
3.01903e-12
3.07644e-12
3.12515e-12
3.16548e-12
3.19783e-12
3.22266e-12
3.24047e-12
3.2518e-12
3.25719e-12
3.04423e-12
3.15643e-12
3.31392e-12
3.50813e-12
3.73144e-12
3.97677e-12
4.23755e-12
4.50772e-12
4.78174e-12
5.05467e-12
5.32215e-12
5.58048e-12
5.82657e-12
6.05794e-12
6.2727e-12
6.46952e-12
6.64754e-12
6.80634e-12
6.94587e-12
7.06642e-12
7.16852e-12
7.25292e-12
7.32052e-12
7.37234e-12
7.40948e-12
7.43308e-12
7.4443e-12
7.35247e-12
7.59084e-12
7.92439e-12
8.33421e-12
8.8034e-12
9.31649e-12
9.85934e-12
1.04191e-11
1.09842e-11
1.15447e-11
1.20917e-11
1.26179e-11
1.31174e-11
1.35855e-11
1.40187e-11
1.44147e-11
1.4772e-11
1.509e-11
1.53689e-11
1.56095e-11
1.58129e-11
1.59809e-11
1.61153e-11
1.62182e-11
1.6292e-11
1.63388e-11
1.6361e-11
1.72177e-11
1.7695e-11
1.83603e-11
1.91735e-11
2.0099e-11
2.11044e-11
2.21605e-11
2.32413e-11
2.4324e-11
2.53892e-11
2.64203e-11
2.74042e-11
2.83302e-11
2.91907e-11
2.99803e-11
3.0696e-11
3.13363e-11
3.19016e-11
3.23936e-11
3.28146e-11
3.31682e-11
3.34581e-11
3.36887e-11
3.38643e-11
3.39894e-11
3.40684e-11
3.41059e-11
3.93795e-11
4.02721e-11
4.15059e-11
4.29971e-11
4.46701e-11
4.64567e-11
4.82966e-11
5.01373e-11
5.19351e-11
5.36548e-11
5.52695e-11
5.67604e-11
5.81155e-11
5.93293e-11
6.04011e-11
6.13343e-11
6.21357e-11
6.28139e-11
6.33791e-11
6.38421e-11
6.4214e-11
6.45057e-11
6.47275e-11
6.48891e-11
6.49992e-11
6.50659e-11
6.50962e-11
8.76278e-11
8.91464e-11
9.12123e-11
9.36549e-11
9.63201e-11
9.90713e-11
1.01792e-10
1.04389e-10
1.06788e-10
1.0894e-10
1.10812e-10
1.12391e-10
1.13679e-10
1.14688e-10
1.15442e-10
1.15968e-10
1.16299e-10
1.16468e-10
1.1651e-10
1.16457e-10
1.16338e-10
1.16182e-10
1.16012e-10
1.15848e-10
1.15708e-10
1.15604e-10
1.15549e-10
1.8398e-10
1.86567e-10
1.90057e-10
1.94136e-10
1.98522e-10
2.02971e-10
2.0728e-10
2.11291e-10
2.14889e-10
2.17999e-10
2.20582e-10
2.22633e-10
2.24168e-10
2.25224e-10
2.2585e-10
2.26104e-10
2.26049e-10
2.2575e-10
2.25269e-10
2.24668e-10
2.24001e-10
2.2332e-10
2.22671e-10
2.22094e-10
2.21624e-10
2.21289e-10
2.21112e-10
3.57565e-10
3.63287e-10
3.71167e-10
3.80649e-10
3.91245e-10
4.02528e-10
4.14132e-10
4.2575e-10
4.37134e-10
4.48084e-10
4.58448e-10
4.68111e-10
4.76995e-10
4.85049e-10
4.92245e-10
4.9858e-10
5.04067e-10
5.08734e-10
5.12626e-10
5.15795e-10
5.18305e-10
5.20226e-10
5.21632e-10
5.22601e-10
5.23213e-10
5.23546e-10
5.23676e-10
6.56721e-10
6.72465e-10
6.94696e-10
7.22356e-10
7.54538e-10
7.90425e-10
8.29263e-10
8.70346e-10
9.13003e-10
9.56593e-10
1.0005e-09
1.04414e-09
1.08694e-09
1.1284e-09
1.16804e-09
1.20542e-09
1.24019e-09
1.27204e-09
1.30075e-09
1.32613e-09
1.3481e-09
1.36663e-09
1.38173e-09
1.39348e-09
1.40201e-09
1.40748e-09
1.41009e-09
1.19008e-09
1.22993e-09
1.28687e-09
1.3588e-09
1.44399e-09
1.54084e-09
1.64781e-09
1.76334e-09
1.88583e-09
2.01363e-09
2.145e-09
2.27818e-09
2.4114e-09
2.5429e-09
2.67094e-09
2.79381e-09
2.90999e-09
3.01812e-09
3.11704e-09
3.20581e-09
3.28374e-09
3.35034e-09
3.40537e-09
3.44877e-09
3.48071e-09
3.5015e-09
3.5116e-09
2.1553e-09
2.23805e-09
2.35661e-09
2.50691e-09
2.68555e-09
2.88942e-09
3.11546e-09
3.36041e-09
3.62072e-09
3.89268e-09
4.17243e-09
4.456e-09
4.73941e-09
5.01875e-09
5.29025e-09
5.55041e-09
5.79606e-09
6.0244e-09
6.23309e-09
6.42025e-09
6.58451e-09
6.72494e-09
6.84107e-09
6.93287e-09
7.00068e-09
7.04488e-09
7.0664e-09
3.80216e-09
3.94202e-09
4.14159e-09
4.39317e-09
4.69011e-09
5.02619e-09
5.39524e-09
5.79104e-09
6.20723e-09
6.63738e-09
7.07502e-09
7.5138e-09
7.94757e-09
8.37055e-09
8.7774e-09
9.16338e-09
9.52435e-09
9.85687e-09
1.01582e-08
1.04264e-08
1.06601e-08
1.08586e-08
1.10218e-08
1.11503e-08
1.12444e-08
1.13054e-08
1.1335e-08
6.26414e-09
6.4556e-09
6.72674e-09
7.06512e-09
7.45982e-09
7.90064e-09
8.37782e-09
8.88192e-09
9.40386e-09
9.9349e-09
1.04668e-08
1.09919e-08
1.15033e-08
1.19947e-08
1.24607e-08
1.2897e-08
1.32998e-08
1.36664e-08
1.39949e-08
1.42842e-08
1.45338e-08
1.47438e-08
1.4915e-08
1.50487e-08
1.51463e-08
1.52092e-08
1.52395e-08
9.36824e-09
9.58482e-09
9.88895e-09
1.02644e-08
1.06968e-08
1.11728e-08
1.16804e-08
1.22081e-08
1.27458e-08
1.32841e-08
1.38147e-08
1.43303e-08
1.48248e-08
1.52931e-08
1.57311e-08
1.61356e-08
1.65044e-08
1.68361e-08
1.713e-08
1.7386e-08
1.76047e-08
1.77871e-08
1.79344e-08
1.80483e-08
1.81307e-08
1.81837e-08
1.82093e-08
1.26844e-08
1.28926e-08
1.31827e-08
1.35373e-08
1.39409e-08
1.43797e-08
1.48411e-08
1.53142e-08
1.57893e-08
1.62582e-08
1.67138e-08
1.71506e-08
1.75638e-08
1.79502e-08
1.83072e-08
1.86331e-08
1.89271e-08
1.91887e-08
1.94184e-08
1.96166e-08
1.97846e-08
1.99236e-08
2.0035e-08
2.01205e-08
2.0182e-08
2.02211e-08
2.02398e-08
1.57561e-08
1.59313e-08
1.6174e-08
1.64682e-08
1.67998e-08
1.71565e-08
1.75275e-08
1.79033e-08
1.82763e-08
1.864e-08
1.89893e-08
1.93203e-08
1.96302e-08
1.99168e-08
2.0179e-08
2.04161e-08
2.06281e-08
2.08152e-08
2.09781e-08
2.11178e-08
2.12354e-08
2.13321e-08
2.14092e-08
2.14681e-08
2.15102e-08
2.15369e-08
2.15496e-08
1.82924e-08
1.84249e-08
1.86075e-08
1.88274e-08
1.90734e-08
1.93356e-08
1.96058e-08
1.98769e-08
2.01432e-08
2.04005e-08
2.06451e-08
2.08747e-08
2.10877e-08
2.12829e-08
2.146e-08
2.16189e-08
2.17598e-08
2.18833e-08
2.19902e-08
2.20812e-08
2.21574e-08
2.22197e-08
2.22692e-08
2.23068e-08
2.23336e-08
2.23505e-08
2.23585e-08
2.02039e-08
2.02954e-08
2.04209e-08
2.05711e-08
2.0738e-08
2.09145e-08
2.10949e-08
2.12743e-08
2.14491e-08
2.16162e-08
2.17738e-08
2.19203e-08
2.2055e-08
2.21774e-08
2.22875e-08
2.23855e-08
2.24717e-08
2.25467e-08
2.26111e-08
2.26656e-08
2.27109e-08
2.27478e-08
2.27769e-08
2.27989e-08
2.28145e-08
2.28243e-08
2.2829e-08
2.15383e-08
2.15959e-08
2.16745e-08
2.1768e-08
2.18712e-08
2.19794e-08
2.20889e-08
2.21967e-08
2.23007e-08
2.2399e-08
2.24907e-08
2.25749e-08
2.26515e-08
2.27202e-08
2.27813e-08
2.2835e-08
2.28817e-08
2.29219e-08
2.2956e-08
2.29846e-08
2.30081e-08
2.3027e-08
2.30418e-08
2.30529e-08
2.30607e-08
2.30656e-08
2.30679e-08
2.24022e-08
2.24342e-08
2.24775e-08
2.25287e-08
2.25844e-08
2.26421e-08
2.26997e-08
2.27553e-08
2.2808e-08
2.28568e-08
2.29014e-08
2.29413e-08
2.29768e-08
2.30077e-08
2.30345e-08
2.30574e-08
2.30767e-08
2.30928e-08
2.31061e-08
2.31168e-08
2.31253e-08
2.3132e-08
2.3137e-08
2.31406e-08
2.31431e-08
2.31446e-08
2.31453e-08
2.29098e-08
2.29235e-08
2.29418e-08
2.29629e-08
2.29851e-08
2.30073e-08
2.30283e-08
2.30476e-08
2.30646e-08
2.30791e-08
2.30911e-08
2.31007e-08
2.31079e-08
2.31131e-08
2.31165e-08
2.31185e-08
2.31192e-08
2.3119e-08
2.31182e-08
2.31169e-08
2.31153e-08
2.31137e-08
2.31122e-08
2.31108e-08
2.31097e-08
2.3109e-08
2.31086e-08
2.31594e-08
2.31606e-08
2.31617e-08
2.31621e-08
2.31614e-08
2.31593e-08
2.31555e-08
2.315e-08
2.31429e-08
2.31342e-08
2.31243e-08
2.31134e-08
2.31018e-08
2.30897e-08
2.30775e-08
2.30655e-08
2.30539e-08
2.30428e-08
2.30326e-08
2.30233e-08
2.30151e-08
2.3008e-08
2.30022e-08
2.29975e-08
2.2994e-08
2.29918e-08
2.29907e-08
2.32272e-08
2.32199e-08
2.32094e-08
2.3196e-08
2.31799e-08
2.31616e-08
2.31413e-08
2.31193e-08
2.30962e-08
2.30722e-08
2.30478e-08
2.30233e-08
2.29992e-08
2.29758e-08
2.29534e-08
2.29321e-08
2.29124e-08
2.28943e-08
2.28779e-08
2.28634e-08
2.28508e-08
2.28402e-08
2.28314e-08
2.28246e-08
2.28196e-08
2.28164e-08
2.28148e-08
2.31687e-08
2.31559e-08
2.31377e-08
2.31152e-08
2.30891e-08
2.30601e-08
2.30289e-08
2.29962e-08
2.29626e-08
2.29286e-08
2.28948e-08
2.28615e-08
2.28294e-08
2.27986e-08
2.27695e-08
2.27424e-08
2.27174e-08
2.26947e-08
2.26744e-08
2.26565e-08
2.26411e-08
2.26281e-08
2.26176e-08
2.26094e-08
2.26034e-08
2.25995e-08
2.25976e-08
2.30235e-08
2.30071e-08
2.2984e-08
2.29557e-08
2.2923e-08
2.28872e-08
2.28491e-08
2.28095e-08
2.27691e-08
2.27287e-08
2.26889e-08
2.26501e-08
2.26128e-08
2.25773e-08
2.2544e-08
2.25131e-08
2.24849e-08
2.24593e-08
2.24365e-08
2.24165e-08
2.23993e-08
2.2385e-08
2.23733e-08
2.23642e-08
2.23576e-08
2.23533e-08
2.23512e-08
2.28193e-08
2.28006e-08
2.27744e-08
2.27423e-08
2.27056e-08
2.26655e-08
2.2623e-08
2.25791e-08
2.25346e-08
2.24903e-08
2.24467e-08
2.24044e-08
2.2364e-08
2.23257e-08
2.22898e-08
2.22567e-08
2.22264e-08
2.2199e-08
2.21748e-08
2.21535e-08
2.21353e-08
2.212e-08
2.21076e-08
2.2098e-08
2.2091e-08
2.20866e-08
2.20844e-08
2.25752e-08
2.25551e-08
2.25271e-08
2.24927e-08
2.24536e-08
2.24109e-08
2.23658e-08
2.23193e-08
2.22723e-08
2.22256e-08
2.21799e-08
2.21356e-08
2.20934e-08
2.20534e-08
2.20161e-08
2.19816e-08
2.19502e-08
2.19219e-08
2.18968e-08
2.18748e-08
2.1856e-08
2.18403e-08
2.18275e-08
2.18176e-08
2.18104e-08
2.18058e-08
2.18036e-08
2.23046e-08
2.22837e-08
2.22546e-08
2.2219e-08
2.21785e-08
2.21344e-08
2.20878e-08
2.204e-08
2.19917e-08
2.19437e-08
2.18969e-08
2.18516e-08
2.18083e-08
2.17676e-08
2.17295e-08
2.16944e-08
2.16624e-08
2.16337e-08
2.16081e-08
2.15859e-08
2.15668e-08
2.15508e-08
2.15379e-08
2.15279e-08
2.15206e-08
2.15159e-08
2.15137e-08
2.20168e-08
2.19956e-08
2.19659e-08
2.19298e-08
2.18886e-08
2.18438e-08
2.17966e-08
2.17482e-08
2.16993e-08
2.16509e-08
2.16035e-08
2.15578e-08
2.15143e-08
2.14732e-08
2.14349e-08
2.13997e-08
2.13675e-08
2.13386e-08
2.1313e-08
2.12907e-08
2.12715e-08
2.12555e-08
2.12426e-08
2.12325e-08
2.12252e-08
2.12205e-08
2.12183e-08
2.17185e-08
2.16971e-08
2.16673e-08
2.1631e-08
2.15897e-08
2.15448e-08
2.14975e-08
2.14489e-08
2.14e-08
2.13516e-08
2.13043e-08
2.12586e-08
2.12151e-08
2.11742e-08
2.1136e-08
2.11008e-08
2.10688e-08
2.104e-08
2.10145e-08
2.09922e-08
2.09732e-08
2.09572e-08
2.09443e-08
2.09343e-08
2.09271e-08
2.09224e-08
2.09202e-08
2.14142e-08
2.13929e-08
2.13632e-08
2.1327e-08
2.12859e-08
2.12412e-08
2.11942e-08
2.11459e-08
2.10973e-08
2.10492e-08
2.10022e-08
2.09569e-08
2.09137e-08
2.08731e-08
2.08352e-08
2.08004e-08
2.07686e-08
2.07401e-08
2.07148e-08
2.06928e-08
2.06739e-08
2.06582e-08
2.06454e-08
2.06355e-08
2.06283e-08
2.06237e-08
2.06215e-08
2.11073e-08
2.10862e-08
2.10568e-08
2.1021e-08
2.09803e-08
2.0936e-08
2.08895e-08
2.08417e-08
2.07936e-08
2.07461e-08
2.06996e-08
2.06548e-08
2.06122e-08
2.05721e-08
2.05347e-08
2.05003e-08
2.0469e-08
2.04408e-08
2.04159e-08
2.03941e-08
2.03755e-08
2.03599e-08
2.03473e-08
2.03376e-08
2.03305e-08
2.03259e-08
2.03237e-08
2.08002e-08
2.07794e-08
2.07504e-08
2.07151e-08
2.06749e-08
2.06312e-08
2.05853e-08
2.05382e-08
2.04909e-08
2.0444e-08
2.03982e-08
2.03541e-08
2.03121e-08
2.02726e-08
2.02358e-08
2.02019e-08
2.01711e-08
2.01434e-08
2.01188e-08
2.00974e-08
2.00791e-08
2.00638e-08
2.00514e-08
2.00417e-08
2.00348e-08
2.00303e-08
2.00281e-08
2.04946e-08
2.04741e-08
2.04456e-08
2.04108e-08
2.03713e-08
2.03283e-08
2.02832e-08
2.02369e-08
2.01903e-08
2.01442e-08
2.00992e-08
2.00559e-08
2.00146e-08
1.99758e-08
1.99396e-08
1.99063e-08
1.9876e-08
1.98488e-08
1.98246e-08
1.98036e-08
1.97856e-08
1.97705e-08
1.97584e-08
1.97489e-08
1.97421e-08
1.97376e-08
1.97355e-08
2.01917e-08
2.01716e-08
2.01436e-08
2.01094e-08
2.00705e-08
2.00284e-08
1.99841e-08
1.99386e-08
1.98929e-08
1.98476e-08
1.98034e-08
1.97609e-08
1.97204e-08
1.96823e-08
1.96468e-08
1.96141e-08
1.95844e-08
1.95576e-08
1.9534e-08
1.95133e-08
1.94956e-08
1.94809e-08
1.94689e-08
1.94596e-08
1.94529e-08
1.94486e-08
1.94465e-08
1.98923e-08
1.98725e-08
1.9845e-08
1.98115e-08
1.97734e-08
1.9732e-08
1.96886e-08
1.9644e-08
1.95991e-08
1.95547e-08
1.95114e-08
1.94697e-08
1.943e-08
1.93926e-08
1.93578e-08
1.93258e-08
1.92966e-08
1.92704e-08
1.92472e-08
1.9227e-08
1.92096e-08
1.91951e-08
1.91834e-08
1.91743e-08
1.91677e-08
1.91635e-08
1.91614e-08
1.95968e-08
1.95774e-08
1.95505e-08
1.95176e-08
1.94803e-08
1.94397e-08
1.93971e-08
1.93534e-08
1.93095e-08
1.9266e-08
1.92235e-08
1.91826e-08
1.91437e-08
1.91071e-08
1.9073e-08
1.90416e-08
1.9013e-08
1.89873e-08
1.89646e-08
1.89447e-08
1.89277e-08
1.89135e-08
1.8902e-08
1.88931e-08
1.88866e-08
1.88825e-08
1.88805e-08
1.93055e-08
1.92866e-08
1.92602e-08
1.9228e-08
1.91914e-08
1.91516e-08
1.91099e-08
1.90671e-08
1.9024e-08
1.89814e-08
1.89398e-08
1.88997e-08
1.88616e-08
1.88257e-08
1.87923e-08
1.87615e-08
1.87335e-08
1.87083e-08
1.8686e-08
1.86666e-08
1.86499e-08
1.8636e-08
1.86247e-08
1.8616e-08
1.86096e-08
1.86056e-08
1.86036e-08
1.90185e-08
1.89999e-08
1.8974e-08
1.89425e-08
1.89066e-08
1.88677e-08
1.88268e-08
1.87849e-08
1.87426e-08
1.87009e-08
1.86601e-08
1.86209e-08
1.85835e-08
1.85483e-08
1.85156e-08
1.84854e-08
1.8458e-08
1.84333e-08
1.84114e-08
1.83924e-08
1.8376e-08
1.83624e-08
1.83513e-08
1.83428e-08
1.83365e-08
1.83325e-08
1.83306e-08
1.87356e-08
1.87173e-08
1.8692e-08
1.86611e-08
1.86259e-08
1.85878e-08
1.85477e-08
1.85065e-08
1.84652e-08
1.84242e-08
1.83843e-08
1.83458e-08
1.83091e-08
1.82747e-08
1.82425e-08
1.8213e-08
1.8186e-08
1.81619e-08
1.81404e-08
1.81217e-08
1.81057e-08
1.80923e-08
1.80815e-08
1.80731e-08
1.8067e-08
1.8063e-08
1.80612e-08
1.84563e-08
1.84384e-08
1.84136e-08
1.83832e-08
1.83488e-08
1.83113e-08
1.8272e-08
1.82317e-08
1.81911e-08
1.81509e-08
1.81117e-08
1.8074e-08
1.8038e-08
1.80042e-08
1.79727e-08
1.79436e-08
1.79172e-08
1.78935e-08
1.78724e-08
1.78541e-08
1.78384e-08
1.78252e-08
1.78146e-08
1.78063e-08
1.78004e-08
1.77965e-08
1.77946e-08
1.81802e-08
1.81626e-08
1.81382e-08
1.81084e-08
1.80746e-08
1.80379e-08
1.79992e-08
1.79596e-08
1.79198e-08
1.78803e-08
1.78418e-08
1.78048e-08
1.77695e-08
1.77362e-08
1.77053e-08
1.76768e-08
1.76508e-08
1.76275e-08
1.76068e-08
1.75888e-08
1.75733e-08
1.75604e-08
1.755e-08
1.75419e-08
1.7536e-08
1.75322e-08
1.75303e-08
1.79065e-08
1.78892e-08
1.78652e-08
1.78359e-08
1.78027e-08
1.77665e-08
1.77286e-08
1.76896e-08
1.76504e-08
1.76116e-08
1.75738e-08
1.75373e-08
1.75026e-08
1.74699e-08
1.74394e-08
1.74114e-08
1.73858e-08
1.73629e-08
1.73425e-08
1.73248e-08
1.73096e-08
1.72969e-08
1.72866e-08
1.72786e-08
1.72728e-08
1.72691e-08
1.72673e-08
1.76341e-08
1.76171e-08
1.75935e-08
1.75646e-08
1.75319e-08
1.74963e-08
1.74589e-08
1.74205e-08
1.73819e-08
1.73436e-08
1.73063e-08
1.72704e-08
1.72362e-08
1.7204e-08
1.71739e-08
1.71463e-08
1.71211e-08
1.70985e-08
1.70784e-08
1.70609e-08
1.7046e-08
1.70334e-08
1.70233e-08
1.70154e-08
1.70097e-08
1.7006e-08
1.70042e-08
1.73619e-08
1.73451e-08
1.73218e-08
1.72933e-08
1.7261e-08
1.72258e-08
1.71889e-08
1.7151e-08
1.71128e-08
1.70751e-08
1.70382e-08
1.70027e-08
1.69689e-08
1.69371e-08
1.69074e-08
1.68801e-08
1.68552e-08
1.68329e-08
1.68131e-08
1.67958e-08
1.6781e-08
1.67686e-08
1.67586e-08
1.67508e-08
1.67451e-08
1.67415e-08
1.67397e-08
1.70883e-08
1.70717e-08
1.70486e-08
1.70204e-08
1.69884e-08
1.69536e-08
1.6917e-08
1.68794e-08
1.68417e-08
1.68043e-08
1.67678e-08
1.67326e-08
1.66991e-08
1.66675e-08
1.66381e-08
1.66111e-08
1.65864e-08
1.65643e-08
1.65446e-08
1.65275e-08
1.65128e-08
1.65005e-08
1.64906e-08
1.64829e-08
1.64773e-08
1.64737e-08
1.64719e-08
1.68116e-08
1.67951e-08
1.67721e-08
1.67441e-08
1.67122e-08
1.66776e-08
1.66413e-08
1.66039e-08
1.65664e-08
1.65292e-08
1.64929e-08
1.64579e-08
1.64246e-08
1.63932e-08
1.6364e-08
1.63371e-08
1.63125e-08
1.62905e-08
1.6271e-08
1.62539e-08
1.62393e-08
1.62271e-08
1.62172e-08
1.62095e-08
1.62039e-08
1.62003e-08
1.61986e-08
1.65294e-08
1.65129e-08
1.649e-08
1.6462e-08
1.64302e-08
1.63957e-08
1.63594e-08
1.63221e-08
1.62846e-08
1.62475e-08
1.62112e-08
1.61763e-08
1.6143e-08
1.61116e-08
1.60824e-08
1.60555e-08
1.60311e-08
1.6009e-08
1.59895e-08
1.59725e-08
1.59579e-08
1.59457e-08
1.59358e-08
1.59281e-08
1.59225e-08
1.5919e-08
1.59172e-08
1.62391e-08
1.62226e-08
1.61996e-08
1.61715e-08
1.61396e-08
1.6105e-08
1.60685e-08
1.60311e-08
1.59935e-08
1.59562e-08
1.59198e-08
1.58848e-08
1.58514e-08
1.58199e-08
1.57906e-08
1.57636e-08
1.5739e-08
1.57168e-08
1.56972e-08
1.56801e-08
1.56655e-08
1.56532e-08
1.56433e-08
1.56356e-08
1.563e-08
1.56264e-08
1.56247e-08
1.59377e-08
1.5921e-08
1.58978e-08
1.58695e-08
1.58373e-08
1.58023e-08
1.57656e-08
1.57278e-08
1.56898e-08
1.56522e-08
1.56154e-08
1.558e-08
1.55463e-08
1.55145e-08
1.54849e-08
1.54576e-08
1.54327e-08
1.54104e-08
1.53906e-08
1.53733e-08
1.53585e-08
1.53462e-08
1.53361e-08
1.53284e-08
1.53227e-08
1.53191e-08
1.53173e-08
1.56215e-08
1.56046e-08
1.5581e-08
1.55522e-08
1.55195e-08
1.5484e-08
1.54466e-08
1.54082e-08
1.53696e-08
1.53314e-08
1.5294e-08
1.5258e-08
1.52237e-08
1.51914e-08
1.51613e-08
1.51336e-08
1.51083e-08
1.50856e-08
1.50655e-08
1.50479e-08
1.50329e-08
1.50203e-08
1.50101e-08
1.50022e-08
1.49965e-08
1.49928e-08
1.4991e-08
1.52863e-08
1.5269e-08
1.52449e-08
1.52154e-08
1.5182e-08
1.51456e-08
1.51073e-08
1.50681e-08
1.50285e-08
1.49893e-08
1.49511e-08
1.49142e-08
1.48791e-08
1.4846e-08
1.48152e-08
1.47868e-08
1.4761e-08
1.47377e-08
1.47171e-08
1.46991e-08
1.46837e-08
1.46709e-08
1.46604e-08
1.46523e-08
1.46465e-08
1.46427e-08
1.46409e-08
1.49273e-08
1.49095e-08
1.48846e-08
1.48542e-08
1.48197e-08
1.47822e-08
1.47428e-08
1.47022e-08
1.46614e-08
1.4621e-08
1.45816e-08
1.45436e-08
1.45073e-08
1.44732e-08
1.44414e-08
1.44121e-08
1.43854e-08
1.43614e-08
1.43402e-08
1.43216e-08
1.43058e-08
1.42925e-08
1.42817e-08
1.42734e-08
1.42673e-08
1.42634e-08
1.42616e-08
1.45392e-08
1.45206e-08
1.44948e-08
1.44632e-08
1.44273e-08
1.43884e-08
1.43473e-08
1.43052e-08
1.42628e-08
1.42208e-08
1.41797e-08
1.41402e-08
1.41025e-08
1.4067e-08
1.4034e-08
1.40035e-08
1.39758e-08
1.39509e-08
1.39288e-08
1.39095e-08
1.3893e-08
1.38792e-08
1.38681e-08
1.38594e-08
1.38531e-08
1.38491e-08
1.38471e-08
1.4116e-08
1.40966e-08
1.40695e-08
1.40364e-08
1.39988e-08
1.39579e-08
1.39149e-08
1.38708e-08
1.38264e-08
1.37823e-08
1.37394e-08
1.36979e-08
1.36585e-08
1.36213e-08
1.35867e-08
1.35548e-08
1.35257e-08
1.34996e-08
1.34765e-08
1.34564e-08
1.34391e-08
1.34247e-08
1.3413e-08
1.34039e-08
1.33974e-08
1.33931e-08
1.33911e-08
1.36514e-08
1.36308e-08
1.36023e-08
1.35674e-08
1.35277e-08
1.34846e-08
1.34392e-08
1.33926e-08
1.33457e-08
1.32993e-08
1.32539e-08
1.32102e-08
1.31686e-08
1.31294e-08
1.30929e-08
1.30593e-08
1.30287e-08
1.30012e-08
1.29768e-08
1.29556e-08
1.29374e-08
1.29222e-08
1.29099e-08
1.29004e-08
1.28935e-08
1.2889e-08
1.28869e-08
1.31388e-08
1.3117e-08
1.30866e-08
1.30496e-08
1.30075e-08
1.29617e-08
1.29135e-08
1.28641e-08
1.28143e-08
1.2765e-08
1.27169e-08
1.26705e-08
1.26264e-08
1.25848e-08
1.25461e-08
1.25104e-08
1.2478e-08
1.24489e-08
1.24231e-08
1.24006e-08
1.23814e-08
1.23653e-08
1.23523e-08
1.23422e-08
1.23349e-08
1.23302e-08
1.2328e-08
1.25719e-08
1.25487e-08
1.25163e-08
1.24768e-08
1.24318e-08
1.2383e-08
1.23316e-08
1.22789e-08
1.22259e-08
1.21733e-08
1.21221e-08
1.20727e-08
1.20257e-08
1.19814e-08
1.19403e-08
1.19024e-08
1.18679e-08
1.18369e-08
1.18095e-08
1.17857e-08
1.17652e-08
1.17482e-08
1.17344e-08
1.17237e-08
1.1716e-08
1.1711e-08
1.17086e-08
1.19451e-08
1.19202e-08
1.18856e-08
1.18433e-08
1.17953e-08
1.17431e-08
1.16882e-08
1.16319e-08
1.15753e-08
1.15192e-08
1.14645e-08
1.14119e-08
1.13617e-08
1.13146e-08
1.12707e-08
1.12304e-08
1.11937e-08
1.11607e-08
1.11316e-08
1.11062e-08
1.10846e-08
1.10665e-08
1.10519e-08
1.10405e-08
1.10323e-08
1.10271e-08
1.10245e-08
1.12542e-08
1.12276e-08
1.11906e-08
1.11454e-08
1.10941e-08
1.10383e-08
1.09797e-08
1.09196e-08
1.08592e-08
1.07994e-08
1.07412e-08
1.06851e-08
1.06317e-08
1.05815e-08
1.05349e-08
1.0492e-08
1.04531e-08
1.04181e-08
1.03872e-08
1.03603e-08
1.03374e-08
1.03182e-08
1.03028e-08
1.02908e-08
1.02821e-08
1.02766e-08
1.02739e-08
1.04975e-08
1.04692e-08
1.04298e-08
1.03817e-08
1.0327e-08
1.02677e-08
1.02054e-08
1.01416e-08
1.00774e-08
1.00139e-08
9.95211e-09
9.89266e-09
9.83615e-09
9.78306e-09
9.73374e-09
9.68844e-09
9.64732e-09
9.61047e-09
9.5779e-09
9.54959e-09
9.52544e-09
9.50532e-09
9.48908e-09
9.47652e-09
9.46744e-09
9.46162e-09
9.45883e-09
9.67716e-09
9.64718e-09
9.60548e-09
9.55465e-09
9.49694e-09
9.43434e-09
9.36863e-09
9.30132e-09
9.23373e-09
9.16698e-09
9.10201e-09
9.03957e-09
8.98029e-09
8.92465e-09
8.87301e-09
8.82562e-09
8.78266e-09
8.7442e-09
8.71025e-09
8.68077e-09
8.65565e-09
8.63474e-09
8.61789e-09
8.60487e-09
8.59547e-09
8.58946e-09
8.58657e-09
8.80013e-09
8.76878e-09
8.72522e-09
8.67214e-09
8.61193e-09
8.54668e-09
8.47825e-09
8.40823e-09
8.33799e-09
8.26871e-09
8.20135e-09
8.1367e-09
8.0754e-09
8.01794e-09
7.96468e-09
7.91587e-09
7.87169e-09
7.83218e-09
7.79736e-09
7.76717e-09
7.74147e-09
7.72013e-09
7.70294e-09
7.68969e-09
7.68014e-09
7.67404e-09
7.67111e-09
7.8798e-09
7.84758e-09
7.80284e-09
7.74838e-09
7.68666e-09
7.61985e-09
7.54987e-09
7.47837e-09
7.40675e-09
7.33621e-09
7.26774e-09
7.20212e-09
7.14001e-09
7.08189e-09
7.02811e-09
6.97892e-09
6.93446e-09
6.89479e-09
6.85988e-09
6.82967e-09
6.80402e-09
6.78275e-09
6.76566e-09
6.7525e-09
6.74304e-09
6.73701e-09
6.73413e-09
6.93673e-09
6.90438e-09
6.8595e-09
6.80491e-09
6.74314e-09
6.67638e-09
6.60656e-09
6.53535e-09
6.46416e-09
6.39418e-09
6.32639e-09
6.26157e-09
6.20035e-09
6.14319e-09
6.09042e-09
6.04227e-09
5.99886e-09
5.96022e-09
5.92631e-09
5.89703e-09
5.87223e-09
5.85173e-09
5.8353e-09
5.8227e-09
5.81366e-09
5.80791e-09
5.80517e-09
5.99871e-09
5.9672e-09
5.92352e-09
5.87049e-09
5.81057e-09
5.74595e-09
5.67852e-09
5.6099e-09
5.54148e-09
5.4744e-09
5.4096e-09
5.34782e-09
5.28964e-09
5.23549e-09
5.18566e-09
5.14034e-09
5.09962e-09
5.06349e-09
5.03191e-09
5.00474e-09
4.98181e-09
4.96293e-09
4.94786e-09
4.93635e-09
4.92812e-09
4.92292e-09
4.92045e-09
5.09947e-09
5.06997e-09
5.02913e-09
4.97964e-09
4.92386e-09
4.86386e-09
4.80144e-09
4.73813e-09
4.67523e-09
4.61379e-09
4.55467e-09
4.49853e-09
4.4459e-09
4.39713e-09
4.35246e-09
4.31204e-09
4.27589e-09
4.244e-09
4.21627e-09
4.19255e-09
4.17266e-09
4.15638e-09
4.14346e-09
4.13366e-09
4.12671e-09
4.12234e-09
4.12028e-09
4.27613e-09
4.24992e-09
4.21373e-09
4.17e-09
4.1209e-09
4.0683e-09
4.01385e-09
3.95891e-09
3.90462e-09
3.85191e-09
3.80152e-09
3.754e-09
3.70978e-09
3.66914e-09
3.63225e-09
3.59919e-09
3.56996e-09
3.54449e-09
3.52267e-09
3.50433e-09
3.48928e-09
3.47722e-09
3.46785e-09
3.46089e-09
3.45607e-09
3.4531e-09
3.45174e-09
3.56725e-09
3.54584e-09
3.51645e-09
3.48124e-09
3.44216e-09
3.40097e-09
3.3592e-09
3.3177e-09
3.27723e-09
3.23845e-09
3.20186e-09
3.16784e-09
3.13664e-09
3.10841e-09
3.08322e-09
3.06106e-09