/*--------------------------------*- C++ -*----------------------------------*\
| =========                 |                                                 |
| \\      /  F ield         | OpenFOAM: The Open Source CFD Toolbox           |
|  \\    /   O peration     | Version:  2106                                  |
|   \\  /    A nd           | Website:  www.openfoam.com                      |
|    \\/     M anipulation  |                                                 |
\*---------------------------------------------------------------------------*/
FoamFile
{
    version     2.0;
    format      ascii;
    arch        "LSB;label=32;scalar=64";
    class       volScalarField;
    location    "150.00049";
    object      C2H6;
}
// * * * * * * * * * * * * * * * * * * * * * * * * * * * * * * * * * * * * * //

dimensions      [0 0 0 0 0 0 0];

internalField   nonuniform List<scalar> 
3360
(
1.52575e-19
1.57485e-19
1.64318e-19
1.72676e-19
1.82211e-19
1.92609e-19
2.03589e-19
2.14896e-19
2.26301e-19
2.37606e-19
2.48635e-19
2.59242e-19
2.69305e-19
2.78727e-19
2.87434e-19
2.95374e-19
3.02516e-19
3.08846e-19
3.14367e-19
3.19095e-19
3.23058e-19
3.26296e-19
3.28853e-19
3.30781e-19
3.32138e-19
3.32982e-19
3.33374e-19
6.69311e-19
6.93913e-19
7.2863e-19
7.71864e-19
8.22291e-19
8.78757e-19
9.40228e-19
1.00576e-18
1.07448e-18
1.14554e-18
1.21817e-18
1.29157e-18
1.36498e-18
1.43766e-18
1.50885e-18
1.57783e-18
1.64388e-18
1.70631e-18
1.76445e-18
1.81768e-18
1.86544e-18
1.90721e-18
1.94256e-18
1.97115e-18
1.99273e-18
2.00714e-18
2.01432e-18
2.10012e-18
2.1923e-18
2.32327e-18
2.48785e-18
2.68173e-18
2.90102e-18
3.14204e-18
3.40116e-18
3.67471e-18
3.95894e-18
4.25e-18
4.54411e-18
4.83747e-18
5.12638e-18
5.40722e-18
5.67659e-18
5.93131e-18
6.16856e-18
6.38586e-18
6.58118e-18
6.75293e-18
6.90001e-18
7.02177e-18
7.118e-18
7.18895e-18
7.23522e-18
7.25775e-18
6.11629e-18
6.42009e-18
6.85467e-18
7.40451e-18
8.05659e-18
8.79876e-18
9.61883e-18
1.05042e-17
1.14416e-17
1.24172e-17
1.34165e-17
1.44251e-17
1.54282e-17
1.64119e-17
1.73626e-17
1.82682e-17
1.91175e-17
1.99014e-17
2.06125e-17
2.1245e-17
2.17954e-17
2.22616e-17
2.26435e-17
2.29421e-17
2.31601e-17
2.33008e-17
2.33687e-17
1.78699e-17
1.88283e-17
2.02019e-17
2.19439e-17
2.40143e-17
2.63749e-17
2.89863e-17
3.1807e-17
3.47923e-17
3.78955e-17
4.10682e-17
4.42615e-17
4.74274e-17
5.05203e-17
5.34977e-17
5.63218e-17
5.89596e-17
6.13843e-17
6.35749e-17
6.55164e-17
6.71996e-17
6.86209e-17
6.97814e-17
7.06866e-17
7.13454e-17
7.17698e-17
7.19741e-17
5.26891e-17
5.56323e-17
5.98559e-17
6.52167e-17
7.15919e-17
7.88628e-17
8.69064e-17
9.55919e-17
1.04779e-16
1.14322e-16
1.24067e-16
1.33863e-16
1.43561e-16
1.5302e-16
1.6211e-16
1.70716e-16
1.7874e-16
1.86102e-16
1.92741e-16
1.98615e-16
2.03699e-16
2.07985e-16
2.11479e-16
2.14201e-16
2.16179e-16
2.17452e-16
2.18064e-16
1.56515e-16
1.65459e-16
1.78293e-16
1.94582e-16
2.13953e-16
2.3604e-16
2.60465e-16
2.86823e-16
3.14684e-16
3.43597e-16
3.73099e-16
4.02725e-16
4.32026e-16
4.60576e-16
4.87987e-16
5.13916e-16
5.38072e-16
5.60219e-16
5.80178e-16
5.97827e-16
6.13095e-16
6.25961e-16
6.36447e-16
6.44612e-16
6.50546e-16
6.54363e-16
6.56198e-16
4.66465e-16
4.93375e-16
5.32012e-16
5.81069e-16
6.3942e-16
7.05965e-16
7.79555e-16
8.58965e-16
9.42891e-16
1.02997e-15
1.11879e-15
1.20795e-15
1.2961e-15
1.38196e-15
1.46436e-15
1.54226e-15
1.61481e-15
1.68129e-15
1.74118e-15
1.79411e-15
1.83988e-15
1.87844e-15
1.90985e-15
1.93429e-15
1.95205e-15
1.96348e-15
1.96897e-15
1.39388e-15
1.47476e-15
1.59085e-15
1.73823e-15
1.91352e-15
2.11337e-15
2.33434e-15
2.57271e-15
2.82456e-15
3.08576e-15
3.35211e-15
3.61939e-15
3.88354e-15
4.14074e-15
4.38749e-15
4.62074e-15
4.83788e-15
5.03684e-15
5.21603e-15
5.37439e-15
5.51131e-15
5.62664e-15
5.72059e-15
5.79371e-15
5.84684e-15
5.881e-15
5.89742e-15
4.16518e-15
4.40739e-15
4.75513e-15
5.19664e-15
5.72173e-15
6.32043e-15
6.98232e-15
7.6963e-15
8.45055e-15
9.23271e-15
1.00301e-14
1.08302e-14
1.16208e-14
1.23904e-14
1.31285e-14
1.38261e-14
1.44754e-14
1.50702e-14
1.56057e-14
1.60789e-14
1.64879e-14
1.68323e-14
1.71128e-14
1.73311e-14
1.74896e-14
1.75915e-14
1.76405e-14
1.24518e-14
1.31768e-14
1.42175e-14
1.55385e-14
1.71092e-14
1.88997e-14
2.08786e-14
2.30126e-14
2.52663e-14
2.76026e-14
2.99837e-14
3.23719e-14
3.47309e-14
3.70266e-14
3.9228e-14
4.13078e-14
4.3243e-14
4.50154e-14
4.6611e-14
4.80204e-14
4.92386e-14
5.02643e-14
5.10995e-14
5.17494e-14
5.22214e-14
5.25249e-14
5.26707e-14
3.71863e-14
3.93505e-14
4.24568e-14
4.63993e-14
5.10863e-14
5.64275e-14
6.23291e-14
6.86913e-14
7.54079e-14
8.23682e-14
8.94593e-14
9.65691e-14
1.03589e-13
1.10418e-13
1.16964e-13
1.23146e-13
1.28896e-13
1.3416e-13
1.38898e-13
1.43081e-13
1.46695e-13
1.49738e-13
1.52214e-13
1.54141e-13
1.5554e-13
1.56439e-13
1.56871e-13
1.10922e-13
1.17371e-13
1.26623e-13
1.38361e-13
1.52309e-13
1.68194e-13
1.85736e-13
2.04635e-13
2.24574e-13
2.45222e-13
2.66244e-13
2.87307e-13
3.08091e-13
3.28296e-13
3.47652e-13
3.65921e-13
3.82905e-13
3.98446e-13
4.12425e-13
4.24764e-13
4.3542e-13
4.44387e-13
4.51684e-13
4.57359e-13
4.61479e-13
4.64126e-13
4.65397e-13
3.29865e-13
3.48991e-13
3.76421e-13
4.11204e-13
4.52509e-13
4.99522e-13
5.51398e-13
6.07239e-13
6.66103e-13
7.27007e-13
7.88957e-13
8.50971e-13
9.12106e-13
9.71485e-13
1.02832e-12
1.08191e-12
1.13169e-12
1.17721e-12
1.21812e-12
1.2542e-12
1.28535e-12
1.31154e-12
1.33284e-12
1.34939e-12
1.36141e-12
1.36912e-12
1.37283e-12
9.77308e-13
1.03371e-12
1.11456e-12
1.21699e-12
1.3385e-12
1.47665e-12
1.62891e-12
1.7926e-12
1.96491e-12
2.14295e-12
2.32379e-12
2.50456e-12
2.68253e-12
2.85515e-12
3.02015e-12
3.17556e-12
3.31975e-12
3.45143e-12
3.56966e-12
3.67385e-12
3.7637e-12
3.83918e-12
3.90054e-12
3.94819e-12
3.98275e-12
4.00494e-12
4.01558e-12
2.87835e-12
3.04312e-12
3.27908e-12
3.57771e-12
3.93152e-12
4.33316e-12
4.77509e-12
5.24937e-12
5.74774e-12
6.26172e-12
6.78282e-12
7.30276e-12
7.81369e-12
8.30838e-12
8.7804e-12
9.22424e-12
9.63536e-12
1.00102e-11
1.03464e-11
1.06422e-11
1.08969e-11
1.11107e-11
1.12843e-11
1.1419e-11
1.15165e-11
1.15791e-11
1.16091e-11
8.4117e-12
8.88694e-12
9.56668e-12
1.04256e-11
1.14412e-11
1.25918e-11
1.38549e-11
1.52072e-11
1.66246e-11
1.80828e-11
1.95573e-11
2.10249e-11
2.24635e-11
2.38529e-11
2.51757e-11
2.64167e-11
2.75639e-11
2.86078e-11
2.95421e-11
3.03628e-11
3.10686e-11
3.166e-11
3.21395e-11
3.25112e-11
3.27801e-11
3.29525e-11
3.30351e-11
2.43258e-11
2.56723e-11
2.75951e-11
3.00196e-11
3.28795e-11
3.61102e-11
3.96461e-11
4.34198e-11
4.73624e-11
5.14049e-11
5.54796e-11
5.95219e-11
6.34717e-11
6.72753e-11
7.08856e-11
7.42634e-11
7.73776e-11
8.02047e-11
8.27291e-11
8.4942e-11
8.68411e-11
8.84298e-11
8.97158e-11
9.07111e-11
9.14304e-11
9.18909e-11
9.21113e-11
6.93979e-11
7.31248e-11
7.84353e-11
8.5113e-11
9.29645e-11
1.01802e-10
1.11438e-10
1.21681e-10
1.32339e-10
1.43222e-10
1.54148e-10
1.64945e-10
1.75454e-10
1.85537e-10
1.95075e-10
2.0397e-10
2.12145e-10
2.19546e-10
2.26137e-10
2.319e-10
2.36836e-10
2.40956e-10
2.44285e-10
2.46858e-10
2.48714e-10
2.49901e-10
2.50468e-10
1.94536e-10
2.04545e-10
2.1877e-10
2.36598e-10
2.57477e-10
2.80878e-10
3.06275e-10
3.33145e-10
3.60969e-10
3.89248e-10
4.17505e-10
4.453e-10
4.72241e-10
4.97982e-10
5.22237e-10
5.44774e-10
5.65418e-10
5.84047e-10
6.0059e-10
6.15019e-10
6.27344e-10
6.37612e-10
6.45892e-10
6.52278e-10
6.5688e-10
6.59818e-10
6.61221e-10
5.33449e-10
5.59357e-10
5.96068e-10
6.41898e-10
6.95333e-10
7.54928e-10
8.19272e-10
8.86987e-10
9.56738e-10
1.02726e-09
1.09736e-09
1.16599e-09
1.2322e-09
1.29519e-09
1.3543e-09
1.40902e-09
1.45896e-09
1.50388e-09
1.54365e-09
1.57825e-09
1.60774e-09
1.63224e-09
1.65196e-09
1.66715e-09
1.67808e-09
1.68504e-09
1.68836e-09
1.42372e-09
1.48795e-09
1.57868e-09
1.69148e-09
1.82236e-09
1.96758e-09
2.12352e-09
2.28673e-09
2.45393e-09
2.62207e-09
2.78837e-09
2.95037e-09
3.10594e-09
3.25329e-09
3.39102e-09
3.51803e-09
3.63357e-09
3.73718e-09
3.82864e-09
3.908e-09
3.97547e-09
4.03143e-09
4.07639e-09
4.11094e-09
4.13577e-09
4.15157e-09
4.1591e-09
3.67991e-09
3.83182e-09
4.04567e-09
4.31044e-09
4.61622e-09
4.95376e-09
5.31432e-09
5.68967e-09
6.07219e-09
6.45491e-09
6.83163e-09
7.19691e-09
7.54618e-09
7.8757e-09
8.18253e-09
8.46454e-09
8.72027e-09
8.94893e-09
9.15028e-09
9.32457e-09
9.47244e-09
9.59485e-09
9.69303e-09
9.76838e-09
9.82244e-09
9.85683e-09
9.87319e-09
9.17219e-09
9.51422e-09
9.9943e-09
1.05865e-08
1.12674e-08
1.20157e-08
1.28112e-08
1.36353e-08
1.44714e-08
1.53041e-08
1.61203e-08
1.69086e-08
1.76595e-08
1.83654e-08
1.90207e-08
1.96212e-08
2.01643e-08
2.06487e-08
2.10743e-08
2.1442e-08
2.17534e-08
2.20108e-08
2.22169e-08
2.23749e-08
2.24881e-08
2.25601e-08
2.25943e-08
2.19856e-08
2.27202e-08
2.37487e-08
2.50133e-08
2.64623e-08
2.80484e-08
2.97279e-08
3.14613e-08
3.3213e-08
3.49513e-08
3.66491e-08
3.82836e-08
3.98358e-08
4.12911e-08
4.26384e-08
4.38701e-08
4.49817e-08
4.59713e-08
4.68393e-08
4.75879e-08
4.82209e-08
4.87435e-08
4.91616e-08
4.94817e-08
4.97109e-08
4.98564e-08
4.99255e-08
5.06369e-08
5.21482e-08
5.426e-08
5.68502e-08
5.98099e-08
6.30398e-08
6.64497e-08
6.99583e-08
7.34933e-08
7.69915e-08
8.0399e-08
8.36708e-08
8.67708e-08
8.96708e-08
9.23501e-08
9.47949e-08
9.69975e-08
9.89553e-08
1.0067e-07
1.02147e-07
1.03394e-07
1.04423e-07
1.05245e-07
1.05874e-07
1.06324e-07
1.06609e-07
1.06745e-07
1.12146e-07
1.15141e-07
1.1932e-07
1.24436e-07
1.30269e-07
1.36619e-07
1.43306e-07
1.5017e-07
1.57069e-07
1.6388e-07
1.70499e-07
1.76842e-07
1.82839e-07
1.88439e-07
1.93604e-07
1.9831e-07
2.02543e-07
2.06301e-07
2.09589e-07
2.12418e-07
2.14805e-07
2.16772e-07
2.18343e-07
2.19544e-07
2.20403e-07
2.20948e-07
2.21206e-07
2.39036e-07
2.4478e-07
2.52785e-07
2.62571e-07
2.73711e-07
2.85818e-07
2.98546e-07
3.11589e-07
3.24675e-07
3.37576e-07
3.50095e-07
3.62075e-07
3.73388e-07
3.8394e-07
3.93662e-07
4.02512e-07
4.10466e-07
4.17521e-07
4.23688e-07
4.28992e-07
4.33464e-07
4.37148e-07
4.40088e-07
4.42334e-07
4.4394e-07
4.44958e-07
4.45441e-07
4.90063e-07
5.00805e-07
5.15769e-07
5.34052e-07
5.54849e-07
5.77439e-07
6.01173e-07
6.25478e-07
6.49851e-07
6.73862e-07
6.97153e-07
7.19427e-07
7.40453e-07
7.60054e-07
7.78105e-07
7.94528e-07
8.09284e-07
8.22366e-07
8.33798e-07
8.43623e-07
8.51907e-07
8.58725e-07
8.64165e-07
8.68321e-07
8.7129e-07
8.73172e-07
8.74064e-07
9.64712e-07
9.84417e-07
1.01188e-06
1.04544e-06
1.08364e-06
1.12515e-06
1.16879e-06
1.21352e-06
1.25841e-06
1.30267e-06
1.34563e-06
1.38675e-06
1.42559e-06
1.46182e-06
1.49521e-06
1.52561e-06
1.55293e-06
1.57717e-06
1.59835e-06
1.61655e-06
1.63191e-06
1.64454e-06
1.65463e-06
1.66233e-06
1.66783e-06
1.67131e-06
1.67296e-06
1.81462e-06
1.84986e-06
1.89901e-06
1.95916e-06
2.02775e-06
2.10243e-06
2.18111e-06
2.26193e-06
2.34324e-06
2.42362e-06
2.50185e-06
2.57692e-06
2.64802e-06
2.71451e-06
2.77594e-06
2.83198e-06
2.88247e-06
2.92734e-06
2.96663e-06
3.00046e-06
3.02903e-06
3.05257e-06
3.07137e-06
3.08574e-06
3.09601e-06
3.10251e-06
3.1056e-06
3.23463e-06
3.2946e-06
3.37834e-06
3.48098e-06
3.59822e-06
3.72615e-06
3.86127e-06
4.00042e-06
4.14081e-06
4.28e-06
4.41588e-06
4.54669e-06
4.67096e-06
4.78754e-06
4.89557e-06
4.99442e-06
5.08372e-06
5.16328e-06
5.23312e-06
5.29338e-06
5.34436e-06
5.38645e-06
5.42011e-06
5.44587e-06
5.4643e-06
5.47599e-06
5.48153e-06
5.41577e-06
5.5096e-06
5.64063e-06
5.80127e-06
5.98476e-06
6.18504e-06
6.39661e-06
6.61456e-06
6.83451e-06
7.05264e-06
7.26564e-06
7.47073e-06
7.66562e-06
7.84849e-06
8.01797e-06
8.17307e-06
8.31318e-06
8.43802e-06
8.5476e-06
8.64215e-06
8.72213e-06
8.78814e-06
8.84091e-06
8.88128e-06
8.91014e-06
8.92843e-06
8.93711e-06
8.46825e-06
8.5997e-06
8.78297e-06
9.00715e-06
9.26258e-06
9.54056e-06
9.83329e-06
1.01338e-05
1.0436e-05
1.07347e-05
1.10252e-05
1.13039e-05
1.15678e-05
1.18145e-05
1.20423e-05
1.22501e-05
1.24373e-05
1.26035e-05
1.27489e-05
1.28741e-05
1.29797e-05
1.30667e-05
1.3136e-05
1.3189e-05
1.32268e-05
1.32507e-05
1.32621e-05
1.23544e-05
1.25178e-05
1.27449e-05
1.30218e-05
1.33358e-05
1.36758e-05
1.4032e-05
1.43955e-05
1.47589e-05
1.51159e-05
1.54612e-05
1.57904e-05
1.61003e-05
1.63885e-05
1.66532e-05
1.68934e-05
1.71086e-05
1.7299e-05
1.74649e-05
1.76072e-05
1.77268e-05
1.7825e-05
1.79032e-05
1.79627e-05
1.80051e-05
1.80319e-05
1.80445e-05
1.68786e-05
1.70604e-05
1.73125e-05
1.76183e-05
1.79635e-05
1.83353e-05
1.87225e-05
1.91153e-05
1.95056e-05
1.98866e-05
2.02528e-05
2.06e-05
2.0925e-05
2.12256e-05
2.15002e-05
2.17483e-05
2.19697e-05
2.21647e-05
2.2334e-05
2.24788e-05
2.26001e-05
2.26996e-05
2.27785e-05
2.28385e-05
2.28813e-05
2.29082e-05
2.29209e-05
2.17513e-05
2.19361e-05
2.21915e-05
2.25004e-05
2.28477e-05
2.32199e-05
2.36057e-05
2.39951e-05
2.43802e-05
2.47542e-05
2.5112e-05
2.54497e-05
2.57644e-05
2.60543e-05
2.63183e-05
2.65559e-05
2.67674e-05
2.69531e-05
2.7114e-05
2.72513e-05
2.73663e-05
2.74603e-05
2.75348e-05
2.75915e-05
2.76318e-05
2.76573e-05
2.76693e-05
2.66836e-05
2.68594e-05
2.71018e-05
2.73942e-05
2.7722e-05
2.80723e-05
2.84341e-05
2.87981e-05
2.91569e-05
2.95043e-05
2.98356e-05
3.01475e-05
3.04375e-05
3.07039e-05
3.09461e-05
3.11637e-05
3.1357e-05
3.15266e-05
3.16735e-05
3.17986e-05
3.19034e-05
3.1989e-05
3.20569e-05
3.21086e-05
3.21453e-05
3.21685e-05
3.21794e-05
3.14561e-05
3.16161e-05
3.18365e-05
3.21021e-05
3.23992e-05
3.27163e-05
3.30431e-05
3.33715e-05
3.36946e-05
3.4007e-05
3.43045e-05
3.45843e-05
3.48441e-05
3.50827e-05
3.52994e-05
3.5494e-05
3.56669e-05
3.58185e-05
3.59498e-05
3.60617e-05
3.61554e-05
3.62321e-05
3.62929e-05
3.63391e-05
3.63721e-05
3.63929e-05
3.64027e-05
3.5937e-05
3.60791e-05
3.62749e-05
3.65106e-05
3.67741e-05
3.70552e-05
3.73448e-05
3.76357e-05
3.79217e-05
3.81982e-05
3.84616e-05
3.87091e-05
3.89391e-05
3.91503e-05
3.93421e-05
3.95146e-05
3.96678e-05
3.98022e-05
3.99187e-05
4.00181e-05
4.01014e-05
4.01695e-05
4.02236e-05
4.02648e-05
4.02942e-05
4.03127e-05
4.03215e-05
4.00681e-05
4.0193e-05
4.03652e-05
4.05724e-05
4.08042e-05
4.10514e-05
4.13062e-05
4.15621e-05
4.1814e-05
4.20575e-05
4.22896e-05
4.25079e-05
4.27109e-05
4.28974e-05
4.3067e-05
4.32195e-05
4.33551e-05
4.34743e-05
4.35776e-05
4.36658e-05
4.37397e-05
4.38003e-05
4.38485e-05
4.38852e-05
4.39114e-05
4.39279e-05
4.39358e-05
4.38393e-05
4.3949e-05
4.41002e-05
4.42823e-05
4.4486e-05
4.47035e-05
4.49277e-05
4.51532e-05
4.53752e-05
4.55901e-05
4.5795e-05
4.5988e-05
4.61675e-05
4.63327e-05
4.6483e-05
4.66183e-05
4.67387e-05
4.68447e-05
4.69366e-05
4.70151e-05
4.7081e-05
4.7135e-05
4.7178e-05
4.72108e-05
4.72342e-05
4.7249e-05
4.7256e-05
4.7267e-05
4.73637e-05
4.7497e-05
4.76576e-05
4.78375e-05
4.80296e-05
4.82279e-05
4.84275e-05
4.86241e-05
4.88146e-05
4.89965e-05
4.91679e-05
4.93276e-05
4.94746e-05
4.96084e-05
4.97291e-05
4.98365e-05
4.99311e-05
5.00133e-05
5.00835e-05
5.01425e-05
5.01909e-05
5.02294e-05
5.02588e-05
5.02798e-05
5.02931e-05
5.02995e-05
5.03792e-05
5.0465e-05
5.05832e-05
5.07259e-05
5.08857e-05
5.10565e-05
5.1233e-05
5.14106e-05
5.15859e-05
5.17559e-05
5.19183e-05
5.20714e-05
5.22142e-05
5.23458e-05
5.24657e-05
5.25739e-05
5.26703e-05
5.27552e-05
5.2829e-05
5.28921e-05
5.29452e-05
5.29888e-05
5.30235e-05
5.305e-05
5.30689e-05
5.30809e-05
5.30866e-05
5.32074e-05
5.3284e-05
5.33897e-05
5.35172e-05
5.36601e-05
5.3813e-05
5.3971e-05
5.41303e-05
5.42875e-05
5.44401e-05
5.4586e-05
5.47237e-05
5.48521e-05
5.49705e-05
5.50786e-05
5.5176e-05
5.5263e-05
5.53396e-05
5.54063e-05
5.54633e-05
5.55113e-05
5.55507e-05
5.55821e-05
5.5606e-05
5.56232e-05
5.5634e-05
5.56392e-05
5.57822e-05
5.5851e-05
5.59461e-05
5.60608e-05
5.61895e-05
5.63272e-05
5.64696e-05
5.66133e-05
5.67551e-05
5.68928e-05
5.70246e-05
5.71491e-05
5.72652e-05
5.73724e-05
5.74702e-05
5.75585e-05
5.76373e-05
5.77068e-05
5.77672e-05
5.7819e-05
5.78625e-05
5.78982e-05
5.79268e-05
5.79485e-05
5.79641e-05
5.7974e-05
5.79787e-05
5.81316e-05
5.81939e-05
5.82799e-05
5.83837e-05
5.85002e-05
5.86249e-05
5.8754e-05
5.88842e-05
5.90128e-05
5.91378e-05
5.92574e-05
5.93704e-05
5.9476e-05
5.95734e-05
5.96623e-05
5.97426e-05
5.98143e-05
5.98776e-05
5.99326e-05
5.99798e-05
6.00194e-05
6.0052e-05
6.0078e-05
6.00979e-05
6.01121e-05
6.01211e-05
6.01253e-05
6.02805e-05
6.03371e-05
6.04153e-05
6.05097e-05
6.06157e-05
6.07292e-05
6.08466e-05
6.09652e-05
6.10824e-05
6.11963e-05
6.13053e-05
6.14084e-05
6.15047e-05
6.15935e-05
6.16747e-05
6.17481e-05
6.18135e-05
6.18713e-05
6.19216e-05
6.19647e-05
6.20009e-05
6.20307e-05
6.20545e-05
6.20727e-05
6.20857e-05
6.20939e-05
6.20978e-05
6.22505e-05
6.23022e-05
6.23736e-05
6.24598e-05
6.25566e-05
6.26602e-05
6.27676e-05
6.2876e-05
6.29831e-05
6.30873e-05
6.3187e-05
6.32814e-05
6.33695e-05
6.34509e-05
6.35252e-05
6.35924e-05
6.36524e-05
6.37053e-05
6.37514e-05
6.37909e-05
6.38241e-05
6.38514e-05
6.38732e-05
6.38899e-05
6.39018e-05
6.39094e-05
6.3913e-05
6.40605e-05
6.41078e-05
6.41732e-05
6.42522e-05
6.43409e-05
6.44359e-05
6.45344e-05
6.46337e-05
6.4732e-05
6.48276e-05
6.49191e-05
6.50057e-05
6.50866e-05
6.51613e-05
6.52295e-05
6.52912e-05
6.53463e-05
6.5395e-05
6.54373e-05
6.54736e-05
6.55042e-05
6.55293e-05
6.55493e-05
6.55646e-05
6.55756e-05
6.55826e-05
6.55859e-05
6.57267e-05
6.57702e-05
6.58303e-05
6.59029e-05
6.59844e-05
6.60718e-05
6.61622e-05
6.62536e-05
6.6344e-05
6.64319e-05
6.65161e-05
6.65957e-05
6.66702e-05
6.67389e-05
6.68018e-05
6.68586e-05
6.69093e-05
6.69541e-05
6.69931e-05
6.70265e-05
6.70547e-05
6.70778e-05
6.70963e-05
6.71104e-05
6.71205e-05
6.71269e-05
6.71299e-05
6.72635e-05
6.73035e-05
6.73589e-05
6.74257e-05
6.75008e-05
6.75813e-05
6.76647e-05
6.77489e-05
6.78322e-05
6.79132e-05
6.79908e-05
6.80643e-05
6.81329e-05
6.81963e-05
6.82543e-05
6.83067e-05
6.83535e-05
6.83948e-05
6.84308e-05
6.84616e-05
6.84876e-05
6.85089e-05
6.8526e-05
6.8539e-05
6.85483e-05
6.85542e-05
6.8557e-05
6.8683e-05
6.872e-05
6.87711e-05
6.88328e-05
6.89021e-05
6.89764e-05
6.90534e-05
6.91311e-05
6.9208e-05
6.92828e-05
6.93546e-05
6.94224e-05
6.94858e-05
6.95444e-05
6.95979e-05
6.96463e-05
6.96896e-05
6.97278e-05
6.9761e-05
6.97895e-05
6.98135e-05
6.98333e-05
6.9849e-05
6.98611e-05
6.98697e-05
6.98751e-05
6.98777e-05
6.99963e-05
7.00305e-05
7.00777e-05
7.01347e-05
7.01988e-05
7.02675e-05
7.03387e-05
7.04106e-05
7.04817e-05
7.05509e-05
7.06173e-05
7.068e-05
7.07387e-05
7.07929e-05
7.08424e-05
7.08872e-05
7.09272e-05
7.09626e-05
7.09934e-05
7.10198e-05
7.1042e-05
7.10602e-05
7.10748e-05
7.1086e-05
7.10939e-05
7.1099e-05
7.11014e-05
7.12127e-05
7.12443e-05
7.1288e-05
7.13409e-05
7.14002e-05
7.14638e-05
7.15297e-05
7.15963e-05
7.16622e-05
7.17263e-05
7.17877e-05
7.18458e-05
7.19002e-05
7.19504e-05
7.19963e-05
7.20378e-05
7.20749e-05
7.21076e-05
7.21362e-05
7.21606e-05
7.21812e-05
7.21981e-05
7.22116e-05
7.2222e-05
7.22294e-05
7.22341e-05
7.22363e-05
7.23406e-05
7.237e-05
7.24105e-05
7.24594e-05
7.25144e-05
7.25734e-05
7.26345e-05
7.26962e-05
7.27573e-05
7.28167e-05
7.28737e-05
7.29276e-05
7.2978e-05
7.30246e-05
7.30671e-05
7.31056e-05
7.314e-05
7.31704e-05
7.31969e-05
7.32195e-05
7.32386e-05
7.32544e-05
7.32669e-05
7.32765e-05
7.32833e-05
7.32877e-05
7.32898e-05
7.33875e-05
7.34147e-05
7.34523e-05
7.34977e-05
7.35487e-05
7.36034e-05
7.36601e-05
7.37174e-05
7.37741e-05
7.38293e-05
7.38821e-05
7.39322e-05
7.39789e-05
7.40222e-05
7.40617e-05
7.40974e-05
7.41293e-05
7.41575e-05
7.41821e-05
7.42032e-05
7.42209e-05
7.42355e-05
7.42471e-05
7.4256e-05
7.42624e-05
7.42664e-05
7.42683e-05
7.43598e-05
7.43851e-05
7.442e-05
7.44621e-05
7.45095e-05
7.45603e-05
7.4613e-05
7.46662e-05
7.47188e-05
7.477e-05
7.48191e-05
7.48656e-05
7.4909e-05
7.49492e-05
7.49859e-05
7.50191e-05
7.50487e-05
7.50749e-05
7.50977e-05
7.51173e-05
7.51338e-05
7.51473e-05
7.51581e-05
7.51664e-05
7.51723e-05
7.51761e-05
7.51779e-05
7.52634e-05
7.52869e-05
7.53193e-05
7.53585e-05
7.54025e-05
7.54497e-05
7.54986e-05
7.5548e-05
7.55969e-05
7.56445e-05
7.56902e-05
7.57333e-05
7.57737e-05
7.5811e-05
7.58451e-05
7.5876e-05
7.59035e-05
7.59279e-05
7.59491e-05
7.59673e-05
7.59826e-05
7.59952e-05
7.60052e-05
7.60129e-05
7.60184e-05
7.60219e-05
7.60235e-05
7.61035e-05
7.61253e-05
7.61554e-05
7.61918e-05
7.62327e-05
7.62766e-05
7.63221e-05
7.6368e-05
7.64134e-05
7.64577e-05
7.65001e-05
7.65402e-05
7.65777e-05
7.66124e-05
7.66441e-05
7.66728e-05
7.66984e-05
7.6721e-05
7.67408e-05
7.67577e-05
7.67719e-05
7.67836e-05
7.67929e-05
7.68001e-05
7.68052e-05
7.68084e-05
7.681e-05
7.68846e-05
7.69049e-05
7.69329e-05
7.69667e-05
7.70047e-05
7.70455e-05
7.70878e-05
7.71305e-05
7.71727e-05
7.72138e-05
7.72532e-05
7.72906e-05
7.73254e-05
7.73577e-05
7.73871e-05
7.74138e-05
7.74376e-05
7.74586e-05
7.7477e-05
7.74927e-05
7.75059e-05
7.75168e-05
7.75255e-05
7.75321e-05
7.75369e-05
7.75399e-05
7.75413e-05
7.76109e-05
7.76297e-05
7.76558e-05
7.76872e-05
7.77226e-05
7.77604e-05
7.77997e-05
7.78394e-05
7.78787e-05
7.79169e-05
7.79535e-05
7.79882e-05
7.80206e-05
7.80505e-05
7.80779e-05
7.81027e-05
7.81248e-05
7.81444e-05
7.81614e-05
7.8176e-05
7.81883e-05
7.81984e-05
7.82065e-05
7.82127e-05
7.82171e-05
7.82199e-05
7.82212e-05
7.8286e-05
7.83035e-05
7.83277e-05
7.83569e-05
7.83897e-05
7.84249e-05
7.84614e-05
7.84983e-05
7.85347e-05
7.85702e-05
7.86043e-05
7.86365e-05
7.86666e-05
7.86944e-05
7.87198e-05
7.87428e-05
7.87634e-05
7.87816e-05
7.87974e-05
7.88109e-05
7.88224e-05
7.88318e-05
7.88393e-05
7.8845e-05
7.88491e-05
7.88517e-05
7.88529e-05
7.89132e-05
7.89294e-05
7.89518e-05
7.8979e-05
7.90094e-05
7.90421e-05
7.9076e-05
7.91102e-05
7.9144e-05
7.9177e-05
7.92086e-05
7.92384e-05
7.92664e-05
7.92922e-05
7.93158e-05
7.93372e-05
7.93563e-05
7.93731e-05
7.93878e-05
7.94004e-05
7.9411e-05
7.94197e-05
7.94266e-05
7.9432e-05
7.94358e-05
7.94382e-05
7.94393e-05
7.94952e-05
7.95102e-05
7.9531e-05
7.95562e-05
7.95845e-05
7.96147e-05
7.96461e-05
7.96779e-05
7.97092e-05
7.97398e-05
7.97691e-05
7.97968e-05
7.98227e-05
7.98466e-05
7.98685e-05
7.98883e-05
7.9906e-05
7.99216e-05
7.99352e-05
7.99469e-05
7.99567e-05
7.99648e-05
7.99712e-05
7.99761e-05
7.99797e-05
7.99819e-05
7.9983e-05
8.00346e-05
8.00485e-05
8.00678e-05
8.00911e-05
8.01172e-05
8.01453e-05
8.01743e-05
8.02037e-05
8.02327e-05
8.0261e-05
8.02881e-05
8.03137e-05
8.03377e-05
8.03598e-05
8.03801e-05
8.03984e-05
8.04148e-05
8.04292e-05
8.04418e-05
8.04526e-05
8.04617e-05
8.04692e-05
8.04751e-05
8.04797e-05
8.0483e-05
8.0485e-05
8.0486e-05
8.05335e-05
8.05464e-05
8.05642e-05
8.05857e-05
8.06099e-05
8.06358e-05
8.06626e-05
8.06897e-05
8.07165e-05
8.07426e-05
8.07677e-05
8.07913e-05
8.08135e-05
8.08339e-05
8.08526e-05
8.08695e-05
8.08846e-05
8.08979e-05
8.09095e-05
8.09195e-05
8.09279e-05
8.09348e-05
8.09403e-05
8.09445e-05
8.09475e-05
8.09494e-05
8.09503e-05
8.09939e-05
8.10057e-05
8.10221e-05
8.10419e-05
8.10642e-05
8.1088e-05
8.11128e-05
8.11377e-05
8.11624e-05
8.11864e-05
8.12095e-05
8.12312e-05
8.12516e-05
8.12704e-05
8.12876e-05
8.13032e-05
8.13171e-05
8.13293e-05
8.134e-05
8.13492e-05
8.13569e-05
8.13632e-05
8.13683e-05
8.13722e-05
8.1375e-05
8.13767e-05
8.13776e-05
8.14172e-05
8.1428e-05
8.14431e-05
8.14613e-05
8.14817e-05
8.15036e-05
8.15262e-05
8.15491e-05
8.15718e-05
8.15938e-05
8.16149e-05
8.16349e-05
8.16535e-05
8.16708e-05
8.16866e-05
8.17008e-05
8.17135e-05
8.17248e-05
8.17346e-05
8.1743e-05
8.175e-05
8.17558e-05
8.17605e-05
8.1764e-05
8.17666e-05
8.17682e-05
8.17689e-05
8.18047e-05
8.18146e-05
8.18284e-05
8.1845e-05
8.18636e-05
8.18836e-05
8.19043e-05
8.19252e-05
8.19458e-05
8.19659e-05
8.19852e-05
8.20034e-05
8.20204e-05
8.20361e-05
8.20505e-05
8.20635e-05
8.20751e-05
8.20853e-05
8.20942e-05
8.21019e-05
8.21083e-05
8.21136e-05
8.21179e-05
8.21211e-05
8.21234e-05
8.21249e-05
8.21256e-05
8.21575e-05
8.21665e-05
8.21789e-05
8.2194e-05
8.22109e-05
8.2229e-05
8.22478e-05
8.22667e-05
8.22855e-05
8.23037e-05
8.23211e-05
8.23376e-05
8.2353e-05
8.23673e-05
8.23803e-05
8.2392e-05
8.24025e-05
8.24118e-05
8.24199e-05
8.24268e-05
8.24326e-05
8.24374e-05
8.24412e-05
8.24441e-05
8.24462e-05
8.24476e-05
8.24482e-05
8.24763e-05
8.24844e-05
8.24956e-05
8.25092e-05
8.25244e-05
8.25407e-05
8.25576e-05
8.25746e-05
8.25914e-05
8.26078e-05
8.26235e-05
8.26383e-05
8.26521e-05
8.26649e-05
8.26765e-05
8.26871e-05
8.26965e-05
8.27048e-05
8.27121e-05
8.27183e-05
8.27235e-05
8.27278e-05
8.27312e-05
8.27338e-05
8.27357e-05
8.27369e-05
8.27374e-05
8.27617e-05
8.27689e-05
8.27789e-05
8.2791e-05
8.28046e-05
8.28191e-05
8.28341e-05
8.28492e-05
8.28642e-05
8.28787e-05
8.28926e-05
8.29058e-05
8.29181e-05
8.29294e-05
8.29397e-05
8.29491e-05
8.29574e-05
8.29648e-05
8.29712e-05
8.29767e-05
8.29813e-05
8.29851e-05
8.29882e-05
8.29905e-05
8.29922e-05
8.29932e-05
8.29937e-05
8.30141e-05
8.30205e-05
8.30293e-05
8.30399e-05
8.30518e-05
8.30645e-05
8.30777e-05
8.3091e-05
8.31041e-05
8.31168e-05
8.3129e-05
8.31405e-05
8.31512e-05
8.31611e-05
8.31702e-05
8.31783e-05
8.31856e-05
8.31921e-05
8.31977e-05
8.32024e-05
8.32065e-05
8.32098e-05
8.32124e-05
8.32145e-05
8.32159e-05
8.32168e-05
8.32173e-05
8.32339e-05
8.32394e-05
8.3247e-05
8.32561e-05
8.32664e-05
8.32774e-05
8.32887e-05
8.33001e-05
8.33114e-05
8.33223e-05
8.33328e-05
8.33426e-05
8.33518e-05
8.33603e-05
8.33681e-05
8.33751e-05
8.33813e-05
8.33868e-05
8.33916e-05
8.33957e-05
8.33991e-05
8.3402e-05
8.34042e-05
8.3406e-05
8.34072e-05
8.3408e-05
8.34084e-05
8.34213e-05
8.34259e-05
8.34323e-05
8.344e-05
8.34486e-05
8.34578e-05
8.34673e-05
8.34769e-05
8.34864e-05
8.34955e-05
8.35043e-05
8.35125e-05
8.35202e-05
8.35273e-05
8.35337e-05
8.35396e-05
8.35447e-05
8.35493e-05
8.35533e-05
8.35567e-05
8.35596e-05
8.35619e-05
8.35638e-05
8.35652e-05
8.35663e-05
8.35669e-05
8.35672e-05
8.35765e-05
8.35803e-05
8.35855e-05
8.35918e-05
8.35988e-05
8.36063e-05
8.3614e-05
8.36217e-05
8.36294e-05
8.36368e-05
8.36438e-05
8.36505e-05
8.36567e-05
8.36623e-05
8.36675e-05
8.36722e-05
8.36764e-05
8.368e-05
8.36832e-05
8.36859e-05
8.36882e-05
8.36901e-05
8.36916e-05
8.36928e-05
8.36936e-05
8.36941e-05
8.36943e-05
8.37002e-05
8.37031e-05
8.37072e-05
8.3712e-05
8.37175e-05
8.37232e-05
8.37292e-05
8.37352e-05
8.3741e-05
8.37467e-05
8.37521e-05
8.37572e-05
8.37619e-05
8.37662e-05
8.37702e-05
8.37737e-05
8.37769e-05
8.37797e-05
8.37821e-05
8.37841e-05
8.37858e-05
8.37873e-05
8.37884e-05
8.37893e-05
8.37899e-05
8.37903e-05
8.37905e-05
8.37932e-05
8.37953e-05
8.37982e-05
8.38017e-05
8.38056e-05
8.38097e-05
8.3814e-05
8.38182e-05
8.38224e-05
8.38264e-05
8.38302e-05
8.38338e-05
8.38371e-05
8.38401e-05
8.38428e-05
8.38453e-05
8.38475e-05
8.38494e-05
8.3851e-05
8.38525e-05
8.38536e-05
8.38546e-05
8.38554e-05
8.3856e-05
8.38564e-05
8.38567e-05
8.38568e-05
8.38568e-05
8.38581e-05
8.386e-05
8.38622e-05
8.38646e-05
8.38672e-05
8.38698e-05
8.38725e-05
8.3875e-05
8.38774e-05
8.38797e-05
8.38819e-05
8.38838e-05
8.38856e-05
8.38872e-05
8.38887e-05
8.389e-05
8.38911e-05
8.3892e-05
8.38928e-05
8.38935e-05
8.38941e-05
8.38945e-05
8.38949e-05
8.38951e-05
8.38953e-05
8.38953e-05
8.38931e-05
8.38937e-05
8.38946e-05
8.38956e-05
8.38967e-05
8.38979e-05
8.3899e-05
8.39002e-05
8.39012e-05
8.39022e-05
8.39032e-05
8.3904e-05
8.39047e-05
8.39054e-05
8.3906e-05
8.39065e-05
8.3907e-05
8.39073e-05
8.39077e-05
8.39079e-05
8.39082e-05
8.39083e-05
8.39085e-05
8.39086e-05
8.39087e-05
8.39087e-05
8.39088e-05
8.39049e-05
8.3905e-05
8.3905e-05
8.39049e-05
8.39049e-05
8.39048e-05
8.39046e-05
8.39045e-05
8.39042e-05
8.3904e-05
8.39037e-05
8.39034e-05
8.39031e-05
8.39028e-05
8.39025e-05
8.39023e-05
8.3902e-05
8.39018e-05
8.39015e-05
8.39013e-05
8.39012e-05
8.3901e-05
8.39009e-05
8.39008e-05
8.39008e-05
8.39007e-05
8.39007e-05
8.38961e-05
8.38956e-05
8.38948e-05
8.3894e-05
8.38929e-05
8.38918e-05
8.38906e-05
8.38894e-05
8.38881e-05
8.38869e-05
8.38856e-05
8.38844e-05
8.38833e-05
8.38822e-05
8.38812e-05
8.38803e-05
8.38795e-05
8.38787e-05
8.38781e-05
8.38775e-05
8.3877e-05
8.38766e-05
8.38763e-05
8.38761e-05
8.38759e-05
8.38758e-05
8.38757e-05
8.3871e-05
8.38701e-05
8.38688e-05
8.38673e-05
8.38656e-05
8.38637e-05
8.38617e-05
8.38597e-05
8.38577e-05
8.38557e-05
8.38537e-05
8.38519e-05
8.38501e-05
8.38485e-05
8.3847e-05
8.38456e-05
8.38444e-05
8.38433e-05
8.38424e-05
8.38416e-05
8.38409e-05
8.38403e-05
8.38398e-05
8.38395e-05
8.38392e-05
8.38391e-05
8.3839e-05
8.38348e-05
8.38336e-05
8.3832e-05
8.38301e-05
8.38279e-05
8.38256e-05
8.38232e-05
8.38207e-05
8.38182e-05
8.38158e-05
8.38134e-05
8.38112e-05
8.38091e-05
8.38072e-05
8.38054e-05
8.38038e-05
8.38023e-05
8.3801e-05
8.37999e-05
8.3799e-05
8.37982e-05
8.37975e-05
8.3797e-05
8.37966e-05
8.37963e-05
8.37961e-05
8.3796e-05
8.37927e-05
8.37915e-05
8.37898e-05
8.37877e-05
8.37854e-05
8.37829e-05
8.37802e-05
8.37776e-05
8.3775e-05
8.37724e-05
8.377e-05
8.37676e-05
8.37654e-05
8.37634e-05
8.37616e-05
8.37599e-05
8.37584e-05
8.37571e-05
8.37559e-05
8.3755e-05
8.37541e-05
8.37535e-05
8.37529e-05
8.37525e-05
8.37522e-05
8.3752e-05
8.37519e-05
8.37499e-05
8.37487e-05
8.3747e-05
8.3745e-05
8.37427e-05
8.37403e-05
8.37378e-05
8.37353e-05
8.37327e-05
8.37303e-05
8.3728e-05
8.37258e-05
8.37237e-05
8.37218e-05
8.37201e-05
8.37185e-05
8.37172e-05
8.37159e-05
8.37149e-05
8.37139e-05
8.37132e-05
8.37125e-05
8.3712e-05
8.37117e-05
8.37114e-05
8.37112e-05
8.37111e-05
8.37102e-05
8.37091e-05
8.37077e-05
8.37059e-05
8.37039e-05
8.37017e-05
8.36995e-05
8.36973e-05
8.36951e-05
8.3693e-05
8.3691e-05
8.36891e-05
8.36873e-05
8.36857e-05
8.36842e-05
8.36829e-05
8.36817e-05
8.36806e-05
8.36797e-05
8.36789e-05
8.36783e-05
8.36777e-05
8.36773e-05
8.3677e-05
8.36768e-05
8.36766e-05
8.36766e-05
8.36765e-05
8.36756e-05
8.36744e-05
8.36729e-05
8.36713e-05
8.36696e-05
8.36678e-05
8.3666e-05
8.36642e-05
8.36625e-05
8.36609e-05
8.36594e-05
8.3658e-05
8.36567e-05
8.36555e-05
8.36544e-05
8.36535e-05
8.36527e-05
8.36519e-05
8.36513e-05
8.36508e-05
8.36504e-05
8.36501e-05
8.36498e-05
8.36496e-05
8.36495e-05
8.36495e-05
8.36499e-05
8.36492e-05
8.36483e-05
8.36472e-05
8.36459e-05
8.36446e-05
8.36433e-05
8.36419e-05
8.36406e-05
8.36393e-05
8.36381e-05
8.3637e-05
8.36359e-05
8.36349e-05
8.36341e-05
8.36333e-05
8.36326e-05
8.3632e-05
8.36314e-05
8.3631e-05
8.36306e-05
8.36303e-05
8.36301e-05
8.36299e-05
8.36297e-05
8.36297e-05
8.36296e-05
8.36302e-05
8.36298e-05
8.36291e-05
8.36283e-05
8.36274e-05
8.36265e-05
8.36255e-05
8.36245e-05
8.36236e-05
8.36227e-05
8.36218e-05
8.3621e-05
8.36202e-05
8.36195e-05
8.36189e-05
8.36184e-05