/*--------------------------------*- C++ -*----------------------------------*\
| =========                 |                                                 |
| \\      /  F ield         | OpenFOAM: The Open Source CFD Toolbox           |
|  \\    /   O peration     | Version:  2106                                  |
|   \\  /    A nd           | Website:  www.openfoam.com                      |
|    \\/     M anipulation  |                                                 |
\*---------------------------------------------------------------------------*/
FoamFile
{
    version     2.0;
    format      ascii;
    arch        "LSB;label=32;scalar=64";
    class       volScalarField;
    location    "150.00049";
    object      H2_0;
}
// * * * * * * * * * * * * * * * * * * * * * * * * * * * * * * * * * * * * * //

dimensions      [0 0 0 0 0 0 0];

internalField   nonuniform List<scalar> 
3360
(
7.2958e-19
7.53058e-19
7.85732e-19
8.25697e-19
8.7129e-19
9.21013e-19
9.73516e-19
1.02758e-18
1.08212e-18
1.13617e-18
1.18891e-18
1.23964e-18
1.28775e-18
1.33281e-18
1.37444e-18
1.41241e-18
1.44656e-18
1.47683e-18
1.50323e-18
1.52584e-18
1.54479e-18
1.56027e-18
1.5725e-18
1.58172e-18
1.58821e-18
1.59224e-18
1.59412e-18
3.20049e-18
3.31813e-18
3.48413e-18
3.69087e-18
3.932e-18
4.20201e-18
4.49595e-18
4.80931e-18
5.1379e-18
5.47773e-18
5.82499e-18
6.17598e-18
6.52703e-18
6.87455e-18
7.21497e-18
7.54481e-18
7.86064e-18
8.15916e-18
8.43719e-18
8.69174e-18
8.92009e-18
9.11982e-18
9.28887e-18
9.42559e-18
9.52877e-18
9.59767e-18
9.63203e-18
1.00423e-17
1.04831e-17
1.11093e-17
1.18963e-17
1.28234e-17
1.3872e-17
1.50245e-17
1.62635e-17
1.75716e-17
1.89307e-17
2.03225e-17
2.17288e-17
2.31316e-17
2.45131e-17
2.5856e-17
2.71441e-17
2.83621e-17
2.94966e-17
3.05357e-17
3.14696e-17
3.22909e-17
3.29942e-17
3.35764e-17
3.40366e-17
3.43759e-17
3.45971e-17
3.47048e-17
2.92467e-17
3.06993e-17
3.27774e-17
3.54066e-17
3.85247e-17
4.20736e-17
4.5995e-17
5.02286e-17
5.47111e-17
5.9376e-17
6.41547e-17
6.89772e-17
7.37741e-17
7.84777e-17
8.3024e-17
8.7354e-17
9.14154e-17
9.5164e-17
9.85639e-17
1.01589e-16
1.0422e-16
1.0645e-16
1.08276e-16
1.09704e-16
1.10746e-16
1.11419e-16
1.11744e-16
8.54495e-17
9.00325e-17
9.66009e-17
1.0493e-16
1.1483e-16
1.26118e-16
1.38606e-16
1.52093e-16
1.66369e-16
1.81207e-16
1.96378e-16
2.11648e-16
2.26787e-16
2.41576e-16
2.55813e-16
2.69317e-16
2.81931e-16
2.93525e-16
3.04e-16
3.13284e-16
3.21333e-16
3.28129e-16
3.33678e-16
3.38006e-16
3.41157e-16
3.43186e-16
3.44163e-16
2.51946e-16
2.6602e-16
2.86217e-16
3.11851e-16
3.42336e-16
3.77103e-16
4.15566e-16
4.57098e-16
5.0103e-16
5.46659e-16
5.93259e-16
6.40102e-16
6.86475e-16
7.31704e-16
7.7517e-16
8.16322e-16
8.5469e-16
8.89894e-16
9.21641e-16
9.49728e-16
9.74039e-16
9.94534e-16
1.01124e-15
1.02426e-15
1.03372e-15
1.0398e-15
1.04273e-15
7.48418e-16
7.91184e-16
8.52553e-16
9.30446e-16
1.02307e-15
1.12869e-15
1.24548e-15
1.37152e-15
1.50474e-15
1.643e-15
1.78407e-15
1.92573e-15
2.06584e-15
2.20236e-15
2.33344e-15
2.45743e-15
2.57293e-15
2.67883e-15
2.77427e-15
2.85867e-15
2.93167e-15
2.9932e-15
3.04334e-15
3.08238e-15
3.11075e-15
3.12901e-15
3.13778e-15
2.23052e-15
2.3592e-15
2.54395e-15
2.77853e-15
3.05755e-15
3.37576e-15
3.72764e-15
4.10736e-15
4.50868e-15
4.92505e-15
5.34976e-15
5.77613e-15
6.19765e-15
6.6082e-15
7.0022e-15
7.37473e-15
7.72163e-15
8.03954e-15
8.32591e-15
8.57902e-15
8.79788e-15
8.98224e-15
9.13243e-15
9.24933e-15
9.33425e-15
9.38887e-15
9.41512e-15
6.6652e-15
7.05193e-15
7.60705e-15
8.31181e-15
9.14998e-15
1.01056e-14
1.11622e-14
1.23021e-14
1.35064e-14
1.47554e-14
1.6029e-14
1.73071e-14
1.85702e-14
1.98e-14
2.09799e-14
2.20952e-14
2.31336e-14
2.40849e-14
2.49418e-14
2.5699e-14
2.63538e-14
2.69052e-14
2.73545e-14
2.77041e-14
2.79582e-14
2.81215e-14
2.82e-14
1.99169e-14
2.10751e-14
2.27379e-14
2.48491e-14
2.736e-14
3.02228e-14
3.33878e-14
3.68019e-14
4.04085e-14
4.41486e-14
4.79617e-14
5.17875e-14
5.55678e-14
5.92477e-14
6.27775e-14
6.61132e-14
6.92179e-14
7.20619e-14
7.46227e-14
7.68852e-14
7.8841e-14
8.04879e-14
8.18292e-14
8.28729e-14
8.3631e-14
8.41184e-14
8.43526e-14
5.95415e-14
6.30084e-14
6.79846e-14
7.43013e-14
8.18122e-14
9.03739e-14
9.98366e-14
1.10041e-13
1.20817e-13
1.31989e-13
1.43375e-13
1.54795e-13
1.66075e-13
1.77052e-13
1.87579e-13
1.97524e-13
2.06778e-13
2.15253e-13
2.22882e-13
2.29622e-13
2.35447e-13
2.40352e-13
2.44346e-13
2.47453e-13
2.4971e-13
2.51161e-13
2.51858e-13
1.77816e-13
1.88164e-13
2.03018e-13
2.2187e-13
2.44282e-13
2.69822e-13
2.98043e-13
3.28465e-13
3.60582e-13
3.93865e-13
4.27773e-13
4.6177e-13
4.95338e-13
5.27993e-13
5.59293e-13
5.88854e-13
6.1635e-13
6.41521e-13
6.64174e-13
6.84178e-13
7.01462e-13
7.16009e-13
7.27852e-13
7.37064e-13
7.43753e-13
7.48052e-13
7.50118e-13
5.30402e-13
5.61239e-13
6.05482e-13
6.6161e-13
7.28303e-13
8.04265e-13
8.88146e-13
9.78515e-13
1.07386e-12
1.17259e-12
1.27311e-12
1.37383e-12
1.47322e-12
1.56983e-12
1.66239e-12
1.74974e-12
1.83096e-12
1.90527e-12
1.97211e-12
2.03112e-12
2.08207e-12
2.12495e-12
2.15984e-12
2.18698e-12
2.20668e-12
2.21934e-12
2.22542e-12
1.57733e-12
1.66879e-12
1.79995e-12
1.96628e-12
2.16379e-12
2.38859e-12
2.63665e-12
2.90367e-12
3.18514e-12
3.47637e-12
3.7726e-12
4.06913e-12
4.36147e-12
4.6454e-12
4.91716e-12
5.17343e-12
5.41149e-12
5.62913e-12
5.82475e-12
5.9973e-12
6.14623e-12
6.27145e-12
6.37331e-12
6.45247e-12
6.50991e-12
6.54681e-12
6.56453e-12
4.67324e-12
4.94295e-12
5.32953e-12
5.81932e-12
6.40037e-12
7.06099e-12
7.78904e-12
8.57175e-12
9.3957e-12
1.0247e-11
1.11118e-11
1.19762e-11
1.28272e-11
1.36526e-11
1.44416e-11
1.51848e-11
1.58742e-11
1.65039e-11
1.70693e-11
1.75675e-11
1.79971e-11
1.8358e-11
1.86514e-11
1.88793e-11
1.90445e-11
1.91506e-11
1.92015e-11
1.37635e-11
1.45514e-11
1.56797e-11
1.71077e-11
1.87995e-11
2.07201e-11
2.28333e-11
2.51012e-11
2.74842e-11
2.9942e-11
3.24338e-11
3.492e-11
3.73631e-11
3.97286e-11
4.19857e-11
4.4108e-11
4.60739e-11
4.78665e-11
4.94738e-11
5.08882e-11
5.21063e-11
5.31286e-11
5.39586e-11
5.46026e-11
5.50692e-11
5.53686e-11
5.55121e-11
4.02222e-11
4.24947e-11
4.57451e-11
4.98521e-11
5.47088e-11
6.02106e-11
6.62504e-11
7.27168e-11
7.94946e-11
8.6467e-11
9.35181e-11
1.00536e-10
1.07415e-10
1.14059e-10
1.20384e-10
1.26318e-10
1.31804e-10
1.36795e-10
1.41263e-10
1.45188e-10
1.48562e-10
1.5139e-10
1.53683e-10
1.5546e-10
1.56747e-10
1.57571e-10
1.57966e-10
1.16317e-10
1.22756e-10
1.3195e-10
1.43544e-10
1.57219e-10
1.72668e-10
1.89576e-10
2.07621e-10
2.26474e-10
2.45804e-10
2.65288e-10
2.84618e-10
3.03505e-10
3.21693e-10
3.38957e-10
3.55109e-10
3.70001e-10
3.83519e-10
3.9559e-10
4.06172e-10
4.15254e-10
4.2285e-10
4.29e-10
4.33759e-10
4.37199e-10
4.39401e-10
4.40455e-10
3.31825e-10
3.49646e-10
3.7504e-10
4.06972e-10
4.44517e-10
4.86779e-10
5.32856e-10
5.81837e-10
6.32801e-10
6.84845e-10
7.37091e-10
7.88718e-10
8.38973e-10
8.87191e-10
9.328e-10
9.75334e-10
1.01443e-09
1.04982e-09
1.08133e-09
1.10889e-09
1.13249e-09
1.1522e-09
1.16812e-09
1.18042e-09
1.1893e-09
1.19497e-09
1.19768e-09
9.30105e-10
9.77967e-10
1.04599e-09
1.13124e-09
1.23109e-09
1.34299e-09
1.46444e-09
1.59294e-09
1.726e-09
1.86123e-09
1.99635e-09
2.12928e-09
2.25811e-09
2.38121e-09
2.4972e-09
2.60498e-09
2.7037e-09
2.79279e-09
2.8719e-09
2.9409e-09
2.99984e-09
3.04894e-09
3.08854e-09
3.11908e-09
3.14108e-09
3.15513e-09
3.16184e-09
2.55009e-09
2.67399e-09
2.84956e-09
3.06873e-09
3.32428e-09
3.60929e-09
3.91701e-09
4.24086e-09
4.57445e-09
4.91172e-09
5.24702e-09
5.57525e-09
5.89192e-09
6.19318e-09
6.47588e-09
6.73756e-09
6.97642e-09
7.19128e-09
7.38151e-09
7.54698e-09
7.68799e-09
7.8052e-09
7.89953e-09
7.97216e-09
8.02442e-09
8.05773e-09
8.07362e-09
6.80359e-09
7.11083e-09
7.54478e-09
8.08429e-09
8.71035e-09
9.40497e-09
1.01509e-08
1.09316e-08
1.17315e-08
1.25358e-08
1.33314e-08
1.41064e-08
1.48507e-08
1.55556e-08
1.62146e-08
1.68222e-08
1.7375e-08
1.78707e-08
1.83083e-08
1.8688e-08
1.90108e-08
1.92785e-08
1.94936e-08
1.96589e-08
1.97777e-08
1.98533e-08
1.98893e-08
1.75726e-08
1.82994e-08
1.93225e-08
2.05893e-08
2.20524e-08
2.36677e-08
2.53931e-08
2.71895e-08
2.90204e-08
3.08523e-08
3.26556e-08
3.44042e-08
3.60763e-08
3.76539e-08
3.9123e-08
4.04732e-08
4.16977e-08
4.27925e-08
4.37567e-08
4.45912e-08
4.52992e-08
4.58854e-08
4.63555e-08
4.67163e-08
4.69752e-08
4.71398e-08
4.72181e-08
4.37343e-08
4.53712e-08
4.76692e-08
5.0504e-08
5.37644e-08
5.73475e-08
6.11575e-08
6.51058e-08
6.91116e-08
7.31024e-08
7.70144e-08
8.07932e-08
8.43934e-08
8.77787e-08
9.09213e-08
9.38014e-08
9.64065e-08
9.87304e-08
1.00772e-07
1.02536e-07
1.04031e-07
1.05266e-07
1.06255e-07
1.07013e-07
1.07556e-07
1.07901e-07
1.08065e-07
1.04519e-07
1.08036e-07
1.12961e-07
1.19018e-07
1.25961e-07
1.33564e-07
1.41619e-07
1.49935e-07
1.58343e-07
1.66691e-07
1.74848e-07
1.82704e-07
1.90168e-07
1.97169e-07
2.03653e-07
2.09584e-07
2.14938e-07
2.19706e-07
2.23889e-07
2.27498e-07
2.30551e-07
2.33072e-07
2.35089e-07
2.36634e-07
2.3774e-07
2.38443e-07
2.38776e-07
2.39367e-07
2.46597e-07
2.56705e-07
2.6911e-07
2.83294e-07
2.98785e-07
3.15154e-07
3.32011e-07
3.4901e-07
3.65849e-07
3.82267e-07
3.98047e-07
4.13011e-07
4.27023e-07
4.39979e-07
4.51811e-07
4.62479e-07
4.71968e-07
4.80283e-07
4.8745e-07
4.93507e-07
4.98504e-07
5.02499e-07
5.05557e-07
5.07746e-07
5.09135e-07
5.09795e-07
5.24817e-07
5.39093e-07
5.59026e-07
5.8345e-07
6.11327e-07
6.41714e-07
6.73758e-07
7.06693e-07
7.3984e-07
7.72612e-07
8.04506e-07
8.35106e-07
8.64079e-07
8.91165e-07
9.16178e-07
9.38992e-07
9.59538e-07
9.77794e-07
9.93779e-07
1.00755e-06
1.01917e-06
1.02876e-06
1.03642e-06
1.04228e-06
1.04647e-06
1.04913e-06
1.0504e-06
1.10008e-06
1.12715e-06
1.16492e-06
1.21114e-06
1.26383e-06
1.32119e-06
1.3816e-06
1.44363e-06
1.50599e-06
1.56758e-06
1.62748e-06
1.68491e-06
1.73925e-06
1.79003e-06
1.83691e-06
1.87966e-06
1.91815e-06
1.95234e-06
1.98229e-06
2.00807e-06
2.02985e-06
2.04781e-06
2.06216e-06
2.07314e-06
2.081e-06
2.08599e-06
2.08836e-06
2.19753e-06
2.24685e-06
2.31563e-06
2.39978e-06
2.49569e-06
2.60007e-06
2.71e-06
2.82284e-06
2.9363e-06
3.04838e-06
3.15739e-06
3.26194e-06
3.36092e-06
3.45345e-06
3.53891e-06
3.61688e-06
3.68712e-06
3.74957e-06
3.80428e-06
3.85142e-06
3.89126e-06
3.92413e-06
3.95041e-06
3.97054e-06
3.98494e-06
3.99409e-06
3.99843e-06
4.16805e-06
4.25408e-06
4.37407e-06
4.52091e-06
4.68828e-06
4.87051e-06
5.06249e-06
5.25967e-06
5.45805e-06
5.65415e-06
5.84505e-06
6.02829e-06
6.20192e-06
6.36439e-06
6.5146e-06
6.65177e-06
6.77547e-06
6.88555e-06
6.98207e-06
7.06532e-06
7.13573e-06
7.19387e-06
7.24039e-06
7.27604e-06
7.30157e-06
7.31779e-06
7.3255e-06
7.46847e-06
7.61032e-06
7.80817e-06
8.05029e-06
8.32633e-06
8.62694e-06
8.94373e-06
9.26923e-06
9.59687e-06
9.92096e-06
1.02366e-05
1.05399e-05
1.08274e-05
1.10967e-05
1.13459e-05
1.15737e-05
1.17792e-05
1.19623e-05
1.2123e-05
1.22616e-05
1.2379e-05
1.2476e-05
1.25537e-05
1.26132e-05
1.26559e-05
1.2683e-05
1.26959e-05
1.2575e-05
1.2792e-05
1.30945e-05
1.34644e-05
1.38859e-05
1.43445e-05
1.48275e-05
1.53235e-05
1.58223e-05
1.63154e-05
1.67955e-05
1.72564e-05
1.76933e-05
1.81023e-05
1.84806e-05
1.88263e-05
1.91383e-05
1.9416e-05
1.96597e-05
1.987e-05
2.00479e-05
2.01949e-05
2.03126e-05
2.04028e-05
2.04674e-05
2.05085e-05
2.0528e-05
1.98357e-05
2.01388e-05
2.05607e-05
2.10759e-05
2.16617e-05
2.22977e-05
2.2966e-05
2.36504e-05
2.43372e-05
2.50144e-05
2.56719e-05
2.63016e-05
2.68969e-05
2.74529e-05
2.7966e-05
2.84336e-05
2.88547e-05
2.92289e-05
2.95565e-05
2.98386e-05
3.0077e-05
3.02736e-05
3.04308e-05
3.0551e-05
3.0637e-05
3.06916e-05
3.07176e-05
2.93366e-05
2.97212e-05
3.02555e-05
3.09063e-05
3.16439e-05
3.2442e-05
3.32773e-05
3.41294e-05
3.4981e-05
3.58171e-05
3.66257e-05
3.7397e-05
3.81234e-05
3.87991e-05
3.94204e-05
3.99848e-05
4.04913e-05
4.09399e-05
4.13317e-05
4.16682e-05
4.19517e-05
4.21851e-05
4.23712e-05
4.25134e-05
4.26149e-05
4.26793e-05
4.27098e-05
4.08539e-05
4.12998e-05
4.19181e-05
4.26688e-05
4.35168e-05
4.44307e-05
4.53834e-05
4.63512e-05
4.73141e-05
4.82555e-05
4.9162e-05
5.00231e-05
5.08307e-05
5.15792e-05
5.22649e-05
5.28857e-05
5.3441e-05
5.39314e-05
5.43584e-05
5.47244e-05
5.5032e-05
5.52847e-05
5.54859e-05
5.56394e-05
5.57488e-05
5.58181e-05
5.5851e-05
5.39254e-05
5.44054e-05
5.50694e-05
5.58737e-05
5.67795e-05
5.77526e-05
5.87633e-05
5.97865e-05
6.08008e-05
6.17889e-05
6.27372e-05
6.36349e-05
6.44743e-05
6.52498e-05
6.59583e-05
6.65982e-05
6.71692e-05
6.76725e-05
6.81099e-05
6.84841e-05
6.87983e-05
6.9056e-05
6.9261e-05
6.94172e-05
6.95286e-05
6.95991e-05
6.96324e-05
6.80057e-05
6.84946e-05
6.91701e-05
6.99868e-05
7.09045e-05
7.18883e-05
7.29077e-05
7.39371e-05
7.49551e-05
7.59447e-05
7.68922e-05
7.77873e-05
7.86227e-05
7.93932e-05
8.0096e-05
8.07298e-05
8.12947e-05
8.17921e-05
8.2224e-05
8.25932e-05
8.29031e-05
8.31571e-05
8.33591e-05
8.3513e-05
8.36228e-05
8.36922e-05
8.37251e-05
8.26043e-05
8.30849e-05
8.37483e-05
8.45496e-05
8.5449e-05
8.64119e-05
8.74085e-05
8.84135e-05
8.94064e-05
9.03703e-05
9.12924e-05
9.21628e-05
9.29743e-05
9.37225e-05
9.44045e-05
9.50193e-05
9.55671e-05
9.60493e-05
9.6468e-05
9.6826e-05
9.71264e-05
9.73727e-05
9.75687e-05
9.7718e-05
9.78245e-05
9.78919e-05
9.79239e-05
9.7355e-05
9.78181e-05
9.84573e-05
9.92289e-05
0.000100095
0.000101021
0.00010198
0.000102946
0.000103901
0.000104827
0.000105714
0.00010655
0.00010733
0.000108049
0.000108705
0.000109296
0.000109823
0.000110287
0.00011069
0.000111035
0.000111324
0.000111561
0.00011175
0.000111894
0.000111997
0.000112062
0.000112093
0.00011202
0.000112462
0.000113073
0.000113811
0.000114638
0.000115524
0.000116441
0.000117365
0.000118278
0.000119165
0.000120013
0.000120814
0.000121562
0.000122251
0.00012288
0.000123447
0.000123953
0.000124399
0.000124787
0.000125118
0.000125397
0.000125625
0.000125808
0.000125947
0.000126046
0.000126109
0.000126138
0.000126462
0.000126884
0.000127467
0.000128171
0.000128962
0.000129808
0.000130684
0.000131568
0.000132442
0.000133291
0.000134104
0.000134872
0.00013559
0.000136251
0.000136855
0.000137401
0.000137888
0.000138317
0.00013869
0.000139009
0.000139278
0.000139498
0.000139674
0.000139808
0.000139904
0.000139965
0.000139994
0.000140611
0.000141015
0.000141572
0.000142247
0.000143004
0.000143815
0.000144655
0.000145503
0.000146341
0.000147157
0.000147938
0.000148677
0.000149367
0.000150004
0.000150586
0.000151111
0.000151581
0.000151995
0.000152355
0.000152664
0.000152923
0.000153136
0.000153306
0.000153436
0.000153529
0.000153588
0.000153616
0.000154438
0.000154826
0.000155362
0.00015601
0.000156737
0.000157517
0.000158326
0.000159142
0.00015995
0.000160736
0.000161489
0.000162202
0.000162868
0.000163483
0.000164046
0.000164554
0.000165008
0.000165409
0.000165757
0.000166056
0.000166308
0.000166514
0.000166679
0.000166805
0.000166895
0.000166952
0.000166979
0.000167938
0.000168312
0.000168829
0.000169453
0.000170156
0.000170909
0.00017169
0.000172479
0.00017326
0.00017402
0.000174749
0.000175438
0.000176083
0.00017668
0.000177225
0.000177717
0.000178158
0.000178546
0.000178885
0.000179175
0.000179419
0.00017962
0.00017978
0.000179902
0.00017999
0.000180045
0.000180072
0.000181116
0.000181478
0.000181978
0.000182583
0.000183263
0.000183993
0.000184749
0.000185514
0.000186271
0.000187009
0.000187716
0.000188386
0.000189012
0.000189591
0.00019012
0.000190599
0.000191027
0.000191405
0.000191734
0.000192017
0.000192254
0.00019245
0.000192606
0.000192725
0.00019281
0.000192864
0.00019289
0.000193983
0.000194335
0.00019482
0.000195408
0.000196068
0.000196777
0.000197512
0.000198256
0.000198992
0.000199709
0.000200397
0.000201048
0.000201658
0.000202222
0.000202737
0.000203203
0.00020362
0.000203989
0.000204309
0.000204584
0.000204816
0.000205006
0.000205158
0.000205274
0.000205357
0.00020541
0.000205435
0.000206555
0.000206896
0.000207369
0.000207941
0.000208584
0.000209274
0.00020999
0.000210714
0.000211431
0.00021213
0.000212801
0.000213436
0.00021403
0.000214579
0.000215082
0.000215537
0.000215944
0.000216303
0.000216616
0.000216884
0.00021711
0.000217296
0.000217444
0.000217558
0.000217639
0.00021769
0.000217715
0.000218843
0.000219177
0.000219638
0.000220195
0.000220822
0.000221495
0.000222194
0.0002229
0.0002236
0.000224282
0.000224937
0.000225557
0.000226137
0.000226674
0.000227165
0.000227609
0.000228006
0.000228357
0.000228663
0.000228925
0.000229146
0.000229328
0.000229472
0.000229583
0.000229663
0.000229713
0.000229737
0.000230864
0.000231189
0.000231639
0.000232184
0.000232797
0.000233454
0.000234136
0.000234827
0.000235511
0.000236177
0.000236817
0.000237423
0.00023799
0.000238515
0.000238995
0.000239429
0.000239818
0.000240161
0.00024046
0.000240716
0.000240932
0.00024111
0.000241252
0.00024136
0.000241438
0.000241487
0.00024151
0.000242629
0.000242947
0.000243387
0.00024392
0.000244519
0.000245162
0.000245829
0.000246504
0.000247174
0.000247826
0.000248451
0.000249044
0.000249599
0.000250113
0.000250582
0.000251008
0.000251388
0.000251724
0.000252016
0.000252267
0.000252479
0.000252653
0.000252792
0.000252898
0.000252974
0.000253022
0.000253045
0.00025415
0.000254462
0.000254893
0.000255414
0.000256
0.00025663
0.000257283
0.000257944
0.0002586
0.000259238
0.000259851
0.000260432
0.000260975
0.000261478
0.000261938
0.000262354
0.000262727
0.000263056
0.000263342
0.000263588
0.000263796
0.000263966
0.000264102
0.000264206
0.00026428
0.000264327
0.00026435
0.00026544
0.000265745
0.000266167
0.000266678
0.000267253
0.000267869
0.00026851
0.000269157
0.000269799
0.000270425
0.000271025
0.000271594
0.000272127
0.00027262
0.000273071
0.000273479
0.000273844
0.000274166
0.000274447
0.000274689
0.000274892
0.000275059
0.000275192
0.000275294
0.000275367
0.000275413
0.000275435
0.000276508
0.000276807
0.000277221
0.000277722
0.000278285
0.00027889
0.000279517
0.000280153
0.000280782
0.000281395
0.000281984
0.000282542
0.000283065
0.000283548
0.00028399
0.00028439
0.000284748
0.000285065
0.00028534
0.000285577
0.000285776
0.00028594
0.00028607
0.00028617
0.000286242
0.000286287
0.000286309
0.000287364
0.000287658
0.000288063
0.000288555
0.000289107
0.0002897
0.000290316
0.000290939
0.000291557
0.000292159
0.000292736
0.000293284
0.000293796
0.000294271
0.000294705
0.000295097
0.000295448
0.000295759
0.000296029
0.000296261
0.000296457
0.000296617
0.000296746
0.000296844
0.000296914
0.000296959
0.00029698
0.000298017
0.000298305
0.000298703
0.000299185
0.000299727
0.00030031
0.000300914
0.000301526
0.000302132
0.000302723
0.00030329
0.000303827
0.00030433
0.000304796
0.000305222
0.000305607
0.000305952
0.000306257
0.000306522
0.00030675
0.000306942
0.0003071
0.000307226
0.000307322
0.000307391
0.000307435
0.000307455
0.000308474
0.000308757
0.000309148
0.000309621
0.000310154
0.000310725
0.000311319
0.000311919
0.000312515
0.000313095
0.000313652
0.000314179
0.000314674
0.000315131
0.000315549
0.000315928
0.000316266
0.000316565
0.000316826
0.00031705
0.000317238
0.000317393
0.000317517
0.000317612
0.000317679
0.000317722
0.000317743
0.000318743
0.000319021
0.000319405
0.00031987
0.000320393
0.000320955
0.000321538
0.000322128
0.000322712
0.000323282
0.000323829
0.000324348
0.000324833
0.000325282
0.000325693
0.000326065
0.000326398
0.000326692
0.000326948
0.000327168
0.000327353
0.000327505
0.000327627
0.00032772
0.000327786
0.000327828
0.000327848
0.000328831
0.000329104
0.000329481
0.000329938
0.000330452
0.000331004
0.000331577
0.000332156
0.000332731
0.000333291
0.000333829
0.000334338
0.000334815
0.000335257
0.00033566
0.000336026
0.000336353
0.000336642
0.000336894
0.00033711
0.000337291
0.000337441
0.000337561
0.000337652
0.000337717
0.000337759
0.000337778
0.000338743
0.000339011
0.000339382
0.000339831
0.000340336
0.000340879
0.000341442
0.000342012
0.000342577
0.000343127
0.000343656
0.000344156
0.000344625
0.000345059
0.000345456
0.000345815
0.000346137
0.000346421
0.000346668
0.00034688
0.000347059
0.000347206
0.000347324
0.000347414
0.000347478
0.000347519
0.000347538
0.000348485
0.000348748
0.000349113
0.000349555
0.000350051
0.000350585
0.000351138
0.000351698
0.000352254
0.000352795
0.000353315
0.000353807
0.000354268
0.000354694
0.000355085
0.000355438
0.000355754
0.000356033
0.000356277
0.000356485
0.000356661
0.000356806
0.000356921
0.00035701
0.000357073
0.000357113
0.000357132
0.000358061
0.00035832
0.000358679
0.000359113
0.000359601
0.000360126
0.00036067
0.000361221
0.000361767
0.000362299
0.00036281
0.000363294
0.000363748
0.000364167
0.000364551
0.000364898
0.000365209
0.000365484
0.000365723
0.000365928
0.000366101
0.000366243
0.000366357
0.000366444
0.000366506
0.000366545
0.000366564
0.000367475
0.00036773
0.000368083
0.00036851
0.00036899
0.000369506
0.000370041
0.000370583
0.00037112
0.000371643
0.000372146
0.000372622
0.000373068
0.00037348
0.000373858
0.000374199
0.000374505
0.000374775
0.00037501
0.000375212
0.000375382
0.000375522
0.000375634
0.000375719
0.00037578
0.000375819
0.000375837
0.000376731
0.000376982
0.000377329
0.000377749
0.000378221
0.000378728
0.000379255
0.000379787
0.000380316
0.00038083
0.000381324
0.000381793
0.000382231
0.000382637
0.000383008
0.000383344
0.000383644
0.00038391
0.000384141
0.00038434
0.000384507
0.000384644
0.000384754
0.000384838
0.000384898
0.000384936
0.000384954
0.000385831
0.000386077
0.000386418
0.000386831
0.000387296
0.000387795
0.000388312
0.000388836
0.000389355
0.000389861
0.000390347
0.000390808
0.000391239
0.000391638
0.000392003
0.000392333
0.000392629
0.00039289
0.000393117
0.000393312
0.000393477
0.000393612
0.00039372
0.000393803
0.000393862
0.000393899
0.000393917
0.000394775
0.000395018
0.000395353
0.000395759
0.000396216
0.000396706
0.000397215
0.00039773
0.000398241
0.000398738
0.000399216
0.000399668
0.000400092
0.000400484
0.000400843
0.000401168
0.000401459
0.000401715
0.000401939
0.000402131
0.000402292
0.000402425
0.000402531
0.000402613
0.000402671
0.000402707
0.000402725
0.000403565
0.000403803
0.000404133
0.000404532
0.000404981
0.000405463
0.000405963
0.000406469
0.000406971
0.00040746
0.000407929
0.000408374
0.000408791
0.000409176
0.000409529
0.000409848
0.000410133
0.000410386
0.000410605
0.000410794
0.000410953
0.000411083
0.000411188
0.000411267
0.000411324
0.000411361
0.000411378
0.000412198
0.000412433
0.000412757
0.000413148
0.00041359
0.000414063
0.000414554
0.000415052
0.000415545
0.000416025
0.000416486
0.000416923
0.000417332
0.000417711
0.000418057
0.000418371
0.000418651
0.000418899
0.000419115
0.0004193
0.000419456
0.000419584
0.000419687
0.000419765
0.000419821
0.000419856
0.000419873
0.000420674
0.000420904
0.000421222
0.000421607
0.00042204
0.000422504
0.000422987
0.000423475
0.000423959
0.000424431
0.000424883
0.000425312
0.000425714
0.000426085
0.000426425
0.000426733
0.000427008
0.000427251
0.000427463
0.000427645
0.000427798
0.000427924
0.000428024
0.000428101
0.000428156
0.000428191
0.000428208
0.000428987
0.000429213
0.000429525
0.000429902
0.000430327
0.000430783
0.000431256
0.000431735
0.000432209
0.000432672
0.000433115
0.000433536
0.00043393
0.000434294
0.000434628
0.000434929
0.000435199
0.000435437
0.000435645
0.000435823
0.000435973
0.000436097
0.000436195
0.000436271
0.000436325
0.000436359
0.000436375
0.000437132
0.000437353
0.000437658
0.000438028
0.000438444
0.000438891
0.000439354
0.000439823
0.000440288
0.000440741
0.000441176
0.000441588
0.000441973
0.00044233
0.000442657
0.000442952
0.000443216
0.00044345
0.000443653
0.000443828
0.000443975
0.000444095
0.000444192
0.000444266
0.000444318
0.000444352
0.000444368
0.0004451
0.000445316
0.000445615
0.000445977
0.000446384
0.000446821
0.000447274
0.000447733
0.000448187
0.00044863
0.000449055
0.000449458
0.000449835
0.000450184
0.000450503
0.000450792
0.00045105
0.000451278
0.000451477
0.000451648
0.000451791
0.000451909
0.000452004
0.000452076
0.000452127
0.00045216
0.000452175
0.000452881
0.000453092
0.000453384
0.000453737
0.000454134
0.000454561
0.000455003
0.000455451
0.000455895
0.000456327
0.000456742
0.000457135
0.000457503
0.000457843
0.000458154
0.000458436
0.000458688
0.00045891
0.000459104
0.00045927
0.000459411
0.000459526
0.000459618
0.000459688
0.000459738
0.00045977
0.000459785
0.000460461
0.000460667
0.000460951
0.000461295
0.000461682
0.000462097
0.000462528
0.000462964
0.000463396
0.000463816
0.00046422
0.000464603
0.000464961
0.000465292
0.000465595
0.000465869
0.000466114
0.00046633
0.000466519
0.00046668
0.000466817
0.000466929
0.000467018
0.000467086
0.000467135
0.000467166
0.000467181
0.000467825
0.000468024
0.0004683
0.000468634
0.00046901
0.000469413
0.000469831
0.000470254
0.000470673
0.000471081
0.000471473
0.000471844
0.000472191
0.000472512
0.000472806
0.000473071
0.000473309
0.000473519
0.000473701
0.000473858
0.00047399
0.000474099
0.000474185
0.000474252
0.000474299
0.000474329
0.000474343
0.000474951
0.000475144
0.000475411
0.000475734
0.000476097
0.000476487
0.000476891
0.0004773
0.000477705
0.000478099
0.000478478
0.000478836
0.000479171
0.000479481
0.000479765
0.000480022
0.000480251
0.000480453
0.00048063
0.000480781
0.000480909
0.000481013
0.000481097
0.000481161
0.000481207
0.000481236
0.000481249
0.000481818
0.000482004
0.000482261
0.000482571
0.000482921
0.000483296
0.000483685
0.000484078
0.000484467
0.000484847
0.00048521
0.000485555
0.000485877
0.000486175
0.000486447
0.000486694
0.000486914
0.000487108
0.000487278
0.000487423
0.000487545
0.000487646
0.000487726
0.000487788
0.000487831
0.000487859
0.000487873
0.000488397
0.000488575
0.000488821
0.000489119
0.000489453
0.000489812
0.000490184
0.00049056
0.000490932
0.000491294
0.000491642
0.000491971
0.000492279
0.000492563
0.000492823
0.000493058
0.000493269
0.000493454
0.000493616
0.000493754
0.000493871
0.000493967
0.000494044
0.000494102
0.000494144
0.00049417
0.000494183
0.00049466
0.000494829
0.000495063
0.000495346
0.000495663
0.000496004
0.000496357
0.000496714
0.000497067
0.000497411
0.000497741
0.000498053
0.000498345
0.000498614
0.000498861
0.000499083
0.000499283
0.000499458
0.000499611
0.000499743
0.000499853
0.000499944
0.000500016
0.000500072
0.000500111
0.000500136
0.000500148
0.000500574
0.000500733
0.000500954
0.00050122
0.000501519
0.00050184
0.000502172
0.000502508
0.00050284
0.000503164
0.000503473
0.000503767
0.000504041
0.000504294
0.000504525
0.000504735
0.000504921
0.000505086
0.00050523
0.000505353
0.000505457
0.000505542
0.00050561
0.000505661
0.000505699
0.000505722
0.000505733
0.000506104
0.000506253
0.000506458
0.000506706
0.000506985
0.000507284
0.000507594
0.000507906
0.000508216
0.000508517
0.000508805
0.000509077
0.000509332
0.000509567
0.000509782
0.000509976
0.00051015
0.000510303
0.000510436
0.00051055
0.000510646
0.000510725
0.000510788
0.000510836
0.000510871
0.000510892
0.000510903
0.000511216
0.000511353
0.000511542
0.000511771
0.000512028
0.000512303
0.000512588
0.000512875
0.00051316
0.000513436
0.000513701
0.000513951
0.000514184
0.0005144
0.000514597
0.000514775
0.000514934
0.000515074
0.000515196
0.0005153
0.000515388
0.00051546
0.000515518
0.000515562
0.000515593
0.000515613
0.000515623
0.000515877
0.000516002
0.000516174
0.000516381
0.000516614
0.000516864
0.000517122
0.000517383
0.00051764
0.00051789
0.00051813
0.000518356
0.000518567
0.000518761
0.000518939
0.0005191
0.000519243
0.000519369
0.000519479
0.000519573
0.000519652
0.000519717
0.000519769
0.000519809
0.000519837
0.000519855
0.000519863
0.00052006
0.000520171
0.000520325
0.00052051
0.000520718
0.00052094
0.00052117
0.000521402
0.000521631
0.000521854
0.000522066
0.000522267
0.000522454
0.000522627
0.000522784
0.000522927
0.000523053
0.000523165
0.000523262
0.000523346
0.000523415
0.000523473
0.000523519
0.000523554
0.000523579
0.000523594
0.000523602
0.000523743
0.000523841
0.000523975
0.000524137
0.000524319
0.000524513
0.000524714
0.000524916
0.000525116
0.000525309
0.000525494
0.000525669
0.000525832
0.000525982
0.000526118
0.000526242
0.000526351
0.000526448
0.000526532
0.000526604
0.000526665
0.000526714
0.000526754
0.000526784
0.000526806
0.000526819
0.000526826
0.000526917
0.000527001
0.000527116
0.000527254
0.000527409
0.000527575
0.000527746
0.000527919
0.000528089
0.000528253
0.00052841
0.000528558
0.000528696
0.000528823
0.000528939
0.000529043
0.000529136
0.000529218
0.000529289
0.00052935
0.000529401
0.000529442
0.000529476
0.000529501
0.000529519
0.000529531
0.000529536
0.000529585
0.000529655
0.000529751
0.000529866
0.000529995
0.000530133
0.000530275
0.000530418
0.000530559
0.000530695
0.000530825
0.000530947
0.000531061
0.000531165
0.00053126
0.000531346
0.000531422
0.00053149
0.000531548
0.000531598
0.000531639
0.000531674
0.000531701
0.000531722
0.000531736
0.000531746
0.00053175
0.000531767
0.000531823
0.0005319
0.000531993
0.000532098
0.000532209
0.000532323
0.000532438
0.000532551
0.00053266
0.000532764
0.000532862
0.000532953
0.000533037
0.000533113
0.000533181
0.000533241
0.000533295
0.000533341
0.000533381
0.000533414
0.000533441
0.000533463
0.000533479
0.000533491
0.000533498
0.000533502
0.000533495
0.000533539
0.0005336
0.000533672
0.000533754
0.00053384
0.00053393
0.000534019
0.000534107
0.000534191
0.000534272
0.000534348
0.000534418
0.000534482
0.000534541
0.000534593
0.00053464
0.000534681
0.000534716
0.000534746
0.000534772
0.000534793
0.000534809
0.000534822
0.000534831
0.000534836
0.000534839
0.000534819
0.000534853
0.000534898
0.000534953
0.000535014
0.00053508
0.000535146
0.000535213
0.000535279
0.000535342
0.000535402
0.000535459
0.000535511
0.000535559
0.000535602
0.000535641
0.000535676
0.000535706
0.000535732
0.000535754
0.000535773
0.000535788
0.0005358
0.00053581
0.000535816
0.000535821
0.000535822
0.000535798
0.000535822
0.000535855
0.000535895
0.00053594
0.000535987
0.000536035
0.000536083
0.000536131
0.000536176
0.000536219
0.00053626
0.000536297
0.000536331
0.000536362
0.00053639
0.000536414
0.000536436
0.000536455
0.00053647
0.000536484
0.000536495
0.000536503
0.00053651
0.000536514
0.000536517
0.000536519
0.000536495
0.000536512
0.000536536
0.000536563
0.000536594
0.000536627
0.000536661
0.000536694
0.000536727
0.000536759
0.000536789
0.000536816
0.000536842
0.000536866
0.000536887
0.000536906
0.000536923
0.000536938
0.00053695