/*--------------------------------*- C++ -*----------------------------------*\
| =========                 |                                                 |
| \\      /  F ield         | OpenFOAM: The Open Source CFD Toolbox           |
|  \\    /   O peration     | Version:  2106                                  |
|   \\  /    A nd           | Website:  www.openfoam.com                      |
|    \\/     M anipulation  |                                                 |
\*---------------------------------------------------------------------------*/
FoamFile
{
    version     2.0;
    format      ascii;
    arch        "LSB;label=32;scalar=64";
    class       surfaceScalarField;
    location    "150.00049";
    object      phi_0;
}
// * * * * * * * * * * * * * * * * * * * * * * * * * * * * * * * * * * * * * //

dimensions      [1 0 -1 0 0 0 0];

oriented        oriented;

internalField   nonuniform List<scalar> 
6572
(
-1.49033e-10
4.14349e-10
3.90123e-11
-3.1982e-10
6.41451e-10
-5.42097e-10
8.33259e-10
-8.07129e-10
9.93341e-10
-1.1063e-09
1.12453e-09
-1.4309e-09
1.22912e-09
-1.77196e-09
1.30907e-09
-2.1203e-09
1.36605e-09
-2.46658e-09
1.40163e-09
-2.80143e-09
1.41736e-09
-3.11559e-09
1.41464e-09
-3.39981e-09
1.39477e-09
-3.64552e-09
1.35948e-09
-3.8448e-09
1.31036e-09
-3.99032e-09
1.24889e-09
-4.07543e-09
1.17649e-09
-4.09428e-09
1.09463e-09
-4.04188e-09
1.00476e-09
-3.91417e-09
9.08324e-10
-3.70805e-09
8.06769e-10
-3.42143e-09
7.01476e-10
-3.05314e-09
5.93725e-10
-2.60284e-09
4.84676e-10
-2.07098e-09
3.75378e-10
-1.45873e-09
2.66764e-10
-7.67814e-10
1.59634e-10
5.41766e-11
-1.01045e-10
4.8828e-10
2.7114e-11
-2.11593e-10
7.51999e-10
-3.48378e-10
9.70044e-10
-5.01058e-10
1.14602e-09
-6.5973e-10
1.2832e-09
-8.15221e-10
1.38461e-09
-9.59338e-10
1.45318e-09
-1.08509e-09
1.4918e-09
-1.18684e-09
1.50338e-09
-1.26049e-09
1.49101e-09
-1.30465e-09
1.4588e-09
-1.31907e-09
1.40918e-09
-1.3042e-09
1.34461e-09
-1.26142e-09
1.26759e-09
-1.19313e-09
1.18059e-09
-1.1026e-09
1.08596e-09
-9.93882e-10
9.85917e-10
-8.71614e-10
8.82493e-10
-7.40828e-10
7.77539e-10
-6.06752e-10
6.72693e-10
-4.7465e-10
5.69375e-10
-3.49714e-10
4.68789e-10
-2.36966e-10
3.71928e-10
-1.41263e-10
2.79675e-10
-6.7081e-11
1.92582e-10
-1.84931e-11
1.11046e-10
3.56835e-11
-8.0125e-11
5.47232e-10
2.11732e-11
-1.66957e-10
8.3883e-10
-2.71306e-10
1.07439e-09
-3.83383e-10
1.2581e-09
-4.94478e-10
1.39429e-09
-5.97265e-10
1.4874e-09
-6.86219e-10
1.54214e-09
-7.57497e-10
1.56308e-09
-8.08866e-10
1.55475e-09
-8.39402e-10
1.52154e-09
-8.48303e-10
1.46771e-09
-8.36314e-10
1.39719e-09
-8.05065e-10
1.31336e-09
-7.56908e-10
1.21943e-09
-6.94795e-10
1.11848e-09
-6.22098e-10
1.01327e-09
-5.42401e-10
9.06219e-10
-4.59299e-10
7.99391e-10
-3.7624e-10
6.9448e-10
-2.96357e-10
5.92809e-10
-2.22382e-10
4.954e-10
-1.56619e-10
4.03026e-10
-1.00931e-10
3.16241e-10
-5.66606e-11
2.35404e-10
-2.47915e-11
1.60713e-10
-5.97825e-12
9.22327e-11
2.97052e-11
-3.77151e-11
5.74519e-10
1.04281e-11
-7.68205e-11
8.77936e-10
-1.2252e-10
1.12009e-09
-1.69856e-10
1.30543e-09
-2.14567e-10
1.439e-09
-2.53401e-10
1.52624e-09
-2.83982e-10
1.57272e-09
-3.0494e-10
1.58404e-09
-3.15767e-10
1.56558e-09
-3.16691e-10
1.52247e-09
-3.08548e-10
1.45956e-09
-2.92569e-10
1.38121e-09
-2.70465e-10
1.29125e-09
-2.44105e-10
1.19307e-09
-2.15253e-10
1.08962e-09
-1.85449e-10
9.83462e-10
-1.55967e-10
8.76737e-10
-1.27803e-10
7.71227e-10
-1.01687e-10
6.68365e-10
-7.81547e-11
5.69276e-10
-5.75696e-11
4.74815e-10
-4.01422e-11
3.85599e-10
-2.5948e-11
3.02046e-10
-1.49517e-11
2.24407e-10
-7.03155e-12
1.52793e-10
-1.99869e-12
8.71998e-11
2.77065e-11
-1.9131e-11
5.88672e-10
4.9782e-12
-3.93473e-11
8.98152e-10
-6.23553e-11
1.1431e-09
-8.53647e-11
1.32844e-09
-1.06296e-10
1.45994e-09
-1.23795e-10
1.54373e-09
-1.37022e-10
1.58594e-09
-1.45594e-10
1.59261e-09
-1.49532e-10
1.56952e-09
-1.49138e-10
1.52207e-09
-1.44826e-10
1.45525e-09
-1.37135e-10
1.37352e-09
-1.2673e-10
1.28085e-09
-1.14345e-10
1.18069e-09
-1.00713e-10
1.07599e-09
-8.65188e-11
9.69268e-10
-7.23596e-11
8.62578e-10
-5.87385e-11
7.57606e-10
-4.60593e-11
6.55686e-10
-3.46317e-11
5.57849e-10
-2.46794e-11
4.64862e-10
-1.63503e-11
3.77269e-10
-9.7277e-12
2.95424e-10
-4.84137e-12
2.19521e-10
-1.67774e-12
1.49629e-10
-1.89182e-13
8.57113e-11
2.75174e-11
-9.32201e-12
5.95279e-10
2.71432e-12
-1.83361e-11
9.07166e-10
-2.82692e-11
1.15303e-09
-3.77982e-11
1.33797e-09
-4.59373e-11
1.46807e-09
-5.20888e-11
1.54989e-09
-5.59903e-11
1.58985e-09
-5.76366e-11
1.59426e-09
-5.72141e-11
1.56909e-09
-5.50358e-11
1.5199e-09
-5.14813e-11
1.4517e-09
-4.69478e-11
1.36899e-09
-4.18161e-11
1.27572e-09
-3.64254e-11
1.1753e-09
-3.10588e-11
1.07063e-09
-2.59363e-11
9.64145e-10
-2.12147e-11
8.57856e-10
-1.69922e-11
7.53383e-10
-1.33166e-11
6.5201e-10
-1.01943e-11
5.54727e-10
-7.60027e-12
4.62268e-10
-5.48663e-12
3.75156e-10
-3.79092e-12
2.93728e-10
-2.44276e-12
2.18173e-10
-1.36938e-12
1.48556e-10
-4.99713e-13
8.48416e-11
2.70177e-11
-4.80654e-12
5.98917e-10
1.1691e-12
-1.01736e-11
9.12534e-10
-1.64596e-11
1.15932e-09
-2.29368e-11
1.34445e-09
-2.89629e-11
1.4741e-09
-3.39901e-11
1.55491e-09
-3.7716e-11
1.59357e-09
-4.00275e-11
1.59657e-09
-4.09518e-11
1.57002e-09
-4.06107e-11
1.51956e-09
-3.91823e-11
1.45027e-09
-3.68714e-11
1.36668e-09
-3.38892e-11
1.27274e-09
-3.04389e-11
1.17185e-09
-2.67074e-11
1.0669e-09
-2.28608e-11
9.60299e-10
-1.90426e-11
8.54038e-10
-1.53742e-11
7.49715e-10
-1.19559e-11
6.48592e-10
-8.86904e-12
5.5164e-10
-6.17758e-12
4.59577e-10
-3.93011e-12
3.72908e-10
-2.16155e-12
2.91959e-10
-8.94706e-13
2.16906e-10
-1.41648e-13
1.47803e-10
9.49403e-14
8.46051e-11
2.71126e-11
-1.83504e-12
6.00154e-10
5.97264e-13
-3.46284e-12
9.14161e-10
-5.23834e-12
1.1611e-09
-6.91604e-12
1.34613e-09
-8.29658e-12
1.47548e-09
-9.24876e-12
1.55586e-09
-9.71953e-12
1.59404e-09
-9.72335e-12
1.59657e-09
-9.32339e-12
1.56962e-09
-8.61136e-12
1.51884e-09
-7.68977e-12
1.44935e-09
-6.65842e-12
1.36565e-09
-5.60511e-12
1.27168e-09
-4.60029e-12
1.17084e-09
-3.69488e-12
1.06599e-09
-2.92035e-12
9.59524e-10
-2.29034e-12
8.53408e-10
-1.80332e-12
7.49228e-10
-1.4456e-12
6.48234e-10
-1.19453e-12
5.51389e-10
-1.02147e-12
4.59404e-10
-8.94506e-13
3.72781e-10
-7.80803e-13
2.91846e-10
-6.48438e-13
2.16774e-10
-4.679e-13
1.47622e-10
-2.13082e-13
8.43503e-11
2.68996e-11
-1.84932e-12
6.01577e-10
4.26453e-13
-3.95429e-12
9.16266e-10
-6.39677e-12
1.16354e-09
-8.88713e-12
1.34862e-09
-1.11965e-11
1.47779e-09
-1.31609e-11
1.55783e-09
-1.46786e-11
1.59556e-09
-1.57018e-11
1.5976e-09
-1.62255e-11
1.57014e-09
-1.62761e-11
1.51889e-09
-1.59009e-11
1.44897e-09
-1.51601e-11
1.36491e-09
-1.41204e-11
1.27064e-09
-1.28508e-11
1.16957e-09
-1.14192e-11
1.06456e-09
-9.89071e-12
9.57996e-10
-8.32626e-12
8.51844e-10
-6.78173e-12
7.47683e-10
-5.30746e-12
6.4676e-10
-3.94795e-12
5.50029e-10
-2.74158e-12
4.58198e-10
-1.72063e-12
3.71761e-10
-9.11219e-13
2.91036e-10
-3.33448e-13
2.16196e-10
-1.61631e-15
1.47291e-10
7.54502e-14
8.42732e-11
2.6975e-11
-6.9009e-13
6.02022e-10
2.45047e-13
-1.25007e-12
9.16826e-10
-1.85023e-12
1.16414e-09
-2.40994e-12
1.34918e-09
-2.86536e-12
1.47825e-09
-3.17702e-12
1.55814e-09
-3.32998e-12
1.59571e-09
-3.32996e-12
1.5976e-09
-3.19769e-12
1.57001e-09
-2.96294e-12
1.51866e-09
-2.65925e-12
1.44867e-09
-2.31967e-12
1.36457e-09
-1.97372e-12
1.2703e-09
-1.64544e-12
1.16924e-09
-1.35241e-12
1.06427e-09
-1.10551e-12
9.57749e-10
-9.09198e-13
8.51648e-10
-7.62234e-13
7.47536e-10
-6.58613e-13
6.46656e-10
-5.88617e-13
5.49959e-10
-5.39923e-13
4.58149e-10
-4.98657e-13
3.71719e-10
-4.50357e-13
2.90988e-10
-3.80791e-13
2.16127e-10
-2.76647e-13
1.47186e-10
-1.26014e-13
8.41226e-11
2.6849e-11
-1.04254e-12
6.02827e-10
2.37723e-13
-2.24299e-12
9.18027e-10
-3.65122e-12
1.16555e-09
-5.10958e-12
1.35063e-09
-6.49196e-12
1.47963e-09
-7.70464e-12
1.55935e-09
-8.68458e-12
1.59669e-09
-9.39572e-12
1.59831e-09
-9.8244e-12
1.57044e-09
-9.97461e-12
1.51881e-09
-9.86367e-12
1.44856e-09
-9.51844e-12
1.36422e-09
-8.9722e-12
1.26975e-09
-8.2622e-12
1.16853e-09
-7.42769e-12
1.06343e-09
-6.50833e-12
9.56829e-10
-5.54306e-12
8.50682e-10
-4.56888e-12
7.46562e-10
-3.62143e-12
6.45709e-10
-2.7332e-12
5.49071e-10
-1.93309e-12
4.57349e-10
-1.24584e-12
3.71032e-10
-6.91841e-13
2.90434e-10
-2.86975e-13
2.15722e-10
-4.27496e-14
1.46942e-10
3.34915e-14
8.40464e-11
2.68825e-11
-6.56079e-13
6.03272e-10
2.11523e-13
-1.25675e-12
9.18628e-10
-1.94183e-12
1.16623e-09
-2.63618e-12
1.35133e-09
-3.27574e-12
1.48027e-09
-3.81306e-12
1.55989e-09
-4.21843e-12
1.5971e-09
-4.47852e-12
1.59857e-09
-4.59356e-12
1.57055e-09
-4.57415e-12
1.51879e-09
-4.43789e-12
1.44842e-09
-4.20646e-12
1.36399e-09
-3.90306e-12
1.26945e-09
-3.55046e-12
1.16818e-09
-3.1696e-12
1.06305e-09
-2.77857e-12
9.56438e-10
-2.39217e-12
8.50296e-10
-2.02215e-12
7.46192e-10
-1.67627e-12
6.45363e-10
-1.36019e-12
5.48755e-10
-1.07675e-12
4.57065e-10
-8.26176e-13
3.70782e-10
-6.06617e-13
2.90215e-10
-4.14541e-13
2.1553e-10
-2.45276e-13
1.46773e-10
-9.34527e-14
8.38946e-11
2.67891e-11
-1.67147e-12
6.04519e-10
4.24004e-13
-3.50274e-12
9.20459e-10
-5.66162e-12
1.16839e-09
-7.91771e-12
1.35359e-09
-1.00768e-11
1.48243e-09
-1.19867e-11
1.5618e-09
-1.3539e-11
1.59865e-09
-1.46667e-11
1.5997e-09
-1.53402e-11
1.57123e-09
-1.55617e-11
1.51901e-09
-1.53586e-11
1.44822e-09
-1.47774e-11
1.36341e-09
-1.38777e-11
1.26855e-09
-1.27268e-11
1.16703e-09
-1.13949e-11
1.06172e-09
-9.9513e-12
9.54995e-10
-8.46172e-12
8.48806e-10
-6.9853e-12
7.44716e-10
-5.57314e-12
6.43951e-10
-4.2667e-12
5.47448e-10
-3.09937e-12
4.55898e-10
-2.09711e-12
3.69779e-10
-1.27912e-12
2.89397e-10
-6.58504e-13
2.14909e-10
-2.42921e-13
1.46357e-10
-3.5283e-14
8.36869e-11
2.67538e-11
-1.81518e-12
6.05826e-10
5.0883e-13
-3.67733e-12
9.22321e-10
-5.84782e-12
1.17056e-09
-8.09117e-12
1.35583e-09
-1.02065e-11
1.48454e-09
-1.20386e-11
1.56363e-09
-1.34807e-11
1.60009e-09
-1.44733e-11
1.60069e-09
-1.49977e-11
1.57175e-09
-1.50696e-11
1.51908e-09
-1.47306e-11
1.44788e-09
-1.40404e-11
1.36272e-09
-1.30693e-11
1.26758e-09
-1.18913e-11
1.16585e-09
-1.05784e-11
1.06041e-09
-9.19702e-12
9.53614e-10
-7.80618e-12
8.47416e-10
-6.4559e-12
7.43366e-10
-5.18574e-12
6.42681e-10
-4.02588e-12
5.46289e-10
-2.99782e-12
4.5487e-10
-2.11538e-12
3.68897e-10
-1.38586e-12
2.88667e-10
-8.11131e-13
2.14334e-10
-3.88724e-13
1.45935e-10
-1.12767e-13
8.3411e-11
2.66411e-11
-2.8767e-12
6.07943e-10
7.58952e-13
-5.96285e-12
9.25407e-10
-9.60718e-12
1.17421e-09
-1.34327e-11
1.35965e-09
-1.71178e-11
1.48823e-09
-2.04088e-11
1.56692e-09
-2.31226e-11
1.60281e-09
-2.51443e-11
1.60271e-09
-2.64195e-11
1.57303e-09
-2.69452e-11
1.51961e-09
-2.67592e-11
1.44769e-09
-2.593e-11
1.36189e-09
-2.45472e-11
1.26619e-09
-2.27138e-11
1.16402e-09
-2.05399e-11
1.05823e-09
-1.81362e-11
9.5121e-10
-1.56096e-11
8.44889e-10
-1.30592e-11
7.40815e-10
-1.05755e-11
6.40197e-10
-8.2379e-12
5.43951e-10
-6.11323e-12
4.52745e-10
-4.25551e-12
3.67039e-10
-2.70603e-12
2.87118e-10
-1.49405e-12
2.13122e-10
-6.37836e-13
1.45079e-10
-1.45931e-13
8.29191e-11
2.64951e-11
-3.60531e-12
6.10565e-10
9.83282e-13
-7.38203e-12
9.29184e-10
-1.18135e-11
1.17864e-09
-1.64308e-11
1.36427e-09
-2.08344e-11
1.49263e-09
-2.47123e-11
1.5708e-09
-2.78451e-11
1.60594e-09
-3.01021e-11
1.60497e-09
-3.1431e-11
1.57436e-09
-3.18448e-11
1.52002e-09
-3.14073e-11
1.44725e-09
-3.02185e-11
1.3607e-09
-2.84018e-11
1.26438e-09
-2.60933e-11
1.16171e-09
-2.34327e-11
1.05557e-09
-2.05561e-11
9.48333e-10
-1.75896e-11
8.41922e-10
-1.46461e-11
7.37872e-10
-1.18227e-11
6.37374e-10
-9.19967e-12
5.41328e-10
-6.84081e-12
4.50386e-10
-4.79392e-12
3.64992e-10
-3.09223e-12
2.85416e-10
-1.75601e-12
2.11786e-10
-7.94316e-13
1.44117e-10
-2.06795e-13
8.23316e-11
2.62884e-11
-4.58471e-12
6.13924e-10
1.22579e-12
-9.43184e-12
9.34031e-10
-1.50932e-11
1.1843e-09
-2.09502e-11
1.37013e-09
-2.64842e-11
1.49817e-09
-3.12986e-11
1.57562e-09
-3.5123e-11
1.60976e-09
-3.78054e-11
1.60765e-09
-3.92962e-11
1.57585e-09
-3.96294e-11
1.52036e-09
-3.89019e-11
1.44653e-09
-3.72542e-11
1.35905e-09
-3.48528e-11
1.26198e-09
-3.18754e-11
1.15873e-09
-2.84987e-11
1.05219e-09
-2.48902e-11
9.44725e-10
-2.12024e-11
8.38235e-10
-1.75698e-11
7.34239e-10
-1.41068e-11
6.33911e-10
-1.09075e-11
5.38129e-10
-8.04597e-12
4.47525e-10
-5.57789e-12
3.62524e-10
-3.54197e-12
2.8338e-10
-1.96192e-12
2.10206e-10
-8.48502e-13
1.43004e-10
-2.01471e-13
8.16846e-11
2.60869e-11
-5.3314e-12
6.17808e-10
1.44804e-12
-1.08945e-11
9.39594e-10
-1.73547e-11
1.19076e-09
-2.39926e-11
1.37677e-09
-3.02107e-11
1.50438e-09
-3.55604e-11
1.58097e-09
-3.9745e-11
1.61395e-09
-4.26083e-11
1.61051e-09
-4.41129e-11
1.57735e-09
-4.43156e-11
1.52056e-09
-4.33415e-11
1.44555e-09
-4.1361e-11
1.35707e-09
-3.85689e-11
1.25918e-09
-3.51684e-11
1.15533e-09
-3.13582e-11
1.04838e-09
-2.73242e-11
9.40691e-10
-2.32328e-11
8.34143e-10
-1.92283e-11
7.30235e-10
-1.54312e-11
6.30114e-10
-1.19387e-11
5.34636e-10
-8.82525e-12
4.44412e-10
-6.14508e-12
3.59844e-10
-3.934e-12
2.81169e-10
-2.21192e-12
2.08484e-10
-9.85319e-13
1.41777e-10
-2.49521e-13
8.09488e-11
2.58374e-11
-5.97088e-12
6.22172e-10
1.60669e-12
-1.22146e-11
9.45838e-10
-1.94252e-11
1.19797e-09
-2.67763e-11
1.38412e-09
-3.35937e-11
1.5112e-09
-3.93833e-11
1.58676e-09
-4.38308e-11
1.6184e-09
-4.67836e-11
1.61346e-09
-4.82234e-11
1.57879e-09
-4.82342e-11
1.52057e-09
-4.69722e-11
1.44429e-09
-4.46382e-11
1.35474e-09
-4.14548e-11
1.256e-09
-3.76489e-11
1.15153e-09
-3.34383e-11
1.04417e-09
-2.90232e-11
9.36276e-10
-2.45805e-11
8.29701e-10
-2.02613e-11
7.25916e-10
-1.61902e-11
6.26043e-10
-1.2466e-11
5.30912e-10
-9.16372e-12
4.41109e-10
-6.33647e-12
3.57017e-10
-4.01852e-12
2.78851e-10
-2.22778e-12
2.06693e-10
-9.68466e-13
1.40518e-10
-2.33581e-13
8.02139e-11
2.56038e-11
-6.09932e-12
6.26614e-10
1.65759e-12
-1.24111e-11
9.5215e-10
-1.96501e-11
1.20521e-09
-2.69669e-11
1.39143e-09
-3.36789e-11
1.51791e-09
-3.92986e-11
1.59237e-09
-4.35297e-11
1.62263e-09
-4.62438e-11
1.61618e-09
-4.74475e-11
1.58e-09
-4.72474e-11
1.52037e-09
-4.5817e-11
1.44286e-09
-4.33682e-11
1.35229e-09
-4.01284e-11
1.25276e-09
-3.63235e-11
1.14772e-09
-3.21664e-11
1.04002e-09
-2.78488e-11
9.31958e-10
-2.35371e-11
8.25389e-10
-1.93713e-11
7.2175e-10
-1.54646e-11
6.22136e-10
-1.19053e-11
5.27353e-10
-8.75885e-12
4.37963e-10
-6.07023e-12
3.54328e-10
-3.86707e-12
2.76648e-10
-2.16213e-12
2.04988e-10
-9.55949e-13
1.39312e-10
-2.39179e-13
7.94971e-11
2.53646e-11
-5.80868e-12
6.30853e-10
1.5697e-12
-1.18178e-11
9.58159e-10
-1.86684e-11
1.21206e-09
-2.55366e-11
1.3983e-09
-3.17733e-11
1.52415e-09
-3.69272e-11
1.59753e-09
-4.07369e-11
1.62644e-09
-4.3103e-11
1.61854e-09
-4.40529e-11
1.58095e-09
-4.37046e-11
1.52002e-09
-4.22337e-11
1.44139e-09
-3.98463e-11
1.3499e-09
-3.67583e-11
1.24967e-09
-3.31801e-11
1.14414e-09
-2.93065e-11
1.03614e-09
-2.5311e-11
9.27962e-10
-2.13427e-11
8.21421e-10
-1.75252e-11
7.17932e-10
-1.39581e-11
6.18569e-10
-1.07183e-11
5.24113e-10
-7.86218e-12
4.35107e-10
-5.42837e-12
3.51894e-10
-3.44014e-12
2.7466e-10
-1.9079e-12
2.03456e-10
-8.31457e-13
1.38235e-10
-2.02071e-13
7.88678e-11
2.51626e-11
-4.9476e-12
6.34453e-10
1.34727e-12
-1.0023e-11
9.63234e-10
-1.57769e-11
1.21781e-09
-2.15064e-11
1.40403e-09
-2.66663e-11
1.52931e-09
-3.08869e-11
1.60175e-09
-3.39631e-11
1.62951e-09
-3.58274e-11
1.62041e-09
-3.6517e-11
1.58163e-09
-3.61413e-11
1.51965e-09
-3.48536e-11
1.4401e-09
-3.28289e-11
1.34788e-09
-3.02465e-11
1.24709e-09
-2.72786e-11
1.14117e-09
-2.4083e-11
1.03295e-09
-2.07988e-11
9.24678e-10
-1.75446e-11
8.18166e-10
-1.44186e-11
7.14806e-10
-1.14994e-11
6.1565e-10
-8.84743e-12
5.21461e-10
-6.50741e-12
4.32767e-10
-4.50991e-12
3.49897e-10
-2.87354e-12
2.73023e-10
-1.60694e-12
2.0219e-10
-7.10459e-13
1.37339e-10
-1.77756e-13
7.83351e-11
2.49848e-11
-3.7591e-12
6.37194e-10
1.01761e-12
-7.62247e-12
9.67098e-10
-1.19906e-11
1.22218e-09
-1.63257e-11
1.40837e-09
-2.02164e-11
1.5332e-09
-2.33883e-11
1.60492e-09
-2.56937e-11
1.63182e-09
-2.70878e-11
1.6218e-09
-2.76031e-11
1.58215e-09
-2.7324e-11
1.51937e-09
-2.63657e-11
1.43914e-09
-2.48578e-11
1.34637e-09
-2.29322e-11
1.24516e-09
-2.07153e-11
1.13896e-09
-1.83226e-11
1.03055e-09
-1.58566e-11
9.22212e-10
-1.3405e-11
8.15715e-10
-1.10413e-11
7.12443e-10
-8.82529e-12
6.13434e-10
-6.80389e-12
5.1944e-10
-5.01284e-12
4.30976e-10
-3.4778e-12
3.48362e-10
-2.21579e-12
2.71761e-10
-1.2364e-12
2.0121e-10
-5.42976e-13
1.36645e-10
-1.33689e-13
7.79258e-11
2.48511e-11
-2.32367e-12
6.38885e-10
6.3339e-13
-4.70168e-12
9.69476e-10
-7.39176e-12
1.22487e-09
-1.00674e-11
1.41104e-09
-1.24796e-11
1.53561e-09
-1.44629e-11
1.6069e-09
-1.59276e-11
1.63328e-09
-1.68453e-11
1.62272e-09
-1.72328e-11
1.58254e-09
-1.71369e-11
1.51927e-09
-1.66228e-11
1.43863e-09
-1.57638e-11
1.34551e-09
-1.46358e-11
1.24404e-09
-1.3312e-11
1.13763e-09
-1.18607e-11
1.0291e-09
-1.03436e-11
9.20695e-10
-8.81496e-12
8.14186e-10
-7.3217e-12
7.10949e-10
-5.90346e-12
6.12015e-10
-4.59303e-12
5.18129e-10
-3.41683e-12
4.29799e-10
-2.39547e-12
3.47341e-10
-1.54437e-12
2.7091e-10
-8.74249e-13
2.0054e-10
-3.9175e-13
1.36163e-10
-9.98888e-14
7.76339e-11
2.47513e-11
-8.74761e-13
6.39525e-10
2.34475e-13
-1.78611e-12
9.70387e-10
-2.83068e-12
1.22592e-09
-3.88999e-12
1.4121e-09
-4.87334e-12
1.5366e-09
-5.7187e-12
1.60775e-09
-6.38924e-12
1.63395e-09
-6.86808e-12
1.6232e-09
-7.15301e-12
1.58282e-09
-7.25202e-12
1.51937e-09
-7.17981e-12
1.43856e-09
-6.9554e-12
1.34529e-09
-6.60034e-12
1.24368e-09
-6.13767e-12
1.13717e-09
-5.59101e-12
1.02856e-09
-4.98402e-12
9.20088e-10
-4.33989e-12
8.13542e-10
-3.68098e-12
7.10291e-10
-3.02846e-12
6.11363e-10
-2.40201e-12
5.17503e-10
-1.81958e-12
4.29217e-10
-1.29724e-12
3.46818e-10
-8.48951e-13
2.70462e-10
-4.86588e-13
2.00178e-10
-2.19844e-13
1.35896e-10
-5.62673e-14
7.74703e-11
2.4695e-11
5.34482e-13
6.39136e-10
-1.45173e-13
1.07278e-12
9.69849e-10
1.66082e-12
1.22533e-09
2.21223e-12
1.41155e-09
2.66225e-12
1.53615e-09
2.97072e-12
1.60744e-09
3.12099e-12
1.6338e-09
3.11612e-12
1.6232e-09
2.97381e-12
1.58296e-09
2.72119e-12
1.51962e-09
2.39e-12
1.43889e-09
2.01263e-12
1.34566e-09
1.61922e-12
1.24407e-09
1.23562e-12
1.13756e-09
8.82354e-13
1.02891e-09
5.7411e-13
9.20396e-10
3.19913e-13
8.13796e-10
1.2357e-13
7.10487e-10
-1.56118e-14
6.11502e-10
-1.02009e-13
5.17589e-10
-1.42823e-13
4.29258e-10
-1.47261e-13
3.46823e-10
-1.25776e-13
2.7044e-10
-8.94063e-14
2.00141e-10
-4.92238e-14
1.35856e-10
-1.58756e-14
7.7437e-11
2.46791e-11
1.8146e-12
6.37816e-10
-4.95192e-13
3.66368e-12
9.68e-10
5.74022e-12
1.22325e-09
7.77856e-12
1.40951e-09
9.57444e-12
1.53435e-09
1.09925e-11
1.60602e-09
1.19622e-11
1.63283e-09
1.24673e-11
1.6227e-09
1.25326e-11
1.5829e-09
1.22107e-11
1.51994e-09
1.15705e-11
1.43953e-09
1.06877e-11
1.34655e-09
9.63758e-12
1.24512e-09
8.48997e-12
1.1387e-09
7.30641e-12
1.03009e-09
6.13834e-12
9.21564e-10
5.02662e-12
8.14908e-10
4.00188e-12
7.11512e-10
3.08525e-12
6.12419e-10
2.28952e-12
5.18385e-10
1.62038e-12
4.29927e-10
1.07772e-12
3.47365e-10
6.5689e-13
2.70861e-10
3.498e-13
2.00448e-10
1.45972e-13
1.3606e-10
3.34101e-14
7.75496e-11
2.47125e-11
2.97106e-12
6.35651e-10
-8.06029e-13
6.02708e-12
9.64944e-10
9.49208e-12
1.21979e-09
1.29404e-11
1.40606e-09
1.60401e-11
1.53125e-09
1.85644e-11
1.6035e-09
2.03862e-11
1.63101e-09
2.14627e-11
1.62162e-09
2.18165e-11
1.58255e-09
2.15161e-11
1.52024e-09
2.06585e-11
1.44039e-09
1.93553e-11
1.34785e-09
1.77215e-11
1.24676e-09
1.58675e-11
1.14056e-09
1.38942e-11
1.03207e-09
1.18897e-11
9.23569e-10
9.92791e-12
8.1687e-10
8.06845e-12
7.13371e-10
6.35701e-12
6.1413e-10
4.82666e-12
5.19915e-10
3.49927e-12
4.31254e-10
2.38705e-12
3.48477e-10
1.49418e-12
2.71754e-10
8.18333e-13
2.01124e-10
3.52067e-13
1.36526e-10
8.41157e-14
7.78175e-11
2.47967e-11
3.96248e-12
6.32763e-10
-1.07466e-12
8.05696e-12
9.6085e-10
1.27332e-11
1.21511e-09
1.74349e-11
1.40136e-09
2.17212e-11
1.52696e-09
2.52827e-11
1.59994e-09
2.79366e-11
1.62836e-09
2.96086e-11
1.61995e-09
3.03106e-11
1.58184e-09
3.01167e-11
1.52044e-09
2.91423e-11
1.44136e-09
2.75257e-11
1.34947e-09
2.5414e-11
1.24887e-09
2.29524e-11
1.14302e-09
2.02772e-11
1.03474e-09
1.75106e-11
9.26336e-10
1.47585e-11
8.19622e-10
1.21096e-11
7.1602e-10
9.63495e-12
6.16605e-10
7.3895e-12
5.22161e-10
5.41324e-12
4.33231e-10
3.73282e-12
3.50158e-10
2.36349e-12
2.73123e-10
1.31087e-12
2.02177e-10
5.72622e-13
1.37264e-10
1.40082e-13
7.82501e-11
2.49367e-11
4.76234e-12
6.29289e-10
-1.28834e-12
9.70981e-12
9.55902e-10
1.53953e-11
1.20942e-09
2.11594e-11
1.3956e-09
2.64726e-11
1.52165e-09
3.09553e-11
1.59546e-09
3.43732e-11
1.62494e-09
3.66193e-11
1.61771e-09
3.76895e-11
1.58077e-09
3.76564e-11
1.52047e-09
3.66449e-11
1.44237e-09
3.48119e-11
1.3513e-09
3.23289e-11
1.25135e-09
2.93693e-11
1.14598e-09
2.60994e-11
1.03801e-09
2.26725e-11
9.29763e-10
1.92227e-11
8.23072e-10
1.58659e-11
7.19377e-10
1.2698e-11
6.19773e-10
9.79575e-12
5.25063e-10
7.21757e-12
4.35809e-10
5.00559e-12
3.5237e-10
3.18732e-12
2.74942e-10
1.77768e-12
2.03587e-10
7.80887e-13
1.38261e-10
1.92352e-13
7.88386e-11
2.51291e-11
5.29918e-12
6.25423e-10
-1.43267e-12
1.08232e-11
9.50378e-10
1.72028e-11
1.20305e-09
2.37137e-11
1.38909e-09
2.97677e-11
1.5156e-09
3.49351e-11
1.59029e-09
3.89421e-11
1.62093e-09
4.16537e-11
1.61499e-09
4.30501e-11
1.57938e-09
4.31951e-11
1.52033e-09
4.22156e-11
1.44335e-09
4.02773e-11
1.35324e-09
3.75665e-11
1.25406e-09
3.42751e-11
1.14927e-09
3.05903e-11
1.0417e-09
2.66867e-11
9.33666e-10
2.27217e-11
8.27037e-10
1.88325e-11
7.23266e-10
1.51349e-11
6.2347e-10
1.17239e-11
5.28474e-10
8.67376e-12
4.38859e-10
6.04037e-12
3.55003e-10
3.86246e-12
2.7712e-10
2.16382e-12
2.05285e-10
9.55363e-13
1.39469e-10
2.3707e-13
7.95569e-11
2.53662e-11
5.52223e-12
6.21392e-10
-1.49091e-12
1.12973e-11
9.44603e-10
1.79917e-11
1.19635e-09
2.48576e-11
1.38222e-09
3.12825e-11
1.50917e-09
3.68125e-11
1.58476e-09
4.11521e-11
1.61659e-09
4.41476e-11
1.612e-09
4.57635e-11
1.57776e-09
4.60561e-11
1.52003e-09
4.5148e-11
1.44426e-09
4.32052e-11
1.35518e-09
4.04182e-11
1.25685e-09
3.69862e-11
1.1527e-09
3.31064e-11
1.04558e-09
2.89641e-11
9.37808e-10
2.47296e-11
8.31271e-10
2.05527e-11
7.27443e-10
1.65615e-11
6.27461e-10
1.28623e-11
5.32173e-10
9.5401e-12
4.42181e-10
6.66001e-12
3.57883e-10
4.26881e-12
2.79511e-10
2.39698e-12
2.07157e-10
1.06068e-12
1.40806e-10
2.6389e-13
8.03537e-11
2.56301e-11
5.39609e-12
6.17452e-10
-1.45644e-12
1.1049e-11
9.3895e-10
1.76181e-11
1.18978e-09
2.43776e-11
1.37546e-09
3.07292e-11
1.50282e-09
3.62257e-11
1.57926e-09
4.05711e-11
1.61225e-09
4.3607e-11
1.60896e-09
4.52883e-11
1.57608e-09
4.5664e-11
1.51966e-09
4.48478e-11
1.44508e-09
4.29976e-11
1.35703e-09
4.02973e-11
1.25955e-09
3.69416e-11
1.15606e-09
3.31243e-11
1.04939e-09
2.90299e-11
9.41903e-10
2.48278e-11
8.35473e-10
2.06685e-11
7.31602e-10
1.66818e-11
6.31448e-10
1.29764e-11
5.35879e-10
9.64e-12
4.45518e-10
6.7404e-12
3.60783e-10
4.32731e-12
2.81924e-10
2.43398e-12
2.0905e-10
1.0792e-12
1.42161e-10
2.69285e-13
8.11636e-11
2.58993e-11
4.94962e-12
6.13837e-10
-1.33523e-12
1.01408e-11
9.33759e-10
1.6181e-11
1.18374e-09
2.24062e-11
1.36924e-09
2.82673e-11
1.49696e-09
3.33518e-11
1.57418e-09
3.73848e-11
1.60822e-09
4.02169e-11
1.60613e-09
4.18044e-11
1.57449e-09
4.21874e-11
1.51928e-09
4.14677e-11
1.4458e-09
3.97887e-11
1.35871e-09
3.73187e-11
1.26202e-09
3.42364e-11
1.15914e-09
3.07205e-11
1.05291e-09
2.69416e-11
9.45682e-10
2.30568e-11
8.39358e-10
1.92063e-11
7.35453e-10
1.55111e-11
6.35143e-10
1.20728e-11
5.39317e-10
8.97367e-12
4.48617e-10
6.27783e-12
3.63479e-10
4.03236e-12
2.84169e-10
2.26913e-12
2.10814e-10
1.00653e-12
1.43423e-10
2.51272e-13
8.19189e-11
2.61506e-11
4.26306e-12
6.10725e-10
-1.15025e-12
8.73436e-12
9.29288e-10
1.3938e-11
1.17854e-09
1.93022e-11
1.36387e-09
2.43537e-11
1.49191e-09
2.87365e-11
1.56979e-09
3.22131e-11
1.60474e-09
3.46542e-11
1.60369e-09
3.60218e-11
1.57312e-09
3.63502e-11
1.51895e-09
3.57275e-11
1.44642e-09
3.42775e-11
1.36016e-09
3.21456e-11
1.26415e-09
2.94862e-11
1.1618e-09
2.64539e-11
1.05594e-09
2.31959e-11
9.4894e-10
1.98478e-11
8.42706e-10
1.65303e-11
7.3877e-10
1.33476e-11
6.38326e-10
1.03872e-11
5.42277e-10
7.71972e-12
4.51284e-10
5.39998e-12
3.65799e-10
3.46828e-12
2.86101e-10
1.95175e-12
2.1233e-10
8.65924e-13
1.44509e-10
2.1632e-13
8.25685e-11
2.63669e-11
3.46056e-12
6.08198e-10
-9.33726e-13
7.08886e-12
9.25659e-10
1.13088e-11
1.17432e-09
1.56551e-11
1.35953e-09
1.97427e-11
1.48782e-09
2.3283e-11
1.56625e-09
2.60838e-11
1.60194e-09
2.80415e-11
1.60173e-09
2.91268e-11
1.57204e-09
2.93696e-11
1.5187e-09
2.8843e-11
1.44695e-09
2.76491e-11
1.36135e-09
2.5907e-11
1.2659e-09
2.37428e-11
1.16396e-09
2.1282e-11
1.0584e-09
1.86443e-11
9.51578e-10
1.59388e-11
8.45412e-10
1.32628e-11
7.41446e-10
1.06998e-11
6.40889e-10
8.31941e-12
5.44658e-10
6.1776e-12
4.53426e-10
4.31756e-12
3.67659e-10
2.7707e-12
2.87648e-10
1.55783e-12
2.13543e-10
6.90509e-13
1.45376e-10
1.72311e-13
8.30867e-11
2.65393e-11
2.66095e-12
6.06255e-10
-7.18363e-13
5.44791e-12
9.22872e-10
8.68542e-12
1.17108e-09
1.20143e-11
1.3562e-09
1.51382e-11
1.4847e-09
1.78355e-11
1.56356e-09
1.99599e-11
1.59981e-09
2.14337e-11
1.60026e-09
2.22367e-11
1.57124e-09
2.23942e-11
1.51855e-09
2.19644e-11
1.44738e-09
2.10277e-11
1.36229e-09
1.96766e-11
1.26725e-09
1.80088e-11
1.16563e-09
1.61208e-11
1.06029e-09
1.4104e-11
9.53594e-10
1.20416e-11
8.47474e-10
1.0007e-11
7.43481e-10
8.06305e-12
6.42833e-10
6.26158e-12
5.46459e-10
4.64406e-12
4.55043e-10
3.24211e-12
3.69061e-10
2.07834e-12
2.88812e-10
1.16742e-12
2.14454e-10
5.17038e-13
1.46027e-10
1.28954e-13
8.34748e-11
2.66682e-11
1.95502e-12
6.04828e-10
-5.27888e-13
4.00059e-12
9.20827e-10
6.37338e-12
1.16871e-09
8.80821e-12
1.35376e-09
1.1087e-11
1.48242e-09
1.30473e-11
1.5616e-09
1.45832e-11
1.59828e-09
1.56392e-11
1.5992e-09
1.62027e-11
1.57067e-09
1.6294e-11
1.51846e-09
1.59579e-11
1.44771e-09
1.52545e-11
1.36299e-09
1.42529e-11
1.26825e-09
1.30252e-11
1.16686e-09
1.16422e-11
1.06167e-09
1.01705e-11
9.55066e-10
8.67056e-12
8.48974e-10
7.19512e-12
7.44956e-10
5.78912e-12
6.44239e-10
4.48939e-12
5.47759e-10
3.32509e-12
4.56208e-10
2.31815e-12
3.70068e-10
1.48403e-12
2.89646e-10
8.32441e-13
2.15106e-10
3.68132e-13
1.46491e-10
9.16492e-14
8.37513e-11
2.67599e-11
1.38467e-12
6.03818e-10
-3.741e-13
2.83167e-12
9.1938e-10
4.5077e-12
1.16703e-09
6.22423e-12
1.35205e-09
7.82659e-12
1.48082e-09
9.2003e-12
1.56022e-09
1.02711e-11
1.59721e-09
1.10012e-11
1.59847e-09
1.13827e-11
1.57029e-09
1.14317e-11
1.51841e-09
1.11808e-11
1.44796e-09
1.06734e-11
1.3635e-09
9.95906e-12
1.26896e-09
9.08889e-12
1.16773e-09
8.11298e-12
1.06265e-09
7.07812e-12
9.56101e-10
6.02646e-12
8.50026e-10
4.99469e-12
7.45988e-10
4.01379e-12
6.4522e-10
3.10901e-12
5.48664e-10
2.30012e-12
4.57017e-10
1.60187e-12
3.70766e-10
1.02446e-12
2.90223e-10
5.74142e-13
2.15556e-10
2.53719e-13
1.46811e-10
6.31372e-14
8.39418e-11
2.6823e-11
9.55562e-13
6.0312e-10
-2.5822e-13
1.95332e-12
9.18382e-10
3.10768e-12
1.16588e-09
4.28803e-12
1.35087e-09
5.38754e-12
1.47972e-09
6.32749e-12
1.55928e-09
7.05721e-12
1.59648e-09
7.55126e-12
1.59798e-09
7.80513e-12
1.57004e-09
7.83049e-12
1.51838e-09
7.65049e-12
1.44814e-09
7.2956e-12
1.36385e-09
6.80013e-12
1.26946e-09
6.1995e-12
1.16833e-09
5.52816e-12
1.06332e-09
4.81815e-12
9.56811e-10
4.09822e-12
8.50746e-10
3.39331e-12
7.46693e-10
2.72434e-12
6.45889e-10
2.10827e-12
5.4928e-10
1.55834e-12
4.57567e-10
1.08429e-12
3.7124e-10
6.9282e-13
2.90615e-10
3.87905e-13
2.15861e-10
1.71228e-13
1.47028e-10
4.25437e-14
8.40705e-11
2.68656e-11
6.4762e-13
6.02648e-10
-1.75076e-13
1.32333e-12
9.17706e-10
2.10439e-12
1.1651e-09
2.90215e-12
1.35007e-09
3.64418e-12
1.47897e-09
4.27731e-12
1.55865e-09
4.76746e-12
1.59599e-09
5.09775e-12
1.59765e-09
5.26548e-12
1.56987e-09
5.27889e-12
1.51837e-09
5.15393e-12
1.44827e-09
4.91145e-12
1.3641e-09
4.57479e-12
1.26979e-09
4.16795e-12
1.16874e-09
3.71421e-12
1.06378e-09
3.23517e-12
9.5729e-10
2.75014e-12
8.51231e-10
2.27582e-12
7.47167e-10
1.82618e-12
6.46338e-10
1.41251e-12
5.49694e-10
1.04358e-12
4.57936e-10
7.25829e-13
3.71558e-10
4.63616e-13
2.90877e-10
2.5951e-13
2.16065e-10
1.14545e-13
1.47173e-10
2.84678e-14
8.41566e-11
2.6894e-11
4.34671e-13
6.02331e-10
-1.17501e-13
8.8808e-13
9.17253e-10
1.41186e-12
1.16457e-09
1.94643e-12
1.34953e-09
2.44318e-12
1.47848e-09
2.86652e-12
1.55823e-09
3.19369e-12
1.59566e-09
3.41351e-12
1.59743e-09
3.52434e-12
1.56976e-09
3.53184e-12
1.51836e-09
3.44682e-12
1.44835e-09
3.28333e-12
1.36426e-09
3.05706e-12
1.27002e-09
2.78413e-12
1.16901e-09
2.48012e-12
1.06408e-09
2.15947e-12
9.57611e-10
1.83507e-12
8.51555e-10
1.51806e-12
7.47484e-10
1.21773e-12
6.46639e-10
9.4158e-13
5.4997e-10
6.95424e-13
4.58182e-10
4.83514e-13
3.71769e-10
3.08725e-13
2.91052e-10
1.72734e-13
2.16201e-10
7.61962e-14
1.4727e-10
1.89178e-14
8.42139e-11
2.6913e-11
2.90031e-13
6.02119e-10
-7.84142e-14
5.92441e-13
9.16951e-10
9.41705e-13
1.16422e-09
1.29797e-12
1.34918e-09
1.62883e-12
1.47815e-09
1.91057e-12
1.55794e-09
2.12808e-12
1.59544e-09
2.27399e-12
1.59728e-09
2.34724e-12
1.56969e-09
2.35167e-12
1.51836e-09
2.29453e-12
1.44841e-09
2.18521e-12
1.36437e-09
2.03419e-12
1.27017e-09
1.85221e-12
1.16919e-09
1.64965e-12
1.06428e-09
1.43612e-12
9.57824e-10
1.22019e-12
8.51771e-10
1.00925e-12
7.47695e-10
8.09475e-13
6.46839e-10
6.25838e-13
5.50153e-10
4.62183e-13
4.58345e-10
3.21325e-13
3.7191e-10
2.05161e-13
2.91168e-10
1.14794e-13
2.16291e-10
5.06463e-14
1.47334e-10
1.25795e-14
8.4252e-11
2.69255e-11
1.93208e-13
6.01978e-10
-5.22229e-14
3.94744e-13
9.16749e-10
6.27624e-13
1.16399e-09
8.65354e-13
1.34894e-09
1.08626e-12
1.47793e-09
1.27446e-12
1.55776e-09
1.41983e-12
1.5953e-09
1.51743e-12
1.59718e-09
1.56656e-12
1.56964e-09
1.56977e-12
1.51835e-09
1.53189e-12
1.44845e-09
1.45916e-12
1.36444e-09
1.35858e-12
1.27027e-09
1.23729e-12
1.16931e-09
1.10222e-12
1.06442e-09
9.59758e-13
9.57967e-10
8.15637e-13
8.51915e-10
6.74791e-13
7.47836e-10
5.41345e-13
6.46972e-10
4.18631e-13
5.50276e-10
3.09228e-13
4.58455e-10
2.1503e-13
3.72005e-10
1.37319e-13
2.91246e-10
7.68457e-14
2.16352e-10
3.39068e-14
1.47377e-10
8.42141e-15
8.42774e-11
2.6934e-11
1.24919e-13
6.01887e-10
-3.37776e-14
2.55122e-13
9.16619e-10
4.05483e-13
1.16384e-09
5.58874e-13
1.34879e-09