/*--------------------------------*- C++ -*----------------------------------*\
| =========                 |                                                 |
| \\      /  F ield         | OpenFOAM: The Open Source CFD Toolbox           |
|  \\    /   O peration     | Version:  2106                                  |
|   \\  /    A nd           | Website:  www.openfoam.com                      |
|    \\/     M anipulation  |                                                 |
\*---------------------------------------------------------------------------*/
FoamFile
{
    version     2.0;
    format      ascii;
    arch        "LSB;label=32;scalar=64";
    class       volScalarField;
    location    "149.99958";
    object      A1C2H_0;
}
// * * * * * * * * * * * * * * * * * * * * * * * * * * * * * * * * * * * * * //

dimensions      [0 0 0 0 0 0 0];

internalField   nonuniform List<scalar> 
3360
(
2.8057e-18
2.89598e-18
3.02162e-18
3.1753e-18
3.35062e-18
3.54182e-18
3.74371e-18
3.9516e-18
4.16132e-18
4.36918e-18
4.57198e-18
4.76702e-18
4.95205e-18
5.12529e-18
5.28539e-18
5.43139e-18
5.56271e-18
5.67911e-18
5.78062e-18
5.86755e-18
5.94043e-18
5.99996e-18
6.04697e-18
6.08244e-18
6.10739e-18
6.12291e-18
6.13011e-18
1.23079e-17
1.27602e-17
1.33986e-17
1.41936e-17
1.51208e-17
1.6159e-17
1.72893e-17
1.84943e-17
1.97577e-17
2.10645e-17
2.23998e-17
2.37494e-17
2.50993e-17
2.64356e-17
2.77446e-17
2.90129e-17
3.02273e-17
3.13752e-17
3.24443e-17
3.34231e-17
3.43012e-17
3.50692e-17
3.57192e-17
3.62449e-17
3.66417e-17
3.69066e-17
3.70387e-17
3.86178e-17
4.03126e-17
4.27209e-17
4.5747e-17
4.93118e-17
5.33439e-17
5.77756e-17
6.25401e-17
6.75699e-17
7.27959e-17
7.81477e-17
8.35554e-17
8.89494e-17
9.42614e-17
9.94252e-17
1.04378e-16
1.09062e-16
1.13424e-16
1.17419e-16
1.2101e-16
1.24168e-16
1.26873e-16
1.29111e-16
1.30881e-16
1.32185e-16
1.33036e-16
1.3345e-16
1.12466e-16
1.18052e-16
1.26043e-16
1.36152e-16
1.48142e-16
1.61788e-16
1.76867e-16
1.93146e-16
2.10382e-16
2.28319e-16
2.46694e-16
2.65237e-16
2.83681e-16
3.01767e-16
3.19248e-16
3.35897e-16
3.51514e-16
3.65927e-16
3.79e-16
3.9063e-16
4.00749e-16
4.09321e-16
4.16342e-16
4.21833e-16
4.2584e-16
4.28428e-16
4.29676e-16
3.28582e-16
3.46203e-16
3.71459e-16
4.03487e-16
4.41554e-16
4.84956e-16
5.32971e-16
5.84832e-16
6.39721e-16
6.96778e-16
7.55111e-16
8.13823e-16
8.72032e-16
9.28898e-16
9.83641e-16
1.03556e-15
1.08406e-15
1.12864e-15
1.16892e-15
1.20461e-15
1.23556e-15
1.26169e-15
1.28303e-15
1.29967e-15
1.31178e-15
1.31959e-15
1.32334e-15
9.68811e-16
1.02293e-15
1.10058e-15
1.19915e-15
1.31636e-15
1.45004e-15
1.59793e-15
1.75762e-15
1.92654e-15
2.10198e-15
2.28115e-15
2.46126e-15
2.63956e-15
2.81346e-15
2.98058e-15
3.1388e-15
3.28632e-15
3.42168e-15
3.54374e-15
3.65173e-15
3.7452e-15
3.824e-15
3.88825e-15
3.93828e-15
3.97466e-15
3.99806e-15
4.00931e-15
2.87783e-15
3.04226e-15
3.27822e-15
3.57771e-15
3.93386e-15
4.33994e-15
4.78899e-15
5.27359e-15
5.78583e-15
6.3174e-15
6.8598e-15
7.40448e-15
7.94319e-15
8.46809e-15
8.97205e-15
9.44876e-15
9.89286e-15
1.03e-14
1.0667e-14
1.09915e-14
1.12722e-14
1.15087e-14
1.17015e-14
1.18516e-14
1.19607e-14
1.20309e-14
1.20646e-14
8.57678e-15
9.07154e-15
9.78188e-15
1.06838e-14
1.17566e-14
1.29801e-14
1.4333e-14
1.5793e-14
1.73359e-14
1.89368e-14
2.05697e-14
2.2209e-14
2.38297e-14
2.54081e-14
2.6923e-14
2.83553e-14
2.9689e-14
3.09113e-14
3.20123e-14
3.29855e-14
3.3827e-14
3.45358e-14
3.51132e-14
3.55627e-14
3.58892e-14
3.60992e-14
3.62001e-14
2.56288e-14
2.71157e-14
2.925e-14
3.19597e-14
3.51823e-14
3.88566e-14
4.2919e-14
4.73014e-14
5.19316e-14
5.67338e-14
6.16304e-14
6.65443e-14
7.14006e-14
7.61291e-14
8.06656e-14
8.49537e-14
8.89458e-14
9.26035e-14
9.5898e-14
9.88093e-14
1.01327e-13
1.03447e-13
1.05174e-13
1.06518e-13
1.07495e-13
1.08123e-13
1.08425e-13
7.65841e-14
8.10372e-14
8.74304e-14
9.55474e-14
1.05201e-13
1.16208e-13
1.28377e-13
1.41503e-13
1.55369e-13
1.69749e-13
1.84409e-13
1.99118e-13
2.13652e-13
2.278e-13
2.41371e-13
2.54196e-13
2.66132e-13
2.77066e-13
2.86912e-13
2.95611e-13
3.0313e-13
3.09462e-13
3.14619e-13
3.18631e-13
3.21546e-13
3.2342e-13
3.24321e-13
2.28951e-13
2.42281e-13
2.61413e-13
2.85699e-13
3.14577e-13
3.47494e-13
3.83875e-13
4.23107e-13
4.64538e-13
5.07488e-13
5.51262e-13
5.95166e-13
6.38534e-13
6.80737e-13
7.21206e-13
7.5944e-13
7.95017e-13
8.27599e-13
8.56931e-13
8.82842e-13
9.05236e-13
9.24092e-13
9.39446e-13
9.51394e-13
9.60071e-13
9.6565e-13
9.6833e-13
6.83761e-13
7.23549e-13
7.80657e-13
8.53138e-13
9.39302e-13
1.03749e-12
1.14599e-12
1.26294e-12
1.38642e-12
1.51437e-12
1.64472e-12
1.77541e-12
1.90445e-12
2.02998e-12
2.15031e-12
2.26394e-12
2.36964e-12
2.4664e-12
2.55347e-12
2.63037e-12
2.69681e-12
2.75272e-12
2.79825e-12
2.83366e-12
2.85937e-12
2.8759e-12
2.88384e-12
2.03962e-12
2.15817e-12
2.32826e-12
2.54404e-12
2.80043e-12
3.09244e-12
3.41489e-12
3.76226e-12
4.12874e-12
4.50825e-12
4.89462e-12
5.28173e-12
5.66371e-12
6.03503e-12
6.39074e-12
6.72647e-12
7.03858e-12
7.32416e-12
7.58103e-12
7.80777e-12
8.00359e-12
8.16835e-12
8.30244e-12
8.40671e-12
8.48241e-12
8.53105e-12
8.55441e-12
6.06547e-12
6.41702e-12
6.92121e-12
7.56051e-12
8.31965e-12
9.18365e-12
1.0137e-11
1.11631e-11
1.22447e-11
1.33637e-11
1.45019e-11
1.56412e-11
1.67642e-11
1.7855e-11
1.88989e-11
1.98833e-11
2.07977e-11
2.16336e-11
2.23849e-11
2.30476e-11
2.36195e-11
2.41004e-11
2.44916e-11
2.47956e-11
2.50162e-11
2.51579e-11
2.52259e-11
1.79693e-11
1.90057e-11
2.04912e-11
2.23731e-11
2.46054e-11
2.71432e-11
2.99397e-11
3.29459e-11
3.61101e-11
3.93791e-11
4.26992e-11
4.60178e-11
4.92844e-11
5.24526e-11
5.54806e-11
5.83324e-11
6.09779e-11
6.33938e-11
6.55629e-11
6.74741e-11
6.91221e-11
7.05067e-11
7.1632e-11
7.2506e-11
7.31398e-11
7.35467e-11
7.3742e-11
5.29133e-11
5.59389e-11
6.02714e-11
6.57539e-11
7.22483e-11
7.96197e-11
8.77289e-11
9.64302e-11
1.05572e-10
1.14998e-10
1.24552e-10
1.34084e-10
1.43448e-10
1.52514e-10
1.61162e-10
1.69293e-10
1.76823e-10
1.83689e-10
1.89844e-10
1.95259e-10
1.99923e-10
2.03836e-10
2.07014e-10
2.09479e-10
2.11264e-10
2.1241e-10
2.12959e-10
1.54575e-10
1.63291e-10
1.75756e-10
1.91503e-10
2.10119e-10
2.31202e-10
2.54341e-10
2.79105e-10
3.05055e-10
3.31741e-10
3.5872e-10
3.85562e-10
4.11865e-10
4.37265e-10
4.61437e-10
4.8411e-10
5.05063e-10
5.24126e-10
5.41184e-10
5.56165e-10
5.69046e-10
5.79838e-10
5.88587e-10
5.95367e-10
6.00273e-10
6.03418e-10
6.04924e-10
4.46702e-10
4.71346e-10
5.06529e-10
5.50875e-10
6.03167e-10
6.62215e-10
7.26811e-10
7.95719e-10
8.67676e-10
9.41421e-10
1.01572e-09
1.08939e-09
1.16134e-09
1.2306e-09
1.29631e-09
1.35777e-09
1.41441e-09
1.46582e-09
1.5117e-09
1.55191e-09
1.58641e-09
1.61527e-09
1.63862e-09
1.65669e-09
1.66975e-09
1.67811e-09
1.68211e-09
1.27283e-09
1.34081e-09
1.43764e-09
1.55934e-09
1.70236e-09
1.86324e-09
2.03853e-09
2.22474e-09
2.41836e-09
2.61594e-09
2.81415e-09
3.00989e-09
3.20031e-09
3.38289e-09
3.5555e-09
3.71639e-09
3.86419e-09
3.99793e-09
4.11698e-09
4.22106e-09
4.31015e-09
4.3845e-09
4.44456e-09
4.49096e-09
4.52444e-09
4.54584e-09
4.55607e-09
3.56093e-09
3.74256e-09
4.00058e-09
4.32372e-09
4.7019e-09
5.12539e-09
5.58459e-09
6.06996e-09
6.57212e-09
7.082e-09
7.59103e-09
8.09134e-09
8.57585e-09
9.03844e-09
9.474e-09
9.87845e-09
1.02487e-08
1.05826e-08
1.0879e-08
1.11374e-08
1.1358e-08
1.15417e-08
1.16898e-08
1.1804e-08
1.18863e-08
1.19388e-08
1.19639e-08
9.73427e-09
1.0201e-08
1.08619e-08
1.16863e-08
1.26465e-08
1.37163e-08
1.487e-08
1.60827e-08
1.73305e-08
1.85906e-08
1.98419e-08
2.10656e-08
2.2245e-08
2.3366e-08
2.4417e-08
2.53891e-08
2.62758e-08
2.70729e-08
2.77782e-08
2.83914e-08
2.89137e-08
2.93476e-08
2.96967e-08
2.99654e-08
3.01587e-08
3.02819e-08
3.03407e-08
2.58596e-08
2.70055e-08
2.86226e-08
3.0631e-08
3.29588e-08
3.55381e-08
3.83042e-08
4.11953e-08
4.41532e-08
4.71238e-08
5.00583e-08
5.29135e-08
5.56524e-08
5.8244e-08
6.06639e-08
6.28936e-08
6.49203e-08
6.67364e-08
6.83386e-08
6.9728e-08
7.09086e-08
7.18874e-08
7.26734e-08
7.32774e-08
7.37111e-08
7.39872e-08
7.41188e-08
6.64076e-08
6.90837e-08
7.28477e-08
7.75027e-08
8.28717e-08
8.87899e-08
9.51023e-08
1.01664e-07
1.08342e-07
1.15013e-07
1.21571e-07
1.27922e-07
1.33988e-07
1.39704e-07
1.45022e-07
1.49904e-07
1.54328e-07
1.58281e-07
1.6176e-07
1.64769e-07
1.6732e-07
1.69432e-07
1.71124e-07
1.72423e-07
1.73354e-07
1.73947e-07
1.74228e-07
1.64121e-07
1.70058e-07
1.78383e-07
1.8864e-07
2.00418e-07
2.13341e-07
2.27059e-07
2.4125e-07
2.55624e-07
2.69921e-07
2.83914e-07
2.9741e-07
3.10252e-07
3.22312e-07
3.33494e-07
3.43732e-07
3.52984e-07
3.6123e-07
3.6847e-07
3.74721e-07
3.80012e-07
3.84383e-07
3.87882e-07
3.90564e-07
3.92485e-07
3.93705e-07
3.94285e-07
3.89334e-07
4.01872e-07
4.1941e-07
4.4095e-07
4.65597e-07
4.92536e-07
5.21019e-07
5.50371e-07
5.79988e-07
6.09338e-07
6.37965e-07
6.65488e-07
6.91595e-07
7.16046e-07
7.38659e-07
7.59314e-07
7.77939e-07
7.94507e-07
8.0903e-07
8.21548e-07
8.32128e-07
8.40859e-07
8.4784e-07
8.53184e-07
8.57009e-07
8.59436e-07
8.6059e-07
8.86108e-07
9.1145e-07
9.46832e-07
9.90181e-07
1.03965e-06
1.09356e-06
1.15039e-06
1.20879e-06
1.26754e-06
1.3256e-06
1.38209e-06
1.43627e-06
1.48755e-06
1.53547e-06
1.57971e-06
1.62004e-06
1.65636e-06
1.68861e-06
1.71685e-06
1.74116e-06
1.76169e-06
1.77861e-06
1.79213e-06
1.80247e-06
1.80987e-06
1.81456e-06
1.81678e-06
1.93784e-06
1.98722e-06
2.05606e-06
2.14027e-06
2.23617e-06
2.34048e-06
2.45023e-06
2.56275e-06
2.67575e-06
2.78721e-06
2.89546e-06
2.9991e-06
3.09705e-06
3.18846e-06
3.27273e-06
3.34948e-06
3.4185e-06
3.47975e-06
3.53332e-06
3.57941e-06
3.61829e-06
3.65032e-06
3.6759e-06
3.69545e-06
3.70943e-06
3.7183e-06
3.7225e-06
4.08293e-06
4.17641e-06
4.30664e-06
4.46576e-06
4.64678e-06
4.84343e-06
5.05006e-06
5.26169e-06
5.47395e-06
5.6831e-06
5.88601e-06
6.08011e-06
6.26337e-06
6.43426e-06
6.5917e-06
6.73498e-06
6.86375e-06
6.97796e-06
7.0778e-06
7.16364e-06
7.23604e-06
7.29566e-06
7.34325e-06
7.37962e-06
7.40562e-06
7.4221e-06
7.42992e-06
8.31015e-06
8.4834e-06
8.72468e-06
9.01937e-06
9.35448e-06
9.71834e-06
1.01005e-05
1.04918e-05
1.08841e-05
1.12705e-05
1.16452e-05
1.20036e-05
1.23419e-05
1.26573e-05
1.29478e-05
1.32122e-05
1.34497e-05
1.36603e-05
1.38444e-05
1.40027e-05
1.41362e-05
1.4246e-05
1.43337e-05
1.44007e-05
1.44486e-05
1.4479e-05
1.44934e-05
1.6358e-05
1.66738e-05
1.71137e-05
1.76511e-05
1.82624e-05
1.89265e-05
1.96242e-05
2.0339e-05
2.1056e-05
2.17627e-05
2.24485e-05
2.31049e-05
2.37248e-05
2.43031e-05
2.4836e-05
2.53213e-05
2.57575e-05
2.61446e-05
2.64829e-05
2.6774e-05
2.70194e-05
2.72216e-05
2.73829e-05
2.75062e-05
2.75943e-05
2.76501e-05
2.76766e-05
3.10827e-05
3.16471e-05
3.24338e-05
3.33957e-05
3.44909e-05
3.5682e-05
3.69353e-05
3.82208e-05
3.95124e-05
4.07874e-05
4.20267e-05
4.32144e-05
4.43379e-05
4.53875e-05
4.63563e-05
4.72394e-05
4.80345e-05
4.87407e-05
4.93589e-05
4.98912e-05
5.03405e-05
5.07109e-05
5.10068e-05
5.1233e-05
5.13948e-05
5.14974e-05
5.15461e-05
5.66998e-05
5.76726e-05
5.90291e-05
6.06887e-05
6.25801e-05
6.46391e-05
6.68082e-05
6.9036e-05
7.12776e-05
7.34938e-05
7.56515e-05
7.77231e-05
7.96862e-05
8.15235e-05
8.32221e-05
8.47735e-05
8.61724e-05
8.7417e-05
8.85081e-05
8.94488e-05
9.02441e-05
9.09003e-05
9.14252e-05
9.18269e-05
9.21144e-05
9.22968e-05
9.23835e-05
9.84758e-05
0.000100048
0.000102239
0.00010492
0.000107975
0.0001113
0.000114803
0.0001184
0.000122018
0.000125595
0.000129077
0.00013242
0.000135587
0.000138551
0.000141291
0.000143793
0.000146048
0.000148055
0.000149814
0.000151331
0.000152612
0.00015367
0.000154516
0.000155163
0.000155627
0.000155921
0.00015606
0.000161595
0.000163916
0.000167149
0.000171097
0.000175586
0.000180462
0.000185584
0.00019083
0.000196093
0.000201282
0.000206318
0.000211139
0.000215694
0.000219945
0.000223865
0.000227436
0.000230648
0.0002335
0.000235994
0.00023814
0.000239951
0.000241444
0.000242636
0.000243547
0.000244199
0.000244612
0.000244808
0.000249271
0.000252361
0.000256654
0.000261883
0.000267809
0.00027422
0.000280928
0.00028777
0.000294605
0.000301313
0.000307797
0.000313978
0.000319796
0.000325205
0.000330175
0.000334687
0.000338733
0.000342315
0.000345441
0.000348124
0.000350385
0.000352244
0.000353727
0.000354859
0.000355668
0.000356181
0.000356424
0.000361129
0.000364848
0.000370003
0.000376263
0.000383332
0.000390951
0.000398891
0.000406956
0.000414979
0.000422822
0.000430373
0.000437544
0.00044427
0.000450503
0.000456213
0.000461383
0.000466008
0.000470095
0.000473654
0.000476705
0.000479272
0.000481381
0.000483062
0.000484345
0.000485261
0.000485841
0.000486117
0.000493178
0.000497293
0.000502987
0.000509884
0.000517653
0.000526001
0.000534675
0.000543459
0.000552171
0.000560663
0.000568818
0.000576543
0.000583773
0.000590459
0.000596573
0.000602102
0.000607041
0.0006114
0.000615194
0.000618444
0.000621177
0.000623422
0.000625211
0.000626577
0.000627552
0.00062817
0.000628463
0.000639401
0.00064368
0.000649596
0.000656751
0.000664798
0.00067343
0.000682384
0.000691436
0.000700399
0.000709124
0.00071749
0.000725407
0.000732809
0.000739649
0.0007459
0.000751549
0.000756595
0.000761047
0.000764921
0.000768241
0.000771033
0.000773328
0.000775157
0.000776554
0.000777552
0.000778185
0.000778485
0.000793692
0.000797965
0.000803869
0.000811006
0.000819026
0.000827625
0.000836537
0.000845542
0.000854454
0.000863124
0.000871435
0.000879299
0.000886649
0.000893441
0.000899649
0.00090526
0.000910273
0.000914698
0.00091855
0.000921853
0.000924632
0.000926917
0.00092874
0.000930133
0.000931129
0.000931761
0.000932061
0.000951094
0.000955255
0.000961003
0.000967951
0.000975759
0.000984128
0.000992804
0.00100157
0.00101025
0.00101869
0.00102678
0.00103445
0.00104161
0.00104823
0.00105429
0.00105977
0.00106466
0.00106899
0.00107275
0.00107599
0.00107871
0.00108095
0.00108273
0.0010841
0.00108508
0.0010857
0.00108599
0.00110781
0.00111181
0.00111733
0.00112401
0.00113151
0.00113956
0.00114791
0.00115634
0.0011647
0.00117283
0.00118063
0.00118802
0.00119494
0.00120133
0.00120719
0.00121248
0.00121722
0.0012214
0.00122505
0.00122818
0.00123082
0.001233
0.00123473
0.00123606
0.00123701
0.00123761
0.0012379
0.00126134
0.00126516
0.00127043
0.00127682
0.001284
0.0012917
0.00129969
0.00130777
0.00131577
0.00132357
0.00133106
0.00133815
0.00134479
0.00135094
0.00135656
0.00136166
0.00136622
0.00137025
0.00137377
0.00137679
0.00137933
0.00138143
0.0013831
0.00138439
0.00138531
0.00138589
0.00138617
0.00141023
0.00141387
0.00141891
0.00142501
0.00143187
0.00143923
0.00144687
0.00145459
0.00146226
0.00146972
0.00147689
0.00148369
0.00149006
0.00149596
0.00150136
0.00150625
0.00151063
0.00151451
0.00151789
0.00152079
0.00152324
0.00152526
0.00152687
0.00152811
0.00152899
0.00152956
0.00152982
0.00155378
0.00155726
0.00156208
0.0015679
0.00157446
0.0015815
0.0015888
0.0015962
0.00160354
0.00161069
0.00161756
0.00162408
0.00163019
0.00163584
0.00164103
0.00164572
0.00164993
0.00165365
0.0016569
0.00165969
0.00166204
0.00166398
0.00166553
0.00166672
0.00166757
0.00166811
0.00166837
0.00169174
0.00169507
0.00169968
0.00170526
0.00171154
0.00171828
0.00172528
0.00173237
0.0017394
0.00174626
0.00175285
0.0017591
0.00176496
0.00177039
0.00177537
0.00177988
0.00178392
0.0017875
0.00179062
0.0017933
0.00179556
0.00179743
0.00179892
0.00180006
0.00180088
0.0018014
0.00180165
0.00182414
0.00182733
0.00183175
0.0018371
0.00184313
0.00184959
0.00185631
0.00186312
0.00186987
0.00187646
0.00188279
0.0018888
0.00189443
0.00189965
0.00190443
0.00190876
0.00191265
0.00191608
0.00191909
0.00192166
0.00192384
0.00192563
0.00192707
0.00192817
0.00192895
0.00192946
0.00192969
0.00195116
0.00195423
0.00195848
0.00196362
0.00196941
0.00197563
0.00198209
0.00198863
0.00199512
0.00200146
0.00200755
0.00201333
0.00201875
0.00202377
0.00202837
0.00203254
0.00203628
0.00203959
0.00204248
0.00204496
0.00204705
0.00204878
0.00205016
0.00205122
0.00205197
0.00205246
0.00205269
0.00207307
0.00207602
0.00208011
0.00208506
0.00209064
0.00209663
0.00210285
0.00210915
0.00211541
0.00212151
0.00212738
0.00213295
0.00213817
0.002143
0.00214744
0.00215146
0.00215506
0.00215825
0.00216103
0.00216342
0.00216544
0.0021671
0.00216843
0.00216945
0.00217018
0.00217065
0.00217087
0.00219017
0.00219302
0.00219697
0.00220174
0.00220712
0.0022129
0.0022189
0.00222498
0.00223101
0.0022369
0.00224256
0.00224793
0.00225297
0.00225764
0.00226192
0.0022658
0.00226927
0.00227235
0.00227503
0.00227734
0.00227929
0.00228089
0.00228217
0.00228316
0.00228386
0.00228431
0.00228452
0.00230278
0.00230554
0.00230935
0.00231396
0.00231915
0.00232473
0.00233053
0.00233641
0.00234224
0.00234793
0.0023534
0.00235859
0.00236345
0.00236796
0.0023721
0.00237584
0.0023792
0.00238217
0.00238476
0.00238699
0.00238887
0.00239042
0.00239166
0.00239261
0.00239329
0.00239372
0.00239393
0.00241121
0.00241387
0.00241756
0.00242202
0.00242704
0.00243244
0.00243805
0.00244374
0.00244938
0.00245488
0.00246017
0.00246519
0.0024699
0.00247426
0.00247826
0.00248188
0.00248513
0.002488
0.00249051
0.00249267
0.00249449
0.00249598
0.00249718
0.0024981
0.00249876
0.00249917
0.00249937
0.00251573
0.00251831
0.00252188
0.00252621
0.00253107
0.0025363
0.00254174
0.00254724
0.00255271
0.00255804
0.00256316
0.00256803
0.00257259
0.00257681
0.00258068
0.00258419
0.00258734
0.00259012
0.00259255
0.00259463
0.00259639
0.00259784
0.002599
0.00259989
0.00260053
0.00260093
0.00260112
0.00261663
0.00261913
0.0026226
0.00262679
0.00263151
0.00263658
0.00264185
0.00264719
0.00265249
0.00265766
0.00266263
0.00266735
0.00267177
0.00267586
0.00267962
0.00268302
0.00268607
0.00268876
0.00269112
0.00269314
0.00269485
0.00269625
0.00269738
0.00269824
0.00269885
0.00269924
0.00269943
0.00271415
0.00271658
0.00271994
0.00272401
0.0027286
0.00273352
0.00273864
0.00274383
0.00274897
0.00275399
0.00275881
0.00276339
0.00276768
0.00277166
0.0027753
0.00277861
0.00278156
0.00278418
0.00278646
0.00278843
0.00279008
0.00279145
0.00279254
0.00279337
0.00279397
0.00279435
0.00279453
0.00280853
0.00281089
0.00281416
0.00281811
0.00282257
0.00282736
0.00283233
0.00283737
0.00284237
0.00284725
0.00285193
0.00285638
0.00286055
0.00286442
0.00286796
0.00287116
0.00287404
0.00287658
0.0028788
0.00288071
0.00288231
0.00288364
0.0028847
0.00288551
0.00288609
0.00288646
0.00288663
0.00289996
0.00290226
0.00290544
0.00290929
0.00291362
0.00291828
0.00292312
0.00292802
0.00293289
0.00293763
0.00294219
0.00294652
0.00295058
0.00295433
0.00295778
0.0029609
0.00296369
0.00296616
0.00296832
0.00297017
0.00297174
0.00297302
0.00297405
0.00297484
0.00297541
0.00297576
0.00297593
0.00298865
0.00299089
0.00299399
0.00299774
0.00300196
0.00300649
0.0030112
0.00301598
0.00302071
0.00302533
0.00302977
0.00303399
0.00303793
0.00304159
0.00304494
0.00304798
0.0030507
0.00305311
0.00305521
0.00305701
0.00305853
0.00305979
0.00306079
0.00306155
0.0030621
0.00306245
0.00306262
0.00307477
0.00307695
0.00307997
0.00308362
0.00308774
0.00309216
0.00309675
0.0031014
0.00310602
0.00311052
0.00311485
0.00311895
0.0031228
0.00312636
0.00312963
0.00313259
0.00313524
0.00313758
0.00313963
0.00314138
0.00314286
0.00314408
0.00314506
0.00314581
0.00314634
0.00314668
0.00314684
0.00315847
0.0031606
0.00316355
0.00316711
0.00317112
0.00317543
0.00317991
0.00318445
0.00318895
0.00319334
0.00319756
0.00320157
0.00320532
0.00320879
0.00321198
0.00321486
0.00321744
0.00321973
0.00322172
0.00322344
0.00322488
0.00322607
0.00322702
0.00322775
0.00322827
0.0032286
0.00322876
0.00323991
0.00324199
0.00324486
0.00324834
0.00325226
0.00325646
0.00326084
0.00326526
0.00326966
0.00327394
0.00327806
0.00328197
0.00328563
0.00328902
0.00329213
0.00329494
0.00329746
0.00329969
0.00330164
0.00330331
0.00330472
0.00330588
0.0033068
0.00330751
0.00330802
0.00330834
0.0033085
0.0033192
0.00332123
0.00332404
0.00332744
0.00333126
0.00333537
0.00333964
0.00334397
0.00334826
0.00335244
0.00335647
0.00336028
0.00336386
0.00336717
0.0033702
0.00337295
0.00337541
0.00337759
0.00337949
0.00338112
0.00338249
0.00338363
0.00338453
0.00338522
0.00338572
0.00338603
0.00338618
0.00339647
0.00339846
0.0034012
0.00340452
0.00340826
0.00341228
0.00341645
0.00342068
0.00342487
0.00342896
0.00343289
0.00343662
0.00344011
0.00344335
0.00344631
0.003449
0.0034514
0.00345353
0.00345539
0.00345698
0.00345832
0.00345943
0.00346031
0.00346099
0.00346147
0.00346178
0.00346193
0.00347183
0.00347377
0.00347645
0.0034797
0.00348336
0.00348729
0.00349137
0.0034955
0.0034996
0.0035036
0.00350744
0.00351109
0.0035145
0.00351767
0.00352056
0.00352319
0.00352554
0.00352762
0.00352943
0.00353099
0.0035323
0.00353338
0.00353425
0.00353491
0.00353538
0.00353568
0.00353583
0.00354536
0.00354726
0.00354989
0.00355306
0.00355664
0.00356049
0.00356448
0.00356852
0.00357253
0.00357644
0.0035802
0.00358377
0.00358711
0.00359021
0.00359304
0.00359561
0.00359791
0.00359994
0.00360171
0.00360324
0.00360452
0.00360558
0.00360642
0.00360707
0.00360753
0.00360783
0.00360797
0.00361716
0.00361902
0.00362159
0.0036247
0.0036282
0.00363196
0.00363587
0.00363983
0.00364375
0.00364758
0.00365126
0.00365475
0.00365802
0.00366105
0.00366382
0.00366633
0.00366858
0.00367057
0.00367231
0.0036738
0.00367505
0.00367609
0.00367691
0.00367755
0.003678
0.00367829
0.00367842
0.00368729
0.00368911
0.00369162
0.00369467
0.0036981
0.00370178
0.00370561
0.00370948
0.00371332
0.00371707
0.00372067
0.00372409
0.00372729
0.00373025
0.00373297
0.00373543
0.00373763
0.00373958
0.00374128
0.00374273
0.00374396
0.00374498
0.00374579
0.0037464
0.00374685
0.00374713
0.00374726
0.00375581
0.0037576
0.00376006
0.00376304
0.0037664
0.00377001
0.00377375
0.00377755
0.00378131
0.00378498
0.00378851
0.00379185
0.00379499
0.00379789
0.00380055
0.00380295
0.00380511
0.00380702
0.00380868
0.00381011
0.00381131
0.0038123
0.00381309
0.0038137
0.00381413
0.00381441
0.00381454
0.00382279
0.00382453
0.00382694
0.00382987
0.00383315
0.00383669
0.00384036
0.00384407
0.00384776
0.00385135
0.0038548
0.00385808
0.00386115
0.00386399
0.00386659
0.00386895
0.00387106
0.00387292
0.00387455
0.00387595
0.00387713
0.0038781
0.00387887
0.00387947
0.00387989
0.00388016
0.00388029
0.00388824
0.00388995
0.00389232
0.00389518
0.0038984
0.00390186
0.00390545
0.00390909
0.0039127
0.00391622
0.0039196
0.0039228
0.00392581
0.00392859
0.00393114
0.00393344
0.00393551
0.00393734
0.00393893
0.0039403
0.00394145
0.0039424
0.00394316
0.00394374
0.00394415
0.00394442
0.00394454
0.00395221
0.00395388
0.0039562
0.003959
0.00396215
0.00396554
0.00396906
0.00397262
0.00397615
0.0039796
0.00398291
0.00398604
0.00398898
0.00399171
0.0039942
0.00399646
0.00399848
0.00400027
0.00400183
0.00400317
0.0040043
0.00400522
0.00400597
0.00400653
0.00400694
0.0040072
0.00400732
0.0040147
0.00401634
0.0040186
0.00402134
0.00402443
0.00402774
0.00403118
0.00403467
0.00403813
0.0040415
0.00404474
0.00404781
0.00405068
0.00405335
0.00405579
0.004058
0.00405997
0.00406172
0.00406325
0.00406456
0.00406566
0.00406657
0.00406729
0.00406785
0.00406824
0.0040685
0.00406862
0.0040757
0.00407731
0.00407952
0.0040822
0.00408522
0.00408846
0.00409183
0.00409523
0.00409861
0.00410191
0.00410508
0.00410808
0.00411089
0.00411349
0.00411588
0.00411804
0.00411997
0.00412168
0.00412317
0.00412445
0.00412553
0.00412642
0.00412712
0.00412767
0.00412805
0.0041283
0.00412842
0.00413521
0.00413677
0.00413894
0.00414156
0.0041445
0.00414767
0.00415096
0.00415429
0.00415759
0.00416081
0.0041639
0.00416683
0.00416958
0.00417212
0.00417445
0.00417656
0.00417844
0.00418011
0.00418157
0.00418282
0.00418387
0.00418473
0.00418542
0.00418595
0.00418633
0.00418657
0.00418669
0.00419317
0.0041947
0.00419681
0.00419936
0.00420224
0.00420533
0.00420853
0.00421178
0.004215
0.00421814
0.00422116
0.00422402
0.00422669
0.00422917
0.00423144
0.0042335
0.00423534
0.00423696
0.00423838
0.0042396
0.00424062
0.00424146
0.00424214
0.00424265
0.00424302
0.00424326
0.00424337
0.00424953
0.00425102
0.00425307
0.00425556
0.00425836
0.00426137
0.00426449
0.00426766
0.00427079
0.00427385
0.00427678
0.00427956
0.00428217
0.00428458
0.00428679
0.00428878
0.00429057
0.00429215
0.00429353
0.00429471
0.00429571
0.00429653
0.00429718
0.00429768
0.00429804
0.00429827
0.00429838
0.00430421
0.00430566
0.00430765
0.00431007
0.00431279
0.00431571
0.00431875
0.00432181
0.00432486
0.00432782
0.00433067
0.00433337
0.00433589
0.00433823
0.00434037
0.00434231
0.00434405
0.00434558
0.00434691
0.00434806
0.00434903
0.00434982
0.00435046
0.00435094
0.00435129
0.00435151
0.00435161
0.00435711
0.0043585
0.00436044
0.00436278
0.00436541
0.00436824
0.00437117
0.00437414
0.00437708
0.00437995
0.0043827
0.00438531
0.00438775
0.00439001
0.00439208
0.00439395
0.00439562
0.0043971
0.00439839
0.0043995
0.00440043
0.0044012
0.00440181
0.00440228
0.00440262
0.00440283
0.00440293
0.00440806
0.00440941
0.00441128
0.00441353
0.00441607
0.00441879
0.00442161
0.00442447
0.0044273
0.00443006
0.00443271
0.00443522
0.00443757
0.00443974
0.00444173
0.00444353
0.00444514
0.00444657
0.00444781
0.00444887
0.00444977
0.0044505
0.00445109
0.00445154
0.00445186
0.00445207
0.00445217
0.00445691
0.00445821
0.00445999
0.00446215
0.00446458
0.00446719
0.00446989
0.00447263
0.00447534
0.00447798
0.00448052
0.00448292
0.00448516
0.00448724
0.00448914
0.00449086
0.0044924
0.00449376
0.00449495
0.00449596
0.00449682
0.00449752
0.00449809
0.00449852
0.00449882
0.00449902
0.00449911
0.00450345
0.00450468
0.00450637
0.00450843
0.00451074
0.00451322
0.00451579
0.0045184
0.00452097
0.00452348
0.00452589
0.00452817
0.00453031
0.00453228
0.00453408
0.00453572
0.00453718
0.00453847
0.00453959
0.00454055
0.00454137
0.00454203
0.00454257
0.00454297
0.00454327
0.00454345
0.00454354
0.00454743
0.00454859
0.00455019
0.00455213
0.00455431
0.00455665
0.00455908
0.00456153
0.00456396
0.00456633
0.00456859
0.00457074
0.00457275
0.00457461
0.00457631
0.00457784
0.00457921
0.00458043
0.00458148
0.00458239
0.00458315
0.00458378
0.00458428
0.00458466
0.00458494
0.00458511
0.00458519
0.00458861
0.00458969
0.00459119
0.004593
0.00459504
0.00459723
0.00459949
0.00460178
0.00460405
0.00460625
0.00460836
0.00461036
0.00461223
0.00461396
0.00461554
0.00461697
0.00461825
0.00461938
0.00462036
0.0046212
0.00462191
0.0046225
0.00462296
0.00462332
0.00462357
0.00462373
0.00462381
0.00462672
0.00462773
0.00462911
0.00463078
0.00463266
0.00463468
0.00463677
0.00463888
0.00464096
0.00464299
0.00464494
0.00464678
0.0046485
0.00465009
0.00465154
0.00465285
0.00465402
0.00465506
0.00465596
0.00465673
0.00465738
0.00465792
0.00465835
0.00465867
0.00465891
0.00465905
0.00465912
0.00466153
0.00466244
0.0046637
0.00466522
0.00466693
0.00466876
0.00467066
0.00467257
0.00467447
0.00467631
0.00467807
0.00467974
0.0046813
0.00468273
0.00468405
0.00468524
0.0046863
0.00468723
0.00468805
0.00468874
0.00468933
0.00468981
0.0046902
0.00469049
0.0046907
0.00469084
0.0046909
0.00469279
0.00469361
0.00469474
0.0046961
0.00469763
0.00469926
0.00470095
0.00470266
0.00470435
0.00470599
0.00470756
0.00470905
0.00471043
0.00471171
0.00471288
0.00471393
0.00471487
0.0047157
0.00471643
0.00471705
0.00471757
0.00471799
0.00471834
0.0047186
0.00471878
0.0047189
0.00471896
0.00472036
0.00472108
0.00472207
0.00472326
0.0047246
0.00472603
0.00472752
0.00472901
0.00473049
0.00473192
0.00473329
0.00473458
0.00473579
0.0047369
0.00473792
0.00473884
0.00473966
0.00474038
0.004741
0.00474154
0.00474199
0.00474236
0.00474266
0.00474289
0.00474305
0.00474315
0.0047432
0.00474416
0.00474478
0.00474563
0.00474665
0.0047478
0.00474903
0.00475029
0.00475157
0.00475283
0.00475406
0.00475522
0.00475633
0.00475736
0.0047583
0.00475917
0.00475995
0.00476064
0.00476125
0.00476179
0.00476224
0.00476262
0.00476294
0.00476319
0.00476338
0.00476352
0.0047636
0.00476364
0.00476423
0.00476475
0.00476546
0.00476632
0.00476728
0.0047683
0.00476936
0.00477043
0.00477148
0.0047725
0.00477347
0.00477438
0.00477524
0.00477602
0.00477674
0.00477739
0.00477796
0.00477847
0.00477891
0.00477928
0.0047796
0.00477986
0.00478006
0.00478022
0.00478034
0.00478041
0.00478044
0.00478074
0.00478116
0.00478174
0.00478244
0.00478322
0.00478405
0.00478491
0.00478578
0.00478663
0.00478746
0.00478825
0.00478899
0.00478968
0.00479031
0.00479089
0.00479141
0.00479187
0.00479228
0.00479263
0.00479293
0.00479319
0.0047934
0.00479356
0.00479369
0.00479378
0.00479384
0.00479386
0.00479395
0.00479429
0.00479475
0.0047953
0.00479592
0.00479658
0.00479726
0.00479794
0.00479862
0.00479927
0.00479989
0.00480047
0.00480101
0.00480151
0.00480196
0.00480237
0.00480273
0.00480304
0.00480332
0.00480356
0.00480375
0.00480391
0.00480404
0.00480414
0.00480421
0.00480426
0.00480428
0.00480424
0.0048045
0.00480485
0.00480528
0.00480575
0.00480626
0.00480678
0.0048073
0.00480781
0.00480831
0.00480878
0.00480922
0.00480963
0.00481001
0.00481035
0.00481066
0.00481093
0.00481117
0.00481138
0.00481156
0.0048117
0.00481183
0.00481192
0.004812
0.00481205
0.00481208
0.0048121
0.00481199
0.00481219
0.00481245
0.00481276
0.00481311
0.00481348
0.00481387
0.00481425
0.00481462
0.00481498
0.00481533
0.00481565
0.00481594
0.00481622
0.00481646
0.00481668
0.00481688
0.00481705
0.0048172
0.00481732
0.00481743
0.00481752
0.00481759
0.00481764
0.00481767
0.0048177
0.00481771
0.0048176
0.00481774
0.00481792
0.00481814
0.00481838
0.00481863
0.0048189
0.00481916
0.00481941
0.00481966
0.00481989
0.00482011
0.00482031
0.00482049
0.00482065
0.0048208
0.00482093
0.00482104
0.00482113
0.00482122
0.00482128
0.00482134
0.00482138
0.00482142
0.00482144
0.00482146
0.00482146
0.00482144
0.00482152
0.00482164
0.00482177
0.00482193
0.00482209
0.00482225
0.00482242
0.00482258
0.00482273
0.00482287
0.004823
0.00482312
0.00482323
0.00482333
0.00482341
0.00482349
0.00482355
0.00482361
0.00482366
0.0048237
0.00482373
0.00482375
0.00482377
0.00482378
0.00482379
0.0048238
0.00482389
0.00482394
0.00482401
0.00482409
0.00482417
0.00482426
0.00482435
0.00482444
0.00482453
0.00482461
0.00482468
0.00482475
0.00482481
0.00482487
0.00482492
0.00482496
0.004825
0.00482503
0.00482505
0.00482507
0.00482509
0.0048251
0.00482511
0.00482512
0.00482513
0.00482513
0.00482513
0.00482536
0.00482538
0.00482541
0.00482545
0.00482548
0.00482552
0.00482556
0.0048256
0.00482563
0.00482566