/*--------------------------------*- C++ -*----------------------------------*\
| =========                 |                                                 |
| \\      /  F ield         | OpenFOAM: The Open Source CFD Toolbox           |
|  \\    /   O peration     | Version:  2106                                  |
|   \\  /    A nd           | Website:  www.openfoam.com                      |
|    \\/     M anipulation  |                                                 |
\*---------------------------------------------------------------------------*/
FoamFile
{
    version     2.0;
    format      ascii;
    arch        "LSB;label=32;scalar=64";
    class       volScalarField;
    location    "149.99958";
    object      A2_0;
}
// * * * * * * * * * * * * * * * * * * * * * * * * * * * * * * * * * * * * * //

dimensions      [0 0 0 0 0 0 0];

internalField   nonuniform List<scalar> 
3360
(
1.8928e-18
1.95371e-18
2.03847e-18
2.14215e-18
2.26042e-18
2.38941e-18
2.52561e-18
2.66586e-18
2.80734e-18
2.94757e-18
3.08439e-18
3.21596e-18
3.34079e-18
3.45766e-18
3.56567e-18
3.66416e-18
3.75276e-18
3.83128e-18
3.89976e-18
3.95841e-18
4.00758e-18
4.04773e-18
4.07945e-18
4.10338e-18
4.12021e-18
4.13068e-18
4.13554e-18
8.30324e-18
8.60842e-18
9.03907e-18
9.57538e-18
1.02009e-17
1.09013e-17
1.16638e-17
1.24767e-17
1.33291e-17
1.42107e-17
1.51115e-17
1.6022e-17
1.69327e-17
1.78342e-17
1.87173e-17
1.95729e-17
2.03922e-17
2.11666e-17
2.18878e-17
2.25482e-17
2.31405e-17
2.36586e-17
2.40972e-17
2.44518e-17
2.47195e-17
2.48982e-17
2.49874e-17
2.60527e-17
2.71961e-17
2.88207e-17
3.08623e-17
3.32672e-17
3.59873e-17
3.89771e-17
4.21913e-17
4.55846e-17
4.91102e-17
5.27207e-17
5.63689e-17
6.00078e-17
6.35915e-17
6.70751e-17
7.04164e-17
7.3576e-17
7.65188e-17
7.92143e-17
8.1637e-17
8.37675e-17
8.55919e-17
8.71021e-17
8.82959e-17
8.91759e-17
8.97499e-17
9.00292e-17
7.58729e-17
7.96413e-17
8.5032e-17
9.18524e-17
9.99411e-17
1.09147e-16
1.1932e-16
1.30302e-16
1.4193e-16
1.54031e-16
1.66427e-16
1.78937e-16
1.9138e-16
2.03581e-16
2.15374e-16
2.26606e-16
2.37141e-16
2.46865e-16
2.55685e-16
2.6353e-16
2.70357e-16
2.7614e-16
2.80877e-16
2.84581e-16
2.87284e-16
2.8903e-16
2.89872e-16
2.21671e-16
2.33559e-16
2.50598e-16
2.72204e-16
2.97885e-16
3.27166e-16
3.59558e-16
3.94545e-16
4.31575e-16
4.70067e-16
5.09421e-16
5.49029e-16
5.88299e-16
6.26662e-16
6.63594e-16
6.98622e-16
7.31341e-16
7.61417e-16
7.88588e-16
8.12669e-16
8.33547e-16
8.51176e-16
8.6557e-16
8.76797e-16
8.84969e-16
8.90233e-16
8.92767e-16
6.5359e-16
6.90097e-16
7.42487e-16
8.08981e-16
8.88057e-16
9.78243e-16
1.07801e-15
1.18574e-15
1.2997e-15
1.41806e-15
1.53893e-15
1.66044e-15
1.78073e-15
1.89805e-15
2.01079e-15
2.11753e-15
2.21706e-15
2.30837e-15
2.39072e-15
2.46357e-15
2.52663e-15
2.57979e-15
2.62313e-15
2.65689e-15
2.68143e-15
2.69721e-15
2.70481e-15
1.94147e-15
2.0524e-15
2.21159e-15
2.41364e-15
2.6539e-15
2.92786e-15
3.2308e-15
3.55773e-15
3.9033e-15
4.26192e-15
4.62784e-15
4.9953e-15
5.35872e-15
5.71284e-15
6.05283e-15
6.37443e-15
6.67404e-15
6.94873e-15
7.19629e-15
7.41518e-15
7.60455e-15
7.76413e-15
7.89419e-15
7.99546e-15
8.06905e-15
8.1164e-15
8.13916e-15
5.78617e-15
6.11996e-15
6.59917e-15
7.20764e-15
7.93139e-15
8.75676e-15
9.66951e-15
1.06544e-14
1.16954e-14
1.27754e-14
1.3877e-14
1.49829e-14
1.60763e-14
1.71412e-14
1.81631e-14
1.91294e-14
2.00292e-14
2.08538e-14
2.15965e-14
2.22531e-14
2.28208e-14
2.32989e-14
2.36885e-14
2.39917e-14
2.4212e-14
2.43537e-14
2.44217e-14
1.729e-14
1.82931e-14
1.9733e-14
2.1561e-14
2.37351e-14
2.62139e-14
2.89546e-14
3.19111e-14
3.50348e-14
3.82745e-14
4.15779e-14
4.4893e-14
4.81692e-14
5.13592e-14
5.44196e-14
5.73125e-14
6.00058e-14
6.24734e-14
6.46959e-14
6.666e-14
6.83583e-14
6.97887e-14
7.09539e-14
7.18608e-14
7.25197e-14
7.29435e-14
7.31471e-14
5.16662e-14
5.46704e-14
5.89834e-14
6.44595e-14
7.09722e-14
7.83978e-14
8.66072e-14
9.54625e-14
1.04817e-13
1.14518e-13
1.24409e-13
1.34332e-13
1.44137e-13
1.53682e-13
1.62837e-13
1.71489e-13
1.79542e-13
1.86918e-13
1.9356e-13
1.99429e-13
2.04502e-13
2.08773e-13
2.12252e-13
2.14959e-13
2.16926e-13
2.1819e-13
2.18797e-13
1.54458e-13
1.63451e-13
1.76358e-13
1.92742e-13
2.12224e-13
2.34431e-13
2.58975e-13
2.85442e-13
3.13393e-13
3.42369e-13
3.719e-13
4.01519e-13
4.30777e-13
4.59248e-13
4.8655e-13
5.12344e-13
5.36345e-13
5.58326e-13
5.78115e-13
5.95595e-13
6.10703e-13
6.23423e-13
6.33782e-13
6.41842e-13
6.47696e-13
6.5146e-13
6.53268e-13
4.61288e-13
4.88131e-13
5.26658e-13
5.75556e-13
6.33685e-13
6.99929e-13
7.73122e-13
8.52025e-13
9.35323e-13
1.02164e-12
1.10958e-12
1.19775e-12
1.28481e-12
1.3695e-12
1.45067e-12
1.52733e-12
1.59864e-12
1.66391e-12
1.72266e-12
1.77454e-12
1.81936e-12
1.85708e-12
1.88779e-12
1.91168e-12
1.92903e-12
1.94018e-12
1.94554e-12
1.376e-12
1.45598e-12
1.57073e-12
1.7163e-12
1.88927e-12
2.08627e-12
2.3038e-12
2.53815e-12
2.78539e-12
3.04142e-12
3.30208e-12
3.56324e-12
3.82093e-12
4.07144e-12
4.31141e-12
4.53791e-12
4.74847e-12
4.94113e-12
5.11443e-12
5.26739e-12
5.3995e-12
5.51065e-12
5.60111e-12
5.67146e-12
5.72252e-12
5.75534e-12
5.7711e-12
4.09198e-12
4.32915e-12
4.66929e-12
5.10059e-12
5.61273e-12
6.19561e-12
6.83874e-12
7.53101e-12
8.26069e-12
9.01562e-12
9.78348e-12
1.05521e-11
1.13097e-11
1.20456e-11
1.27499e-11
1.3414e-11
1.40308e-11
1.45948e-11
1.51016e-11
1.55487e-11
1.59345e-11
1.6259e-11
1.65229e-11
1.6728e-11
1.68768e-11
1.69724e-11
1.70183e-11
1.21227e-11
1.2822e-11
1.38241e-11
1.50937e-11
1.65997e-11
1.83118e-11
2.01984e-11
2.22265e-11
2.43612e-11
2.65666e-11
2.88064e-11
3.10452e-11
3.3249e-11
3.53864e-11
3.74292e-11
3.93531e-11
4.11379e-11
4.27677e-11
4.4231e-11
4.55204e-11
4.66322e-11
4.75663e-11
4.83255e-11
4.89151e-11
4.93427e-11
4.96172e-11
4.97489e-11
3.56973e-11
3.77385e-11
4.06613e-11
4.436e-11
4.87413e-11
5.37143e-11
5.91851e-11
6.50553e-11
7.12224e-11
7.75815e-11
8.40274e-11
9.04578e-11
9.67754e-11
1.02891e-10
1.08726e-10
1.14211e-10
1.19291e-10
1.23923e-10
1.28075e-10
1.31729e-10
1.34875e-10
1.37515e-10
1.39659e-10
1.41322e-10
1.42527e-10
1.43299e-10
1.4367e-10
1.04282e-10
1.10163e-10
1.18572e-10
1.29195e-10
1.41754e-10
1.55978e-10
1.71588e-10
1.88295e-10
2.05801e-10
2.23805e-10
2.42005e-10
2.60114e-10
2.77859e-10
2.94995e-10
3.11302e-10
3.26598e-10
3.40733e-10
3.53594e-10
3.65102e-10
3.75209e-10
3.83899e-10
3.91179e-10
3.97082e-10
4.01656e-10
4.04966e-10
4.07087e-10
4.08103e-10
3.01364e-10
3.1799e-10
3.41725e-10
3.71643e-10
4.06921e-10
4.46757e-10
4.90336e-10
5.36823e-10
5.85368e-10
6.35119e-10
6.85242e-10
7.34942e-10
7.83485e-10
8.30209e-10
8.74541e-10
9.16003e-10
9.54215e-10
9.88893e-10
1.01985e-09
1.04698e-09
1.07025e-09
1.08972e-09
1.10547e-09
1.11766e-09
1.12647e-09
1.13211e-09
1.13481e-09
8.58715e-10
9.04577e-10
9.69903e-10
1.05201e-09
1.14849e-09
1.25703e-09
1.37529e-09
1.50091e-09
1.63153e-09
1.76482e-09
1.89855e-09
2.0306e-09
2.15906e-09
2.28223e-09
2.39868e-09
2.50722e-09
2.60693e-09
2.69716e-09
2.77747e-09
2.84768e-09
2.90779e-09
2.95794e-09
2.99847e-09
3.02977e-09
3.05235e-09
3.06679e-09
3.07369e-09
2.40242e-09
2.52496e-09
2.69903e-09
2.91704e-09
3.17217e-09
3.45787e-09
3.76767e-09
4.09512e-09
4.43389e-09
4.77787e-09
5.12129e-09
5.4588e-09
5.78567e-09
6.09775e-09
6.39159e-09
6.66443e-09
6.91421e-09
7.13948e-09
7.33942e-09
7.51373e-09
7.66257e-09
7.78651e-09
7.88643e-09
7.96347e-09
8.01898e-09
8.05441e-09
8.07132e-09
6.56754e-09
6.88243e-09
7.32833e-09
7.8845e-09
8.53233e-09
9.25405e-09
1.00324e-08
1.08506e-08
1.16924e-08
1.25425e-08
1.33867e-08
1.42122e-08
1.50079e-08
1.57641e-08
1.64732e-08
1.7129e-08
1.77272e-08
1.82649e-08
1.87407e-08
1.91544e-08
1.95067e-08
1.97994e-08
2.0035e-08
2.02163e-08
2.03466e-08
2.04298e-08
2.04694e-08
1.74478e-08
1.82209e-08
1.9312e-08
2.06671e-08
2.22377e-08
2.39779e-08
2.58442e-08
2.77949e-08
2.97905e-08
3.17948e-08
3.37747e-08
3.5701e-08
3.75489e-08
3.92974e-08
4.09301e-08
4.24344e-08
4.38018e-08
4.5027e-08
4.6108e-08
4.70453e-08
4.78418e-08
4.85022e-08
4.90325e-08
4.944e-08
4.97326e-08
4.99189e-08
5.00076e-08
4.48086e-08
4.66145e-08
4.91546e-08
5.22958e-08
5.5919e-08
5.99128e-08
6.41727e-08
6.86009e-08
7.31071e-08
7.76095e-08
8.20352e-08
8.63213e-08
9.04147e-08
9.42724e-08
9.7861e-08
1.01156e-07
1.04142e-07
1.0681e-07
1.09157e-07
1.11188e-07
1.1291e-07
1.14335e-07
1.15477e-07
1.16354e-07
1.16982e-07
1.17382e-07
1.17572e-07
1.1075e-07
1.14758e-07
1.20378e-07
1.27303e-07
1.35255e-07
1.4398e-07
1.53241e-07
1.62823e-07
1.72529e-07
1.82182e-07
1.91631e-07
2.00745e-07
2.09416e-07
2.17561e-07
2.25112e-07
2.32026e-07
2.38274e-07
2.43843e-07
2.48733e-07
2.52955e-07
2.56528e-07
2.5948e-07
2.61844e-07
2.63655e-07
2.64952e-07
2.65776e-07
2.66168e-07
2.6276e-07
2.71232e-07
2.83083e-07
2.97638e-07
3.14293e-07
3.32498e-07
3.51749e-07
3.71588e-07
3.91607e-07
4.11446e-07
4.30799e-07
4.49406e-07
4.67057e-07
4.83589e-07
4.98879e-07
5.12846e-07
5.2544e-07
5.36644e-07
5.46465e-07
5.54931e-07
5.62086e-07
5.6799e-07
5.72712e-07
5.76326e-07
5.78913e-07
5.80555e-07
5.81335e-07
5.98139e-07
6.15288e-07
6.39233e-07
6.68571e-07
7.02055e-07
7.3855e-07
7.77028e-07
8.16569e-07
8.56357e-07
8.95684e-07
9.33949e-07
9.70652e-07
1.00539e-06
1.03786e-06
1.06784e-06
1.09518e-06
1.11979e-06
1.14165e-06
1.16079e-06
1.17727e-06
1.19119e-06
1.20266e-06
1.21182e-06
1.21883e-06
1.22385e-06
1.22703e-06
1.22854e-06
1.3082e-06
1.34169e-06
1.3884e-06
1.44553e-06
1.51062e-06
1.58142e-06
1.65593e-06
1.73235e-06
1.8091e-06
1.88483e-06
1.95839e-06
2.02884e-06
2.09542e-06
2.15757e-06
2.21488e-06
2.26708e-06
2.31403e-06
2.35569e-06
2.39214e-06
2.42349e-06
2.44995e-06
2.47174e-06
2.48915e-06
2.50245e-06
2.51197e-06
2.518e-06
2.52086e-06
2.75534e-06
2.81894e-06
2.90757e-06
3.01589e-06
3.13916e-06
3.27313e-06
3.41395e-06
3.55823e-06
3.70301e-06
3.84572e-06
3.98423e-06
4.11676e-06
4.24195e-06
4.35871e-06
4.46631e-06
4.56426e-06
4.65231e-06
4.73042e-06
4.7987e-06
4.85743e-06
4.90696e-06
4.94775e-06
4.98031e-06
5.00519e-06
5.02298e-06
5.03425e-06
5.03961e-06
5.59904e-06
5.71722e-06
5.88186e-06
6.08305e-06
6.31196e-06
6.56068e-06
6.8221e-06
7.08992e-06
7.35864e-06
7.62352e-06
7.88061e-06
8.12664e-06
8.35903e-06
8.57583e-06
8.77563e-06
8.95753e-06
9.12107e-06
9.26615e-06
9.393e-06
9.5021e-06
9.59413e-06
9.66992e-06
9.73041e-06
9.77665e-06
9.8097e-06
9.83064e-06
9.84058e-06
1.0975e-05
1.11902e-05
1.149e-05
1.18566e-05
1.2274e-05
1.27278e-05
1.32051e-05
1.36947e-05
1.41863e-05
1.46716e-05
1.51431e-05
1.55948e-05
1.60221e-05
1.64212e-05
1.67895e-05
1.71253e-05
1.74274e-05
1.76959e-05
1.79308e-05
1.81331e-05
1.83039e-05
1.84447e-05
1.85573e-05
1.86433e-05
1.87049e-05
1.87439e-05
1.87624e-05
2.06825e-05
2.10632e-05
2.15942e-05
2.22439e-05
2.29844e-05
2.37906e-05
2.464e-05
2.55126e-05
2.63906e-05
2.72589e-05
2.81044e-05
2.89163e-05
2.96861e-05
3.04068e-05
3.10735e-05
3.16826e-05
3.22323e-05
3.27216e-05
3.31509e-05
3.35214e-05
3.38348e-05
3.40937e-05
3.43009e-05
3.44597e-05
3.45735e-05
3.46458e-05
3.46802e-05
3.72553e-05
3.78981e-05
3.8795e-05
3.98932e-05
4.11459e-05
4.25111e-05
4.39511e-05
4.54319e-05
4.69241e-05
4.84017e-05
4.98427e-05
5.12287e-05
5.25446e-05
5.37786e-05
5.49219e-05
5.59683e-05
5.69139e-05
5.77571e-05
5.84981e-05
5.91384e-05
5.96809e-05
6.01298e-05
6.04895e-05
6.07656e-05
6.09636e-05
6.10896e-05
6.11495e-05
6.37878e-05
6.4802e-05
6.62165e-05
6.79475e-05
6.99209e-05
7.207e-05
7.4335e-05
7.66626e-05
7.90062e-05
8.13252e-05
8.3585e-05
8.57568e-05
8.78173e-05
8.97482e-05
9.15359e-05
9.31709e-05
9.46476e-05
9.59636e-05
9.71193e-05
9.81176e-05
9.89631e-05
9.96623e-05
0.000100223
0.000100652
0.000100961
0.000101157
0.00010125
0.000103423
0.000104895
0.000106944
0.000109447
0.000112295
0.000115388
0.00011864
0.000121972
0.000125317
0.000128618
0.000131824
0.000134896
0.000137803
0.000140519
0.000143026
0.000145313
0.000147373
0.000149205
0.00015081
0.000152193
0.000153363
0.000154328
0.000155101
0.000155692
0.000156116
0.000156385
0.000156513
0.000158543
0.000160495
0.000163208
0.000166514
0.000170263
0.000174322
0.000178572
0.00018291
0.000187248
0.00019151
0.000195634
0.000199571
0.00020328
0.000206733
0.00020991
0.000212798
0.000215392
0.000217691
0.0002197
0.000221428
0.000222885
0.000224085
0.000225044
0.000225777
0.000226301
0.000226634
0.000226792
0.000230007
0.00023239
0.000235694
0.000239709
0.000244247
0.000249143
0.000254251
0.000259445
0.000264619
0.000269683
0.000274565
0.000279208
0.000283567
0.000287613
0.000291324
0.000294689
0.000297702
0.000300367
0.000302692
0.000304686
0.000306366
0.000307748
0.00030885
0.000309692
0.000310294
0.000310675
0.000310856
0.000316945
0.000319655
0.000323408
0.000327958
0.000333089
0.000338609
0.000344352
0.000350176
0.000355959
0.000361605
0.000367033
0.000372182
0.000377007
0.000381474
0.000385564
0.000389266
0.000392577
0.000395501
0.000398048
0.000400232
0.00040207
0.000403581
0.000404785
0.000405705
0.000406362
0.000406779
0.000406977
0.000417185
0.000420111
0.000424159
0.00042906
0.000434578
0.000440504
0.00044666
0.000452891
0.00045907
0.000465091
0.000470873
0.000476351
0.000481478
0.000486221
0.00049056
0.000494484
0.000497992
0.000501089
0.000503786
0.000506098
0.000508043
0.000509642
0.000510917
0.000511891
0.000512588
0.000513029
0.000513239
0.000527999
0.000531049
0.000535266
0.000540369
0.00054611
0.000552272
0.000558668
0.000565138
0.000571549
0.000577795
0.00058379
0.000589468
0.00059478
0.000599695
0.00060419
0.000608255
0.000611891
0.000615101
0.000617897
0.000620295
0.000622313
0.000623973
0.000625297
0.000626308
0.000627032
0.000627491
0.000627709
0.000646722
0.000649835
0.000654139
0.000659345
0.000665202
0.000671489
0.000678014
0.000684614
0.000691156
0.00069753
0.000703648
0.000709445
0.00071487
0.00071989
0.000724484
0.000728641
0.000732359
0.000735644
0.000738507
0.000740963
0.000743032
0.000744734
0.000746093
0.000747131
0.000747874
0.000748346
0.00074857
0.000771101
0.000774242
0.000778586
0.000783842
0.000789757
0.000796106
0.000802699
0.00080937
0.000815985
0.000822433
0.000828625
0.000834494
0.000839991
0.000845079
0.000849738
0.000853956
0.000857731
0.000861068
0.000863977
0.000866475
0.00086858
0.000870312
0.000871695
0.000872754
0.000873511
0.000873992
0.000874221
0.000899372
0.000902527
0.000906891
0.000912173
0.000918118
0.000924503
0.000931135
0.000937849
0.000944509
0.000951004
0.000957245
0.000963164
0.000968709
0.000973846
0.000978551
0.000982813
0.00098663
0.000990005
0.000992949
0.000995477
0.000997608
0.000999363
0.00100077
0.00100184
0.00100261
0.00100309
0.00100333
0.00103024
0.0010334
0.00103778
0.00104308
0.00104905
0.00105546
0.00106212
0.00106886
0.00107556
0.00108209
0.00108837
0.00109432
0.00109991
0.00110508
0.00110982
0.00111412
0.00111797
0.00112137
0.00112434
0.0011269
0.00112905
0.00113082
0.00113224
0.00113332
0.0011341
0.00113459
0.00113483
0.00116278
0.00116595
0.00117034
0.00117565
0.00118164
0.00118807
0.00119476
0.00120153
0.00120826
0.00121482
0.00122113
0.00122712
0.00123274
0.00123794
0.00124271
0.00124704
0.00125091
0.00125434
0.00125733
0.00125991
0.00126207
0.00126386
0.00126529
0.00126638
0.00126716
0.00126766
0.0012679
0.00129632
0.00129951
0.00130391
0.00130924
0.00131524
0.0013217
0.00132841
0.00133522
0.00134197
0.00134856
0.0013549
0.00136092
0.00136656
0.0013718
0.00137659
0.00138094
0.00138484
0.00138829
0.0013913
0.00139389
0.00139607
0.00139787
0.00139931
0.00140041
0.00140119
0.00140169
0.00140193
0.00143042
0.00143361
0.00143803
0.00144338
0.0014494
0.00145588
0.00146262
0.00146945
0.00147623
0.00148285
0.00148922
0.00149526
0.00150093
0.00150619
0.00151101
0.00151538
0.00151929
0.00152276
0.00152578
0.00152838
0.00153058
0.00153238
0.00153383
0.00153493
0.00153573
0.00153623
0.00153647
0.00156473
0.00156793
0.00157236
0.00157773
0.00158378
0.00159028
0.00159704
0.00160389
0.0016107
0.00161734
0.00162373
0.0016298
0.00163549
0.00164077
0.00164561
0.00164999
0.00165393
0.0016574
0.00166044
0.00166305
0.00166525
0.00166707
0.00166852
0.00166963
0.00167042
0.00167093
0.00167117
0.00169901
0.00170222
0.00170667
0.00171205
0.00171812
0.00172464
0.00173142
0.0017383
0.00174512
0.00175179
0.0017582
0.00176429
0.00177
0.00177529
0.00178015
0.00178455
0.00178849
0.00179198
0.00179503
0.00179764
0.00179985
0.00180167
0.00180313
0.00180424
0.00180504
0.00180555
0.00180579
0.00183308
0.00183631
0.00184076
0.00184616
0.00185225
0.00185879
0.00186559
0.00187248
0.00187932
0.001886
0.00189243
0.00189854
0.00190426
0.00190957
0.00191443
0.00191884
0.0019228
0.00192629
0.00192935
0.00193197
0.00193418
0.00193601
0.00193746
0.00193858
0.00193938
0.00193989
0.00194013
0.00196682
0.00197004
0.00197451
0.00197992
0.00198602
0.00199257
0.00199939
0.00200629
0.00201315
0.00201984
0.00202628
0.0020324
0.00203813
0.00204345
0.00204832
0.00205274
0.0020567
0.0020602
0.00206326
0.00206589
0.0020681
0.00206993
0.00207139
0.0020725
0.0020733
0.00207381
0.00207405
0.00210009
0.00210333
0.0021078
0.00211322
0.00211932
0.00212589
0.00213271
0.00213962
0.00214649
0.0021532
0.00215964
0.00216576
0.0021715
0.00217683
0.0021817
0.00218612
0.00219009
0.00219359
0.00219665
0.00219928
0.0022015
0.00220332
0.00220478
0.0022059
0.0022067
0.00220721
0.00220745
0.00223283
0.00223606
0.00224054
0.00224596
0.00225207
0.00225864
0.00226547
0.00227239
0.00227926
0.00228597
0.00229242
0.00229854
0.00230428
0.0023096
0.00231448
0.00231891
0.00232287
0.00232637
0.00232943
0.00233206
0.00233428
0.0023361
0.00233756
0.00233868
0.00233948
0.00233999
0.00234023
0.00236494
0.00236818
0.00237266
0.00237808
0.00238419
0.00239076
0.00239758
0.0024045
0.00241138
0.00241808
0.00242453
0.00243065
0.00243639
0.00244171
0.00244659
0.00245101
0.00245497
0.00245847
0.00246153
0.00246415
0.00246637
0.00246819
0.00246965
0.00247076
0.00247156
0.00247207
0.00247231
0.00249637
0.00249961
0.00250408
0.0025095
0.00251561
0.00252217
0.002529
0.00253591
0.00254278
0.00254948
0.00255592
0.00256204
0.00256777
0.00257308
0.00257795
0.00258237
0.00258632
0.00258982
0.00259287
0.00259549
0.0025977
0.00259952
0.00260098
0.00260209
0.00260289
0.00260339
0.00260364
0.00262706
0.00263029
0.00263476
0.00264017
0.00264627
0.00265283
0.00265964
0.00266655
0.0026734
0.00268009
0.00268653
0.00269263
0.00269836
0.00270366
0.00270852
0.00271293
0.00271687
0.00272036
0.00272341
0.00272603
0.00272823
0.00273005
0.0027315
0.00273261
0.0027334
0.00273391
0.00273415
0.00275695
0.00276017
0.00276463
0.00277004
0.00277613
0.00278267
0.00278947
0.00279637
0.00280321
0.00280988
0.0028163
0.0028224
0.00282811
0.0028334
0.00283825
0.00284264
0.00284658
0.00285006
0.0028531
0.0028557
0.0028579
0.00285971
0.00286116
0.00286227
0.00286306
0.00286356
0.0028638
0.002886
0.00288922
0.00289367
0.00289906
0.00290513
0.00291166
0.00291845
0.00292532
0.00293214
0.0029388
0.00294521
0.00295128
0.00295697
0.00296225
0.00296708
0.00297146
0.00297539
0.00297886
0.00298188
0.00298448
0.00298667
0.00298848
0.00298992
0.00299103
0.00299181
0.00299232
0.00299256
0.00301416
0.00301737
0.00302181
0.00302719
0.00303324
0.00303975
0.00304652
0.00305337
0.00306017
0.00306681
0.00307319
0.00307924
0.00308491
0.00309017
0.00309499
0.00309935
0.00310326
0.00310672
0.00310973
0.00311232
0.00311451
0.0031163
0.00311774
0.00311884
0.00311963
0.00312013
0.00312036
0.00314141
0.00314461
0.00314903
0.00315439
0.00316042
0.00316691
0.00317364
0.00318047
0.00318725
0.00319386
0.00320021
0.00320624
0.00321189
0.00321713
0.00322193
0.00322627
0.00323016
0.00323361
0.00323661
0.00323919
0.00324136
0.00324315
0.00324458
0.00324567
0.00324645
0.00324695
0.00324719
0.00326769
0.00327087
0.00327528
0.00328062
0.00328662
0.00329308
0.00329979
0.00330659
0.00331334
0.00331992
0.00332625
0.00333225
0.00333787
0.00334308
0.00334786
0.00335218
0.00335606
0.00335948
0.00336247
0.00336503
0.0033672
0.00336898
0.0033704
0.00337149
0.00337227
0.00337276
0.003373
0.00339297
0.00339614
0.00340053
0.00340584
0.00341182
0.00341824
0.00342492
0.00343169
0.0034384
0.00344495
0.00345125
0.00345722
0.00346281
0.003468
0.00347275
0.00347705
0.0034809
0.00348431
0.00348728
0.00348983
0.00349198
0.00349375
0.00349517
0.00349625
0.00349703
0.00349752
0.00349775
0.00351721
0.00352037
0.00352473
0.00353001
0.00353596
0.00354236
0.003549
0.00355573
0.00356241
0.00356892
0.00357518
0.00358112
0.00358668
0.00359184
0.00359656
0.00360084
0.00360467
0.00360806
0.00361101
0.00361355
0.00361568
0.00361744
0.00361885
0.00361992
0.00362069
0.00362118
0.00362142
0.00364038
0.00364352
0.00364786
0.00365311
0.00365903
0.00366538
0.00367198
0.00367867
0.00368531
0.00369179
0.00369801
0.00370391
0.00370944
0.00371456
0.00371926
0.00372351
0.00372731
0.00373068
0.00373361
0.00373613
0.00373826
0.00374001
0.0037414
0.00374247
0.00374324
0.00374372
0.00374395
0.00376243
0.00376555
0.00376986
0.00377508
0.00378096
0.00378728
0.00379384
0.00380048
0.00380708
0.00381351
0.00381969
0.00382555
0.00383105
0.00383614
0.0038408
0.00384502
0.0038488
0.00385214
0.00385505
0.00385756
0.00385966
0.0038614
0.00386279
0.00386385
0.00386461
0.00386509
0.00386532
0.00388333
0.00388642
0.0038907
0.00389589
0.00390172
0.003908
0.00391451
0.00392111
0.00392766
0.00393404
0.00394018
0.003946
0.00395145
0.00395651
0.00396113
0.00396532
0.00396907
0.00397239
0.00397528
0.00397776
0.00397986
0.00398158
0.00398296
0.00398401
0.00398476
0.00398524
0.00398547
0.00400301
0.00400608
0.00401033
0.00401548
0.00402127
0.00402749
0.00403396
0.00404051
0.004047
0.00405334
0.00405943
0.0040652
0.00407061
0.00407562
0.00408021
0.00408437
0.00408809
0.00409138
0.00409425
0.00409671
0.00409878
0.00410049
0.00410186
0.0041029
0.00410365
0.00410412
0.00410435
0.00412143
0.00412448
0.00412869
0.00413379
0.00413954
0.00414571
0.00415212
0.00415861
0.00416505
0.00417134
0.00417737
0.0041831
0.00418846
0.00419343
0.00419797
0.00420209
0.00420578
0.00420904
0.00421188
0.00421432
0.00421638
0.00421807
0.00421943
0.00422046
0.0042212
0.00422167
0.00422189
0.00423852
0.00424154
0.00424572
0.00425077
0.00425646
0.00426258
0.00426893
0.00427536
0.00428174
0.00428796
0.00429394
0.00429961
0.00430492
0.00430984
0.00431435
0.00431843
0.00432208
0.00432531
0.00432812
0.00433054
0.00433257
0.00433425
0.00433559
0.00433661
0.00433734
0.00433781
0.00433803
0.0043542
0.00435719
0.00436132
0.00436633
0.00437196
0.00437801
0.0043843
0.00439067
0.00439698
0.00440314
0.00440906
0.00441467
0.00441992
0.00442479
0.00442925
0.00443328
0.00443689
0.00444009
0.00444287
0.00444526
0.00444728
0.00444893
0.00445026
0.00445127
0.00445199
0.00445245
0.00445267
0.00446838
0.00447133
0.00447542
0.00448037
0.00448594
0.00449192
0.00449814
0.00450443
0.00451068
0.00451676
0.00452261
0.00452816
0.00453335
0.00453816
0.00454256
0.00454655
0.00455012
0.00455327
0.00455603
0.00455839
0.00456038
0.00456201
0.00456332
0.00456432
0.00456504
0.00456549
0.00456571
0.00458094
0.00458386
0.00458789
0.00459278
0.00459828
0.00460419
0.00461033
0.00461654
0.0046227
0.00462871
0.00463448
0.00463995
0.00464508
0.00464983
0.00465417
0.00465811
0.00466163
0.00466474
0.00466745
0.00466978
0.00467175
0.00467336
0.00467465
0.00467564
0.00467634
0.00467679
0.004677
0.00469175
0.00469462
0.0046986
0.00470342
0.00470884
0.00471467
0.00472072
0.00472684
0.00473291
0.00473883
0.00474452
0.00474991
0.00475496
0.00475964
0.00476392
0.00476779
0.00477126
0.00477433
0.004777
0.00477929
0.00478122
0.00478281
0.00478408
0.00478506
0.00478575
0.00478619
0.0047864
0.00480064
0.00480347
0.00480738
0.00481212
0.00481746
0.00482319
0.00482914
0.00483516
0.00484113
0.00484695
0.00485254
0.00485785
0.00486281
0.00486741
0.00487161
0.00487542
0.00487883
0.00488184
0.00488447
0.00488672
0.00488862
0.00489018
0.00489143
0.00489239
0.00489307
0.0048935
0.00489371
0.0049074
0.00491018
0.00491403
0.00491868
0.00492392
0.00492954
0.00493538
0.00494128
0.00494714
0.00495285
0.00495834
0.00496354
0.0049684
0.00497291
0.00497704
0.00498077
0.00498411
0.00498706
0.00498964
0.00499185
0.00499371
0.00499524
0.00499646
0.0049974
0.00499806
0.00499849
0.00499869
0.00501182
0.00501454
0.0050183
0.00502285
0.00502797
0.00503347
0.00503918
0.00504496
0.00505069
0.00505628
0.00506164
0.00506672
0.00507148
0.00507589
0.00507992
0.00508357
0.00508683
0.00508972
0.00509223
0.00509439
0.00509621
0.0050977
0.0050989
0.00509981
0.00510046
0.00510088
0.00510107
0.00511359
0.00511624
0.00511991
0.00512435
0.00512934
0.0051347
0.00514027
0.0051459
0.00515148
0.00515692
0.00516215
0.0051671
0.00517173
0.00517602
0.00517995
0.0051835
0.00518668
0.00518948
0.00519193
0.00519403
0.0051958
0.00519725
0.00519841
0.0051993
0.00519994
0.00520034
0.00520053
0.00521238
0.00521496
0.00521852
0.00522283
0.00522767
0.00523288
0.00523828
0.00524374
0.00524916
0.00525444
0.0052595
0.0052643
0.00526879
0.00527295
0.00527675
0.00528019
0.00528327
0.00528599
0.00528836
0.00529039
0.0052921
0.00529351
0.00529464
0.0052955
0.00529611
0.0052965
0.00529669
0.00530782
0.0053103
0.00531374
0.0053179
0.00532258
0.0053276
0.00533282
0.00533809
0.00534331
0.0053484
0.00535328
0.00535791
0.00536224
0.00536624
0.00536991
0.00537322
0.00537619
0.00537881
0.00538109
0.00538304
0.00538469
0.00538605
0.00538713
0.00538796
0.00538855
0.00538893
0.0053891
0.00539945
0.00540183
0.00540513
0.00540912
0.00541361
0.00541843
0.00542342
0.00542848
0.00543348
0.00543835
0.00544303
0.00544746
0.0054516
0.00545544
0.00545894
0.00546211
0.00546495
0.00546745
0.00546963
0.0054715
0.00547308
0.00547437
0.00547541
0.0054762
0.00547676
0.00547712
0.00547729
0.00548679
0.00548906
0.0054922
0.005496
0.00550027
0.00550485
0.0055096
0.0055144
0.00551915
0.00552378
0.00552822
0.00553243
0.00553636
0.00554
0.00554332
0.00554633
0.00554902
0.00555139
0.00555345
0.00555523
0.00555672
0.00555795
0.00555892
0.00555967
0.00556021
0.00556055
0.00556071
0.00556929
0.00557144
0.0055744
0.00557798
0.005582
0.00558631
0.00559078
0.0055953
0.00559978
0.00560413
0.00560831
0.00561226
0.00561595
0.00561936
0.00562248
0.00562531
0.00562783
0.00563005
0.00563199
0.00563365
0.00563505
0.0056362
0.00563712
0.00563782
0.00563832
0.00563864
0.00563879
0.0056464
0.0056484
0.00565116
0.00565449
0.00565824
0.00566225
0.00566641
0.00567061
0.00567477
0.00567882
0.00568269
0.00568636
0.00568979
0.00569295
0.00569585
0.00569846
0.0057008
0.00570286
0.00570465
0.00570619
0.00570748
0.00570855
0.00570939
0.00571004
0.00571051
0.0057108
0.00571094
0.00571754
0.00571938
0.00572191
0.00572497
0.00572841
0.0057321
0.00573591
0.00573976
0.00574357
0.00574728
0.00575082
0.00575418
0.00575731
0.0057602
0.00576284
0.00576523
0.00576736
0.00576924
0.00577087
0.00577227
0.00577345
0.00577442
0.00577519
0.00577578
0.0057762
0.00577647
0.0057766
0.00578217
0.00578383
0.00578612
0.00578888
0.00579199
0.00579531
0.00579875
0.00580222
0.00580565
0.00580898
0.00581217
0.00581518
0.005818
0.00582059
0.00582296
0.0058251
0.00582701
0.00582869
0.00583015
0.0058314
0.00583246
0.00583332
0.00583401
0.00583454
0.00583492
0.00583516
0.00583527
0.00583982
0.00584129
0.00584332
0.00584577
0.00584851
0.00585145
0.00585449
0.00585755
0.00586058
0.00586351
0.00586632
0.00586897
0.00587144
0.00587372
0.0058758
0.00587767
0.00587935
0.00588082
0.0058821
0.0058832
0.00588412
0.00588487
0.00588548
0.00588594
0.00588627
0.00588648
0.00588658
0.00589016
0.00589143
0.00589319
0.00589531
0.00589768
0.00590021
0.00590283
0.00590547
0.00590807
0.0059106
0.00591301
0.00591528
0.0059174
0.00591935
0.00592113
0.00592273
0.00592416
0.00592542
0.00592651
0.00592745
0.00592823
0.00592887
0.00592939
0.00592978
0.00593006
0.00593024
0.00593032
0.00593304
0.00593411
0.00593559
0.00593737
0.00593936
0.00594149
0.00594369
0.0059459
0.00594807
0.00595018
0.00595219
0.00595409
0.00595585
0.00595747
0.00595895
0.00596028
0.00596146
0.0059625
0.00596341
0.00596418
0.00596483
0.00596536
0.00596578
0.0059661
0.00596634
0.00596648
0.00596655
0.00596854
0.00596942
0.00597062
0.00597207
0.00597369
0.00597542
0.00597721
0.005979
0.00598076
0.00598246
0.00598408
0.00598561
0.00598703
0.00598833
0.00598951
0.00599058
0.00599153
0.00599236
0.00599308
0.00599369
0.00599421
0.00599463
0.00599497
0.00599522
0.00599541
0.00599552
0.00599558
0.00599702
0.00599771
0.00599865
0.00599979
0.00600106
0.00600241
0.00600381
0.0060052
0.00600657
0.0060079
0.00600916
0.00601034
0.00601143
0.00601244
0.00601335
0.00601417
0.0060149
0.00601553
0.00601608
0.00601655
0.00601695
0.00601727
0.00601752
0.00601772
0.00601786
0.00601795
0.00601799
0.00601906
0.00601958
0.00602029
0.00602115
0.0060221
0.00602312
0.00602416
0.0060252
0.00602622
0.0060272
0.00602813
0.00602901
0.00602981
0.00603055
0.00603122
0.00603182
0.00603235
0.00603281
0.00603321
0.00603355
0.00603384
0.00603407
0.00603425
0.00603439
0.00603449
0.00603456
0.00603459
0.00603548
0.00603585
0.00603636
0.00603697
0.00603765
0.00603837
0.0060391
0.00603984
0.00604056
0.00604125
0.0060419
0.00604251
0.00604307
0.00604358
0.00604404
0.00604445
0.00604481
0.00604513
0.0060454
0.00604563
0.00604582
0.00604598
0.00604611
0.0060462
0.00604627
0.00604631
0.00604633
0.00604719
0.00604744
0.00604778
0.00604819
0.00604864
0.00604912
0.0060496
0.00605009
0.00605056
0.00605101
0.00605143
0.00605183
0.00605219
0.00605251
0.0060528
0.00605306
0.00605329
0.00605349
0.00605366
0.0060538
0.00605392
0.00605401
0.00605409
0.00605414
0.00605419
0.00605421
0.00605423
0.00605515
0.0060553
0.00605551
0.00605576
0.00605604
0.00605633
0.00605662
0.00605691
0.00605719
0.00605746
0.00605771
0.00605794
0.00605815
0.00605834
0.00605851
0.00605865
0.00605878
0.00605889
0.00605898
0.00605906
0.00605912
0.00605917
0.00605921
0.00605924
0.00605926
0.00605928
0.00605929
0.0060603
0.00606038
0.00606049
0.00606063
0.00606077
0.00606092
0.00606107
0.00606121
0.00606134
0.00606147
0.00606158
0.00606168
0.00606177
0.00606185
0.00606191
0.00606197
0.00606201
0.00606205
0.00606207
0.0060621
0.00606211
0.00606212
0.00606213
0.00606214
0.00606215
0.00606215
0.00606215
0.00606335
0.00606338
0.00606341
0.00606344
0.00606348
0.00606351
0.00606354
0.00606357
0.00606358
0.00606359
0.0060636
0.00606359
0.00606359
0.00606357
0.00606355
0.00606353
0.00606351
0.00606349
0.00606346
0.00606344
0.00606342
0.0060634
0.00606339
0.00606337
0.00606337
0.00606336
0.00606336
0.0060648
0.00606478
0.00606475