/*--------------------------------*- C++ -*----------------------------------*\
| =========                 |                                                 |
| \\      /  F ield         | OpenFOAM: The Open Source CFD Toolbox           |
|  \\    /   O peration     | Version:  2106                                  |
|   \\  /    A nd           | Website:  www.openfoam.com                      |
|    \\/     M anipulation  |                                                 |
\*---------------------------------------------------------------------------*/
FoamFile
{
    version     2.0;
    format      ascii;
    arch        "LSB;label=32;scalar=64";
    class       volScalarField;
    location    "149.99958";
    object      A2CH2-2;
}
// * * * * * * * * * * * * * * * * * * * * * * * * * * * * * * * * * * * * * //

dimensions      [0 0 0 0 0 0 0];

internalField   nonuniform List<scalar> 
3360
(
2.31375e-18
2.3882e-18
2.49182e-18
2.61855e-18
2.76312e-18
2.9208e-18
3.08729e-18
3.25873e-18
3.43168e-18
3.60309e-18
3.77034e-18
3.93118e-18
4.08377e-18
4.22663e-18
4.35866e-18
4.47906e-18
4.58736e-18
4.68334e-18
4.76706e-18
4.83875e-18
4.89885e-18
4.94793e-18
4.98671e-18
5.01595e-18
5.03653e-18
5.04933e-18
5.05527e-18
1.01498e-17
1.05229e-17
1.10493e-17
1.17049e-17
1.24695e-17
1.33257e-17
1.42578e-17
1.52515e-17
1.62934e-17
1.7371e-17
1.84722e-17
1.95852e-17
2.06984e-17
2.18004e-17
2.28799e-17
2.39258e-17
2.49273e-17
2.58739e-17
2.67556e-17
2.75628e-17
2.82869e-17
2.89202e-17
2.94563e-17
2.98898e-17
3.0217e-17
3.04355e-17
3.05444e-17
3.18466e-17
3.32443e-17
3.52302e-17
3.77258e-17
4.06655e-17
4.39907e-17
4.76453e-17
5.15744e-17
5.57223e-17
6.0032e-17
6.44454e-17
6.89049e-17
7.33531e-17
7.77338e-17
8.19921e-17
8.60765e-17
8.99388e-17
9.35361e-17
9.6831e-17
9.97925e-17
1.02397e-16
1.04627e-16
1.06473e-16
1.07932e-16
1.09008e-16
1.0971e-16
1.10051e-16
9.27463e-17
9.73528e-17
1.03942e-16
1.1228e-16
1.22167e-16
1.3342e-16
1.45855e-16
1.5928e-16
1.73494e-16
1.88286e-16
2.03439e-16
2.18731e-16
2.33941e-16
2.48856e-16
2.63272e-16
2.77001e-16
2.8988e-16
3.01766e-16
3.12547e-16
3.22137e-16
3.30482e-16
3.37551e-16
3.43341e-16
3.47869e-16
3.51174e-16
3.53308e-16
3.54337e-16
2.70968e-16
2.855e-16
3.06328e-16
3.3274e-16
3.64132e-16
3.99924e-16
4.3952e-16
4.82288e-16
5.27553e-16
5.74605e-16
6.2271e-16
6.71128e-16
7.1913e-16
7.66025e-16
8.1117e-16
8.53988e-16
8.93984e-16
9.30747e-16
9.63961e-16
9.93398e-16
1.01892e-15
1.04047e-15
1.05806e-15
1.07179e-15
1.08178e-15
1.08821e-15
1.09131e-15
7.9894e-16
8.43566e-16
9.07606e-16
9.88888e-16
1.08555e-15
1.19579e-15
1.31775e-15
1.44944e-15
1.58874e-15
1.73342e-15
1.88117e-15
2.0297e-15
2.17674e-15
2.32015e-15
2.45797e-15
2.58845e-15
2.7101e-15
2.82172e-15
2.92238e-15
3.01144e-15
3.08852e-15
3.1535e-15
3.20648e-15
3.24775e-15
3.27774e-15
3.29704e-15
3.30632e-15
2.37323e-15
2.50883e-15
2.70342e-15
2.9504e-15
3.24409e-15
3.57897e-15
3.94929e-15
4.34892e-15
4.77134e-15
5.20971e-15
5.657e-15
6.10618e-15
6.55043e-15
6.98329e-15
7.39889e-15
7.79201e-15
8.15825e-15
8.49403e-15
8.79664e-15
9.06422e-15
9.2957e-15
9.49077e-15
9.64975e-15
9.77354e-15
9.8635e-15
9.92138e-15
9.9492e-15
7.07293e-15
7.48094e-15
8.06673e-15
8.81051e-15
9.69521e-15
1.07041e-14
1.18199e-14
1.30238e-14
1.42963e-14
1.56164e-14
1.6963e-14
1.83149e-14
1.96514e-14
2.09531e-14
2.22023e-14
2.33835e-14
2.44834e-14
2.54913e-14
2.63993e-14
2.72018e-14
2.78957e-14
2.84803e-14
2.89565e-14
2.93271e-14
2.95964e-14
2.97695e-14
2.98528e-14
2.1135e-14
2.23612e-14
2.41213e-14
2.63559e-14
2.90134e-14
3.20435e-14
3.53936e-14
3.90076e-14
4.28259e-14
4.6786e-14
5.08241e-14
5.48764e-14
5.88812e-14
6.27806e-14
6.65216e-14
7.00579e-14
7.335e-14
7.63664e-14
7.90832e-14
8.14841e-14
8.356e-14
8.53085e-14
8.67329e-14
8.78415e-14
8.86469e-14
8.91649e-14
8.94138e-14
6.31558e-14
6.68281e-14
7.21003e-14
7.87941e-14
8.67552e-14
9.58321e-14
1.05867e-13
1.16692e-13
1.28127e-13
1.39985e-13
1.52075e-13
1.64205e-13
1.7619e-13
1.87858e-13
1.99049e-13
2.09625e-13
2.19469e-13
2.28485e-13
2.36605e-13
2.43778e-13
2.49979e-13
2.55201e-13
2.59453e-13
2.62762e-13
2.65166e-13
2.66711e-13
2.67454e-13
1.88807e-13
1.99799e-13
2.15577e-13
2.35605e-13
2.59419e-13
2.86564e-13
3.16566e-13
3.48919e-13
3.83086e-13
4.18505e-13
4.54603e-13
4.9081e-13
5.26573e-13
5.61376e-13
5.94749e-13
6.26279e-13
6.55618e-13
6.82487e-13
7.06676e-13
7.28044e-13
7.46512e-13
7.62061e-13
7.74723e-13
7.84576e-13
7.91731e-13
7.96332e-13
7.98543e-13
5.6387e-13
5.96682e-13
6.43776e-13
7.03548e-13
7.74604e-13
8.55579e-13
9.45049e-13
1.0415e-12
1.14332e-12
1.24884e-12
1.35633e-12
1.46411e-12
1.57053e-12
1.67404e-12
1.77327e-12
1.86698e-12
1.95414e-12
2.03394e-12
2.10575e-12
2.16916e-12
2.22395e-12
2.27006e-12
2.3076e-12
2.3368e-12
2.35801e-12
2.37164e-12
2.37818e-12
1.68199e-12
1.77976e-12
1.92002e-12
2.09797e-12
2.3094e-12
2.55021e-12
2.81612e-12
3.10259e-12
3.4048e-12
3.71777e-12
4.03639e-12
4.35563e-12
4.67063e-12
4.97685e-12
5.27018e-12
5.54704e-12
5.80443e-12
6.03993e-12
6.25177e-12
6.43875e-12
6.60023e-12
6.73611e-12
6.84668e-12
6.93267e-12
6.99509e-12
7.03521e-12
7.05448e-12
5.00195e-12
5.29186e-12
5.70764e-12
6.23485e-12
6.86088e-12
7.57338e-12
8.35953e-12
9.20575e-12
1.00977e-11
1.10205e-11
1.19591e-11
1.28986e-11
1.38248e-11
1.47243e-11
1.55852e-11
1.63969e-11
1.7151e-11
1.78403e-11
1.84599e-11
1.90064e-11
1.94781e-11
1.98746e-11
2.01972e-11
2.04479e-11
2.06298e-11
2.07467e-11
2.08028e-11
1.48186e-11
1.56733e-11
1.68983e-11
1.84502e-11
2.02911e-11
2.23839e-11
2.46901e-11
2.71692e-11
2.97786e-11
3.24744e-11
3.52123e-11
3.7949e-11
4.06429e-11
4.32555e-11
4.57526e-11
4.81043e-11
5.0286e-11
5.22783e-11
5.4067e-11
5.56431e-11
5.70022e-11
5.8144e-11
5.9072e-11
5.97928e-11
6.03154e-11
6.0651e-11
6.0812e-11
4.36356e-11
4.61307e-11
4.97035e-11
5.42246e-11
5.95803e-11
6.56592e-11
7.23466e-11
7.95221e-11
8.70607e-11
9.48339e-11
1.02713e-10
1.10574e-10
1.18296e-10
1.25772e-10
1.32904e-10
1.39609e-10
1.45819e-10
1.51481e-10
1.56556e-10
1.61022e-10
1.64868e-10
1.68096e-10
1.70716e-10
1.72749e-10
1.74221e-10
1.75166e-10
1.75619e-10
1.27473e-10
1.3466e-10
1.4494e-10
1.57925e-10
1.73277e-10
1.90664e-10
2.09745e-10
2.30167e-10
2.51567e-10
2.73574e-10
2.95822e-10
3.17957e-10
3.39649e-10
3.60594e-10
3.80529e-10
3.99226e-10
4.16505e-10
4.32226e-10
4.46292e-10
4.58647e-10
4.69269e-10
4.78168e-10
4.85384e-10
4.90975e-10
4.95021e-10
4.97614e-10
4.98856e-10
3.68382e-10
3.88705e-10
4.17718e-10
4.54289e-10
4.97412e-10
5.46106e-10
5.99376e-10
6.56201e-10
7.15541e-10
7.76355e-10
8.37624e-10
8.98376e-10
9.57714e-10
1.01483e-09
1.06902e-09
1.1197e-09
1.16641e-09
1.2088e-09
1.24664e-09
1.2798e-09
1.30825e-09
1.33205e-09
1.35131e-09
1.36621e-09
1.37698e-09
1.38387e-09
1.38717e-09
1.04968e-09
1.10574e-09
1.18559e-09
1.28596e-09
1.40389e-09
1.53657e-09
1.68112e-09
1.83468e-09
1.99435e-09
2.15728e-09
2.32074e-09
2.48215e-09
2.63918e-09
2.78975e-09
2.93209e-09
3.06477e-09
3.18665e-09
3.29694e-09
3.39511e-09
3.48094e-09
3.5544e-09
3.61572e-09
3.66525e-09
3.70351e-09
3.73112e-09
3.74877e-09
3.7572e-09
2.93671e-09
3.0865e-09
3.29928e-09
3.56576e-09
3.87762e-09
4.22686e-09
4.60554e-09
5.0058e-09
5.41991e-09
5.84038e-09
6.26015e-09
6.67272e-09
7.07227e-09
7.45374e-09
7.81292e-09
8.14644e-09
8.45175e-09
8.72712e-09
8.97152e-09
9.18458e-09
9.36652e-09
9.51802e-09
9.64016e-09
9.73434e-09
9.80218e-09
9.84549e-09
9.86616e-09
8.02831e-09
8.41323e-09
8.95827e-09
9.63811e-09
1.043e-08
1.13122e-08
1.22636e-08
1.32637e-08
1.42926e-08
1.53317e-08
1.63637e-08
1.73728e-08
1.83453e-08
1.92697e-08
2.01364e-08
2.09381e-08
2.16692e-08
2.23265e-08
2.29081e-08
2.34137e-08
2.38444e-08
2.42022e-08
2.44901e-08
2.47117e-08
2.48711e-08
2.49727e-08
2.50211e-08
2.13297e-08
2.22747e-08
2.36084e-08
2.52647e-08
2.71844e-08
2.93116e-08
3.15927e-08
3.3977e-08
3.64162e-08
3.8866e-08
4.1286e-08
4.36406e-08
4.58992e-08
4.80364e-08
5.0032e-08
5.18707e-08
5.3542e-08
5.50396e-08
5.63609e-08
5.75066e-08
5.84801e-08
5.92873e-08
5.99354e-08
6.04335e-08
6.07912e-08
6.10189e-08
6.11273e-08
5.47841e-08
5.69914e-08
6.0096e-08
6.39354e-08
6.83637e-08
7.32449e-08
7.84513e-08
8.38634e-08
8.93709e-08
9.48735e-08
1.00282e-07
1.05521e-07
1.10523e-07
1.15238e-07
1.19624e-07
1.23651e-07
1.273e-07
1.3056e-07
1.33429e-07
1.35911e-07
1.38016e-07
1.39757e-07
1.41153e-07
1.42224e-07
1.42993e-07
1.43481e-07
1.43714e-07
1.3544e-07
1.40338e-07
1.47206e-07
1.55668e-07
1.65386e-07
1.76048e-07
1.87366e-07
1.99074e-07
2.10933e-07
2.22729e-07
2.34274e-07
2.4541e-07
2.56005e-07
2.65955e-07
2.75182e-07
2.83629e-07
2.91263e-07
2.98066e-07
3.0404e-07
3.09198e-07
3.13564e-07
3.17171e-07
3.20059e-07
3.22271e-07
3.23856e-07
3.24863e-07
3.25342e-07
3.21505e-07
3.31856e-07
3.46337e-07
3.6412e-07
3.8447e-07
4.06711e-07
4.30228e-07
4.54461e-07
4.78914e-07
5.03146e-07
5.26781e-07
5.49505e-07
5.7106e-07
5.91247e-07
6.09917e-07
6.26971e-07
6.42348e-07
6.56027e-07
6.68018e-07
6.78353e-07
6.87089e-07
6.94297e-07
7.00061e-07
7.04473e-07
7.07631e-07
7.09636e-07
7.10588e-07
7.32638e-07
7.53592e-07
7.82849e-07
8.18693e-07
8.59597e-07
9.04175e-07
9.51171e-07
9.99459e-07
1.04804e-06
1.09606e-06
1.14278e-06
1.18759e-06
1.23e-06
1.26965e-06
1.30624e-06
1.33962e-06
1.36966e-06
1.39636e-06
1.41972e-06
1.43984e-06
1.45684e-06
1.47084e-06
1.48203e-06
1.49059e-06
1.49672e-06
1.5006e-06
1.50245e-06
1.60577e-06
1.64674e-06
1.70387e-06
1.77375e-06
1.85335e-06
1.93994e-06
2.03106e-06
2.12451e-06
2.21836e-06
2.31097e-06
2.40092e-06
2.48708e-06
2.56851e-06
2.64453e-06
2.71463e-06
2.77849e-06
2.83593e-06
2.88692e-06
2.93152e-06
2.9699e-06
3.00228e-06
3.02897e-06
3.05028e-06
3.06657e-06
3.07822e-06
3.08561e-06
3.08912e-06
3.39742e-06
3.47564e-06
3.58462e-06
3.71782e-06
3.8694e-06
4.03412e-06
4.20728e-06
4.38468e-06
4.5627e-06
4.73818e-06
4.9085e-06
5.07149e-06
5.22545e-06
5.36906e-06
5.50142e-06
5.62192e-06
5.73025e-06
5.82636e-06
5.91039e-06
5.98266e-06
6.04363e-06
6.09384e-06
6.13392e-06
6.16456e-06
6.18646e-06
6.20035e-06
6.20694e-06
6.96551e-06
7.1129e-06
7.31825e-06
7.56918e-06
7.85472e-06
8.16497e-06
8.49107e-06
8.82515e-06
9.16034e-06
9.49074e-06
9.81137e-06
1.01182e-05
1.04079e-05
1.06781e-05
1.0927e-05
1.11535e-05
1.1357e-05
1.15374e-05
1.16951e-05
1.18306e-05
1.19447e-05
1.20387e-05
1.21136e-05
1.21708e-05
1.22116e-05
1.22375e-05
1.22497e-05
1.3857e-05
1.41335e-05
1.4519e-05
1.49905e-05
1.55276e-05
1.61119e-05
1.67268e-05
1.73575e-05
1.79912e-05
1.86166e-05
1.92241e-05
1.98061e-05
2.03561e-05
2.08694e-05
2.13426e-05
2.17732e-05
2.21601e-05
2.2503e-05
2.28024e-05
2.30595e-05
2.32758e-05
2.34535e-05
2.35949e-05
2.37026e-05
2.37793e-05
2.38277e-05
2.38506e-05
2.66423e-05
2.7156e-05
2.78731e-05
2.87517e-05
2.97548e-05
3.08486e-05
3.20028e-05
3.31903e-05
3.43868e-05
3.55712e-05
3.67253e-05
3.78339e-05
3.88845e-05
3.98675e-05
4.07757e-05
4.16042e-05
4.23501e-05
4.30124e-05
4.35915e-05
4.40893e-05
4.45086e-05
4.48532e-05
4.51274e-05
4.53362e-05
4.54848e-05
4.55785e-05
4.56227e-05
4.90228e-05
4.99387e-05
5.12185e-05
5.27886e-05
5.45833e-05
5.65437e-05
5.86163e-05
6.07526e-05
6.29095e-05
6.50491e-05
6.71383e-05
6.91492e-05
7.1059e-05
7.28491e-05
7.45059e-05
7.60194e-05
7.73839e-05
7.85966e-05
7.9658e-05
8.05708e-05
8.13399e-05
8.19721e-05
8.24754e-05
8.28585e-05
8.31309e-05
8.33026e-05
8.33836e-05
8.52964e-05
8.6793e-05
8.88827e-05
9.14437e-05
9.43678e-05
9.7557e-05
0.000100923
0.000104385
0.000107873
0.000111324
0.000114686
0.000117913
0.000120969
0.000123826
0.000126462
0.000128863
0.000131022
0.000132935
0.000134605
0.000136037
0.00013724
0.000138227
0.000139011
0.000139606
0.000140029
0.000140295
0.00014042
0.000138948
0.00014111
0.00014412
0.000147796
0.000151974
0.000156509
0.000161269
0.000166137
0.000171013
0.000175808
0.000180451
0.00018488
0.000189051
0.000192928
0.000196485
0.00019971
0.000202594
0.000205138
0.00020735
0.00020924
0.000210823
0.000212118
0.000213143
0.000213921
0.000214472
0.000214818
0.000214981
0.000210628
0.000213357
0.000217144
0.000221747
0.000226951
0.000232565
0.000238421
0.000244372
0.000250292
0.000256077
0.000261642
0.000266921
0.000271863
0.000276432
0.000280605
0.00028437
0.000287726
0.000290677
0.000293235
0.000295415
0.000297238
0.000298727
0.000299905
0.000300798
0.00030143
0.000301828
0.000302015
0.000297189
0.000300244
0.00030447
0.000309586
0.000315344
0.000321526
0.000327941
0.000334427
0.000340848
0.000347092
0.000353073
0.000358722
0.000363992
0.000368849
0.000373273
0.000377256
0.0003808
0.000383913
0.00038661
0.000388909
0.000390831
0.000392403
0.000393647
0.000394592
0.000395263
0.000395685
0.000395885
0.000392876
0.000395989
0.000400288
0.000405479
0.000411305
0.00041754
0.000423991
0.000430494
0.000436913
0.000443141
0.000449092
0.000454705
0.000459932
0.000464746
0.000469129
0.000473074
0.000476586
0.000479674
0.000482351
0.000484637
0.000486553
0.000488122
0.000489369
0.000490318
0.000490994
0.000491421
0.000491623
0.000491449
0.000494419
0.000498514
0.000503454
0.00050899
0.000514908
0.000521023
0.00052718
0.000533253
0.000539141
0.000544767
0.000550073
0.000555016
0.000559572
0.000563724
0.000567468
0.000570806
0.000573747
0.000576303
0.000578491
0.000580331
0.000581842
0.000583047
0.000583967
0.000584626
0.000585043
0.000585242
0.000587691
0.000590398
0.000594132
0.000598633
0.000603678
0.00060907
0.000614641
0.000620253
0.00062579
0.000631163
0.000636302
0.000641153
0.000645681
0.000649861
0.000653679
0.000657129
0.000660212
0.000662937
0.000665312
0.000667352
0.000669072
0.000670491
0.000671626
0.000672496
0.000673121
0.00067352
0.00067371
0.000677917
0.000680313
0.000683617
0.000687603
0.000692072
0.000696851
0.000701794
0.000706776
0.0007117
0.000716483
0.000721066
0.0007254
0.000729454
0.000733205
0.00073664
0.000739752
0.000742542
0.000745014
0.000747176
0.00074904
0.000750617
0.000751922
0.00075297
0.000753777
0.000754358
0.00075473
0.000754908
0.000759919
0.000761995
0.000764859
0.000768315
0.000772194
0.000776346
0.000780644
0.000784984
0.000789278
0.000793458
0.00079747
0.000801273
0.000804838
0.000808145
0.000811182
0.000813941
0.000816422
0.000818627
0.000820563
0.000822237
0.000823658
0.000824839
0.000825791
0.000826526
0.000827058
0.000827399
0.000827563
0.000832643
0.000834405
0.000836837
0.000839774
0.000843076
0.000846618
0.00085029
0.000854005
0.000857688
0.00086128
0.000864735
0.000868018
0.000871103
0.000873972
0.000876614
0.000879022
0.000881194
0.000883132
0.000884838
0.000886319
0.000887581
0.000888633
0.000889485
0.000890145
0.000890624
0.000890933
0.000891082
0.000895718
0.00089719
0.000899223
0.00090168
0.000904442
0.000907406
0.000910487
0.00091361
0.000916713
0.000919747
0.000922673
0.000925459
0.000928085
0.000930535
0.000932797
0.000934865
0.000936738
0.000938414
0.000939895
0.000941186
0.00094229
0.000943214
0.000943965
0.000944549
0.000944975
0.00094525
0.000945384
0.000949292
0.000950498
0.000952165
0.000954181
0.000956449
0.000958886
0.000961421
0.000963996
0.000966561
0.000969074
0.000971505
0.000973826
0.000976021
0.000978074
0.000979977
0.000981724
0.000983311
0.000984737
0.000986003
0.00098711
0.000988062
0.000988862
0.000989514
0.000990024
0.000990397
0.00099064
0.000990758
0.000993836
0.0009948
0.000996133
0.000997747
0.000999564
0.00100152
0.00100356
0.00100563
0.0010077
0.00100974
0.00101171
0.0010136
0.0010154
0.00101708
0.00101865
0.0010201
0.00102142
0.00102261
0.00102367
0.00102461
0.00102541
0.0010261
0.00102665
0.00102709
0.00102742
0.00102763
0.00102773
0.00102999
0.00103074
0.00103177
0.00103302
0.00103443
0.00103594
0.00103753
0.00103915
0.00104077
0.00104237
0.00104393
0.00104543
0.00104686
0.00104821
0.00104947
0.00105064
0.00105171
0.00105268
0.00105356
0.00105433
0.001055
0.00105557
0.00105604
0.00105642
0.00105669
0.00105687
0.00105696
0.00105848
0.00105903
0.00105979
0.00106071
0.00106175
0.00106288
0.00106406
0.00106527
0.00106649
0.00106769
0.00106887
0.00107002
0.00107111
0.00107215
0.00107314
0.00107405
0.0010749
0.00107567
0.00107638
0.001077
0.00107755
0.00107802
0.00107841
0.00107872
0.00107895
0.0010791
0.00107918
0.00108005
0.00108043
0.00108094
0.00108157
0.00108229
0.00108306
0.00108388
0.00108473
0.00108558
0.00108643
0.00108728
0.0010881
0.00108889
0.00108966
0.00109039
0.00109107
0.00109172
0.00109231
0.00109286
0.00109335
0.00109378
0.00109416
0.00109447
0.00109473
0.00109492
0.00109504
0.00109511
0.00109545
0.00109567
0.00109597
0.00109635
0.00109677
0.00109723
0.00109773
0.00109825
0.00109878
0.00109932
0.00109986
0.00110039
0.00110092
0.00110144
0.00110194
0.00110242
0.00110288
0.00110332
0.00110372
0.00110409
0.00110442
0.00110471
0.00110496
0.00110516
0.00110532
0.00110542
0.00110547
0.00110539
0.00110547
0.00110559
0.00110573
0.0011059
0.00110609
0.0011063
0.00110653
0.00110677
0.00110703
0.00110731
0.00110759
0.00110788
0.00110818
0.00110848
0.00110878
0.00110908
0.00110937
0.00110965
0.00110991
0.00111015
0.00111037
0.00111056
0.00111071
0.00111083
0.00111091
0.00111096
0.00111054
0.0011105
0.00111045
0.00111039
0.00111033
0.00111028
0.00111025
0.00111022
0.00111022
0.00111023
0.00111027
0.00111033
0.00111042
0.00111052
0.00111065
0.00111079
0.00111094
0.00111111
0.00111127
0.00111144
0.0011116
0.00111175
0.00111188
0.001112
0.00111209
0.00111215
0.00111218
0.00111151
0.00111136
0.00111117
0.00111094
0.00111069
0.00111043
0.00111017
0.00110993
0.00110971
0.00110951
0.00110934
0.00110921
0.00110911
0.00110905
0.00110902
0.00110902
0.00110905
0.0011091
0.00110917
0.00110925
0.00110934
0.00110943
0.00110952
0.00110959
0.00110966
0.00110971
0.00110973
0.00110886
0.00110863
0.00110832
0.00110794
0.00110752
0.00110708
0.00110663
0.0011062
0.00110579
0.0011054
0.00110506
0.00110476
0.00110451
0.0011043
0.00110413
0.00110401
0.00110393
0.00110389
0.00110387
0.00110388
0.0011039
0.00110394
0.00110399
0.00110403
0.00110407
0.00110411
0.00110412
0.00110313
0.00110282
0.00110239
0.00110189
0.00110132
0.00110073
0.00110012
0.00109952
0.00109895
0.00109841
0.00109791
0.00109747
0.00109708
0.00109674
0.00109647
0.00109624
0.00109606
0.00109593
0.00109584
0.00109579
0.00109576
0.00109575
0.00109576
0.00109578
0.0010958
0.00109582
0.00109583
0.00109475
0.00109437
0.00109386
0.00109324
0.00109255
0.00109182
0.00109108
0.00109034
0.00108963
0.00108896
0.00108833
0.00108777
0.00108726
0.00108682
0.00108644
0.00108613
0.00108587
0.00108567
0.00108552
0.00108541
0.00108533
0.00108529
0.00108526
0.00108526
0.00108526
0.00108527
0.00108527
0.00108413
0.0010837
0.00108311
0.0010824
0.00108161
0.00108077
0.00107991
0.00107906
0.00107823
0.00107744
0.00107671
0.00107604
0.00107544
0.00107491
0.00107445
0.00107405
0.00107373
0.00107347
0.00107326
0.0010731
0.00107299
0.00107291
0.00107286
0.00107283
0.00107282
0.00107282
0.00107282
0.00107165
0.00107118
0.00107052
0.00106973
0.00106886
0.00106792
0.00106697
0.00106602
0.00106509
0.00106421
0.00106339
0.00106263
0.00106195
0.00106134
0.00106081
0.00106036
0.00105997
0.00105966
0.00105941
0.00105921
0.00105906
0.00105896
0.00105888
0.00105884
0.00105881
0.0010588
0.0010588
0.00105762
0.00105711
0.0010564
0.00105555
0.0010546
0.0010536
0.00105256
0.00105153
0.00105053
0.00104957
0.00104867
0.00104784
0.00104709
0.00104642
0.00104584
0.00104533
0.0010449
0.00104454
0.00104425
0.00104402
0.00104384
0.00104371
0.00104362
0.00104356
0.00104352
0.00104351
0.0010435
0.00104233
0.00104178
0.00104104
0.00104014
0.00103913
0.00103806
0.00103697
0.00103587
0.0010348
0.00103378
0.00103282
0.00103194
0.00103113
0.00103041
0.00102978
0.00102923
0.00102876
0.00102836
0.00102804
0.00102778
0.00102758
0.00102743
0.00102732
0.00102725
0.00102721
0.00102718
0.00102717
0.00102602
0.00102545
0.00102467
0.00102373
0.00102268
0.00102156
0.00102042
0.00101927
0.00101815
0.00101708
0.00101608
0.00101515
0.0010143
0.00101354
0.00101286
0.00101228
0.00101178
0.00101135
0.00101101
0.00101073
0.00101051
0.00101034
0.00101022
0.00101013
0.00101008
0.00101005
0.00101004
0.00100891
0.00100832
0.00100752
0.00100655
0.00100546
0.00100431
0.00100313
0.00100194
0.00100079
0.000999678
0.000998635
0.000997668
0.000996785
0.000995992
0.000995289
0.000994676
0.000994149
0.000993704
0.000993336
0.000993037
0.000992802
0.000992621
0.000992489
0.000992396
0.000992337
0.000992303
0.00099229
0.00099119
0.000990592
0.000989768
0.000988776
0.000987667
0.000986487
0.000985274
0.000984062
0.000982877
0.000981741
0.00098067
0.000979677
0.000978769
0.000977952
0.000977226
0.000976591
0.000976045
0.000975582
0.000975198
0.000974885
0.000974637
0.000974446
0.000974304
0.000974205
0.00097414
0.000974103
0.000974088
0.000973022
0.000972415
0.000971579
0.000970572
0.000969446
0.000968248
0.000967016
0.000965784
0.000964579
0.000963424
0.000962334
0.000961322
0.000960396
0.000959561
0.000958819
0.000958169
0.000957608
0.000957132
0.000956735
0.000956411
0.000956154
0.000955954
0.000955805
0.0009557
0.000955631
0.000955591
0.000955574
0.000954545
0.000953933
0.000953089
0.000952073
0.000950937
0.000949728
0.000948485
0.000947241
0.000946024
0.000944856
0.000943753
0.000942729
0.000941792
0.000940945
0.000940192
0.000939531
0.00093896
0.000938474
0.000938069
0.000937737
0.000937471
0.000937265
0.000937111
0.000937001
0.000936929
0.000936887
0.000936869
0.000935876
0.000935261
0.000934415
0.000933395
0.000932255
0.000931041
0.000929792
0.000928543
0.00092732
0.000926146
0.000925037
0.000924006
0.000923062
0.000922209
0.000921449
0.000920781
0.000920203
0.000919711
0.000919299
0.000918962
0.000918691
0.00091848
0.000918322
0.000918209
0.000918134
0.00091809
0.000918071
0.000917114
0.0009165
0.000915653
0.000914634
0.000913495
0.000912281
0.000911032
0.000909783
0.000908559
0.000907384
0.000906274
0.000905241
0.000904295
0.000903439
0.000902676
0.000902004
0.000901423
0.000900927
0.000900512
0.00090017
0.000899896
0.000899682
0.000899521
0.000899405
0.000899328
0.000899283
0.000899263
0.000898341
0.000897729
0.000896886
0.000895871
0.000894736
0.000893526
0.000892282
0.000891036
0.000889816
0.000888644
0.000887537
0.000886506
0.000885561
0.000884705
0.000883942
0.00088327
0.000882688
0.00088219
0.000881773
0.000881429
0.000881153
0.000880937
0.000880773
0.000880656
0.000880577
0.000880531
0.000880511
0.000879621
0.000879013
0.000878176
0.000877167
0.000876039
0.000874838
0.000873601
0.000872363
0.00087115
0.000869984
0.000868883
0.000867857
0.000866915
0.000866063
0.000865302
0.000864632
0.00086405
0.000863553
0.000863135
0.00086279
0.000862513
0.000862296
0.000862131
0.000862012
0.000861933
0.000861886
0.000861865
0.000861004
0.000860402
0.000859572
0.000858572
0.000857454
0.000856262
0.000855036
0.000853807
0.000852604
0.000851447
0.000850353
0.000849334
0.000848399
0.000847552
0.000846795
0.000846127
0.000845548
0.000845052
0.000844635
0.000844291
0.000844013
0.000843795
0.00084363
0.00084351
0.00084343
0.000843383
0.000843362
0.000842527
0.000841931
0.000841109
0.000840119
0.000839012
0.000837832
0.000836617
0.0008354
0.000834208
0.000833062
0.000831977
0.000830967
0.000830038
0.000829197
0.000828445
0.000827782
0.000827206
0.000826712
0.000826296
0.000825953
0.000825676
0.000825458
0.000825292
0.000825172
0.000825092
0.000825044
0.000825022
0.00082421
0.00082362
0.000822807
0.000821828
0.000820732
0.000819565
0.000818362
0.000817158
0.000815977
0.000814842
0.000813767
0.000812766
0.000811846
0.000811011
0.000810265
0.000809606
0.000809033
0.000808542
0.000808129
0.000807787
0.00080751
0.000807292
0.000807126
0.000807006
0.000806925
0.000806877
0.000806856
0.00080606
0.000805476
0.000804672
0.000803704
0.00080262
0.000801465
0.000800275
0.000799083
0.000797914
0.000796789
0.000795724
0.000794732
0.000793819
0.000792991
0.000792251
0.000791596
0.000791027
0.000790539
0.000790127
0.000789786
0.00078951
0.000789292
0.000789127
0.000789006
0.000788925
0.000788876
0.000788855
0.00078807
0.000787493
0.000786697
0.000785738
0.000784666
0.000783522
0.000782343
0.000781162
0.000780004
0.000778889
0.000777833
0.000776849
0.000775943
0.000775121
0.000774385
0.000773735
0.000773168
0.000772682
0.000772272
0.000771932
0.000771656
0.000771439
0.000771273
0.000771152
0.000771071
0.000771022
0.000771
0.00077022
0.000769648
0.000768859
0.000767909
0.000766845
0.00076571
0.000764542
0.00076337
0.00076222
0.000761114
0.000760065
0.000759087
0.000758186
0.000757369
0.000756636
0.000755989
0.000755424
0.000754939
0.000754529
0.00075419
0.000753914
0.000753696
0.00075353
0.000753408
0.000753326
0.000753277
0.000753255
0.000752471
0.000751903
0.000751119
0.000750175
0.000749118
0.000747991
0.000746829
0.000745664
0.00074452
0.000743418
0.000742374
0.0007414
0.000740502
0.000739687
0.000738956
0.000738309
0.000737745
0.00073726
0.00073685
0.000736509
0.000736232
0.000736013
0.000735846
0.000735724
0.000735641
0.000735591
0.000735568
0.000734771
0.000734205
0.000733424
0.000732484
0.00073143
0.000730306
0.000729147
0.000727985
0.000726843
0.000725743
0.0007247
0.000723726
0.000722828
0.000722012
0.00072128
0.000720632
0.000720066
0.000719578
0.000719166
0.000718823
0.000718545
0.000718324
0.000718154
0.000718031
0.000717946
0.000717896
0.000717873
0.00071705
0.000716484
0.000715703
0.000714762
0.000713709
0.000712583
0.000711423
0.000710259
0.000709115
0.000708012
0.000706965
0.000705987
0.000705085
0.000704265
0.000703528
0.000702875
0.000702304
0.000701813
0.000701396
0.00070105
0.000700767
0.000700543
0.000700371
0.000700245
0.000700159
0.000700107
0.000700084
0.000699223
0.000698654
0.00069787
0.000696925
0.000695866
0.000694734
0.000693567
0.000692395
0.000691242
0.000690131
0.000689075
0.000688088
0.000687177
0.000686348
0.000685602
0.000684941
0.000684363
0.000683864
0.00068344
0.000683087
0.000682799
0.00068257
0.000682395
0.000682265
0.000682177
0.000682123
0.000682099
0.000681188
0.000680615
0.000679823
0.000678868
0.000677797
0.000676653
0.000675472
0.000674285
0.000673118
0.000671991
0.00067092
0.000669917
0.000668992
0.000668148
0.000667389
0.000666715
0.000666124
0.000665614
0.000665181
0.000664819
0.000664523
0.000664288
0.000664107
0.000663973
0.000663882
0.000663826
0.000663801
0.000662829
0.000662246
0.000661441
0.00066047
0.000659381
0.000658217
0.000657014
0.000655805
0.000654615
0.000653465
0.000652371
0.000651347
0.000650399
0.000649535
0.000648757
0.000648064
0.000647457
0.000646932
0.000646485
0.000646112
0.000645806
0.000645562
0.000645373
0.000645234
0.000645138
0.00064508
0.000645054
0.00064401
0.000643414
0.000642592
0.000641598
0.000640483
0.000639291
0.000638058
0.000636818
0.000635596
0.000634415
0.00063329
0.000632235
0.000631259
0.000630367
0.000629563
0.000628847
0.000628218
0.000627674
0.000627209
0.00062682
0.000626501
0.000626246
0.000626048
0.000625902
0.000625801
0.00062574
0.000625711
0.00062459
0.000623977
0.00062313
0.000622107
0.000620959
0.000619729
0.000618458
0.000617178
0.000615915
0.000614693
0.000613529
0.000612436
0.000611423
0.000610497
0.000609661
0.000608915
0.000608259
0.00060769
0.000607203
0.000606795
0.00060646
0.000606191
0.000605982
0.000605827
0.00060572
0.000605655
0.000605625
0.000604424
0.00060379
0.000602913
0.000601854
0.000600664
0.00059939
0.000598071
0.000596742
0.00059543
0.00059416
0.000592948
0.000591809
0.000590752
0.000589785
0.00058891
0.000588128
0.00058744
0.000586842
0.00058633
0.000585899
0.000585544
0.000585259
0.000585037
0.000584872
0.000584758
0.000584688
0.000584655
0.000583382
0.000582723
0.000581813
0.000580712
0.000579475
0.000578149
0.000576776
0.000575391
0.000574024
0.000572698
0.000571432
0.000570241
0.000569135
0.00056812
0.000567202
0.000566381
0.000565656
0.000565025
0.000564484
0.000564028
0.000563652
0.000563348
0.000563112
0.000562935
0.000562812
0.000562737
0.000562702
0.000561377
0.000560692
0.000559745
0.0005586
0.000557312
0.000555932
0.000554502
0.000553058
0.000551632
0.000550247
0.000548925
0.000547679
0.000546521
0.000545458
0.000544495
0.000543631
0.000542869
0.000542203
0.000541632
0.00054115
0.00054075
0.000540428
0.000540176
0.000539987
0.000539855
0.000539774
0.000539736
0.000538397
0.000537687
0.000536705
0.000535518
0.000534183
0.000532751
0.000531267
0.000529768
0.000528286
0.000526847
0.000525472
0.000524175
0.000522969
0.00052186
0.000520854
0.000519952
0.000519154
0.000518456
0.000517856
0.000517349
0.000516928
0.000516587
0.00051632
0.00051612
0.00051598
0.000515893
0.000515852
0.000514556
0.000513826
0.000512818
0.000511598
0.000510225
0.000508754
0.000507228
0.000505687
0.000504164
0.000502684
0.000501269
0.000499934
0.000498691
0.000497548
0.00049651
0.000495578
0.000494753
0.000494031
0.000493408
0.000492881
0.000492443
0.000492088
0.000491809
0.000491599
0.000491452
0.00049136
0.000491317
0.000490139
0.000489401
0.00048838
0.000487146
0.000485759
0.000484271
0.000482729
0.000481172
0.000479633
0.000478137
0.000476707
0.000475358
0.000474101
0.000472945
0.000471895
0.000470951
0.000470114
0.000469382
0.00046875
0.000468213
0.000467767
0.000467405
0.000467119
0.000466904
0.000466753
0.000466658
0.000466614
0.000465635
0.000464905
0.000463897
0.000462678
0.000461309
0.000459842
0.000458321
0.000456787
0.000455271
0.000453799
0.000452391
0.000451063
0.000449827
0.000448689
0.000447655
0.000446726
0.000445902
0.00044518
0.000444556
0.000444027
0.000443585
0.000443226
0.000442943
0.00044273
0.000442579
0.000442484
0.00044244
0.000441728
0.00044103
0.000440065
0.0004389
0.000437592
0.000436191
0.000434742
0.00043328
0.000431837
0.000430436
0.000429098
0.000427837
0.000426664
0.000425584
0.000424603
0.000423722
0.000422939
0.000422254
0.000421661
0.000421158
0.000420738
0.000420396
0.000420126
0.000419922
0.000419778
0.000419687
0.000419645
0.000419232
0.00041859
0.000417703
0.000416634
0.000415434
0.000414151
0.000412825
0.00041149
0.000410173
0.000408897
0.000407679
0.000406533
0.000405467
0.000404487
0.000403596
0.000402797
0.000402088
0.000401466
0.000400929
0.000400472
0.000400091
0.00039978
0.000399535
0.000399349
0.000399217
0.000399134
0.000399096
0.00039896
0.000398397
0.000397621
0.000396686
0.000395638
0.000394519
0.000393365
0.000392205
0.000391062
0.000389957
0.000388904
0.000387914
0.000386995
0.000386151
0.000385385
0.000384697
0.000384087
0.000383553
0.000383092
0.000382699
0.000382372
0.000382105
0.000381893
0.000381733
0.00038162
0.000381549