/*--------------------------------*- C++ -*----------------------------------*\
| =========                 |                                                 |
| \\      /  F ield         | OpenFOAM: The Open Source CFD Toolbox           |
|  \\    /   O peration     | Version:  2106                                  |
|   \\  /    A nd           | Website:  www.openfoam.com                      |
|    \\/     M anipulation  |                                                 |
\*---------------------------------------------------------------------------*/
FoamFile
{
    version     2.0;
    format      ascii;
    arch        "LSB;label=32;scalar=64";
    class       volScalarField;
    location    "149.99958";
    object      AC3H5;
}
// * * * * * * * * * * * * * * * * * * * * * * * * * * * * * * * * * * * * * //

dimensions      [0 0 0 0 0 0 0];

internalField   nonuniform List<scalar> 
3360
(
1.3119e-32
1.35386e-32
1.41224e-32
1.48364e-32
1.56509e-32
1.6539e-32
1.74768e-32
1.84423e-32
1.94162e-32
2.03814e-32
2.1323e-32
2.22285e-32
2.30874e-32
2.38916e-32
2.46347e-32
2.53123e-32
2.59218e-32
2.64619e-32
2.6933e-32
2.73364e-32
2.76746e-32
2.79508e-32
2.81689e-32
2.83335e-32
2.84493e-32
2.85213e-32
2.85547e-32
5.73278e-32
5.9422e-32
6.23771e-32
6.6057e-32
7.03491e-32
7.51551e-32
8.03871e-32
8.59648e-32
9.18137e-32
9.78629e-32
1.04045e-31
1.10294e-31
1.16544e-31
1.22732e-31
1.28794e-31
1.34668e-31
1.40294e-31
1.45611e-31
1.50564e-31
1.55099e-31
1.59168e-31
1.62727e-31
1.65739e-31
1.68176e-31
1.70015e-31
1.71243e-31
1.71855e-31
1.78775e-31
1.86575e-31
1.97659e-31
2.11586e-31
2.27993e-31
2.4655e-31
2.66947e-31
2.88877e-31
3.12028e-31
3.36085e-31
3.60724e-31
3.85621e-31
4.10458e-31
4.3492e-31
4.58702e-31
4.81514e-31
5.03088e-31
5.23183e-31
5.4159e-31
5.58136e-31
5.72686e-31
5.85146e-31
5.9546e-31
6.03612e-31
6.09622e-31
6.13541e-31
6.15449e-31
5.16827e-31
5.42384e-31
5.78947e-31
6.25215e-31
6.80098e-31
7.4258e-31
8.11642e-31
8.86231e-31
9.65236e-31
1.04749e-30
1.13179e-30
1.2169e-30
1.3016e-30
1.38469e-30
1.46503e-30
1.54159e-30
1.61342e-30
1.67973e-30
1.7399e-30
1.79344e-30
1.84002e-30
1.87949e-30
1.91182e-30
1.93711e-30
1.95555e-30
1.96746e-30
1.97321e-30
1.50084e-30
1.58135e-30
1.69682e-30
1.84337e-30
2.01775e-30
2.21683e-30
2.43739e-30
2.67599e-30
2.92895e-30
3.19236e-30
3.46216e-30
3.73421e-30
4.00441e-30
4.26884e-30
4.52382e-30
4.76604e-30
4.99261e-30
5.20113e-30
5.38972e-30
5.55702e-30
5.70216e-30
5.82479e-30
5.92494e-30
6.00307e-30
6.05992e-30
6.09654e-30
6.11415e-30
4.43168e-30
4.68269e-30
5.04373e-30
5.5034e-30
6.05211e-30
6.68064e-30
7.37935e-30
8.13777e-30
8.94449e-30
9.78718e-30
1.06528e-29
1.1528e-29
1.23994e-29
1.3254e-29
1.40795e-29
1.48648e-29
1.56003e-29
1.62778e-29
1.68909e-29
1.7435e-29
1.7907e-29
1.83057e-29
1.86312e-29
1.8885e-29
1.90695e-29
1.91882e-29
1.92452e-29
1.34992e-29
1.43112e-29
1.54844e-29
1.69871e-29
1.87937e-29
2.08796e-29
2.32181e-29
2.57792e-29
2.85281e-29
3.14259e-29
3.44296e-29
3.7493e-29
4.05687e-29
4.36089e-29
4.65674e-29
4.94012e-29
5.20714e-29
5.45447e-29
5.67936e-29
5.87974e-29
6.05421e-29
6.20198e-29
6.32287e-29
6.41725e-29
6.48594e-29
6.53014e-29
6.55137e-29
4.40077e-29
4.69331e-29
5.12055e-29
5.67526e-29
6.35283e-29
7.14891e-29
8.05807e-29
9.07277e-29
1.01828e-28
1.13749e-28
1.26329e-28
1.3938e-28
1.52692e-28
1.66046e-28
1.79216e-28
1.91982e-28
2.04139e-28
2.15504e-28
2.2592e-28
2.35264e-28
2.43443e-28
2.504e-28
2.5611e-28
2.60578e-28
2.63833e-28
2.65929e-28
2.66935e-28
1.67069e-28
1.80242e-28
1.99792e-28
2.25697e-28
2.58078e-28
2.97066e-28
3.42714e-28
3.94927e-28
4.53404e-28
5.1761e-28
5.86769e-28
6.5987e-28
7.35707e-28
8.12932e-28
8.90113e-28
9.65804e-28
1.03861e-27
1.10727e-27
1.17065e-27
1.22783e-27
1.27814e-27
1.32108e-27
1.35642e-27
1.38412e-27
1.40432e-27
1.41732e-27
1.42355e-27
8.16999e-28
8.95143e-28
1.01294e-27
1.172e-27
1.37491e-27
1.62432e-27
1.92224e-27
2.26947e-27
2.66512e-27
3.10632e-27
3.58812e-27
4.10355e-27
4.6439e-27
5.19908e-27
5.75818e-27
6.30999e-27
6.84362e-27
7.34892e-27
7.81698e-27
8.2404e-27
8.61349e-27
8.93236e-27
9.19487e-27
9.40054e-27
9.55038e-27
9.64668e-27
9.69276e-27
5.23382e-27
5.80595e-27
6.67589e-27
7.86255e-27
9.39252e-27
1.12927e-26
1.35843e-26
1.62782e-26
1.93707e-26
2.28415e-26
2.66522e-26
3.07472e-26
3.50556e-26
3.9495e-26
4.39759e-26
4.84058e-26
5.26947e-26
5.67589e-26
6.05247e-26
6.39311e-26
6.69313e-26
6.94933e-26
7.15998e-26
7.32476e-26
7.44455e-26
7.52133e-26
7.55795e-26
3.98688e-26
4.4498e-26
5.15595e-26
6.12265e-26
7.37344e-26
8.93182e-26
1.08163e-25
1.30364e-25
1.5589e-25
1.84569e-25
2.16075e-25
2.49935e-25
2.85554e-25
3.22236e-25
3.59231e-25
3.95766e-25
4.31093e-25
4.64519e-25
4.95439e-25
5.23354e-25
5.47886e-25
5.68785e-25
5.85921e-25
5.99283e-25
6.08961e-25
6.15139e-25
6.18071e-25
3.2704e-25
3.65732e-25
4.24758e-25
5.05558e-25
6.10064e-25
7.40178e-25
8.97348e-25
1.08223e-24
1.29444e-24
1.53237e-24
1.79315e-24
2.07273e-24
2.36606e-24
2.66733e-24
2.9703e-24
3.26864e-24
3.55624e-24
3.82753e-24
4.07767e-24
4.30274e-24
4.49984e-24
4.6671e-24
4.80367e-24
4.90965e-24
4.98602e-24
5.03446e-24
5.05729e-24
2.72658e-24
3.04865e-24
3.53932e-24
4.2097e-24
5.07469e-24
6.14857e-24
7.44159e-24
8.95722e-24
1.06902e-23
1.26253e-23
1.47375e-23
1.69921e-23
1.93471e-23
2.17551e-23
2.41656e-23
2.65285e-23
2.87958e-23
3.09244e-23
3.28776e-23
3.46262e-23
3.61494e-23
3.74348e-23
3.84778e-23
3.92817e-23
3.98565e-23
4.02178e-23
4.03863e-23
2.2497e-23
2.51201e-23
2.91056e-23
3.45315e-23
4.1503e-23
5.01165e-23
6.04329e-23
7.24572e-23
8.61245e-23
1.01293e-22
1.17745e-22
1.35196e-22
1.53308e-22
1.7171e-22
1.90015e-22
2.07844e-22
2.24844e-22
2.40701e-22
2.55157e-22
2.68011e-22
2.7913e-22
2.88441e-22
2.95935e-22
3.01658e-22
3.05706e-22
3.08219e-22
3.09374e-22
1.80515e-22
2.0107e-22
2.3218e-22
2.74318e-22
3.28135e-22
3.94181e-22
4.72711e-22
5.6354e-22
6.6596e-22
7.78709e-22
8.99999e-22
1.0276e-21
1.15895e-21
1.29132e-21
1.42193e-21
1.54813e-21
1.6675e-21
1.77795e-21
1.87781e-21
1.96587e-21
2.04135e-21
2.10397e-21
2.15384e-21
2.19148e-21
2.21774e-21
2.23378e-21
2.24101e-21
1.39038e-21
1.54311e-21
1.77301e-21
2.0823e-21
2.47414e-21
2.95078e-21
3.51217e-21
4.15512e-21
4.87285e-21
5.655e-21
6.48795e-21
7.35555e-21
8.23997e-21
9.12271e-21
9.98561e-21
1.08117e-20
1.1586e-20
1.22961e-20
1.29322e-20
1.3488e-20
1.39598e-20
1.43472e-20
1.46521e-20
1.48794e-20
1.50356e-20
1.51293e-20
1.51706e-20
1.01492e-20
1.1208e-20
1.27913e-20
1.49033e-20
1.75533e-20
2.07431e-20
2.44591e-20
2.86681e-20
3.33155e-20
3.83261e-20
4.36076e-20
4.90555e-20
5.45583e-20
6.00036e-20
6.52841e-20
7.03018e-20
7.49721e-20
7.92266e-20
8.30146e-20
8.63036e-20
8.9079e-20
9.13433e-20
9.31148e-20
9.44254e-20
9.53192e-20
9.58506e-20
9.60818e-20
6.96057e-20
7.64058e-20
8.65097e-20
9.98855e-20
1.16535e-19
1.36422e-19
1.59435e-19
1.85363e-19
2.13894e-19
2.44612e-19
2.77022e-19
3.1056e-19
3.44624e-19
3.78596e-19
4.11865e-19
4.43853e-19
4.74032e-19
5.01944e-19
5.27213e-19
5.49556e-19
5.68788e-19
5.84825e-19
5.97678e-19
6.07452e-19
6.14334e-19
6.18585e-19
6.20525e-19
4.53959e-19
4.96873e-19
5.61076e-19
6.47083e-19
7.56104e-19
8.89725e-19
1.0497e-18
1.23775e-18
1.45536e-18
1.70347e-18
1.9822e-18
2.29055e-18
2.62616e-18
2.98519e-18
3.3623e-18
3.75075e-18
4.14266e-18
4.5294e-18
4.90208e-18
5.25204e-18
5.57135e-18
5.85316e-18
6.0921e-18
6.28436e-18
6.42784e-18
6.52205e-18
6.568e-18
3.19541e-18
3.5859e-18
4.2074e-18
5.11096e-18
6.37313e-18
8.09523e-18
1.04011e-17
1.34311e-17
1.7332e-17
2.22427e-17
2.82771e-17
3.55069e-17
4.39466e-17
5.35445e-17
6.41826e-17
7.56706e-17
8.77528e-17
1.00121e-16
1.12432e-16
1.24333e-16
1.35475e-16
1.45543e-16
1.54262e-16
1.61417e-16
1.66854e-16
1.70484e-16
1.72284e-16
3.81879e-17
4.64465e-17
6.03958e-17
8.20556e-17
1.14306e-16
1.60909e-16
2.2647e-16
3.16217e-16
4.35674e-16
5.90178e-16
7.84275e-16
1.02105e-15
1.30147e-15
1.6238e-15
1.98535e-15
2.38058e-15
2.8013e-15
3.23721e-15
3.6764e-15
4.10605e-15
4.51317e-15
4.88532e-15
5.21128e-15
5.48163e-15
5.68911e-15
5.8289e-15
5.89872e-15
9.16475e-16
1.15832e-15
1.56798e-15
2.20449e-15
3.14933e-15
4.50773e-15
6.41115e-15
9.00753e-15
1.24544e-14
1.69081e-14
2.251e-14
2.93712e-14
3.75573e-14
4.70747e-14
5.78606e-14
6.97768e-14
8.26099e-14
9.60781e-14
1.09841e-13
1.23516e-13
1.36694e-13
1.48962e-13
1.59919e-13
1.69197e-13
1.76476e-13
1.81495e-13
1.84063e-13
2.54839e-14
3.17976e-14
4.23498e-14
5.85068e-14
8.21699e-14
1.15746e-13
1.62094e-13
2.24411e-13
3.06062e-13
4.10346e-13
5.40203e-13
6.97896e-13
8.84701e-13
1.10065e-12
1.34432e-12
1.61278e-12
1.90157e-12
2.20484e-12
2.51551e-12
2.82557e-12
3.12634e-12
3.4088e-12
3.66393e-12
3.88294e-12
4.05757e-12
4.18031e-12
4.24449e-12
6.31451e-13
7.66495e-13
9.87157e-13
1.31583e-12
1.78267e-12
2.42396e-12
3.28005e-12
4.39259e-12
5.80091e-12
7.53764e-12
9.62402e-12
1.20653e-11
1.48473e-11
1.79348e-11
2.12718e-11
2.47856e-11
2.83908e-11
3.1996e-11
3.55094e-11
3.8844e-11
4.19213e-11
4.46734e-11
4.70441e-11
4.89886e-11
5.04735e-11
5.14753e-11
5.19794e-11
1.20487e-11
1.41046e-11
1.73475e-11
2.19612e-11
2.81632e-11
3.6154e-11
4.60691e-11
5.79377e-11
7.16617e-11
8.70202e-11
1.03698e-10
1.21325e-10
1.39521e-10
1.57915e-10
1.76167e-10
1.93966e-10
2.11038e-10
2.27136e-10
2.42051e-10
2.55603e-10
2.67649e-10
2.78077e-10
2.86807e-10
2.93791e-10
2.99005e-10
3.02452e-10
3.04155e-10
1.34541e-10
1.49976e-10
1.72949e-10
2.03397e-10
2.41326e-10
2.86669e-10
3.39228e-10
3.98627e-10
4.64281e-10
5.3539e-10
6.10947e-10
6.8977e-10
7.70547e-10
8.51886e-10
9.32398e-10
1.01078e-09
1.08582e-09
1.15642e-09
1.22161e-09
1.28061e-09
1.33279e-09
1.3777e-09
1.41505e-09
1.44471e-09
1.46667e-09
1.48107e-09
1.48811e-09
7.07355e-10
7.75448e-10
8.76768e-10
1.0113e-09
1.17958e-09
1.38203e-09
1.61879e-09
1.88915e-09
2.19145e-09
2.52293e-09
2.87982e-09
3.25738e-09
3.65006e-09
4.05171e-09
4.45578e-09
4.8556e-09
5.24455e-09
5.6163e-09
5.965e-09
6.2854e-09
6.57298e-09
6.82403e-09
7.03567e-09
7.20588e-09
7.33345e-09
7.41799e-09
7.45978e-09
2.7555e-09
3.02852e-09
3.43761e-09
3.98624e-09
4.68145e-09
5.53117e-09
6.54242e-09
7.71982e-09
9.0645e-09
1.05732e-08
1.22376e-08
1.40442e-08
1.59739e-08
1.80029e-08
2.01025e-08
2.22402e-08
2.43806e-08
2.64863e-08
2.8519e-08
3.04407e-08
3.22148e-08
3.3807e-08
3.51861e-08
3.6325e-08
3.72009e-08
3.7796e-08
3.80975e-08
9.43602e-09
1.04073e-08
1.18718e-08
1.38526e-08
1.6389e-08
1.9527e-08
2.33126e-08
2.77861e-08
3.2976e-08
3.88985e-08
4.55464e-08
5.2889e-08
6.08703e-08
6.94078e-08
7.83935e-08
8.76956e-08
9.71624e-08
1.06626e-07
1.15906e-07
1.24813e-07
1.33164e-07
1.40774e-07
1.47462e-07
1.53065e-07
1.57431e-07
1.60436e-07
1.61976e-07
3.06903e-08
3.36876e-08
3.81979e-08
4.42827e-08
5.20516e-08
6.16334e-08
7.31549e-08
8.67243e-08
1.02415e-07
1.20252e-07
1.40203e-07
1.62171e-07
1.85981e-07
2.11354e-07
2.37943e-07
2.6534e-07
2.93084e-07
3.20674e-07
3.47586e-07
3.73286e-07
3.97245e-07
4.18962e-07
4.37953e-07
4.53785e-07
4.66084e-07
4.74526e-07
4.78852e-07
9.373e-08
1.01322e-07
1.12618e-07
1.27645e-07
1.46528e-07
1.69377e-07
1.96281e-07
2.27272e-07
2.62294e-07
3.01184e-07
3.4366e-07
3.89315e-07
4.37627e-07
4.87965e-07
5.39607e-07
5.91761e-07
6.43587e-07
6.94223e-07
7.42793e-07
7.88467e-07
8.30455e-07
8.68e-07
9.00432e-07
9.2718e-07
9.4775e-07
9.61737e-07
9.68837e-07
2.45111e-07
2.59886e-07
2.8146e-07
3.09465e-07
3.4366e-07
3.83816e-07
4.29659e-07
4.80831e-07
5.36865e-07
5.9718e-07
6.61083e-07
7.27781e-07
7.96399e-07
8.66002e-07
9.35622e-07
1.00427e-06
1.07097e-06
1.13478e-06
1.19483e-06
1.25031e-06
1.30046e-06
1.34462e-06
1.38223e-06
1.41285e-06
1.43612e-06
1.45178e-06
1.45964e-06
5.10873e-07
5.32023e-07
5.62361e-07
6.00855e-07
6.4663e-07
6.98857e-07
7.56702e-07
8.19297e-07
8.85739e-07
9.55091e-07
1.0264e-06
1.0987e-06
1.17104e-06
1.2425e-06
1.3122e-06
1.37934e-06
1.44316e-06
1.503e-06
1.55825e-06
1.6084e-06
1.65301e-06
1.69171e-06
1.72422e-06
1.75034e-06
1.76996e-06
1.78303e-06
1.78953e-06
8.54604e-07
8.77447e-07
9.09705e-07
9.4982e-07
9.96419e-07
1.04823e-06
1.10408e-06
1.16283e-06
1.22345e-06
1.28496e-06
1.34647e-06
1.40717e-06
1.46636e-06
1.52339e-06
1.57773e-06
1.62892e-06
1.67658e-06
1.72039e-06
1.76011e-06
1.79556e-06
1.82659e-06
1.85314e-06
1.87515e-06
1.89263e-06
1.90561e-06
1.91416e-06
1.91836e-06
1.19362e-06
1.21265e-06
1.23915e-06
1.27151e-06
1.30831e-06
1.34828e-06
1.39028e-06
1.43332e-06
1.47654e-06
1.51921e-06
1.56073e-06
1.60062e-06
1.63849e-06
1.67406e-06
1.70711e-06
1.73752e-06
1.76518e-06
1.79006e-06
1.81217e-06
1.83152e-06
1.84816e-06
1.86216e-06
1.87359e-06
1.88254e-06
1.8891e-06
1.89337e-06
1.89545e-06
1.45379e-06
1.46578e-06
1.48222e-06
1.5019e-06
1.52377e-06
1.54688e-06
1.57045e-06
1.59384e-06
1.61653e-06
1.63814e-06
1.65839e-06
1.6771e-06
1.69416e-06
1.70955e-06
1.72327e-06
1.73537e-06
1.74593e-06
1.75503e-06
1.76279e-06
1.76931e-06
1.77469e-06
1.77904e-06
1.78246e-06
1.78504e-06
1.78687e-06
1.78802e-06
1.78856e-06
1.60243e-06
1.60707e-06
1.61323e-06
1.6203e-06
1.62771e-06
1.635e-06
1.64182e-06
1.6479e-06
1.65307e-06
1.65724e-06
1.66038e-06
1.66253e-06
1.66375e-06
1.66414e-06
1.66382e-06
1.66292e-06
1.66156e-06
1.65989e-06
1.65801e-06
1.65604e-06
1.65408e-06
1.65223e-06
1.65057e-06
1.64915e-06
1.64803e-06
1.64726e-06
1.64687e-06
1.64592e-06
1.64473e-06
1.64284e-06
1.64015e-06
1.6366e-06
1.63213e-06
1.62674e-06
1.62049e-06
1.61344e-06
1.60571e-06
1.59743e-06
1.58875e-06
1.57981e-06
1.57078e-06
1.5618e-06
1.55302e-06
1.54457e-06
1.53657e-06
1.52912e-06
1.52231e-06
1.51623e-06
1.51093e-06
1.50646e-06
1.50287e-06
1.50016e-06
1.49836e-06
1.49747e-06
1.61036e-06
1.60537e-06
1.59828e-06
1.58938e-06
1.57893e-06
1.56719e-06
1.55439e-06
1.54077e-06
1.52657e-06
1.512e-06
1.49728e-06
1.48261e-06
1.46817e-06
1.45412e-06
1.44063e-06
1.42781e-06
1.41579e-06
1.40466e-06
1.3945e-06
1.38539e-06
1.37736e-06
1.37046e-06
1.36472e-06
1.36014e-06
1.35673e-06
1.35448e-06
1.35337e-06
1.52555e-06
1.51853e-06
1.50868e-06
1.49653e-06
1.48253e-06
1.46711e-06
1.45063e-06
1.43345e-06
1.41586e-06
1.39814e-06
1.38054e-06
1.36327e-06
1.34651e-06
1.33042e-06
1.31514e-06
1.30079e-06
1.28746e-06
1.27523e-06
1.26415e-06
1.25428e-06
1.24565e-06
1.23827e-06
1.23216e-06
1.22731e-06
1.22371e-06
1.22135e-06
1.22018e-06
1.41491e-06
1.40718e-06
1.39639e-06
1.38316e-06
1.36803e-06
1.35148e-06
1.33391e-06
1.31571e-06
1.29721e-06
1.27872e-06
1.26048e-06
1.24271e-06
1.22559e-06
1.20925e-06
1.19383e-06
1.17943e-06
1.16611e-06
1.15394e-06
1.14297e-06
1.13323e-06
1.12474e-06
1.1175e-06
1.11152e-06
1.10678e-06
1.10328e-06
1.10098e-06
1.09985e-06
1.2961e-06
1.28837e-06
1.27761e-06
1.26447e-06
1.2495e-06
1.23321e-06
1.21601e-06
1.19828e-06
1.18031e-06
1.1624e-06
1.14481e-06
1.12773e-06
1.11132e-06
1.09573e-06
1.08106e-06
1.06739e-06
1.05478e-06
1.0433e-06
1.03296e-06
1.02381e-06
1.01584e-06
1.00906e-06
1.00346e-06
9.99038e-07
9.95768e-07
9.93623e-07
9.9257e-07
1.17919e-06
1.17187e-06
1.16169e-06
1.14928e-06
1.13518e-06
1.11987e-06
1.10375e-06
1.08718e-06
1.07045e-06
1.0538e-06
1.03748e-06
1.02166e-06
1.0065e-06
9.9212e-07
9.78608e-07
9.66039e-07
9.54469e-07
9.4394e-07
9.34478e-07
9.26103e-07
9.18821e-07
9.12632e-07
9.07529e-07
9.03497e-07
9.00518e-07
8.98566e-07
8.97607e-07
1.06942e-06
1.06269e-06
1.05335e-06
1.04197e-06
1.02906e-06
1.01507e-06
1.00036e-06
9.85248e-07
9.70017e-07
9.54887e-07
9.40068e-07
9.25728e-07
9.12e-07
8.9899e-07
8.86779e-07
8.75431e-07
8.64994e-07
8.55502e-07
8.46979e-07
8.39439e-07
8.32887e-07
8.27321e-07
8.22733e-07
8.1911e-07
8.16434e-07
8.14681e-07
8.1382e-07
9.69064e-07
9.62998e-07
9.54574e-07
9.44322e-07
9.32699e-07
9.20102e-07
9.06875e-07
8.933e-07
8.79619e-07
8.66043e-07
8.52759e-07
8.39914e-07
8.27625e-07
8.15985e-07
8.05067e-07
7.94926e-07
7.85602e-07
7.77126e-07
7.69518e-07
7.62789e-07
7.56943e-07
7.51978e-07
7.47886e-07
7.44656e-07
7.4227e-07
7.40707e-07
7.39939e-07
8.7873e-07
8.73314e-07
8.65795e-07
8.56647e-07
8.46277e-07
8.35043e-07
8.23249e-07
8.11146e-07
7.98947e-07
7.86852e-07
7.75024e-07
7.63592e-07
7.52659e-07
7.42307e-07
7.32599e-07
7.23583e-07
7.15296e-07
7.07763e-07
7.01001e-07
6.95021e-07
6.89826e-07
6.85414e-07
6.81778e-07
6.78906e-07
6.76784e-07
6.75394e-07
6.74712e-07
7.98109e-07
7.93299e-07
7.86622e-07
7.78498e-07
7.6929e-07
7.59313e-07
7.48833e-07
7.38078e-07
7.27245e-07
7.1651e-07
7.06015e-07
6.95872e-07
6.86174e-07
6.76992e-07
6.68381e-07
6.60384e-07
6.53033e-07
6.46351e-07
6.40354e-07
6.35049e-07
6.30441e-07
6.26527e-07
6.23301e-07
6.20753e-07
6.18871e-07
6.17637e-07
6.17032e-07
7.26457e-07
7.22195e-07
7.16279e-07
7.09078e-07
7.00916e-07
6.92071e-07
6.82773e-07
6.73226e-07
6.63617e-07
6.54097e-07
6.44792e-07
6.358e-07
6.27202e-07
6.19061e-07
6.11425e-07
6.04334e-07
5.97815e-07
5.91889e-07
5.86569e-07
5.81863e-07
5.77774e-07
5.74301e-07
5.71438e-07
5.69177e-07
5.67506e-07
5.6641e-07
5.65873e-07
6.62867e-07
6.59091e-07
6.53848e-07
6.47467e-07
6.40232e-07
6.32382e-07
6.24123e-07
6.1565e-07
6.07124e-07
5.9868e-07
5.90425e-07
5.82448e-07
5.7482e-07
5.67595e-07
5.60818e-07
5.54523e-07
5.48735e-07
5.43472e-07
5.38747e-07
5.34566e-07
5.30933e-07
5.27846e-07
5.25301e-07
5.2329e-07
5.21804e-07
5.20828e-07
5.20349e-07
6.06407e-07
6.03057e-07
5.98406e-07
5.92742e-07
5.86312e-07
5.79331e-07
5.71991e-07
5.64465e-07
5.56892e-07
5.49392e-07
5.42059e-07
5.34971e-07
5.28191e-07
5.21769e-07
5.15744e-07
5.10147e-07
5.04998e-07
5.00317e-07
4.96112e-07
4.92392e-07
4.89158e-07
4.8641e-07
4.84144e-07
4.82353e-07
4.81029e-07
4.8016e-07
4.79734e-07
5.56205e-07
5.53228e-07
5.49092e-07
5.4405e-07
5.38323e-07
5.32104e-07
5.2557e-07
5.18872e-07
5.12133e-07
5.05457e-07
4.98929e-07
4.92618e-07
4.8658e-07
4.80859e-07
4.75491e-07
4.70502e-07
4.65913e-07
4.61738e-07
4.57989e-07
4.5467e-07
4.51785e-07
4.49333e-07
4.47311e-07
4.45712e-07
4.44531e-07
4.43755e-07
4.43374e-07
5.11479e-07
5.08823e-07
5.05131e-07
5.00629e-07
4.95512e-07
4.89963e-07
4.84135e-07
4.78161e-07
4.7215e-07
4.66194e-07
4.60368e-07
4.54735e-07
4.49344e-07
4.44236e-07
4.3944e-07
4.34983e-07
4.30882e-07
4.2715e-07
4.23798e-07
4.20831e-07
4.1825e-07
4.16057e-07
4.14247e-07
4.12818e-07
4.1176e-07
4.11066e-07
4.10725e-07
4.71518e-07
4.69142e-07
4.65835e-07
4.61802e-07
4.57225e-07
4.52264e-07
4.47054e-07
4.41712e-07
4.36337e-07
4.3101e-07
4.25798e-07
4.20757e-07
4.15931e-07
4.11357e-07
4.07063e-07
4.0307e-07
3.99395e-07
3.96051e-07
3.93047e-07
3.90386e-07
3.88073e-07
3.86105e-07
3.84483e-07
3.832e-07
3.82251e-07
3.81628e-07
3.81322e-07
4.35717e-07
4.3358e-07
4.30611e-07
4.26995e-07
4.22894e-07
4.18448e-07
4.1378e-07
4.08992e-07
4.04173e-07
3.99395e-07
3.9472e-07
3.90197e-07
3.85866e-07
3.8176e-07
3.77904e-07
3.74318e-07
3.71017e-07
3.68013e-07
3.65312e-07
3.62921e-07
3.60841e-07
3.59072e-07
3.57613e-07
3.56459e-07
3.55606e-07
3.55046e-07
3.5477e-07
4.03545e-07
4.01625e-07
3.9896e-07
3.95713e-07
3.9203e-07
3.88037e-07
3.83842e-07
3.7954e-07
3.75208e-07
3.70912e-07
3.66708e-07
3.62639e-07
3.58742e-07
3.55046e-07
3.51575e-07
3.48346e-07
3.45373e-07
3.42667e-07
3.40234e-07
3.38079e-07
3.36204e-07
3.3461e-07
3.33294e-07
3.32254e-07
3.31484e-07
3.30979e-07
3.30731e-07
3.74576e-07
3.72849e-07
3.7045e-07
3.67527e-07
3.64211e-07
3.60615e-07
3.56837e-07
3.5296e-07
3.49057e-07
3.45185e-07
3.41394e-07
3.37724e-07
3.34209e-07
3.30874e-07
3.27741e-07
3.24826e-07
3.22142e-07
3.19698e-07
3.17501e-07
3.15554e-07
3.1386e-07
3.12419e-07
3.1123e-07
3.1029e-07
3.09595e-07
3.09138e-07
3.08913e-07
3.48427e-07
3.46869e-07
3.44704e-07
3.42067e-07
3.39074e-07
3.35827e-07
3.32415e-07
3.28914e-07
3.25387e-07
3.21888e-07
3.18461e-07
3.15143e-07
3.11964e-07
3.08948e-07
3.06114e-07
3.03476e-07
3.01047e-07
2.98834e-07
2.96845e-07
2.95082e-07
2.93548e-07
2.92243e-07
2.91166e-07
2.90314e-07
2.89684e-07
2.8927e-07
2.89067e-07
3.24765e-07
3.23355e-07
3.21397e-07
3.19011e-07
3.16303e-07
3.13365e-07
3.10276e-07
3.07106e-07
3.03912e-07
3.00742e-07
2.97637e-07
2.94631e-07
2.91749e-07
2.89014e-07
2.86444e-07
2.84051e-07
2.81848e-07
2.7984e-07
2.78035e-07
2.76435e-07
2.75042e-07
2.73858e-07
2.7288e-07
2.72106e-07
2.71534e-07
2.71158e-07
2.70973e-07
3.03301e-07
3.02023e-07
3.00248e-07
2.98084e-07
2.95628e-07
2.92962e-07
2.9016e-07
2.87283e-07
2.84383e-07
2.81505e-07
2.78686e-07
2.75954e-07
2.73336e-07
2.70851e-07
2.68515e-07
2.6634e-07
2.64336e-07
2.62511e-07
2.60869e-07
2.59413e-07
2.58146e-07
2.57068e-07
2.56179e-07
2.55475e-07
2.54954e-07
2.54612e-07
2.54443e-07
2.83787e-07
2.82626e-07
2.81012e-07
2.79046e-07
2.76813e-07
2.74389e-07
2.71841e-07
2.69223e-07
2.66585e-07
2.63966e-07
2.614e-07
2.58913e-07
2.56529e-07
2.54266e-07
2.52138e-07
2.50156e-07
2.48331e-07
2.46667e-07
2.4517e-07
2.43843e-07
2.42688e-07
2.41705e-07
2.40894e-07
2.40252e-07
2.39777e-07
2.39465e-07
2.39311e-07
2.66005e-07
2.64948e-07
2.63478e-07
2.61686e-07
2.59652e-07
2.57444e-07
2.55121e-07
2.52735e-07
2.50329e-07
2.47941e-07
2.456e-07
2.43332e-07
2.41156e-07
2.3909e-07
2.37148e-07
2.35339e-07
2.33671e-07
2.32152e-07
2.30785e-07
2.29573e-07
2.28517e-07
2.27619e-07
2.26877e-07
2.26291e-07
2.25856e-07
2.25571e-07
2.25431e-07
2.49766e-07
2.48801e-07
2.47459e-07
2.45824e-07
2.43967e-07
2.4195e-07
2.39828e-07
2.37648e-07
2.35451e-07
2.33268e-07
2.31128e-07
2.29054e-07
2.27064e-07
2.25175e-07
2.23398e-07
2.21743e-07
2.20217e-07
2.18827e-07
2.17575e-07
2.16465e-07
2.15499e-07
2.14677e-07
2.13997e-07
2.1346e-07
2.13062e-07
2.12801e-07
2.12673e-07
2.34904e-07
2.34021e-07
2.32794e-07
2.31298e-07
2.29598e-07
2.27752e-07
2.25811e-07
2.23815e-07
2.21803e-07
2.19804e-07
2.17843e-07
2.15943e-07
2.1412e-07
2.12389e-07
2.1076e-07
2.09242e-07
2.07843e-07
2.06568e-07
2.0542e-07
2.04402e-07
2.03515e-07
2.02761e-07
2.02138e-07
2.01644e-07
2.01279e-07
2.0104e-07
2.00922e-07
2.21271e-07
2.20462e-07
2.19337e-07
2.17966e-07
2.16407e-07
2.14715e-07
2.12934e-07
2.11103e-07
2.09256e-07
2.07422e-07
2.05623e-07
2.03878e-07
2.02204e-07
2.00614e-07
1.99118e-07
1.97723e-07
1.96438e-07
1.95266e-07
1.94211e-07
1.93275e-07
1.9246e-07
1.91766e-07
1.91193e-07
1.9074e-07
1.90404e-07
1.90183e-07
1.90075e-07
2.08738e-07
2.07995e-07
2.06962e-07
2.05702e-07
2.0427e-07
2.02714e-07
2.01077e-07
1.99394e-07
1.97697e-07
1.96009e-07
1.94354e-07
1.92749e-07
1.91209e-07
1.89746e-07
1.88368e-07
1.87085e-07
1.85901e-07
1.84822e-07
1.8385e-07
1.82988e-07
1.82237e-07
1.81597e-07
1.81069e-07
1.80652e-07
1.80342e-07
1.80139e-07
1.80039e-07
1.97188e-07
1.96504e-07
1.95553e-07
1.94393e-07
1.93074e-07
1.91642e-07
1.90134e-07
1.88584e-07
1.87019e-07
1.85464e-07
1.83939e-07
1.82459e-07
1.81039e-07
1.79689e-07
1.78418e-07
1.77234e-07
1.76142e-07
1.75145e-07
1.74248e-07
1.73452e-07
1.72759e-07
1.72169e-07
1.71681e-07
1.71295e-07
1.7101e-07
1.70822e-07
1.7073e-07
1.86516e-07
1.85885e-07
1.85008e-07
1.83937e-07
1.82721e-07
1.81398e-07
1.80006e-07
1.78575e-07
1.7713e-07
1.75694e-07
1.74285e-07
1.72917e-07
1.71605e-07
1.70357e-07
1.69182e-07
1.68087e-07
1.67077e-07
1.66155e-07
1.65325e-07
1.64589e-07
1.63947e-07
1.63401e-07
1.6295e-07
1.62593e-07
1.62328e-07
1.62155e-07
1.62069e-07
1.76628e-07
1.76044e-07
1.75233e-07
1.74243e-07
1.73117e-07
1.71894e-07
1.70606e-07
1.69281e-07
1.67944e-07
1.66614e-07
1.65309e-07
1.64043e-07
1.62827e-07
1.61671e-07
1.60582e-07
1.59567e-07
1.5863e-07
1.57775e-07
1.57006e-07
1.56323e-07
1.55728e-07
1.55221e-07
1.54803e-07
1.54471e-07
1.54226e-07
1.54065e-07
1.53986e-07
1.67435e-07
1.66894e-07
1.66142e-07
1.65224e-07
1.64181e-07
1.63046e-07
1.61852e-07
1.60623e-07
1.59382e-07
1.58147e-07
1.56936e-07
1.5576e-07
1.54631e-07
1.53556e-07
1.52545e-07
1.51601e-07
1.5073e-07
1.49936e-07
1.4922e-07
1.48585e-07
1.48032e-07
1.47561e-07
1.47172e-07
1.46864e-07
1.46635e-07
1.46485e-07
1.46412e-07
1.58858e-07
1.58356e-07
1.57657e-07
1.56803e-07
1.55833e-07
1.54778e-07
1.53667e-07
1.52523e-07
1.51369e-07
1.5022e-07
1.49092e-07
1.47997e-07
1.46945e-07
1.45944e-07
1.45001e-07
1.44122e-07
1.4331e-07
1.42569e-07
1.41902e-07
1.4131e-07
1.40795e-07
1.40355e-07
1.39992e-07
1.39705e-07
1.39492e-07
1.39352e-07
1.39284e-07
1.50822e-07
1.50354e-07
1.49702e-07
1.48906e-07
1.48001e-07
1.47017e-07
1.4598e-07
1.44913e-07
1.43835e-07
1.42763e-07
1.41709e-07
1.40686e-07
1.39703e-07
1.38768e-07
1.37886e-07
1.37064e-07
1.36305e-07
1.35613e-07
1.34989e-07
1.34435e-07
1.33953e-07
1.33542e-07
1.33203e-07
1.32934e-07
1.32735e-07
1.32604e-07
1.3254e-07
1.43255e-07
1.42816e-07
1.42207e-07
1.41462e-07
1.40615e-07
1.39694e-07
1.38724e-07
1.37724e-07
1.36715e-07
1.3571e-07
1.34722e-07
1.33763e-07
1.3284e-07
1.31963e-07
1.31136e-07
1.30365e-07
1.29653e-07
1.29004e-07
1.28419e-07
1.27899e-07
1.27447e-07
1.27061e-07
1.26743e-07
1.26491e-07
1.26304e-07
1.26181e-07
1.26121e-07
1.36087e-07
1.35676e-07
1.35103e-07
1.34404e-07
1.33608e-07
1.32743e-07
1.3183e-07
1.3089e-07
1.2994e-07
1.28994e-07
1.28064e-07
1.27161e-07
1.26293e-07
1.25468e-07
1.24689e-07
1.23963e-07
1.23293e-07
1.22682e-07
1.22131e-07
1.21642e-07
1.21216e-07
1.20853e-07
1.20553e-07
1.20315e-07
1.20139e-07
1.20024e-07
1.19967e-07
1.29253e-07
1.28864e-07
1.28324e-07
1.27664e-07
1.26913e-07
1.26095e-07
1.25233e-07
1.24344e-07
1.23446e-07
1.22552e-07
1.21673e-07
1.2082e-07
1.2e-07
1.19219e-07
1.18484e-07
1.17798e-07
1.17164e-07
1.16586e-07
1.16065e-07
1.15603e-07
1.152e-07
1.14856e-07
1.14573e-07
1.14348e-07
1.14182e-07
1.14072e-07
1.14018e-07
1.22682e-07
1.22313e-07
1.218e-07
1.21173e-07
1.20459e-07
1.19683e-07
1.18864e-07
1.18021e-07
1.17169e-07
1.1632e-07
1.15486e-07
1.14676e-07
1.13897e-07
1.13156e-07
1.12458e-07
1.11806e-07
1.11204e-07
1.10655e-07
1.1016e-07
1.09721e-07
1.09338e-07
1.09012e-07
1.08742e-07
1.08529e-07
1.08371e-07
1.08267e-07
1.08216e-07
1.16302e-07
1.1595e-07
1.15461e-07
1.14863e-07
1.14183e-07
1.13442e-07
1.12662e-07
1.11857e-07
1.11044e-07
1.10235e-07
1.09439e-07
1.08666e-07
1.07922e-07
1.07215e-07
1.06548e-07
1.05926e-07
1.05351e-07
1.04827e-07
1.04354e-07
1.03935e-07
1.03569e-07
1.03257e-07
1.03e-07
1.02796e-07
1.02645e-07
1.02546e-07
1.02497e-07
1.10051e-07
1.09714e-07
1.09245e-07
1.08671e-07
1.08019e-07
1.07309e-07
1.06559e-07
1.05788e-07
1.05007e-07
1.0423e-07
1.03466e-07
1.02724e-07
1.0201e-07
1.01331e-07
1.00691e-07
1.00093e-07
9.9541e-08
9.90372e-08
9.85832e-08
9.81801e-08
9.78287e-08
9.75294e-08
9.7282e-08
9.70861e-08
9.69409e-08
9.68456e-08
9.67986e-08
1.03863e-07
1.03537e-07
1.03084e-07
1.02531e-07
1.019e-07
1.01214e-07
1.00491e-07
9.97452e-08
9.89913e-08
9.82404e-08
9.75022e-08
9.67849e-08
9.60951e-08
9.54384e-08
9.48194e-08
9.42417e-08
9.37083e-08
9.32213e-08
9.27824e-08
9.23928e-08
9.20532e-08
9.17638e-08
9.15247e-08
9.13354e-08
9.11951e-08
9.1103e-08
9.10576e-08
9.76673e-08
9.73508e-08
9.69102e-08
9.63718e-08
9.57589e-08
9.50916e-08
9.43876e-08
9.36623e-08
9.29287e-08
9.21981e-08
9.14798e-08
9.07818e-08
9.01106e-08
8.94716e-08
8.88693e-08
8.83073e-08
8.77882e-08
8.73145e-08
8.68875e-08
8.65086e-08
8.61783e-08
8.58969e-08
8.56644e-08
8.54803e-08
8.5344e-08
8.52544e-08
8.52103e-08
9.13968e-08
9.10868e-08
9.0655e-08
9.01275e-08
8.95269e-08
8.8873e-08
8.81832e-08
8.74725e-08
8.67537e-08
8.60379e-08
8.53341e-08
8.46503e-08
8.39928e-08
8.3367e-08
8.27772e-08
8.22268e-08
8.17187e-08
8.1255e-08
8.08372e-08
8.04664e-08
8.01432e-08
7.9868e-08
7.96406e-08
7.94606e-08
7.93273e-08
7.92398e-08
7.91967e-08
8.49859e-08
8.46799e-08
8.42538e-08
8.37333e-08
8.31407e-08
8.24956e-08
8.18151e-08
8.11141e-08
8.04052e-08
7.96993e-08
7.90056e-08
7.83316e-08
7.76837e-08
7.70672e-08
7.64863e-08
7.59445e-08
7.54444e-08
7.49881e-08
7.45771e-08
7.42124e-08
7.38948e-08
7.36243e-08
7.34009e-08
7.32241e-08
7.30931e-08
7.30072e-08
7.29649e-08
7.8377e-08
7.80732e-08
7.76502e-08
7.71336e-08
7.65455e-08
7.59054e-08
7.52304e-08
7.45353e-08
7.38326e-08
7.31331e-08
7.24459e-08
7.17786e-08
7.11374e-08
7.05275e-08
6.99532e-08
6.94176e-08
6.89236e-08
6.8473e-08
6.80674e-08
6.77076e-08
6.73943e-08
6.71277e-08
6.69076e-08
6.67334e-08
6.66045e-08
6.65199e-08
6.64783e-08
7.15279e-08
7.1225e-08
7.08035e-08
7.02888e-08
6.9703e-08
6.90658e-08
6.83941e-08
6.77028e-08
6.70043e-08
6.63094e-08
6.56272e-08
6.49651e-08
6.43294e-08
6.37251e-08
6.31564e-08
6.26265e-08
6.2138e-08
6.16927e-08
6.12921e-08
6.09371e-08
6.06281e-08
6.03652e-08
6.01483e-08
5.99767e-08
5.98499e-08
5.97666e-08
5.97256e-08
6.44215e-08
6.41194e-08
6.36991e-08
6.3186e-08
6.26025e-08
6.19682e-08
6.13e-08
6.06128e-08
5.99191e-08
5.92296e-08
5.85533e-08
5.78975e-08
5.72685e-08
5.66711e-08
5.61094e-08
5.55866e-08
5.51049e-08
5.46664e-08
5.42721e-08
5.39229e-08
5.36192e-08
5.33611e-08
5.31482e-08
5.298e-08
5.28556e-08
5.2774e-08
5.27339e-08
5.7079e-08
5.67788e-08
5.63613e-08
5.58521e-08
5.52735e-08
5.46451e-08
5.39838e-08
5.33044e-08
5.26195e-08
5.19395e-08
5.12733e-08
5.06283e-08
5.00103e-08
4.94241e-08
4.88737e-08
4.83618e-08
4.78909e-08
4.74626e-08
4.70779e-08
4.67376e-08
4.64419e-08
4.61907e-08
4.59838e-08
4.58204e-08
4.56996e-08
4.56205e-08
4.55816e-08
4.95732e-08
4.92778e-08
4.88674e-08
4.83672e-08
4.77994e-08
4.71836e-08
4.65365e-08
4.58727e-08
4.52045e-08
4.45423e-08
4.38945e-08
4.32683e-08
4.26694e-08
4.21022e-08
4.15703e-08
4.10766e-08
4.06229e-08
4.02108e-08
3.98412e-08
3.95147e-08
3.92312e-08
3.89907e-08
3.87927e-08
3.86365e-08
3.85212e-08
3.84457e-08
3.84086e-08
4.20391e-08
4.17534e-08
4.13567e-08
4.08739e-08
4.03268e-08
3.97342e-08
3.91128e-08
3.84765e-08
3.78372e-08
3.7205e-08
3.65878e-08
3.59924e-08
3.5424e-08
3.48869e-08
3.43842e-08
3.39183e-08
3.3491e-08
3.31035e-08
3.27564e-08
3.24502e-08
3.21848e-08
3.19599e-08
3.17749e-08
3.16292e-08
3.15216e-08
3.14513e-08
3.14168e-08
3.46744e-08
3.44049e-08
3.40311e-08
3.35769e-08
3.30631e-08
3.25078e-08
3.19267e-08
3.13331e-08
3.07382e-08
3.01513e-08
2.95798e-08
2.90298e-08
2.8506e-08
2.80122e-08
2.7551e-08
2.71246e-08
2.67343e-08
2.6381e-08
2.60651e-08
2.57869e-08
2.55461e-08
2.53423e-08
2.5175e-08
2.50432e-08
2.49462e-08
2.48827e-08
2.48516e-08
2.77224e-08
2.74764e-08
2.71357e-08
2.67225e-08
2.6256e-08
2.57531e-08
2.52283e-08
2.46936e-08
2.41594e-08
2.36337e-08
2.31234e-08
2.26337e-08
2.21687e-08
2.17313e-08
2.1324e-08
2.09483e-08
2.06053e-08
2.02954e-08
2.00189e-08
1.97758e-08
1.95658e-08
1.93884e-08
1.92429e-08
1.91284e-08
1.90442e-08
1.89892e-08
1.89623e-08
2.14327e-08
2.12169e-08
2.09186e-08
2.05575e-08
2.01509e-08
1.97137e-08
1.92588e-08
1.87969e-08
1.83367e-08
1.78855e-08
1.7449e-08
1.70313e-08
1.6636e-08
1.62654e-08
1.59213e-08
1.56047e-08
1.53163e-08