/*--------------------------------*- C++ -*----------------------------------*\
| =========                 |                                                 |
| \\      /  F ield         | OpenFOAM: The Open Source CFD Toolbox           |
|  \\    /   O peration     | Version:  2106                                  |
|   \\  /    A nd           | Website:  www.openfoam.com                      |
|    \\/     M anipulation  |                                                 |
\*---------------------------------------------------------------------------*/
FoamFile
{
    version     2.0;
    format      ascii;
    arch        "LSB;label=32;scalar=64";
    class       volScalarField;
    location    "149.99958";
    object      C2H6_0;
}
// * * * * * * * * * * * * * * * * * * * * * * * * * * * * * * * * * * * * * //

dimensions      [0 0 0 0 0 0 0];

internalField   nonuniform List<scalar> 
3360
(
7.2521e-19
7.48546e-19
7.81021e-19
8.20744e-19
8.66059e-19
9.15481e-19
9.67664e-19
1.0214e-18
1.07561e-18
1.12933e-18
1.18175e-18
1.23217e-18
1.27999e-18
1.32477e-18
1.36615e-18
1.40389e-18
1.43784e-18
1.46792e-18
1.49416e-18
1.51663e-18
1.53547e-18
1.55085e-18
1.56301e-18
1.57217e-18
1.57862e-18
1.58263e-18
1.5845e-18
3.18131e-18
3.29823e-18
3.46324e-18
3.66872e-18
3.90838e-18
4.17674e-18
4.4689e-18
4.78035e-18
5.10693e-18
5.44469e-18
5.78983e-18
6.13868e-18
6.4876e-18
6.833e-18
7.17135e-18
7.49918e-18
7.81309e-18
8.10979e-18
8.38612e-18
8.63912e-18
8.86608e-18
9.0646e-18
9.23262e-18
9.3685e-18
9.47105e-18
9.53953e-18
9.57368e-18
9.98183e-18
1.04199e-17
1.10424e-17
1.18246e-17
1.2746e-17
1.37882e-17
1.49337e-17
1.61652e-17
1.74653e-17
1.88161e-17
2.01994e-17
2.15972e-17
2.29914e-17
2.43645e-17
2.56992e-17
2.69794e-17
2.819e-17
2.93175e-17
3.03502e-17
3.12784e-17
3.20947e-17
3.27937e-17
3.33723e-17
3.38297e-17
3.41669e-17
3.43868e-17
3.44938e-17
2.90699e-17
3.05137e-17
3.25792e-17
3.51923e-17
3.82914e-17
4.18186e-17
4.5716e-17
4.99238e-17
5.43789e-17
5.90153e-17
6.37648e-17
6.85578e-17
7.33252e-17
7.8e-17
8.25184e-17
8.68218e-17
9.08583e-17
9.45839e-17
9.79629e-17
1.00969e-16
1.03585e-16
1.058e-16
1.07615e-16
1.09034e-16
1.1007e-16
1.10739e-16
1.11062e-16
8.49309e-17
8.94857e-17
9.60137e-17
1.04292e-16
1.14132e-16
1.2535e-16
1.37761e-16
1.51166e-16
1.65353e-16
1.80101e-16
1.95179e-16
2.10355e-16
2.254e-16
2.40099e-16
2.54249e-16
2.67669e-16
2.80206e-16
2.91729e-16
3.02139e-16
3.11365e-16
3.19365e-16
3.26119e-16
3.31634e-16
3.35935e-16
3.39066e-16
3.41083e-16
3.42054e-16
2.50415e-16
2.64403e-16
2.84475e-16
3.09952e-16
3.40249e-16
3.74803e-16
4.13028e-16
4.54304e-16
4.97965e-16
5.43313e-16
5.89625e-16
6.36179e-16
6.82265e-16
7.27215e-16
7.70412e-16
8.11309e-16
8.4944e-16
8.84425e-16
9.15976e-16
9.4389e-16
9.6805e-16
9.88418e-16
1.00502e-15
1.01796e-15
1.02736e-15
1.03341e-15
1.03632e-15
7.43853e-16
7.86355e-16
8.47344e-16
9.24757e-16
1.01681e-15
1.12177e-15
1.23784e-15
1.3631e-15
1.4955e-15
1.6329e-15
1.7731e-15
1.91389e-15
2.05313e-15
2.18881e-15
2.31907e-15
2.44229e-15
2.55708e-15
2.66232e-15
2.75717e-15
2.84104e-15
2.9136e-15
2.97474e-15
3.02457e-15
3.06337e-15
3.09156e-15
3.1097e-15
3.11842e-15
2.2169e-15
2.34479e-15
2.52839e-15
2.76152e-15
3.03882e-15
3.35505e-15
3.70475e-15
4.08212e-15
4.48094e-15
4.89473e-15
5.31681e-15
5.74052e-15
6.15942e-15
6.56742e-15
6.95897e-15
7.32919e-15
7.67393e-15
7.98986e-15
8.27445e-15
8.52599e-15
8.7435e-15
8.92671e-15
9.07596e-15
9.19213e-15
9.27653e-15
9.33081e-15
9.35689e-15
6.62444e-15
7.00878e-15
7.56046e-15
8.26084e-15
9.0938e-15
1.00435e-14
1.10936e-14
1.22263e-14
1.34231e-14
1.46644e-14
1.593e-14
1.72002e-14
1.84554e-14
1.96776e-14
2.08502e-14
2.19586e-14
2.29904e-14
2.39359e-14
2.47874e-14
2.55399e-14
2.61906e-14
2.67386e-14
2.71851e-14
2.75326e-14
2.7785e-14
2.79474e-14
2.80254e-14
1.97952e-14
2.09462e-14
2.25987e-14
2.46968e-14
2.71921e-14
3.00371e-14
3.31824e-14
3.65752e-14
4.01594e-14
4.38762e-14
4.76655e-14
5.14675e-14
5.52241e-14
5.88811e-14
6.23888e-14
6.57037e-14
6.87891e-14
7.16153e-14
7.41601e-14
7.64085e-14
7.83521e-14
7.99887e-14
8.13217e-14
8.23589e-14
8.31122e-14
8.35966e-14
8.38294e-14
5.91786e-14
6.2624e-14
6.75692e-14
7.38466e-14
8.13108e-14
8.98191e-14
9.92227e-14
1.09363e-13
1.20072e-13
1.31174e-13
1.42488e-13
1.53837e-13
1.65046e-13
1.75955e-13
1.86415e-13
1.96298e-13
2.05494e-13
2.13915e-13
2.21497e-13
2.28194e-13
2.33983e-13
2.38856e-13
2.42825e-13
2.45913e-13
2.48156e-13
2.49598e-13
2.50291e-13
1.76736e-13
1.87021e-13
2.01782e-13
2.20516e-13
2.42788e-13
2.68168e-13
2.96211e-13
3.26442e-13
3.58356e-13
3.91428e-13
4.25121e-13
4.58903e-13
4.92257e-13
5.24704e-13
5.55804e-13
5.85176e-13
6.12496e-13
6.37506e-13
6.60014e-13
6.79889e-13
6.97062e-13
7.11516e-13
7.23283e-13
7.32436e-13
7.39081e-13
7.43354e-13
7.45406e-13
5.27194e-13
5.57837e-13
6.01802e-13
6.57576e-13
7.23846e-13
7.99325e-13
8.8267e-13
9.72458e-13
1.06718e-12
1.16528e-12
1.26515e-12
1.36521e-12
1.46394e-12
1.55992e-12
1.65186e-12
1.73864e-12
1.81931e-12
1.89312e-12
1.95952e-12
2.01813e-12
2.06874e-12
2.11133e-12
2.14599e-12
2.17294e-12
2.19251e-12
2.20508e-12
2.21112e-12
1.56778e-12
1.65865e-12
1.78897e-12
1.95422e-12
2.15044e-12
2.37376e-12
2.62017e-12
2.8854e-12
3.16497e-12
3.45421e-12
3.7484e-12
4.04288e-12
4.33317e-12
4.6151e-12
4.88493e-12
5.13937e-12
5.37571e-12
5.59178e-12
5.78598e-12
5.95727e-12
6.1051e-12
6.2294e-12
6.33051e-12
6.40909e-12
6.4661e-12
6.50272e-12
6.52031e-12
4.64465e-12
4.91255e-12
5.2965e-12
5.78292e-12
6.35993e-12
7.01589e-12
7.73873e-12
8.51576e-12
9.33364e-12
1.01786e-11
1.10368e-11
1.18945e-11
1.27389e-11
1.35578e-11
1.43405e-11
1.50776e-11
1.57614e-11
1.63858e-11
1.69465e-11
1.74405e-11
1.78665e-11
1.82244e-11
1.85152e-11
1.87411e-11
1.89049e-11
1.90101e-11
1.90606e-11
1.36769e-11
1.44589e-11
1.55788e-11
1.69959e-11
1.86745e-11
2.05799e-11
2.26759e-11
2.4925e-11
2.72878e-11
2.97242e-11
3.21939e-11
3.46576e-11
3.70781e-11
3.94213e-11
4.16567e-11
4.37583e-11
4.57047e-11
4.74793e-11
4.90702e-11
5.047e-11
5.16755e-11
5.2687e-11
5.35082e-11
5.41454e-11
5.4607e-11
5.49031e-11
5.50451e-11
3.99543e-11
4.22072e-11
4.54291e-11
4.94992e-11
5.43111e-11
5.97607e-11
6.57414e-11
7.21425e-11
7.88498e-11
8.57475e-11
9.27209e-11
9.96589e-11
1.06458e-10
1.13023e-10
1.19271e-10
1.25131e-10
1.30547e-10
1.35475e-10
1.39883e-10
1.43756e-10
1.47085e-10
1.49875e-10
1.52136e-10
1.53889e-10
1.55157e-10
1.55969e-10
1.56359e-10
1.15463e-10
1.21833e-10
1.30927e-10
1.4239e-10
1.55906e-10
1.71168e-10
1.87865e-10
2.05676e-10
2.24275e-10
2.43337e-10
2.6254e-10
2.81582e-10
3.00181e-10
3.18082e-10
3.35068e-10
3.50953e-10
3.65593e-10
3.7888e-10
3.9074e-10
4.01134e-10
4.10052e-10
4.1751e-10
4.23546e-10
4.28217e-10
4.31592e-10
4.33753e-10
4.34787e-10
3.29004e-10
3.46576e-10
3.71604e-10
4.03061e-10
4.40027e-10
4.81612e-10
5.26921e-10
5.75051e-10
6.25097e-10
6.76166e-10
7.274e-10
7.77993e-10
8.2721e-10
8.74404e-10
9.1902e-10
9.60605e-10
9.98808e-10
1.03338e-09
1.06415e-09
1.09105e-09
1.11407e-09
1.13329e-09
1.14882e-09
1.16081e-09
1.16946e-09
1.17499e-09
1.17764e-09
9.20453e-10
9.67403e-10
1.0341e-09
1.11762e-09
1.21537e-09
1.32483e-09
1.44353e-09
1.56898e-09
1.69878e-09
1.83057e-09
1.96215e-09
2.09146e-09
2.21669e-09
2.33626e-09
2.44884e-09
2.55338e-09
2.64908e-09
2.73539e-09
2.81199e-09
2.87877e-09
2.9358e-09
2.98328e-09
3.02157e-09
3.05109e-09
3.07235e-09
3.08593e-09
3.09241e-09
2.51626e-09
2.63691e-09
2.80775e-09
3.02084e-09
3.26904e-09
3.54556e-09
3.84377e-09
4.15724e-09
4.47976e-09
4.80546e-09
5.12891e-09
5.44521e-09
5.75005e-09
6.0398e-09
6.31146e-09
6.56272e-09
6.79191e-09
6.99793e-09
7.18022e-09
7.33871e-09
7.4737e-09
7.58586e-09
7.6761e-09
7.74555e-09
7.79551e-09
7.82735e-09
7.84253e-09
6.68489e-09
6.98111e-09
7.39915e-09
7.91833e-09
8.52007e-09
9.18683e-09
9.90188e-09
1.06492e-08
1.14138e-08
1.21817e-08
1.29403e-08
1.36783e-08
1.43863e-08
1.50562e-08
1.56818e-08
1.62581e-08
1.6782e-08
1.72514e-08
1.76656e-08
1.80247e-08
1.83299e-08
1.85829e-08
1.87861e-08
1.89422e-08
1.90543e-08
1.91257e-08
1.91597e-08
1.71678e-08
1.78598e-08
1.8833e-08
2.00365e-08
2.14247e-08
2.29549e-08
2.45871e-08
2.62837e-08
2.80102e-08
2.97352e-08
3.14309e-08
3.3073e-08
3.46413e-08
3.61193e-08
3.74942e-08
3.87567e-08
3.99006e-08
4.09227e-08
4.18221e-08
4.26001e-08
4.32599e-08
4.38058e-08
4.42435e-08
4.45793e-08
4.48202e-08
4.49733e-08
4.50462e-08
4.24323e-08
4.39679e-08
4.61215e-08
4.87747e-08
5.18217e-08
5.51648e-08
5.87136e-08
6.2385e-08
6.61037e-08
6.98025e-08
7.34228e-08
7.69147e-08
8.02372e-08
8.33576e-08
8.6251e-08
8.89e-08
9.12938e-08
9.34275e-08
9.53009e-08
9.69184e-08
9.82875e-08
9.94185e-08
1.00324e-07
1.01018e-07
1.01515e-07
1.01831e-07
1.01981e-07
1.00668e-07
1.03915e-07
1.08458e-07
1.14036e-07
1.2042e-07
1.27397e-07
1.34775e-07
1.42378e-07
1.5005e-07
1.57654e-07
1.6507e-07
1.72201e-07
1.78965e-07
1.853e-07
1.9116e-07
1.96512e-07
2.01338e-07
2.05631e-07
2.09394e-07
2.12638e-07
2.1538e-07
2.17642e-07
2.19452e-07
2.20836e-07
2.21828e-07
2.22457e-07
2.22756e-07
2.29121e-07
2.357e-07
2.44885e-07
2.56139e-07
2.68984e-07
2.82983e-07
2.97743e-07
3.1291e-07
3.28172e-07
3.43256e-07
3.57933e-07
3.7201e-07
3.85335e-07
3.97788e-07
4.09285e-07
4.19767e-07
4.29205e-07
4.37589e-07
4.44928e-07
4.51247e-07
4.56582e-07
4.6098e-07
4.64493e-07
4.67181e-07
4.69103e-07
4.70323e-07
4.70902e-07
5.00854e-07
5.13734e-07
5.31695e-07
5.53668e-07
5.78701e-07
6.05934e-07
6.34593e-07
6.63986e-07
6.93509e-07
7.22639e-07
7.50933e-07
7.7803e-07
8.03641e-07
8.27545e-07
8.49585e-07
8.69658e-07
8.87712e-07
9.03733e-07
9.17745e-07
9.298e-07
9.3997e-07
9.48348e-07
9.55037e-07
9.60151e-07
9.63807e-07
9.66124e-07
9.67225e-07
1.05329e-06
1.07791e-06
1.11221e-06
1.15414e-06
1.20189e-06
1.25379e-06
1.30836e-06
1.3643e-06
1.42044e-06
1.4758e-06
1.52954e-06
1.58098e-06
1.62958e-06
1.67491e-06
1.71669e-06
1.75472e-06
1.78892e-06
1.81925e-06
1.84576e-06
1.86856e-06
1.88779e-06
1.90362e-06
1.91626e-06
1.92591e-06
1.93281e-06
1.93719e-06
1.93926e-06
2.1318e-06
2.17812e-06
2.24272e-06
2.32174e-06
2.41176e-06
2.50971e-06
2.61282e-06
2.71862e-06
2.82495e-06
2.92993e-06
3.03199e-06
3.12982e-06
3.22236e-06
3.30882e-06
3.3886e-06
3.46133e-06
3.5268e-06
3.58493e-06
3.63581e-06
3.67959e-06
3.71655e-06
3.747e-06
3.77131e-06
3.7899e-06
3.80319e-06
3.81161e-06
3.8156e-06
4.13954e-06
4.22558e-06
4.34576e-06
4.49311e-06
4.66145e-06
4.84524e-06
5.03946e-06
5.2396e-06
5.44168e-06
5.64221e-06
5.83819e-06
6.02709e-06
6.20684e-06
6.37578e-06
6.53264e-06
6.67652e-06
6.80683e-06
6.92329e-06
7.02584e-06
7.11466e-06
7.1901e-06
7.25262e-06
7.30284e-06
7.34145e-06
7.36918e-06
7.38685e-06
7.39527e-06
7.65013e-06
7.80498e-06
8.02183e-06
8.28865e-06
8.59485e-06
8.93089e-06
9.28813e-06
9.65875e-06
1.00358e-05
1.04129e-05
1.07848e-05
1.11465e-05
1.14942e-05
1.18243e-05
1.21341e-05
1.24213e-05
1.26844e-05
1.29222e-05
1.31339e-05
1.33194e-05
1.34787e-05
1.36122e-05
1.37206e-05
1.38048e-05
1.3866e-05
1.39053e-05
1.39243e-05
1.33021e-05
1.35614e-05
1.3925e-05
1.43736e-05
1.48899e-05
1.54584e-05
1.60651e-05
1.66973e-05
1.73433e-05
1.79926e-05
1.8636e-05
1.92652e-05
1.98728e-05
2.04527e-05
2.09997e-05
2.15094e-05
2.19785e-05
2.24045e-05
2.27856e-05
2.31208e-05
2.341e-05
2.36533e-05
2.38516e-05
2.40063e-05
2.41191e-05
2.41919e-05
2.42271e-05
2.15498e-05
2.19358e-05
2.24768e-05
2.31431e-05
2.39086e-05
2.47499e-05
2.56455e-05
2.6576e-05
2.75239e-05
2.84735e-05
2.94107e-05
3.03235e-05
3.12011e-05
3.20349e-05
3.28174e-05
3.3543e-05
3.42074e-05
3.48075e-05
3.53415e-05
3.58089e-05
3.62099e-05
3.65456e-05
3.6818e-05
3.70294e-05
3.71827e-05
3.72814e-05
3.73288e-05
3.23478e-05
3.28434e-05
3.35353e-05
3.4383e-05
3.53507e-05
3.64064e-05
3.75212e-05
3.86691e-05
3.98274e-05
4.09761e-05
4.20983e-05
4.31795e-05
4.42081e-05
4.51745e-05
4.60718e-05
4.68949e-05
4.76404e-05
4.83069e-05
4.88941e-05
4.94029e-05
4.98354e-05
5.01942e-05
5.04827e-05
5.07049e-05
5.08648e-05
5.09669e-05
5.10157e-05
4.49341e-05
4.54776e-05
4.62322e-05
4.71501e-05
4.8189e-05
4.93113e-05
5.04838e-05
5.16775e-05
5.28677e-05
5.40337e-05
5.51587e-05
5.62292e-05
5.72349e-05
5.81684e-05
5.90247e-05
5.9801e-05
6.04964e-05
6.11112e-05
6.16473e-05
6.21072e-05
6.24944e-05
6.28128e-05
6.30667e-05
6.32606e-05
6.33992e-05
6.34871e-05
6.35288e-05
5.79767e-05
5.84908e-05
5.92006e-05
6.00579e-05
6.102e-05
6.20495e-05
6.3114e-05
6.41862e-05
6.52436e-05
6.62679e-05
6.72451e-05
6.81647e-05
6.90194e-05
6.98044e-05
7.05172e-05
7.11572e-05
7.17251e-05
7.22229e-05
7.26533e-05
7.30197e-05
7.3326e-05
7.35761e-05
7.37743e-05
7.39249e-05
7.40318e-05
7.40993e-05
7.41312e-05
7.00978e-05
7.05261e-05
7.11147e-05
7.18214e-05
7.2609e-05
7.34454e-05
7.43032e-05
7.51599e-05
7.59974e-05
7.68018e-05
7.75627e-05
7.8273e-05
7.89278e-05
7.95247e-05
8.00629e-05
8.05428e-05
8.09661e-05
8.13349e-05
8.16521e-05
8.19209e-05
8.21445e-05
8.23264e-05
8.247e-05
8.25787e-05
8.26558e-05
8.27042e-05
8.27271e-05
8.03627e-05
8.06844e-05
8.1125e-05
8.16519e-05
8.22361e-05
8.28531e-05
8.34824e-05
8.41071e-05
8.47144e-05
8.52943e-05
8.58399e-05
8.63464e-05
8.68111e-05
8.72328e-05
8.76114e-05
8.79478e-05
8.82434e-05
8.85003e-05
8.87206e-05
8.89068e-05
8.90614e-05
8.9187e-05
8.9286e-05
8.93609e-05
8.94139e-05
8.94472e-05
8.9463e-05
8.84184e-05
8.86405e-05
8.89441e-05
8.93061e-05
8.97062e-05
9.01274e-05
9.05555e-05
9.0979e-05
9.13892e-05
9.17797e-05
9.21459e-05
9.24851e-05
9.27955e-05
9.30765e-05
9.33284e-05
9.35518e-05
9.37479e-05
9.39181e-05
9.4064e-05
9.41873e-05
9.42897e-05
9.43728e-05
9.44384e-05
9.4488e-05
9.45232e-05
9.45453e-05
9.45557e-05
9.43501e-05
9.44925e-05
9.46869e-05
9.49184e-05
9.51738e-05
9.54421e-05
9.57142e-05
9.5983e-05
9.62429e-05
9.64899e-05
9.67212e-05
9.69352e-05
9.71309e-05
9.7308e-05
9.74667e-05
9.76074e-05
9.77309e-05
9.78382e-05
9.79302e-05
9.8008e-05
9.80727e-05
9.81253e-05
9.81668e-05
9.81982e-05
9.82205e-05
9.82346e-05
9.82412e-05
9.84672e-05
9.85515e-05
9.86665e-05
9.88033e-05
9.8954e-05
9.91121e-05
9.92722e-05
9.94302e-05
9.95828e-05
9.97277e-05
9.98633e-05
9.99886e-05
0.000100103
0.000100207
0.0001003
0.000100382
0.000100455
0.000100518
0.000100572
0.000100617
0.000100656
0.000100687
0.000100711
0.00010073
0.000100743
0.000100751
0.000100755
0.000101138
0.000101182
0.000101242
0.000101313
0.000101392
0.000101474
0.000101557
0.000101639
0.000101718
0.000101793
0.000101862
0.000101927
0.000101985
0.000102038
0.000102086
0.000102128
0.000102165
0.000102197
0.000102225
0.000102248
0.000102268
0.000102284
0.000102296
0.000102306
0.000102313
0.000102317
0.000102319
0.0001027
0.000102718
0.000102741
0.000102769
0.000102799
0.00010283
0.000102862
0.000102892
0.000102921
0.000102948
0.000102973
0.000102996
0.000103016
0.000103034
0.000103051
0.000103065
0.000103078
0.000103088
0.000103098
0.000103105
0.000103112
0.000103117
0.000103121
0.000103125
0.000103127
0.000103128
0.000103129
0.000103435
0.000103435
0.000103434
0.000103432
0.00010343
0.000103427
0.000103424
0.00010342
0.000103415
0.00010341
0.000103404
0.000103399
0.000103393
0.000103388
0.000103383
0.000103378
0.000103373
0.000103369
0.000103365
0.000103362
0.00010336
0.000103358
0.000103356
0.000103354
0.000103354
0.000103353
0.000103353
0.000103558
0.000103546
0.000103529
0.000103508
0.000103485
0.000103459
0.000103432
0.000103405
0.000103377
0.00010335
0.000103324
0.000103299
0.000103275
0.000103253
0.000103233
0.000103215
0.000103199
0.000103184
0.000103171
0.000103161
0.000103151
0.000103144
0.000103138
0.000103133
0.00010313
0.000103128
0.000103127
0.000103234
0.000103214
0.000103186
0.000103152
0.000103114
0.000103073
0.00010303
0.000102987
0.000102944
0.000102902
0.000102861
0.000102823
0.000102787
0.000102753
0.000102723
0.000102695
0.00010267
0.000102648
0.000102629
0.000102613
0.000102599
0.000102588
0.000102579
0.000102572
0.000102567
0.000102564
0.000102562
0.000102583
0.000102557
0.000102522
0.000102479
0.000102431
0.00010238
0.000102326
0.000102272
0.000102218
0.000102166
0.000102116
0.000102068
0.000102023
0.000101982
0.000101944
0.000101909
0.000101879
0.000101851
0.000101828
0.000101808
0.000101791
0.000101777
0.000101765
0.000101757
0.000101751
0.000101747
0.000101745
0.000101695
0.000101666
0.000101626
0.000101578
0.000101523
0.000101464
0.000101403
0.000101341
0.00010128
0.000101221
0.000101163
0.000101109
0.000101058
0.000101011
0.000100968
0.000100929
0.000100894
0.000100863
0.000100836
0.000100813
0.000100794
0.000100778
0.000100765
0.000100756
0.000100749
0.000100744
0.000100742
0.000100639
0.000100607
0.000100564
0.000100511
0.000100452
0.000100388
0.000100322
0.000100255
0.000100189
0.000100124
0.000100062
0.000100003
9.99482e-05
9.98971e-05
9.98505e-05
9.98082e-05
9.97704e-05
9.9737e-05
9.97078e-05
9.96829e-05
9.96618e-05
9.96445e-05
9.96307e-05
9.96202e-05
9.96126e-05
9.96078e-05
9.96056e-05
9.94621e-05
9.9429e-05
9.93832e-05
9.93278e-05
9.92655e-05
9.91986e-05
9.91291e-05
9.90588e-05
9.89891e-05
9.89211e-05
9.88558e-05
9.87939e-05
9.87359e-05
9.86822e-05
9.8633e-05
9.85886e-05
9.85487e-05
9.85136e-05
9.84829e-05
9.84566e-05
9.84344e-05
9.84162e-05
9.84016e-05
9.83905e-05
9.83825e-05
9.83775e-05
9.83751e-05
9.82032e-05
9.81691e-05
9.81219e-05
9.80648e-05
9.80005e-05
9.79314e-05
9.78598e-05
9.77872e-05
9.77152e-05
9.7645e-05
9.75776e-05
9.75137e-05
9.74539e-05
9.73984e-05
9.73477e-05
9.73017e-05
9.72606e-05
9.72243e-05
9.71926e-05
9.71654e-05
9.71425e-05
9.71236e-05
9.71086e-05
9.70971e-05
9.70889e-05
9.70836e-05
9.70812e-05
9.689e-05
9.68552e-05
9.68072e-05
9.6749e-05
9.66836e-05
9.66133e-05
9.65403e-05
9.64664e-05
9.63931e-05
9.63216e-05
9.62529e-05
9.61878e-05
9.61268e-05
9.60704e-05
9.60187e-05
9.59719e-05
9.593e-05
9.58929e-05
9.58606e-05
9.58329e-05
9.58096e-05
9.57904e-05
9.5775e-05
9.57633e-05
9.57549e-05
9.57496e-05
9.5747e-05
9.55435e-05
9.55085e-05
9.546e-05
9.54014e-05
9.53353e-05
9.52645e-05
9.51908e-05
9.51163e-05
9.50423e-05
9.49702e-05
9.49009e-05
9.48352e-05
9.47737e-05
9.47167e-05
9.46646e-05
9.46173e-05
9.45751e-05
9.45377e-05
9.45051e-05
9.44771e-05
9.44536e-05
9.44342e-05
9.44187e-05
9.44068e-05
9.43984e-05
9.4393e-05
9.43904e-05
9.41798e-05
9.41447e-05
9.40962e-05
9.40375e-05
9.39714e-05
9.39003e-05
9.38266e-05
9.37519e-05
9.36778e-05
9.36056e-05
9.35362e-05
9.34704e-05
9.34088e-05
9.33517e-05
9.32995e-05
9.32521e-05
9.32098e-05
9.31724e-05
9.31397e-05
9.31117e-05
9.30881e-05
9.30687e-05
9.30531e-05
9.30413e-05
9.30328e-05
9.30274e-05
9.30248e-05
9.28111e-05
9.27761e-05
9.27278e-05
9.26693e-05
9.26034e-05
9.25327e-05
9.24592e-05
9.23848e-05
9.2311e-05
9.2239e-05
9.21699e-05
9.21044e-05
9.2043e-05
9.19861e-05
9.19341e-05
9.18869e-05
9.18447e-05
9.18074e-05
9.17749e-05
9.1747e-05
9.17235e-05
9.17041e-05
9.16887e-05
9.16768e-05
9.16684e-05
9.1663e-05
9.16605e-05
9.14465e-05
9.14118e-05
9.13638e-05
9.13058e-05
9.12404e-05
9.11703e-05
9.10974e-05
9.10236e-05
9.09503e-05
9.0879e-05
9.08104e-05
9.07454e-05
9.06845e-05
9.06281e-05
9.05764e-05
9.05297e-05
9.04878e-05
9.04508e-05
9.04186e-05
9.03909e-05
9.03676e-05
9.03484e-05
9.0333e-05
9.03213e-05
9.03129e-05
9.03076e-05
9.03051e-05
9.00929e-05
9.00586e-05
9.00112e-05
8.99538e-05
8.98892e-05
8.98198e-05
8.97477e-05
8.96747e-05
8.96024e-05
8.95318e-05
8.9464e-05
8.93997e-05
8.93395e-05
8.92838e-05
8.92327e-05
8.91865e-05
8.91451e-05
8.91086e-05
8.90767e-05
8.90493e-05
8.90262e-05
8.90073e-05
8.89921e-05
8.89805e-05
8.89722e-05
8.8967e-05
8.89645e-05
8.87557e-05
8.87218e-05
8.86751e-05
8.86185e-05
8.85547e-05
8.84863e-05
8.84152e-05
8.83433e-05
8.82719e-05
8.82023e-05
8.81355e-05
8.80721e-05
8.80127e-05
8.79578e-05
8.79074e-05
8.78619e-05
8.78211e-05
8.7785e-05
8.77536e-05
8.77266e-05
8.77039e-05
8.76852e-05
8.76702e-05
8.76588e-05
8.76506e-05
8.76455e-05
8.7643e-05
8.74386e-05
8.74053e-05
8.73593e-05
8.73036e-05
8.72408e-05
8.71735e-05
8.71036e-05
8.70327e-05
8.69625e-05
8.68941e-05
8.68283e-05
8.67659e-05
8.67075e-05
8.66535e-05
8.66039e-05
8.65591e-05
8.6519e-05
8.64835e-05
8.64526e-05
8.64261e-05
8.64037e-05
8.63853e-05
8.63706e-05
8.63594e-05
8.63514e-05
8.63462e-05
8.63438e-05
8.61445e-05
8.61118e-05
8.60666e-05
8.60119e-05
8.59503e-05
8.58841e-05
8.58154e-05
8.57459e-05
8.56769e-05
8.56096e-05
8.5545e-05
8.54838e-05
8.54264e-05
8.53733e-05
8.53247e-05
8.52807e-05
8.52413e-05
8.52065e-05
8.51761e-05
8.51501e-05
8.51281e-05
8.51101e-05
8.50956e-05
8.50846e-05
8.50767e-05
8.50717e-05
8.50693e-05
8.48756e-05
8.48435e-05
8.47992e-05
8.47455e-05
8.46851e-05
8.46202e-05
8.45528e-05
8.44845e-05
8.44169e-05
8.43509e-05
8.42876e-05
8.42275e-05
8.41713e-05
8.41192e-05
8.40715e-05
8.40284e-05
8.39897e-05
8.39556e-05
8.39258e-05
8.39003e-05
8.38788e-05
8.3861e-05
8.38469e-05
8.38361e-05
8.38283e-05
8.38234e-05
8.38211e-05
8.36333e-05
8.36019e-05
8.35584e-05
8.35058e-05
8.34466e-05
8.3383e-05
8.3317e-05
8.32501e-05
8.31839e-05
8.31193e-05
8.30572e-05
8.29984e-05
8.29433e-05
8.28923e-05
8.28456e-05
8.28033e-05
8.27655e-05
8.2732e-05
8.27029e-05
8.26779e-05
8.26568e-05
8.26394e-05
8.26256e-05
8.2615e-05
8.26074e-05
8.26026e-05
8.26003e-05
8.24186e-05
8.23878e-05
8.23453e-05
8.22938e-05
8.22358e-05
8.21736e-05
8.2109e-05
8.20436e-05
8.19787e-05
8.19155e-05
8.18548e-05
8.17972e-05
8.17433e-05
8.16934e-05
8.16477e-05
8.16063e-05
8.15693e-05
8.15366e-05
8.15081e-05
8.14836e-05
8.1463e-05
8.1446e-05
8.14325e-05
8.14221e-05
8.14147e-05
8.141e-05
8.14078e-05
8.12322e-05
8.12021e-05
8.11605e-05
8.11101e-05
8.10535e-05
8.09926e-05
8.09294e-05
8.08655e-05
8.08021e-05
8.07402e-05
8.06809e-05
8.06246e-05
8.05719e-05
8.05231e-05
8.04784e-05
8.0438e-05
8.04018e-05
8.03699e-05
8.0342e-05
8.03181e-05
8.02979e-05
8.02813e-05
8.02681e-05
8.0258e-05
8.02507e-05
8.02461e-05
8.02439e-05
8.00745e-05
8.00451e-05
8.00045e-05
7.99553e-05
7.98999e-05
7.98404e-05
7.97787e-05
7.97162e-05
7.96543e-05
7.95939e-05
7.95359e-05
7.94809e-05
7.94294e-05
7.93818e-05
7.93382e-05
7.92987e-05
7.92633e-05
7.92321e-05
7.92049e-05
7.91815e-05
7.91619e-05
7.91457e-05
7.91327e-05
7.91228e-05
7.91158e-05
7.91113e-05
7.91091e-05
7.89459e-05
7.89172e-05
7.88775e-05
7.88294e-05
7.87754e-05
7.87174e-05
7.86571e-05
7.85961e-05
7.85356e-05
7.84767e-05
7.84201e-05
7.83664e-05
7.83162e-05
7.82697e-05
7.82271e-05
7.81886e-05
7.81541e-05
7.81236e-05
7.8097e-05
7.80742e-05
7.8055e-05
7.80392e-05
7.80266e-05
7.8017e-05
7.80101e-05
7.80057e-05
7.80036e-05
7.78464e-05
7.78184e-05
7.77797e-05
7.77329e-05
7.76801e-05
7.76235e-05
7.75648e-05
7.75053e-05
7.74463e-05
7.73888e-05
7.73336e-05
7.72813e-05
7.72323e-05
7.71869e-05
7.71454e-05
7.71078e-05
7.70742e-05
7.70445e-05
7.70186e-05
7.69964e-05
7.69776e-05
7.69622e-05
7.69499e-05
7.69405e-05
7.69338e-05
7.69295e-05
7.69275e-05
7.67764e-05
7.67491e-05
7.67114e-05
7.66657e-05
7.66143e-05
7.65591e-05
7.65019e-05
7.64439e-05
7.63864e-05
7.63304e-05
7.62766e-05
7.62256e-05
7.61779e-05
7.61337e-05
7.60933e-05
7.60566e-05
7.60239e-05
7.5995e-05
7.59697e-05
7.59481e-05
7.59298e-05
7.59148e-05
7.59029e-05
7.58937e-05
7.58871e-05
7.5883e-05
7.5881e-05
7.57359e-05
7.57094e-05
7.56726e-05
7.56282e-05
7.55781e-05
7.55244e-05
7.54686e-05
7.54122e-05
7.53562e-05
7.53017e-05
7.52493e-05
7.51997e-05
7.51533e-05
7.51103e-05
7.50709e-05
7.50353e-05
7.50034e-05
7.49752e-05
7.49507e-05
7.49296e-05
7.49119e-05
7.48973e-05
7.48856e-05
7.48767e-05
7.48703e-05
7.48663e-05
7.48644e-05
7.47253e-05
7.46995e-05
7.46637e-05
7.46205e-05
7.45718e-05
7.45196e-05
7.44653e-05
7.44105e-05
7.4356e-05
7.4303e-05
7.42521e-05
7.42039e-05
7.41587e-05
7.41169e-05
7.40786e-05
7.4044e-05
7.4013e-05
7.39857e-05
7.39618e-05
7.39413e-05
7.39241e-05
7.39099e-05
7.38986e-05
7.38899e-05
7.38837e-05
7.38798e-05
7.38779e-05
7.37449e-05
7.37198e-05
7.36851e-05
7.36431e-05
7.35958e-05
7.35451e-05
7.34924e-05
7.34391e-05
7.33863e-05
7.33348e-05
7.32854e-05
7.32386e-05
7.31947e-05
7.31541e-05
7.3117e-05
7.30834e-05
7.30533e-05
7.30268e-05
7.30036e-05
7.29838e-05
7.2967e-05
7.29533e-05
7.29423e-05
7.29339e-05
7.29279e-05
7.2924e-05
7.29222e-05
7.27953e-05
7.27709e-05
7.27373e-05
7.26966e-05
7.26507e-05
7.26015e-05
7.25505e-05
7.24988e-05
7.24476e-05
7.23977e-05
7.23498e-05
7.23045e-05
7.2262e-05
7.22227e-05
7.21867e-05
7.21541e-05
7.2125e-05
7.20993e-05
7.20768e-05
7.20576e-05
7.20414e-05
7.20281e-05
7.20174e-05
7.20093e-05
7.20035e-05
7.19998e-05
7.1998e-05
7.18772e-05
7.18537e-05
7.18211e-05
7.17817e-05
7.17374e-05
7.16898e-05
7.16404e-05
7.15904e-05
7.15409e-05
7.14926e-05
7.14463e-05
7.14024e-05
7.13614e-05
7.13234e-05
7.12886e-05
7.12571e-05
7.1229e-05
7.12041e-05
7.11824e-05
7.11638e-05
7.11482e-05
7.11353e-05
7.1125e-05
7.11171e-05
7.11115e-05
7.1108e-05
7.11063e-05
7.09918e-05
7.0969e-05
7.09376e-05
7.08996e-05
7.08568e-05
7.08109e-05
7.07632e-05
7.0715e-05
7.06672e-05
7.06207e-05
7.0576e-05
7.05337e-05
7.04941e-05
7.04575e-05
7.0424e-05
7.03936e-05
7.03665e-05
7.03425e-05
7.03216e-05
7.03037e-05
7.02886e-05
7.02762e-05
7.02663e-05
7.02587e-05
7.02533e-05
7.02499e-05
7.02482e-05
7.01402e-05
7.01184e-05
7.00881e-05
7.00515e-05
7.00104e-05
6.99662e-05
6.99204e-05
6.98741e-05
6.98281e-05
6.97834e-05
6.97405e-05
6.96998e-05
6.96617e-05
6.96265e-05
6.95943e-05
6.95652e-05
6.95391e-05
6.95161e-05
6.94961e-05
6.94788e-05
6.94644e-05
6.94524e-05
6.94429e-05
6.94357e-05
6.94305e-05
6.94272e-05
6.94256e-05
6.93243e-05
6.93033e-05
6.92744e-05
6.92393e-05
6.91999e-05
6.91576e-05
6.91137e-05
6.90693e-05
6.90253e-05
6.89825e-05
6.89414e-05
6.89025e-05
6.88661e-05
6.88324e-05
6.88016e-05
6.87737e-05
6.87488e-05
6.87268e-05
6.87076e-05
6.86912e-05
6.86773e-05
6.86659e-05
6.86568e-05
6.86499e-05
6.86449e-05
6.86418e-05
6.86403e-05
6.8546e-05
6.8526e-05
6.84984e-05
6.84649e-05
6.84274e-05
6.8387e-05
6.83452e-05
6.83029e-05
6.8261e-05
6.82203e-05
6.81811e-05
6.81441e-05
6.81094e-05
6.80773e-05
6.8048e-05
6.80215e-05
6.79978e-05
6.79769e-05
6.79586e-05
6.7943e-05
6.79298e-05
6.7919e-05
6.79103e-05
6.79037e-05
6.7899e-05
6.7896e-05
6.78946e-05
6.78077e-05
6.77887e-05
6.77625e-05
6.77309e-05
6.76952e-05
6.7657e-05
6.76174e-05
6.75774e-05
6.75377e-05
6.74991e-05
6.74621e-05
6.7427e-05
6.73943e-05
6.73639e-05
6.73362e-05
6.73112e-05
6.72888e-05
6.7269e-05
6.72517e-05
6.7237e-05
6.72245e-05
6.72143e-05
6.72061e-05
6.71999e-05
6.71954e-05
6.71926e-05
6.71913e-05
6.71121e-05
6.70942e-05
6.70696e-05
6.70398e-05
6.70063e-05
6.69704e-05
6.69331e-05
6.68955e-05
6.68582e-05
6.6822e-05
6.67872e-05
6.67543e-05
6.67235e-05
6.66951e-05
6.66691e-05
6.66456e-05
6.66246e-05
6.66061e-05
6.65899e-05
6.65761e-05
6.65644e-05
6.65548e-05
6.65472e-05
6.65414e-05
6.65372e-05
6.65345e-05
6.65333e-05
6.64621e-05
6.64455e-05
6.64225e-05
6.63947e-05
6.63635e-05
6.633e-05
6.62953e-05
6.62603e-05
6.62256e-05
6.61919e-05
6.61596e-05
6.6129e-05
6.61004e-05
6.6074e-05
6.60498e-05
6.6028e-05
6.60085e-05
6.59913e-05
6.59763e-05
6.59635e-05
6.59527e-05
6.59438e-05
6.59367e-05
6.59313e-05
6.59274e-05
6.5925e-05
6.59238e-05
6.58609e-05
6.58456e-05
6.58244e-05
6.57988e-05
6.577e-05
6.57392e-05
6.57073e-05
6.5675e-05
6.56431e-05
6.56121e-05
6.55824e-05
6.55543e-05
6.5528e-05
6.55038e-05
6.54816e-05
6.54616e-05
6.54437e-05
6.54279e-05
6.54142e-05
6.54025e-05
6.53926e-05
6.53844e-05
6.53779e-05
6.5373e-05
6.53694e-05
6.53672e-05
6.53661e-05
6.53117e-05
6.52978e-05
6.52785e-05
6.52552e-05
6.5229e-05
6.5201e-05
6.5172e-05
6.51428e-05
6.51138e-05
6.50857e-05
6.50588e-05
6.50333e-05
6.50095e-05
6.49876e-05
6.49676e-05
6.49495e-05
6.49333e-05
6.49191e-05
6.49067e-05
6.4896e-05
6.48871e-05
6.48798e-05
6.48739e-05
6.48695e-05
6.48663e-05
6.48642e-05
6.48633e-05
6.48174e-05
6.48049e-05
6.47877e-05
6.47668e-05
6.47434e-05
6.47184e-05
6.46925e-05
6.46664e-05
6.46406e-05
6.46155e-05
6.45915e-05
6.45688e-05
6.45477e-05
6.45282e-05
6.45104e-05
6.44943e-05
6.448e-05
6.44673e-05
6.44563e-05
6.44469e-05
6.4439e-05
6.44325e-05
6.44273e-05
6.44233e-05
6.44205e-05
6.44187e-05
6.44179e-05
6.43804e-05
6.43694e-05
6.43543e-05
6.4336e-05
6.43155e-05
6.42936e-05
6.42709e-05
6.4248e-05
6.42255e-05
6.42036e-05
6.41826e-05
6.41629e-05
6.41444e-05
6.41275e-05
6.4112e-05
6.4098e-05
6.40855e-05
6.40746e-05
6.4065e-05
6.40569e-05
6.405e-05
6.40444e-05
6.40399e-05
6.40365e-05
6.4034e-05
6.40324e-05
6.40317e-05
6.40022e-05
6.39928e-05
6.39798e-05
6.39641e-05
6.39466e-05
6.39278e-05
6.39084e-05
6.38889e-05
6.38697e-05
6.3851e-05
6.38332e-05
6.38164e-05
6.38007e-05
6.37863e-05
6.37732e-05
6.37614e-05
6.37508e-05
6.37415e-05
6.37335e-05
6.37266e-05
6.37208e-05
6.3716e-05
6.37122e-05
6.37094e-05
6.37073e-05
6.3706e-05
6.37053e-05
6.3683e-05
6.36752e-05
6.36644e-05
6.36513e-05
6.36367e-05
6.36211e-05
6.3605e-05
6.35888e-05
6.35729e-05
6.35575e-05
6.35428e-05
6.35289e-05
6.3516e-05
6.35041e-05
6.34933e-05
6.34836e-05
6.3475e-05
6.34674e-05
6.34608e-05
6.34551e-05
6.34504e-05
6.34465e-05
6.34434e-05
6.3441e-05
6.34394e-05
6.34383e-05
6.34378e-05
6.34216e-05
6.34153e-05
6.34066e-05
6.33961e-05
6.33843e-05
6.33718e-05
6.33589e-05
6.3346e-05
6.33332e-05
6.33209e-05
6.33092e-05
6.32981e-05
6.32879e-05
6.32785e-05
6.32699e-05
6.32622e-05
6.32554e-05
6.32494e-05
6.32442e-05
6.32397e-05
6.3236e-05
6.3233e-05
6.32305e-05
6.32287e-05
6.32274e-05
6.32265e-05
6.32261e-05
6.32149e-05
6.321e-05
6.32032e-05
6.31951e-05
6.31861e-05
6.31764e-05
6.31665e-05
6.31566e-05
6.31468e-05
6.31374e-05
6.31284e-05
6.312e-05
6.31122e-05
6.31051e-05
6.30986e-05
6.30928e-05
6.30876e-05
6.30831e-05
6.30792e-05
6.30759e-05
6.30731e-05
6.30708e-05
6.3069e-05
6.30676e-05
6.30666e-05
6.3066e-05
6.30657e-05
6.3058e-05
6.30543e-05
6.30494e-05
6.30434e-05
6.30368e-05
6.30297e-05
6.30224e-05
6.30152e-05
6.30081e-05
6.30013e-05
6.29948e-05
6.29887e-05
6.29831e-05
6.2978e-05
6.29734e-05
6.29692e-05
6.29656e-05
6.29624e-05
6.29596e-05
6.29572e-05
6.29552e-05
6.29536e-05
6.29524e-05
6.29514e-05
6.29507e-05
6.29502e-05
6.295e-05
6.29444e-05
6.29419e-05
6.29385e-05
6.29344e-05
6.29298e-05
6.2925e-05
6.292e-05
6.29151e-05
6.29103e-05
6.29056e-05
6.29013e-05
6.28972e-05
6.28935e-05
6.28901e-05
6.2887e-05
6.28843e-05
6.28818e-05
6.28797e-05
6.28779e-05
6.28764e-05
6.28751e-05
6.28741e-05
6.28733e-05
6.28726e-05
6.28722e-05
6.28719e-05
6.28718e-05
6.28671e-05
6.28655e-05
6.28633e-05
6.28607e-05
6.28578e-05
6.28548e-05
6.28517e-05
6.28487e-05
6.28457e-05
6.28429e-05
6.28403e-05
6.28378e-05
6.28356e-05
6.28336e-05
6.28318e-05
6.28302e-05
6.28288e-05