/*--------------------------------*- C++ -*----------------------------------*\
| =========                 |                                                 |
| \\      /  F ield         | OpenFOAM: The Open Source CFD Toolbox           |
|  \\    /   O peration     | Version:  2106                                  |
|   \\  /    A nd           | Website:  www.openfoam.com                      |
|    \\/     M anipulation  |                                                 |
\*---------------------------------------------------------------------------*/
FoamFile
{
    version     2.0;
    format      ascii;
    arch        "LSB;label=32;scalar=64";
    class       volScalarField;
    location    "149.99958";
    object      C4H6;
}
// * * * * * * * * * * * * * * * * * * * * * * * * * * * * * * * * * * * * * //

dimensions      [0 0 0 0 0 0 0];

internalField   nonuniform List<scalar> 
3360
(
4.21572e-19
4.35137e-19
4.54015e-19
4.77106e-19
5.03448e-19
5.32177e-19
5.62512e-19
5.93749e-19
6.25261e-19
6.56493e-19
6.86965e-19
7.16271e-19
7.44073e-19
7.70103e-19
7.94158e-19
8.16096e-19
8.35828e-19
8.53317e-19
8.6857e-19
8.81632e-19
8.92582e-19
9.01526e-19
9.08591e-19
9.13919e-19
9.17668e-19
9.2e-19
9.21083e-19
1.84932e-18
1.91729e-18
2.01321e-18
2.13266e-18
2.27198e-18
2.42798e-18
2.59781e-18
2.77886e-18
2.96871e-18
3.16505e-18
3.36568e-18
3.56847e-18
3.7713e-18
3.97209e-18
4.16877e-18
4.35934e-18
4.54182e-18
4.7143e-18
4.87493e-18
5.022e-18
5.15394e-18
5.26933e-18
5.36701e-18
5.446e-18
5.50561e-18
5.54542e-18
5.56527e-18
5.80253e-18
6.05719e-18
6.41904e-18
6.87373e-18
7.40936e-18
8.01521e-18
8.6811e-18
9.39699e-18
1.01527e-17
1.0938e-17
1.17421e-17
1.25546e-17
1.33651e-17
1.41633e-17
1.49392e-17
1.56834e-17
1.63871e-17
1.70425e-17
1.76428e-17
1.81825e-17
1.8657e-17
1.90633e-17
1.93997e-17
1.96655e-17
1.98615e-17
1.99894e-17
2.00516e-17
1.68986e-17
1.77379e-17
1.89386e-17
2.04576e-17
2.22592e-17
2.43095e-17
2.65752e-17
2.90212e-17
3.1611e-17
3.43062e-17
3.70671e-17
3.98533e-17
4.26247e-17
4.53422e-17
4.79687e-17
5.04703e-17
5.28168e-17
5.49825e-17
5.69468e-17
5.86942e-17
6.02147e-17
6.15027e-17
6.25576e-17
6.33827e-17
6.39848e-17
6.43736e-17
6.45611e-17
4.93711e-17
5.20189e-17
5.58137e-17
6.0626e-17
6.63458e-17
7.28672e-17
8.00817e-17
8.78741e-17
9.61215e-17
1.04695e-16
1.13459e-16
1.22281e-16
1.31027e-16
1.39572e-16
1.47797e-16
1.55599e-16
1.62886e-16
1.69585e-16
1.75636e-16
1.81e-16
1.8565e-16
1.89576e-16
1.92782e-16
1.95282e-16
1.97102e-16
1.98275e-16
1.98839e-16
1.45569e-16
1.537e-16
1.65368e-16
1.80178e-16
1.9779e-16
2.17876e-16
2.40097e-16
2.64091e-16
2.89472e-16
3.15833e-16
3.42755e-16
3.69817e-16
3.96607e-16
4.22737e-16
4.47848e-16
4.71621e-16
4.93787e-16
5.14125e-16
5.32465e-16
5.48692e-16
5.62737e-16
5.74576e-16
5.84229e-16
5.91748e-16
5.97213e-16
6.00729e-16
6.0242e-16
4.32408e-16
4.57115e-16
4.92569e-16
5.3757e-16
5.91082e-16
6.52098e-16
7.1957e-16
7.92384e-16
8.69351e-16
9.49223e-16
1.03072e-15
1.11256e-15
1.1935e-15
1.27237e-15
1.3481e-15
1.41972e-15
1.48645e-15
1.54763e-15
1.60277e-15
1.65152e-15
1.6937e-15
1.72924e-15
1.75821e-15
1.78076e-15
1.79715e-15
1.8077e-15
1.81277e-15
1.28871e-15
1.36305e-15
1.46978e-15
1.6053e-15
1.76649e-15
1.95032e-15
2.15361e-15
2.37297e-15
2.60482e-15
2.84535e-15
3.09071e-15
3.33702e-15
3.58053e-15
3.8177e-15
4.04532e-15
4.26053e-15
4.46093e-15
4.64458e-15
4.81002e-15
4.95624e-15
5.08268e-15
5.18918e-15
5.27594e-15
5.34347e-15
5.39253e-15
5.42409e-15
5.43925e-15
3.85085e-15
4.07427e-15
4.39496e-15
4.8021e-15
5.28631e-15
5.8384e-15
6.4488e-15
7.10728e-15
7.80299e-15
8.52454e-15
9.26028e-15
9.99862e-15
1.07283e-14
1.14388e-14
1.21204e-14
1.27647e-14
1.33646e-14
1.39142e-14
1.44092e-14
1.48466e-14
1.52248e-14
1.55434e-14
1.58029e-14
1.60049e-14
1.61517e-14
1.62461e-14
1.62914e-14
1.15072e-14
1.21763e-14
1.31369e-14
1.43565e-14
1.5807e-14
1.74609e-14
1.92892e-14
2.12615e-14
2.3345e-14
2.55056e-14
2.77084e-14
2.99185e-14
3.21023e-14
3.42281e-14
3.62672e-14
3.81942e-14
3.99877e-14
4.16306e-14
4.311e-14
4.4417e-14
4.55468e-14
4.64982e-14
4.7273e-14
4.7876e-14
4.83139e-14
4.85955e-14
4.87308e-14
3.44011e-14
3.64039e-14
3.92786e-14
4.29277e-14
4.72667e-14
5.22127e-14
5.76791e-14
6.35739e-14
6.97992e-14
7.62527e-14
8.28298e-14
8.94268e-14
9.5943e-14
1.02284e-13
1.08365e-13
1.1411e-13
1.19455e-13
1.24351e-13
1.28758e-13
1.32651e-13
1.36016e-13
1.38849e-13
1.41157e-13
1.42952e-13
1.44255e-13
1.45094e-13
1.45497e-13
1.02739e-13
1.08717e-13
1.17298e-13
1.28188e-13
1.41135e-13
1.55889e-13
1.7219e-13
1.89764e-13
2.08316e-13
2.27541e-13
2.47127e-13
2.66764e-13
2.86154e-13
3.05015e-13
3.23094e-13
3.40168e-13
3.5605e-13
3.70588e-13
3.83672e-13
3.95226e-13
4.05209e-13
4.13611e-13
4.20451e-13
4.25772e-13
4.29635e-13
4.32118e-13
4.33311e-13
3.06463e-13
3.24276e-13
3.49833e-13
3.82255e-13
4.20779e-13
4.64655e-13
5.13104e-13
5.65299e-13
6.20364e-13
6.77387e-13
7.35441e-13
7.93607e-13
8.51e-13
9.06794e-13
9.60241e-13
1.01069e-12
1.05758e-12
1.10049e-12
1.13909e-12
1.17316e-12
1.20258e-12
1.22734e-12
1.24748e-12
1.26315e-12
1.27452e-12
1.28183e-12
1.28534e-12
9.11368e-13
9.6419e-13
1.03995e-12
1.13601e-12
1.25007e-12
1.37989e-12
1.52313e-12
1.67731e-12
1.83983e-12
2.00796e-12
2.17898e-12
2.35016e-12
2.51891e-12
2.6828e-12
2.83966e-12
2.98757e-12
3.12495e-12
3.25055e-12
3.36345e-12
3.46302e-12
3.54895e-12
3.62121e-12
3.67998e-12
3.72566e-12
3.7588e-12
3.78009e-12
3.79032e-12
2.69998e-12
2.85571e-12
3.07891e-12
3.36167e-12
3.69709e-12
4.0784e-12
4.4986e-12
4.95029e-12
5.42573e-12
5.91691e-12
6.41578e-12
6.9144e-12
7.40523e-12
7.88127e-12
8.33624e-12
8.76473e-12
9.16224e-12
9.52524e-12
9.85116e-12
1.01383e-11
1.03859e-11
1.0594e-11
1.07631e-11
1.08944e-11
1.09896e-11
1.10508e-11
1.10801e-11
7.95051e-12
8.40512e-12
9.05611e-12
9.87987e-12
1.08557e-11
1.19633e-11
1.31817e-11
1.44891e-11
1.58627e-11
1.7279e-11
1.87146e-11
2.01468e-11
2.15539e-11
2.2916e-11
2.42154e-11
2.54371e-11
2.65686e-11
2.76002e-11
2.8525e-11
2.93387e-11
3.00394e-11
3.06275e-11
3.11048e-11
3.14752e-11
3.17436e-11
3.19157e-11
3.19982e-11
2.32258e-11
2.45355e-11
2.64084e-11
2.87743e-11
3.15715e-11
3.47394e-11
3.82161e-11
4.19371e-11
4.58361e-11
4.98459e-11
5.38995e-11
5.79327e-11
6.18849e-11
6.57013e-11
6.93333e-11
7.274e-11
7.58882e-11
7.87526e-11
8.13156e-11
8.35667e-11
8.5502e-11
8.71235e-11
8.84382e-11
8.94569e-11
9.01941e-11
9.06665e-11
9.08929e-11
6.712e-11
7.08229e-11
7.61092e-11
8.27726e-11
9.06296e-11
9.95018e-11
1.09208e-10
1.19561e-10
1.30373e-10
1.41454e-10
1.52617e-10
1.63686e-10
1.74498e-10
1.84904e-10
1.94778e-10
2.04012e-10
2.12523e-10
2.20246e-10
2.27141e-10
2.33183e-10
2.38367e-10
2.42702e-10
2.46211e-10
2.48927e-10
2.50889e-10
2.52145e-10
2.52746e-10
1.91254e-10
2.01468e-10
2.16018e-10
2.34304e-10
2.55792e-10
2.79966e-10
3.06304e-10
3.34283e-10
3.63375e-10
3.93062e-10
4.22845e-10
4.52255e-10
4.80865e-10
5.08299e-10
5.34235e-10
5.58409e-10
5.80616e-10
6.00711e-10
6.18599e-10
6.34236e-10
6.47622e-10
6.58794e-10
6.67819e-10
6.7479e-10
6.7982e-10
6.83035e-10
6.84572e-10
5.35071e-10
5.62363e-10
6.01132e-10
6.49686e-10
7.06509e-10
7.70141e-10
8.39138e-10
9.12067e-10
9.87519e-10
1.06413e-09
1.14061e-09
1.21579e-09
1.28859e-09
1.35809e-09
1.42354e-09
1.4843e-09
1.53993e-09
1.59011e-09
1.63464e-09
1.67346e-09
1.70661e-09
1.73421e-09
1.75647e-09
1.77362e-09
1.78599e-09
1.79388e-09
1.79764e-09
1.46274e-09
1.53288e-09
1.63219e-09
1.75606e-09
1.90034e-09
2.06108e-09
2.23443e-09
2.41665e-09
2.60414e-09
2.79347e-09
2.98149e-09
3.16536e-09
3.34256e-09
3.51099e-09
3.66891e-09
3.81497e-09
3.9482e-09
4.06796e-09
4.17393e-09
4.26606e-09
4.34453e-09
4.40973e-09
4.46218e-09
4.50256e-09
4.5316e-09
4.55011e-09
4.55893e-09
3.8861e-09
4.0583e-09
4.3013e-09
4.6031e-09
4.95289e-09
5.34048e-09
5.75613e-09
6.19057e-09
6.63503e-09
7.0814e-09
7.52235e-09
7.95139e-09
8.36293e-09
8.75235e-09
9.11596e-09
9.451e-09
9.75553e-09
1.00284e-08
1.02692e-08
1.04779e-08
1.06553e-08
1.08024e-08
1.09205e-08
1.10112e-08
1.10764e-08
1.11179e-08
1.11377e-08
9.98052e-09
1.03827e-08
1.09484e-08
1.1648e-08
1.2455e-08
1.33444e-08
1.42931e-08
1.52794e-08
1.62829e-08
1.72857e-08
1.82713e-08
1.92258e-08
2.01375e-08
2.09966e-08
2.17958e-08
2.25296e-08
2.31946e-08
2.37887e-08
2.43115e-08
2.47637e-08
2.51472e-08
2.54646e-08
2.5719e-08
2.59142e-08
2.60542e-08
2.61432e-08
2.61856e-08
2.46702e-08
2.55628e-08
2.68145e-08
2.83566e-08
3.01276e-08
3.20707e-08
3.41333e-08
3.62672e-08
3.84286e-08
4.05784e-08
4.26826e-08
4.47122e-08
4.66433e-08
4.84569e-08
5.01386e-08
5.16783e-08
5.30696e-08
5.43097e-08
5.53986e-08
5.63387e-08
5.71345e-08
5.77919e-08
5.83182e-08
5.87215e-08
5.90104e-08
5.9194e-08
5.92812e-08
5.85412e-08
6.0428e-08
6.30674e-08
6.63089e-08
7.00183e-08
7.40727e-08
7.83598e-08
8.27779e-08
8.72359e-08
9.16539e-08
9.59634e-08
1.00107e-07
1.04037e-07
1.07718e-07
1.11123e-07
1.14233e-07
1.17037e-07
1.19532e-07
1.21719e-07
1.23604e-07
1.25197e-07
1.26511e-07
1.27563e-07
1.28367e-07
1.28943e-07
1.29309e-07
1.29483e-07
1.33305e-07
1.37126e-07
1.4246e-07
1.48995e-07
1.56454e-07
1.64584e-07
1.73155e-07
1.81962e-07
1.90823e-07
1.99582e-07
2.08104e-07
2.16278e-07
2.24015e-07
2.31245e-07
2.37921e-07
2.44008e-07
2.49488e-07
2.54356e-07
2.58618e-07
2.62287e-07
2.65385e-07
2.67939e-07
2.69979e-07
2.7154e-07
2.72657e-07
2.73365e-07
2.73701e-07
2.91735e-07
2.99204e-07
3.0962e-07
3.2236e-07
3.36874e-07
3.52662e-07
3.69276e-07
3.86315e-07
4.03427e-07
4.20311e-07
4.3671e-07
4.52415e-07
4.67259e-07
4.81114e-07
4.93889e-07
5.05525e-07
5.1599e-07
5.25278e-07
5.33402e-07
5.40391e-07
5.46288e-07
5.51146e-07
5.55026e-07
5.57992e-07
5.60112e-07
5.61457e-07
5.62095e-07
6.15148e-07
6.29378e-07
6.49208e-07
6.73446e-07
7.01032e-07
7.31013e-07
7.62531e-07
7.94828e-07
8.27238e-07
8.59191e-07
8.90206e-07
9.19889e-07
9.47929e-07
9.74089e-07
9.98199e-07
1.02015e-06
1.03989e-06
1.0574e-06
1.07271e-06
1.08588e-06
1.09699e-06
1.10614e-06
1.11345e-06
1.11904e-06
1.12303e-06
1.12556e-06
1.12676e-06
1.25257e-06
1.27923e-06
1.3164e-06
1.36182e-06
1.41354e-06
1.46976e-06
1.52888e-06
1.5895e-06
1.65037e-06
1.71043e-06
1.76876e-06
1.82465e-06
1.87749e-06
1.92683e-06
1.97236e-06
2.01386e-06
2.05121e-06
2.08439e-06
2.11343e-06
2.13844e-06
2.15956e-06
2.17698e-06
2.1909e-06
2.20155e-06
2.20917e-06
2.214e-06
2.2163e-06
2.46394e-06
2.51337e-06
2.58232e-06
2.66672e-06
2.76297e-06
2.8678e-06
2.97832e-06
3.0919e-06
3.20628e-06
3.31946e-06
3.42977e-06
3.53579e-06
3.63638e-06
3.73067e-06
3.81798e-06
3.89785e-06
3.97002e-06
4.03436e-06
4.0909e-06
4.13976e-06
4.18117e-06
4.21543e-06
4.24291e-06
4.264e-06
4.27914e-06
4.28878e-06
4.29337e-06
4.6685e-06
4.75863e-06
4.88459e-06
5.03913e-06
5.21587e-06
5.40905e-06
5.61348e-06
5.82449e-06
6.03794e-06
6.2502e-06
6.45812e-06
6.65902e-06
6.85067e-06
7.03128e-06
7.19944e-06
7.35414e-06
7.49466e-06
7.62061e-06
7.73186e-06
7.82849e-06
7.91079e-06
7.97921e-06
8.03433e-06
8.07683e-06
8.10746e-06
8.12703e-06
8.13639e-06
8.45728e-06
8.61466e-06
8.8349e-06
9.10562e-06
9.41591e-06
9.75594e-06
1.01168e-05
1.04904e-05
1.08695e-05
1.12478e-05
1.16196e-05
1.198e-05
1.2325e-05
1.26512e-05
1.29558e-05
1.32369e-05
1.34929e-05
1.3723e-05
1.39268e-05
1.41042e-05
1.42556e-05
1.43817e-05
1.44835e-05
1.45621e-05
1.46189e-05
1.46552e-05
1.46726e-05
1.44776e-05
1.47288e-05
1.50802e-05
1.55118e-05
1.6006e-05
1.6547e-05
1.71204e-05
1.77131e-05
1.83135e-05
1.89114e-05
1.94977e-05
2.00649e-05
2.06065e-05
2.11171e-05
2.15929e-05
2.20306e-05
2.24283e-05
2.27846e-05
2.30993e-05
2.33726e-05
2.36052e-05
2.37984e-05
2.3954e-05
2.40739e-05
2.41603e-05
2.42155e-05
2.42418e-05
2.31209e-05
2.34726e-05
2.3963e-05
2.4563e-05
2.5247e-05
2.59917e-05
2.67763e-05
2.75823e-05
2.83934e-05
2.91955e-05
2.99765e-05
3.07266e-05
3.14377e-05
3.21034e-05
3.27193e-05
3.3282e-05
3.37899e-05
3.42422e-05
3.46391e-05
3.49818e-05
3.52719e-05
3.55117e-05
3.57039e-05
3.58513e-05
3.59571e-05
3.60244e-05
3.60565e-05
3.41579e-05
3.45819e-05
3.51708e-05
3.58874e-05
3.66988e-05
3.75758e-05
3.84925e-05
3.94262e-05
4.03578e-05
4.12708e-05
4.21521e-05
4.29911e-05
4.37797e-05
4.45119e-05
4.51838e-05
4.57932e-05
4.63392e-05
4.68221e-05
4.72432e-05
4.76046e-05
4.7909e-05
4.81592e-05
4.83589e-05
4.85113e-05
4.86203e-05
4.86894e-05
4.87222e-05
4.66636e-05
4.71076e-05
4.77216e-05
4.84648e-05
4.93009e-05
5.01983e-05
5.11291e-05
5.20699e-05
5.3001e-05
5.39065e-05
5.47737e-05
5.5593e-05
5.63575e-05
5.70624e-05
5.77051e-05
5.82844e-05
5.88004e-05
5.92544e-05
5.96485e-05
5.99851e-05
6.02674e-05
6.04988e-05
6.06827e-05
6.08228e-05
6.09226e-05
6.09857e-05
6.10156e-05
5.93746e-05
5.97878e-05
6.03573e-05
6.10436e-05
6.1812e-05
6.26321e-05
6.3478e-05
6.4328e-05
6.51643e-05
6.5973e-05
6.67432e-05
6.7467e-05
6.81391e-05
6.87559e-05
6.93159e-05
6.98186e-05
7.02649e-05
7.06562e-05
7.09949e-05
7.12835e-05
7.15249e-05
7.17224e-05
7.18791e-05
7.19982e-05
7.2083e-05
7.21366e-05
7.2162e-05
7.11799e-05
7.15312e-05
7.20144e-05
7.25951e-05
7.32431e-05
7.39325e-05
7.46409e-05
7.53503e-05
7.60458e-05
7.6716e-05
7.73524e-05
7.79487e-05
7.85008e-05
7.90064e-05
7.94644e-05
7.98747e-05
8.02384e-05
8.05568e-05
8.08321e-05
8.10663e-05
8.12622e-05
8.14222e-05
8.15492e-05
8.16457e-05
8.17143e-05
8.17577e-05
8.17782e-05
8.13996e-05
8.16795e-05
8.20642e-05
8.25258e-05
8.30401e-05
8.35862e-05
8.41465e-05
8.47065e-05
8.52548e-05
8.57824e-05
8.62826e-05
8.67508e-05
8.7184e-05
8.75803e-05
8.7939e-05
8.82603e-05
8.85449e-05
8.87941e-05
8.90095e-05
8.91928e-05
8.9346e-05
8.94713e-05
8.95707e-05
8.96462e-05
8.96999e-05
8.97339e-05
8.975e-05
8.97886e-05
9.00016e-05
9.02942e-05
9.06452e-05
9.1036e-05
9.14508e-05
9.18762e-05
9.23012e-05
9.27171e-05
9.31173e-05
9.34967e-05
9.38518e-05
9.41804e-05
9.44811e-05
9.47533e-05
9.49973e-05
9.52135e-05
9.54028e-05
9.55666e-05
9.5706e-05
9.58226e-05
9.5918e-05
9.59937e-05
9.60513e-05
9.60923e-05
9.61183e-05
9.61305e-05
9.63872e-05
9.65438e-05
9.67589e-05
9.70169e-05
9.73043e-05
9.76094e-05
9.79224e-05
9.82352e-05
9.85415e-05
9.88363e-05
9.9116e-05
9.9378e-05
9.96205e-05
9.98426e-05
0.000100044
0.000100224
0.000100384
0.000100525
0.000100646
0.000100749
0.000100836
0.000100907
0.000100963
0.000101006
0.000101036
0.000101056
0.000101065
0.000101391
0.000101503
0.000101656
0.000101839
0.000102044
0.000102262
0.000102485
0.000102709
0.000102928
0.000103139
0.00010334
0.000103528
0.000103702
0.000103861
0.000104006
0.000104136
0.000104251
0.000104352
0.00010444
0.000104515
0.000104577
0.000104628
0.000104669
0.0001047
0.000104722
0.000104736
0.000104743
0.000105046
0.000105123
0.000105228
0.000105354
0.000105495
0.000105645
0.000105799
0.000105953
0.000106105
0.000106251
0.00010639
0.00010652
0.000106641
0.000106751
0.000106852
0.000106942
0.000107022
0.000107093
0.000107153
0.000107205
0.000107249
0.000107284
0.000107313
0.000107334
0.00010735
0.00010736
0.000107364
0.000107597
0.000107647
0.000107716
0.000107799
0.000107891
0.000107989
0.00010809
0.000108192
0.000108291
0.000108387
0.000108478
0.000108564
0.000108644
0.000108717
0.000108783
0.000108842
0.000108895
0.000108941
0.000108981
0.000109015
0.000109044
0.000109067
0.000109086
0.0001091
0.00010911
0.000109117
0.00010912
0.000109265
0.000109295
0.000109337
0.000109387
0.000109442
0.000109502
0.000109562
0.000109623
0.000109683
0.000109741
0.000109796
0.000109848
0.000109895
0.000109939
0.000109979
0.000110014
0.000110046
0.000110073
0.000110097
0.000110118
0.000110135
0.000110148
0.00011016
0.000110168
0.000110174
0.000110178
0.000110179
0.000110239
0.000110254
0.000110275
0.0001103
0.000110328
0.000110358
0.000110388
0.000110419
0.000110448
0.000110477
0.000110504
0.000110529
0.000110553
0.000110574
0.000110593
0.00011061
0.000110625
0.000110638
0.00011065
0.000110659
0.000110667
0.000110674
0.000110679
0.000110683
0.000110686
0.000110687
0.000110688
0.000110673
0.000110677
0.000110682
0.000110689
0.000110696
0.000110703
0.00011071
0.000110717
0.000110724
0.00011073
0.000110736
0.000110741
0.000110745
0.000110749
0.000110753
0.000110756
0.000110758
0.00011076
0.000110762
0.000110763
0.000110764
0.000110765
0.000110766
0.000110766
0.000110767
0.000110767
0.000110767
0.000110691
0.000110686
0.00011068
0.000110672
0.000110663
0.000110653
0.000110643
0.000110632
0.000110621
0.000110611
0.0001106
0.00011059
0.00011058
0.000110571
0.000110563
0.000110555
0.000110547
0.000110541
0.000110535
0.00011053
0.000110526
0.000110522
0.00011052
0.000110517
0.000110516
0.000110515
0.000110514
0.000110391
0.00011038
0.000110365
0.000110346
0.000110325
0.000110303
0.000110279
0.000110255
0.000110231
0.000110208
0.000110185
0.000110163
0.000110142
0.000110123
0.000110106
0.000110089
0.000110075
0.000110062
0.000110051
0.000110041
0.000110032
0.000110026
0.00011002
0.000110016
0.000110013
0.000110011
0.00011001
0.000109852
0.000109837
0.000109815
0.000109788
0.000109758
0.000109726
0.000109692
0.000109658
0.000109625
0.000109591
0.000109559
0.000109529
0.0001095
0.000109474
0.000109449
0.000109427
0.000109407
0.000109389
0.000109373
0.00010936
0.000109348
0.000109339
0.000109332
0.000109326
0.000109322
0.000109319
0.000109318
0.000109136
0.000109117
0.00010909
0.000109058
0.000109021
0.000108982
0.000108941
0.0001089
0.000108859
0.000108818
0.000108779
0.000108743
0.000108708
0.000108676
0.000108646
0.000108619
0.000108595
0.000108574
0.000108555
0.000108539
0.000108525
0.000108514
0.000108505
0.000108498
0.000108493
0.00010849
0.000108489
0.000108291
0.000108269
0.000108239
0.000108203
0.000108161
0.000108117
0.000108071
0.000108024
0.000107978
0.000107933
0.000107889
0.000107848
0.000107809
0.000107773
0.000107739
0.000107709
0.000107682
0.000107658
0.000107638
0.00010762
0.000107604
0.000107592
0.000107582
0.000107574
0.000107569
0.000107565
0.000107563
0.000107357
0.000107333
0.0001073
0.000107261
0.000107217
0.000107169
0.000107119
0.000107069
0.000107019
0.00010697
0.000106923
0.000106879
0.000106837
0.000106798
0.000106762
0.00010673
0.000106701
0.000106675
0.000106653
0.000106634
0.000106617
0.000106604
0.000106593
0.000106585
0.000106579
0.000106576
0.000106574
0.000106363
0.000106338
0.000106304
0.000106263
0.000106216
0.000106166
0.000106114
0.000106062
0.000106009
0.000105958
0.000105909
0.000105863
0.000105819
0.000105778
0.000105741
0.000105708
0.000105677
0.000105651
0.000105627
0.000105607
0.00010559
0.000105576
0.000105565
0.000105557
0.000105551
0.000105547
0.000105545
0.000105333
0.000105308
0.000105273
0.000105231
0.000105183
0.000105132
0.000105079
0.000105025
0.000104971
0.000104919
0.000104869
0.000104821
0.000104777
0.000104735
0.000104697
0.000104663
0.000104632
0.000104605
0.000104581
0.00010456
0.000104543
0.000104529
0.000104518
0.000104509
0.000104503
0.000104499
0.000104497
0.000104287
0.000104262
0.000104227
0.000104184
0.000104136
0.000104084
0.000104031
0.000103976
0.000103922
0.00010387
0.000103819
0.000103771
0.000103726
0.000103685
0.000103646
0.000103612
0.000103581
0.000103553
0.000103529
0.000103509
0.000103492
0.000103477
0.000103466
0.000103457
0.000103451
0.000103447
0.000103445
0.00010324
0.000103215
0.000103179
0.000103137
0.000103089
0.000103038
0.000102984
0.00010293
0.000102876
0.000102824
0.000102774
0.000102726
0.000102681
0.00010264
0.000102602
0.000102567
0.000102537
0.000102509
0.000102486
0.000102465
0.000102448
0.000102434
0.000102422
0.000102414
0.000102407
0.000102403
0.000102402
0.000102202
0.000102177
0.000102143
0.000102101
0.000102053
0.000102003
0.00010195
0.000101897
0.000101844
0.000101792
0.000101742
0.000101695
0.000101651
0.000101611
0.000101573
0.000101539
0.000101509
0.000101482
0.000101459
0.000101439
0.000101422
0.000101408
0.000101397
0.000101388
0.000101382
0.000101378
0.000101376
0.000101183
0.000101159
0.000101125
0.000101084
0.000101038
0.000100988
0.000100936
0.000100884
0.000100833
0.000100782
0.000100734
0.000100688
0.000100645
0.000100605
0.000100568
0.000100535
0.000100505
0.000100479
0.000100456
0.000100437
0.00010042
0.000100407
0.000100396
0.000100387
0.000100381
0.000100378
0.000100376
0.00010019
0.000100166
0.000100133
0.000100094
0.000100049
0.0001
9.99503e-05
9.98996e-05
9.98493e-05
9.98003e-05
9.97532e-05
9.97086e-05
9.96668e-05
9.96281e-05
9.95926e-05
9.95605e-05
9.95318e-05
9.95064e-05
9.94842e-05
9.94651e-05
9.94491e-05
9.94359e-05
9.94253e-05
9.94172e-05
9.94114e-05
9.94077e-05
9.9406e-05
9.92282e-05
9.92051e-05
9.91732e-05
9.91346e-05
9.90912e-05
9.90446e-05
9.89962e-05
9.89473e-05
9.88987e-05
9.88514e-05
9.8806e-05
9.87629e-05
9.87225e-05
9.86851e-05
9.86509e-05
9.86199e-05
9.85922e-05
9.85677e-05
9.85463e-05
9.85279e-05
9.85124e-05
9.84997e-05
9.84895e-05
9.84817e-05
9.84761e-05
9.84726e-05
9.84709e-05
9.83009e-05
9.82787e-05
9.82481e-05
9.8211e-05
9.81692e-05
9.81245e-05
9.8078e-05
9.80309e-05
9.79843e-05
9.79388e-05
9.78951e-05
9.78538e-05
9.7815e-05
9.77791e-05
9.77463e-05
9.77165e-05
9.76899e-05
9.76664e-05
9.76458e-05
9.76282e-05
9.76133e-05
9.76011e-05
9.75913e-05
9.75838e-05
9.75785e-05
9.75751e-05
9.75734e-05
9.74113e-05
9.73901e-05
9.73608e-05
9.73253e-05
9.72854e-05
9.72426e-05
9.71981e-05
9.71531e-05
9.71085e-05
9.7065e-05
9.70233e-05
9.69837e-05
9.69467e-05
9.69124e-05
9.6881e-05
9.68525e-05
9.68271e-05
9.68046e-05
9.6785e-05
9.67682e-05
9.6754e-05
9.67423e-05
9.67329e-05
9.67258e-05
9.67207e-05
9.67174e-05
9.67159e-05
9.65616e-05
9.65414e-05
9.65135e-05
9.64797e-05
9.64417e-05
9.64009e-05
9.63585e-05
9.63157e-05
9.62732e-05
9.62318e-05
9.61921e-05
9.61544e-05
9.61192e-05
9.60866e-05
9.60567e-05
9.60296e-05
9.60054e-05
9.5984e-05
9.59654e-05
9.59494e-05
9.59359e-05
9.59247e-05
9.59159e-05
9.59091e-05
9.59042e-05
9.59011e-05
9.58996e-05
9.57532e-05
9.57341e-05
9.57076e-05
9.56755e-05
9.56395e-05
9.56008e-05
9.55606e-05
9.552e-05
9.54797e-05
9.54405e-05
9.54029e-05
9.53672e-05
9.53338e-05
9.53029e-05
9.52746e-05
9.52489e-05
9.5226e-05
9.52057e-05
9.51881e-05
9.51729e-05
9.51601e-05
9.51496e-05
9.51412e-05
9.51347e-05
9.51301e-05
9.51272e-05
9.51258e-05
9.49871e-05
9.4969e-05
9.4944e-05
9.49137e-05
9.48797e-05
9.48432e-05
9.48053e-05
9.47669e-05
9.47289e-05
9.46919e-05
9.46564e-05
9.46227e-05
9.45912e-05
9.4562e-05
9.45353e-05
9.45112e-05
9.44896e-05
9.44704e-05
9.44538e-05
9.44395e-05
9.44274e-05
9.44175e-05
9.44096e-05
9.44035e-05
9.43991e-05
9.43964e-05
9.43951e-05
9.42641e-05
9.4247e-05
9.42235e-05
9.41951e-05
9.41631e-05
9.41287e-05
9.40931e-05
9.40571e-05
9.40214e-05
9.39866e-05
9.39532e-05
9.39216e-05
9.3892e-05
9.38647e-05
9.38396e-05
9.38169e-05
9.37966e-05
9.37787e-05
9.3763e-05
9.37496e-05
9.37383e-05
9.3729e-05
9.37215e-05
9.37158e-05
9.37118e-05
9.37092e-05
9.37079e-05
9.35845e-05
9.35686e-05
9.35466e-05
9.352e-05
9.34901e-05
9.3458e-05
9.34246e-05
9.3391e-05
9.33576e-05
9.33251e-05
9.32939e-05
9.32644e-05
9.32367e-05
9.32112e-05
9.31878e-05
9.31666e-05
9.31476e-05
9.31309e-05
9.31163e-05
9.31037e-05
9.30932e-05
9.30845e-05
9.30775e-05
9.30722e-05
9.30684e-05
9.3066e-05
9.30648e-05
9.29489e-05
9.29341e-05
9.29137e-05
9.28889e-05
9.28611e-05
9.28313e-05
9.28003e-05
9.2769e-05
9.2738e-05
9.27078e-05
9.26789e-05
9.26514e-05
9.26258e-05
9.2602e-05
9.25803e-05
9.25606e-05
9.2543e-05
9.25275e-05
9.25139e-05
9.25023e-05
9.24925e-05
9.24844e-05
9.2478e-05
9.2473e-05
9.24695e-05
9.24673e-05
9.24662e-05
9.23578e-05
9.23442e-05
9.23253e-05
9.23024e-05
9.22767e-05
9.22492e-05
9.22206e-05
9.21917e-05
9.21631e-05
9.21353e-05
9.21085e-05
9.20832e-05
9.20596e-05
9.20377e-05
9.20177e-05
9.19995e-05
9.19833e-05
9.1969e-05
9.19565e-05
9.19458e-05
9.19368e-05
9.19293e-05
9.19234e-05
9.19189e-05
9.19156e-05
9.19135e-05
9.19126e-05
9.18118e-05
9.17992e-05
9.17819e-05
9.1761e-05
9.17375e-05
9.17123e-05
9.16861e-05
9.16597e-05
9.16335e-05
9.16081e-05
9.15836e-05
9.15605e-05
9.15389e-05
9.15189e-05
9.15006e-05
9.14841e-05
9.14693e-05
9.14562e-05
9.14448e-05
9.1435e-05
9.14268e-05
9.142e-05
9.14146e-05
9.14104e-05
9.14074e-05
9.14056e-05
9.14047e-05
9.13116e-05
9.13002e-05
9.12845e-05
9.12656e-05
9.12443e-05
9.12214e-05
9.11978e-05
9.11739e-05
9.11502e-05
9.11272e-05
9.11051e-05
9.10842e-05
9.10647e-05
9.10466e-05
9.10301e-05
9.10152e-05
9.10018e-05
9.099e-05
9.09797e-05
9.09709e-05
9.09635e-05
9.09573e-05
9.09524e-05
9.09487e-05
9.0946e-05
9.09443e-05
9.09435e-05
9.08583e-05
9.08482e-05
9.08341e-05
9.08172e-05
9.07982e-05
9.07778e-05
9.07567e-05
9.07354e-05
9.07143e-05
9.06938e-05
9.06741e-05
9.06555e-05
9.06381e-05
9.06221e-05
9.06074e-05
9.05941e-05
9.05822e-05
9.05717e-05
9.05626e-05
9.05548e-05
9.05482e-05
9.05427e-05
9.05384e-05
9.0535e-05
9.05327e-05
9.05312e-05
9.05304e-05
9.04534e-05
9.04445e-05
9.04322e-05
9.04174e-05
9.04007e-05
9.03829e-05
9.03644e-05
9.03458e-05
9.03273e-05
9.03094e-05
9.02923e-05
9.02761e-05
9.02609e-05
9.02469e-05
9.02341e-05
9.02226e-05
9.02122e-05
9.02031e-05
9.01951e-05
9.01883e-05
9.01826e-05
9.01778e-05
9.01741e-05
9.01712e-05
9.01691e-05
9.01678e-05
9.01672e-05
9.00987e-05
9.00911e-05
9.00806e-05
9.00679e-05
9.00537e-05
9.00385e-05
9.00228e-05
9.0007e-05
8.99913e-05
8.99761e-05
8.99616e-05
8.99478e-05
8.9935e-05
8.99231e-05
8.99123e-05
8.99025e-05
8.98938e-05
8.98861e-05
8.98794e-05
8.98736e-05
8.98688e-05
8.98648e-05
8.98616e-05
8.98591e-05
8.98574e-05
8.98563e-05
8.98558e-05
8.97963e-05
8.979e-05
8.97814e-05
8.97711e-05
8.97594e-05
8.9747e-05
8.97342e-05
8.97212e-05
8.97085e-05
8.96961e-05
8.96843e-05
8.96731e-05
8.96627e-05
8.96531e-05
8.96443e-05
8.96364e-05
8.96294e-05
8.96231e-05
8.96177e-05
8.96131e-05
8.96092e-05
8.96059e-05
8.96034e-05
8.96014e-05
8.96e-05
8.95991e-05
8.95987e-05
8.95487e-05
8.95439e-05
8.95373e-05
8.95293e-05
8.95203e-05
8.95108e-05
8.9501e-05
8.94911e-05
8.94814e-05
8.9472e-05
8.9463e-05
8.94545e-05
8.94467e-05
8.94394e-05
8.94328e-05
8.94268e-05
8.94215e-05
8.94169e-05
8.94128e-05
8.94093e-05
8.94064e-05
8.9404e-05
8.94021e-05
8.94006e-05
8.93995e-05
8.93989e-05
8.93985e-05
8.93586e-05
8.93553e-05
8.93507e-05
8.93452e-05
8.93391e-05
8.93326e-05
8.93259e-05
8.93192e-05
8.93127e-05
8.93064e-05
8.93004e-05
8.92948e-05
8.92895e-05
8.92848e-05
8.92804e-05
8.92765e-05
8.9273e-05
8.927e-05
8.92673e-05
8.92651e-05
8.92632e-05
8.92616e-05
8.92604e-05
8.92594e-05
8.92587e-05
8.92583e-05
8.92581e-05
8.92286e-05
8.92268e-05
8.92244e-05
8.92215e-05
8.92183e-05
8.9215e-05
8.92116e-05
8.92082e-05
8.9205e-05
8.92019e-05
8.9199e-05
8.91963e-05
8.91939e-05
8.91917e-05
8.91897e-05
8.91879e-05
8.91864e-05
8.9185e-05
8.91838e-05
8.91828e-05
8.9182e-05
8.91813e-05
8.91808e-05
8.91804e-05
8.91801e-05
8.91799e-05
8.91798e-05
8.91609e-05
8.91607e-05
8.91605e-05
8.91603e-05
8.91602e-05
8.91601e-05
8.91601e-05
8.91602e-05
8.91603e-05
8.91606e-05
8.91609e-05
8.91613e-05
8.91617e-05
8.91621e-05
8.91625e-05
8.9163e-05
8.91634e-05
8.91638e-05
8.91641e-05
8.91644e-05
8.91647e-05
8.91649e-05
8.91651e-05
8.91653e-05
8.91654e-05
8.91654e-05
8.91655e-05
8.91571e-05
8.91586e-05
8.91606e-05
8.91631e-05
8.91661e-05
8.91693e-05
8.91727e-05
8.91763e-05
8.91799e-05
8.91835e-05
8.91871e-05
8.91905e-05
8.91938e-05
8.91969e-05
8.91998e-05
8.92025e-05
8.92049e-05
8.9207e-05
8.92089e-05
8.92105e-05
8.92119e-05
8.9213e-05
8.92139e-05
8.92146e-05
8.92151e-05
8.92155e-05
8.92156e-05
8.92173e-05
8.92204e-05
8.92246e-05
8.92299e-05
8.92358e-05
8.92423e-05
8.92491e-05
8.92561e-05
8.92632e-05
8.92701e-05
8.92769e-05
8.92833e-05
8.92895e-05
8.92952e-05
8.93004e-05
8.93053e-05
8.93096e-05
8.93135e-05
8.93168e-05
8.93197e-05
8.93222e-05
8.93242e-05
8.93258e-05
8.93271e-05
8.9328e-05
8.93285e-05
8.93288e-05
8.93395e-05
8.93441e-05
8.93505e-05
8.93583e-05
8.93672e-05
8.93768e-05
8.93868e-05
8.9397e-05
8.94073e-05
8.94173e-05
8.94271e-05
8.94364e-05
8.94451e-05
8.94533e-05
8.94608e-05
8.94676e-05
8.94738e-05
8.94792e-05
8.9484e-05
8.94881e-05
8.94915e-05
8.94944e-05
8.94966e-05
8.94984e-05
8.94996e-05
8.95004e-05
8.95008e-05
8.9519e-05
8.9525e-05
8.95333e-05
8.95434e-05
8.95548e-05
8.95671e-05
8.958e-05
8.95931e-05
8.96061e-05
8.96189e-05
8.96312e-05
8.9643e-05
8.96541e-05
8.96643e-05
8.96738e-05
8.96824e-05
8.969e-05
8.96969e-05
8.97028e-05
8.97079e-05
8.97122e-05
8.97158e-05
8.97186e-05
8.97208e-05
8.97223e-05
8.97233e-05
8.97238e-05
8.97473e-05
8.97544e-05
8.97642e-05
8.97762e-05
8.97896e-05
8.98041e-05
8.98192e-05
8.98345e-05
8.98498e-05
8.98647e-05
8.98791e-05
8.98927e-05
8.99056e-05
8.99175e-05
8.99284e-05
8.99383e-05
8.99471e-05
8.9955e-05
8.99618e-05
8.99677e-05
8.99726e-05
8.99767e-05
8.99799e-05
8.99824e-05
8.99842e-05
8.99853e-05
8.99859e-05
9.00121e-05
9.002e-05
9.00308e-05
9.00439e-05
9.00587e-05
9.00745e-05
9.00911e-05
9.01078e-05
9.01244e-05
9.01407e-05
9.01563e-05
9.01711e-05
9.01849e-05
9.01978e-05
9.02095e-05
9.02202e-05
9.02297e-05
9.02381e-05
9.02454e-05
9.02517e-05
9.0257e-05
9.02614e-05
9.02648e-05
9.02675e-05
9.02694e-05
9.02706e-05
9.02712e-05
9.02974e-05
9.03055e-05
9.03167e-05
9.03302e-05
9.03454e-05
9.03617e-05
9.03786e-05
9.03958e-05
9.04127e-05
9.04293e-05
9.04451e-05
9.04601e-05
9.04742e-05
9.04871e-05
9.0499e-05
9.05097e-05
9.05193e-05
9.05278e-05
9.05351e-05
9.05414e-05
9.05467e-05
9.05511e-05
9.05546e-05
9.05572e-05
9.05591e-05
9.05603e-05
9.05609e-05
9.05846e-05
9.05924e-05
9.06033e-05
9.06163e-05
9.0631e-05
9.06467e-05
9.06629e-05
9.06794e-05
9.06956e-05
9.07113e-05
9.07264e-05
9.07407e-05
9.0754e-05
9.07662e-05
9.07774e-05
9.07875e-05
9.07965e-05
9.08045e-05
9.08114e-05
9.08173e-05
9.08222e-05
9.08263e-05
9.08296e-05
9.0832e-05
9.08338e-05
9.08349e-05
9.08355e-05
9.08551e-05
9.08622e-05
9.08719e-05
9.08837e-05
9.08969e-05
9.09111e-05
9.09256e-05
9.09403e-05
9.09548e-05
9.09688e-05
9.09822e-05
9.09948e-05
9.10066e-05
9.10174e-05
9.10272e-05
9.10361e-05
9.1044e-05
9.10509e-05
9.1057e-05
9.10621e-05
9.10664e-05
9.107e-05
9.10728e-05
9.10749e-05
9.10765e-05
9.10774e-05
9.10779e-05
9.1093e-05
9.10989e-05
9.11072e-05
9.11171e-05
9.11282e-05
9.114e-05
9.11522e-05
9.11644e-05
9.11764e-05
9.1188e-05
9.11991e-05
9.12095e-05
9.12191e-05
9.1228e-05
9.1236e-05
9.12432e-05
9.12497e-05
9.12553e-05
9.12602e-05
9.12643e-05
9.12678e-05
9.12707e-05
9.1273e-05
9.12747e-05
9.12759e-05
9.12767e-05
9.12771e-05
9.12883e-05
9.1293e-05
9.12995e-05
9.13072e-05
9.13159e-05
9.13251e-05
9.13345e-05
9.1344e-05
9.13533e-05
9.13622e-05
9.13707e-05
9.13787e-05
9.1386e-05
9.13928e-05
9.13989e-05
9.14044e-05
9.14092e-05
9.14135e-05