/*--------------------------------*- C++ -*----------------------------------*\
| =========                 |                                                 |
| \\      /  F ield         | OpenFOAM: The Open Source CFD Toolbox           |
|  \\    /   O peration     | Version:  2106                                  |
|   \\  /    A nd           | Website:  www.openfoam.com                      |
|    \\/     M anipulation  |                                                 |
\*---------------------------------------------------------------------------*/
FoamFile
{
    version     2.0;
    format      ascii;
    arch        "LSB;label=32;scalar=64";
    class       volScalarField;
    location    "149.99958";
    object      C6H5;
}
// * * * * * * * * * * * * * * * * * * * * * * * * * * * * * * * * * * * * * //

dimensions      [0 0 0 0 0 0 0];

internalField   nonuniform List<scalar> 
3360
(
3.21583e-22
3.31935e-22
3.4634e-22
3.63961e-22
3.84063e-22
4.05986e-22
4.29135e-22
4.52973e-22
4.7702e-22
5.00854e-22
5.24108e-22
5.46472e-22
5.67689e-22
5.87554e-22
6.05911e-22
6.22653e-22
6.37711e-22
6.51058e-22
6.62698e-22
6.72667e-22
6.81024e-22
6.8785e-22
6.93241e-22
6.97308e-22
7.00169e-22
7.01948e-22
7.02775e-22
1.41102e-21
1.4629e-21
1.53611e-21
1.62729e-21
1.73362e-21
1.8527e-21
1.98232e-21
2.12052e-21
2.26542e-21
2.41529e-21
2.56843e-21
2.72321e-21
2.87803e-21
3.03128e-21
3.18141e-21
3.32686e-21
3.46615e-21
3.59779e-21
3.7204e-21
3.83265e-21
3.93335e-21
4.02143e-21
4.09598e-21
4.15627e-21
4.20177e-21
4.23215e-21
4.2473e-21
4.42895e-21
4.6234e-21
4.8997e-21
5.24689e-21
5.65588e-21
6.1185e-21
6.62696e-21
7.17361e-21
7.7507e-21
8.35032e-21
8.96436e-21
9.58482e-21
1.02037e-20
1.08132e-20
1.14057e-20
1.1974e-20
1.25114e-20
1.30119e-20
1.34703e-20
1.38824e-20
1.42447e-20
1.4555e-20
1.48119e-20
1.50149e-20
1.51646e-20
1.52622e-20
1.53097e-20
1.29047e-20
1.35459e-20
1.44631e-20
1.56236e-20
1.7e-20
1.85664e-20
2.02973e-20
2.21661e-20
2.41447e-20
2.62039e-20
2.83133e-20
3.0442e-20
3.25595e-20
3.46358e-20
3.66426e-20
3.8554e-20
4.03469e-20
4.20016e-20
4.35025e-20
4.48377e-20
4.59994e-20
4.69836e-20
4.77896e-20
4.84201e-20
4.88801e-20
4.91772e-20
4.93205e-20
3.77243e-20
3.97482e-20
4.2649e-20
4.63275e-20
5.06998e-20
5.5685e-20
6.12e-20
6.71569e-20
7.34617e-20
8.00156e-20
8.67163e-20
9.34605e-20
1.00147e-19
1.06679e-19
1.12968e-19
1.18933e-19
1.24504e-19
1.29625e-19
1.34252e-19
1.38353e-19
1.41908e-19
1.4491e-19
1.47361e-19
1.49273e-19
1.50665e-19
1.51561e-19
1.51993e-19
1.11298e-19
1.17517e-19
1.26442e-19
1.37769e-19
1.51241e-19
1.66605e-19
1.83602e-19
2.01956e-19
2.21371e-19
2.41536e-19
2.6213e-19
2.82832e-19
3.03327e-19
3.23317e-19
3.42527e-19
3.60714e-19
3.77672e-19
3.93231e-19
4.07263e-19
4.19677e-19
4.30422e-19
4.3948e-19
4.46865e-19
4.52617e-19
4.56798e-19
4.59489e-19
4.60783e-19
3.30822e-19
3.49731e-19
3.76866e-19
4.11309e-19
4.52266e-19
4.98968e-19
5.50612e-19
6.06345e-19
6.65259e-19
7.26398e-19
7.88781e-19
8.5143e-19
9.13391e-19
9.73766e-19
1.03173e-18
1.08657e-18
1.13765e-18
1.18449e-18
1.2267e-18
1.26402e-18
1.29631e-18
1.32352e-18
1.34569e-18
1.36296e-18
1.37551e-18
1.38358e-18
1.38746e-18
9.866e-19
1.04353e-18
1.12528e-18
1.22907e-18
1.35252e-18
1.49332e-18
1.64902e-18
1.81704e-18
1.99462e-18
2.17886e-18
2.36679e-18
2.55547e-18
2.74199e-18
2.92367e-18
3.09803e-18
3.26289e-18
3.4164e-18
3.55709e-18
3.68382e-18
3.79583e-18
3.89269e-18
3.97428e-18
4.04075e-18
4.09249e-18
4.13007e-18
4.15424e-18
4.16586e-18
2.9501e-18
3.12132e-18
3.36709e-18
3.67911e-18
4.05021e-18
4.47334e-18
4.94116e-18
5.44584e-18
5.97907e-18
6.53211e-18
7.09605e-18
7.66198e-18
8.22129e-18
8.76588e-18
9.28837e-18
9.78226e-18
1.02421e-17
1.06634e-17
1.10428e-17
1.13781e-17
1.16681e-17
1.19123e-17
1.21113e-17
1.22661e-17
1.23786e-17
1.24509e-17
1.24857e-17
8.82162e-18
9.33473e-18
1.00714e-17
1.10067e-17
1.21191e-17
1.33875e-17
1.47898e-17
1.63024e-17
1.79004e-17
1.95575e-17
2.1247e-17
2.29422e-17
2.46172e-17
2.62478e-17
2.78118e-17
2.92899e-17
3.06657e-17
3.19259e-17
3.30607e-17
3.40633e-17
3.49299e-17
3.56597e-17
3.62541e-17
3.67166e-17
3.70526e-17
3.72686e-17
3.73724e-17
2.63915e-17
2.79284e-17
3.01345e-17
3.29349e-17
3.62647e-17
4.00604e-17
4.42557e-17
4.87798e-17
5.35576e-17
5.85106e-17
6.35587e-17
6.8622e-17
7.36234e-17
7.84906e-17
8.31579e-17
8.75674e-17
9.16706e-17
9.54284e-17
9.88114e-17
1.018e-16
1.04383e-16
1.06557e-16
1.08328e-16
1.09706e-16
1.10707e-16
1.11351e-16
1.1166e-16
7.88786e-17
8.34694e-17
9.00586e-17
9.84217e-17
1.08364e-16
1.19694e-16
1.32213e-16
1.45709e-16
1.59957e-16
1.74723e-16
1.89765e-16
2.04848e-16
2.1974e-16
2.34227e-16
2.48113e-16
2.61227e-16
2.73425e-16
2.84593e-16
2.94642e-16
3.03517e-16
3.11185e-16
3.17639e-16
3.22893e-16
3.2698e-16
3.29947e-16
3.31855e-16
3.32771e-16
2.35494e-16
2.49182e-16
2.68819e-16
2.93732e-16
3.23333e-16
3.57049e-16
3.94279e-16
4.34388e-16
4.76704e-16
5.20526e-16
5.6514e-16
6.09842e-16
6.5395e-16
6.96829e-16
7.37906e-16
7.76676e-16
8.12718e-16
8.45697e-16
8.75362e-16
9.01546e-16
9.2416e-16
9.43188e-16
9.58673e-16
9.70715e-16
9.79457e-16
9.85074e-16
9.87773e-16
7.01078e-16
7.4168e-16
7.99912e-16
8.7375e-16
9.6143e-16
1.06122e-15
1.17133e-15
1.28986e-15
1.41479e-15
1.54405e-15
1.67553e-15
1.80713e-15
1.93687e-15
2.06287e-15
2.18346e-15
2.29718e-15
2.4028e-15
2.49937e-15
2.58616e-15
2.66272e-15
2.72879e-15
2.78434e-15
2.82953e-15
2.86465e-15
2.89013e-15
2.9065e-15
2.91436e-15
2.08024e-15
2.19991e-15
2.37142e-15
2.5887e-15
2.84645e-15
3.13946e-15
3.46235e-15
3.80944e-15
4.17477e-15
4.5522e-15
4.93553e-15
5.31867e-15
5.69581e-15
6.06158e-15
6.41117e-15
6.74039e-15
7.04581e-15
7.32471e-15
7.5751e-15
7.79573e-15
7.98597e-15
8.1458e-15
8.2757e-15
8.37658e-15
8.44974e-15
8.4967e-15
8.51924e-15
6.14189e-15
6.49056e-15
6.98978e-15
7.62142e-15
8.36956e-15
9.21861e-15
1.01525e-14
1.11544e-14
1.22069e-14
1.32919e-14
1.43916e-14
1.54885e-14
1.65659e-14
1.76089e-14
1.86037e-14
1.95388e-14
2.04048e-14
2.11942e-14
2.19019e-14
2.25244e-14
2.30605e-14
2.35103e-14
2.38755e-14
2.41588e-14
2.4364e-14
2.44956e-14
2.45588e-14
1.80337e-14
1.90322e-14
2.04595e-14
2.22616e-14
2.43909e-14
2.68007e-14
2.94435e-14
3.22699e-14
3.52294e-14
3.82707e-14
4.1343e-14
4.43977e-14
4.7389e-14
5.02755e-14
5.30209e-14
5.55944e-14
5.79713e-14
6.01329e-14
6.20661e-14
6.37633e-14
6.52218e-14
6.64435e-14
6.74337e-14
6.82008e-14
6.87558e-14
6.91114e-14
6.92818e-14
5.26366e-14
5.54186e-14
5.93846e-14
6.43744e-14
7.02452e-14
7.68584e-14
8.40744e-14
9.1751e-14
9.97452e-14
1.07915e-13
1.16123e-13
1.2424e-13
1.32146e-13
1.39737e-13
1.46921e-13
1.53625e-13
1.5979e-13
1.65374e-13
1.70349e-13
1.74702e-13
1.78431e-13
1.81546e-13
1.84064e-13
1.8601e-13
1.87416e-13
1.88315e-13
1.88745e-13
1.52748e-13
1.60175e-13
1.70708e-13
1.83873e-13
1.99241e-13
2.164e-13
2.34943e-13
2.54469e-13
2.74589e-13
2.9493e-13
3.15144e-13
3.34918e-13
3.53975e-13
3.72082e-13
3.89049e-13
4.04729e-13
4.19017e-13
4.31848e-13
4.43191e-13
4.53041e-13
4.61425e-13
4.68384e-13
4.73981e-13
4.78286e-13
4.81382e-13
4.83355e-13
4.84296e-13
4.39569e-13
4.5807e-13
4.84058e-13
5.16123e-13
5.52975e-13
5.93388e-13
6.36194e-13
6.80297e-13
7.24689e-13
7.68474e-13
8.10879e-13
8.51269e-13
8.89147e-13
9.24155e-13
9.56058e-13
9.84733e-13
1.01016e-12
1.03238e-12
1.05151e-12
1.06772e-12
1.08118e-12
1.0921e-12
1.10069e-12
1.10718e-12
1.11175e-12
1.11462e-12
1.11597e-12
1.23727e-12
1.27814e-12
1.33448e-12
1.40223e-12
1.4776e-12
1.55709e-12
1.63751e-12
1.71609e-12
1.79052e-12
1.859e-12
1.92026e-12
1.97355e-12
2.01855e-12
2.05537e-12
2.08445e-12
2.10645e-12
2.12221e-12
2.13267e-12
2.13879e-12
2.14152e-12
2.14175e-12
2.1403e-12
2.1379e-12
2.13515e-12
2.13257e-12
2.13057e-12
2.12946e-12
3.26884e-12
3.33905e-12
3.43192e-12
3.53719e-12
3.64532e-12
3.74794e-12
3.8381e-12
3.91055e-12
3.96187e-12
3.99038e-12
3.99601e-12
3.98003e-12
3.94474e-12
3.89315e-12
3.82868e-12
3.75488e-12
3.67528e-12
3.59316e-12
3.51151e-12
3.43297e-12
3.3598e-12
3.29389e-12
3.23679e-12
3.18971e-12
3.1536e-12
3.12913e-12
3.11677e-12
7.45962e-12
7.5137e-12
7.57293e-12
7.61982e-12
7.63937e-12
7.62045e-12
7.55656e-12
7.44581e-12
7.2904e-12
7.09569e-12
6.86909e-12
6.61905e-12
6.35413e-12
6.08232e-12
5.8107e-12
5.54524e-12
5.29075e-12
5.05103e-12
4.82904e-12
4.62701e-12
4.44668e-12
4.28943e-12
4.15636e-12
4.04841e-12
3.9664e-12
3.91109e-12
3.88314e-12
1.32903e-11
1.31949e-11
1.30397e-11
1.28172e-11
1.25248e-11
1.2166e-11
1.17497e-11
1.12888e-11
1.07979e-11
1.02918e-11
9.7834e-12
9.28371e-12
8.80104e-12
8.34143e-12
7.90896e-12
7.50618e-12
7.13458e-12
6.79494e-12
6.48765e-12
6.21293e-12
5.97097e-12
5.762e-12
5.5864e-12
5.44463e-12
5.33729e-12
5.26502e-12
5.22855e-12
1.88828e-11
1.86354e-11
1.82795e-11
1.78301e-11
1.73041e-11
1.67203e-11
1.60981e-11
1.54558e-11
1.48093e-11
1.41717e-11
1.35525e-11
1.29588e-11
1.23951e-11
1.18642e-11
1.13675e-11
1.09059e-11
1.04798e-11
1.00894e-11
9.73506e-12
9.41707e-12
9.13604e-12
8.89264e-12
8.68771e-12
8.52211e-12
8.39674e-12
8.31245e-12
8.26999e-12
2.60719e-11
2.58446e-11
2.55203e-11
2.51143e-11
2.46415e-11
2.41169e-11
2.35547e-11
2.29674e-11
2.23655e-11
2.17576e-11
2.11507e-11
2.05509e-11
1.99633e-11
1.93928e-11
1.88435e-11
1.83192e-11
1.78235e-11
1.736e-11
1.69317e-11
1.65419e-11
1.61932e-11
1.58885e-11
1.56301e-11
1.54202e-11
1.52607e-11
1.51532e-11
1.50991e-11
4.08497e-11
4.08345e-11
4.07943e-11
4.07168e-11
4.05936e-11
4.04186e-11
4.01904e-11
3.99113e-11
3.95861e-11
3.92208e-11
3.8822e-11
3.83963e-11
3.79507e-11
3.74916e-11
3.70257e-11
3.65593e-11
3.60988e-11
3.5651e-11
3.52221e-11
3.48189e-11
3.44477e-11
3.41146e-11
3.38255e-11
3.35858e-11
3.34004e-11
3.32734e-11
3.32085e-11
7.46539e-11
7.53637e-11
7.6331e-11
7.7482e-11
7.87551e-11
8.00996e-11
8.1474e-11
8.28457e-11
8.41883e-11
8.54808e-11
8.67063e-11
8.78508e-11
8.89035e-11
8.98562e-11
9.07033e-11
9.14418e-11
9.20717e-11
9.25952e-11
9.30174e-11
9.33454e-11
9.35885e-11
9.37576e-11
9.38649e-11
9.39236e-11
9.39473e-11
9.39498e-11
9.39446e-11
1.60054e-10
1.63627e-10
1.68678e-10
1.74978e-10
1.82336e-10
1.90591e-10
1.99599e-10
2.09226e-10
2.19345e-10
2.29832e-10
2.40561e-10
2.51406e-10
2.62238e-10
2.72927e-10
2.83347e-10
2.93373e-10
3.0289e-10
3.11788e-10
3.19972e-10
3.2736e-10
3.33886e-10
3.39499e-10
3.44167e-10
3.47874e-10
3.50618e-10
3.52415e-10
3.53294e-10
3.93777e-10
4.08405e-10
4.29531e-10
4.56609e-10
4.89254e-10
5.27155e-10
5.70021e-10
6.17541e-10
6.69354e-10
7.25064e-10
7.84152e-10
8.4601e-10
9.09935e-10
9.75144e-10
1.04078e-09
1.10592e-09
1.16961e-09
1.23091e-09
1.28887e-09
1.34257e-09
1.39121e-09
1.43409e-09
1.47063e-09
1.50036e-09
1.52291e-09
1.53803e-09
1.54559e-09
1.06237e-09
1.11587e-09
1.19406e-09
1.29579e-09
1.42049e-09
1.56782e-09
1.7374e-09
1.92856e-09
2.14024e-09
2.37085e-09
2.61823e-09
2.87957e-09
3.15158e-09
3.43089e-09
3.71374e-09
3.99605e-09
4.27357e-09
4.54197e-09
4.79699e-09
5.03456e-09
5.25088e-09
5.44259e-09
5.60669e-09
5.74074e-09
5.84285e-09
5.91163e-09
5.94623e-09
2.99632e-09
3.16366e-09
3.408e-09
3.72521e-09
4.11261e-09
4.56882e-09
5.09199e-09
5.67932e-09
6.32672e-09
7.02856e-09
7.77764e-09
8.56522e-09
9.38118e-09
1.02143e-08
1.10525e-08
1.18832e-08
1.26939e-08
1.3472e-08
1.42057e-08
1.48843e-08
1.54978e-08
1.60378e-08
1.6497e-08
1.68699e-08
1.71523e-08
1.73416e-08
1.74363e-08
8.06727e-09
8.48153e-09
9.08278e-09
9.8574e-09
1.07952e-08
1.18865e-08
1.31207e-08
1.44853e-08
1.59652e-08
1.75426e-08
1.91975e-08
2.09075e-08
2.26488e-08
2.43967e-08
2.61264e-08
2.78134e-08
2.94342e-08
3.09673e-08
3.23931e-08
3.36946e-08
3.48572e-08
3.58685e-08
3.67192e-08
3.74033e-08
3.79167e-08
3.82577e-08
3.8427e-08
1.92719e-08
2.00745e-08
2.1226e-08
2.26873e-08
2.44254e-08
2.64083e-08
2.86037e-08
3.09774e-08
3.34936e-08
3.61147e-08
3.88022e-08
4.15176e-08
4.42229e-08
4.68811e-08
4.94584e-08
5.19238e-08
5.42497e-08
5.64122e-08
5.83911e-08
6.01702e-08
6.1737e-08
6.3082e-08
6.41998e-08
6.50879e-08
6.57475e-08
6.61816e-08
6.63951e-08
3.90996e-08
4.02989e-08
4.19979e-08
4.41189e-08
4.65935e-08
4.93572e-08
5.23482e-08
5.55069e-08
5.87756e-08
6.20995e-08
6.54275e-08
6.87124e-08
7.19116e-08
7.49877e-08
7.79088e-08
8.0648e-08
8.31838e-08
8.54997e-08
8.75836e-08
8.94278e-08
9.10281e-08
9.23837e-08
9.34967e-08
9.4371e-08
9.50131e-08
9.5431e-08
9.56343e-08
6.70998e-08
6.85073e-08
7.04776e-08
7.28999e-08
7.56754e-08
7.87135e-08
8.19319e-08
8.52554e-08
8.86171e-08
9.19579e-08
9.52268e-08
9.83812e-08
1.01386e-07
1.04214e-07
1.06843e-07
1.0926e-07
1.11454e-07
1.13421e-07
1.1516e-07
1.16674e-07
1.17967e-07
1.19045e-07
1.19918e-07
1.20595e-07
1.21086e-07
1.21402e-07
1.21555e-07
9.95729e-08
1.00902e-07
1.02741e-07
1.04971e-07
1.07483e-07
1.10182e-07
1.12983e-07
1.15813e-07
1.18613e-07
1.21331e-07
1.2393e-07
1.2638e-07
1.28659e-07
1.30753e-07
1.32656e-07
1.34364e-07
1.35881e-07
1.3721e-07
1.38359e-07
1.39337e-07
1.40155e-07
1.40824e-07
1.41354e-07
1.41757e-07
1.42044e-07
1.42225e-07
1.42311e-07
1.31618e-07
1.32634e-07
1.34025e-07
1.35685e-07
1.37522e-07
1.39454e-07
1.41414e-07
1.43344e-07
1.45202e-07
1.46954e-07
1.48577e-07
1.50057e-07
1.51387e-07
1.52564e-07
1.53593e-07
1.5448e-07
1.55233e-07
1.55863e-07
1.56382e-07
1.56802e-07
1.57134e-07
1.5739e-07
1.57581e-07
1.57717e-07
1.57807e-07
1.5786e-07
1.57884e-07
1.59462e-07
1.60062e-07
1.60869e-07
1.61809e-07
1.62819e-07
1.63844e-07
1.64838e-07
1.65768e-07
1.6661e-07
1.67348e-07
1.67975e-07
1.68489e-07
1.68895e-07
1.69199e-07
1.6941e-07
1.69542e-07
1.69605e-07
1.69614e-07
1.6958e-07
1.69516e-07
1.69432e-07
1.69339e-07
1.69246e-07
1.6916e-07
1.69089e-07
1.69037e-07
1.6901e-07
1.81499e-07
1.81682e-07
1.81911e-07
1.82148e-07
1.82362e-07
1.82527e-07
1.82624e-07
1.8264e-07
1.82571e-07
1.82417e-07
1.82182e-07
1.81875e-07
1.81506e-07
1.81088e-07
1.80634e-07
1.80158e-07
1.79673e-07
1.79192e-07
1.78727e-07
1.78288e-07
1.77884e-07
1.77525e-07
1.77216e-07
1.76964e-07
1.76771e-07
1.76641e-07
1.76576e-07
1.97329e-07
1.97165e-07
1.96914e-07
1.96573e-07
1.9614e-07
1.95614e-07
1.94996e-07
1.94294e-07
1.93517e-07
1.92676e-07
1.91786e-07
1.9086e-07
1.89915e-07
1.88964e-07
1.88025e-07
1.87109e-07
1.86231e-07
1.85401e-07
1.84631e-07
1.83929e-07
1.83303e-07
1.82759e-07
1.82301e-07
1.81934e-07
1.81658e-07
1.81475e-07
1.81384e-07
2.07454e-07
2.07054e-07
2.06481e-07
2.05755e-07
2.04893e-07
2.0391e-07
2.02814e-07
2.01621e-07
2.00358e-07
1.99046e-07
1.97707e-07
1.96362e-07
1.95027e-07
1.9372e-07
1.92457e-07
1.91251e-07
1.90114e-07
1.89058e-07
1.88091e-07
1.8722e-07
1.86451e-07
1.8579e-07
1.85238e-07
1.84798e-07
1.8447e-07
1.84254e-07
1.84147e-07
2.13356e-07
2.12793e-07
2.11997e-07
2.11004e-07
2.09847e-07
2.08554e-07
2.07153e-07
2.05666e-07
2.04105e-07
2.02504e-07
2.00889e-07
1.99286e-07
1.97714e-07
1.96191e-07
1.94733e-07
1.93354e-07
1.92065e-07
1.90875e-07
1.89793e-07
1.88825e-07
1.87974e-07
1.87246e-07
1.86642e-07
1.86161e-07
1.85804e-07
1.85569e-07
1.85454e-07
2.1623e-07
2.15566e-07
2.14631e-07
2.13476e-07
2.1214e-07
2.10662e-07
2.09073e-07
2.07404e-07
2.05677e-07
2.03915e-07
2.0215e-07
2.00407e-07
1.98708e-07
1.97071e-07
1.95513e-07
1.94045e-07
1.92679e-07
1.91423e-07
1.90285e-07
1.8927e-07
1.88382e-07
1.87623e-07
1.86994e-07
1.86496e-07
1.86126e-07
1.85883e-07
1.85764e-07
2.17014e-07
2.16296e-07
2.15289e-07
2.14047e-07
2.1262e-07
2.11046e-07
2.09364e-07
2.07607e-07
2.05797e-07
2.0396e-07
2.02127e-07
2.00324e-07
1.98573e-07
1.96893e-07
1.95297e-07
1.93798e-07
1.92407e-07
1.91132e-07
1.89978e-07
1.88951e-07
1.88053e-07
1.87287e-07
1.86654e-07
1.86152e-07
1.85781e-07
1.85537e-07
1.85417e-07
2.16418e-07
2.15679e-07
2.14644e-07
2.13371e-07
2.11911e-07
2.10306e-07
2.08594e-07
2.06811e-07
2.04976e-07
2.03122e-07
2.01277e-07
1.99468e-07
1.97716e-07
1.96037e-07
1.94447e-07
1.92955e-07
1.91573e-07
1.90307e-07
1.89164e-07
1.88147e-07
1.87259e-07
1.86502e-07
1.85877e-07
1.85382e-07
1.85015e-07
1.84775e-07
1.84657e-07
2.14956e-07
2.14217e-07
2.13184e-07
2.11915e-07
2.10461e-07
2.08865e-07
2.07166e-07
2.05396e-07
2.03576e-07
2.01742e-07
1.99923e-07
1.98143e-07
1.96421e-07
1.94773e-07
1.93214e-07
1.91753e-07
1.90401e-07
1.89164e-07
1.88046e-07
1.87053e-07
1.86187e-07
1.85449e-07
1.84839e-07
1.84357e-07
1.84e-07
1.83765e-07
1.8365e-07
2.12983e-07
2.12258e-07
2.11245e-07
2.10002e-07
2.08577e-07
2.07015e-07
2.05352e-07
2.03617e-07
2.01839e-07
2.00051e-07
1.98281e-07
1.9655e-07
1.94878e-07
1.93279e-07
1.91767e-07
1.90351e-07
1.89041e-07
1.87843e-07
1.86761e-07
1.858e-07
1.84961e-07
1.84247e-07
1.83657e-07
1.83191e-07
1.82845e-07
1.82619e-07
1.82507e-07
2.10739e-07
2.10037e-07
2.09055e-07
2.07851e-07
2.0647e-07
2.04956e-07
2.03345e-07
2.01659e-07
1.99936e-07
1.98208e-07
1.96498e-07
1.94829e-07
1.93216e-07
1.91676e-07
1.90219e-07
1.88856e-07
1.87594e-07
1.8644e-07
1.85399e-07
1.84473e-07
1.83666e-07
1.82979e-07
1.82411e-07
1.81961e-07
1.81629e-07
1.81411e-07
1.81303e-07
2.08383e-07
2.07707e-07
2.06763e-07
2.05603e-07
2.04275e-07
2.02818e-07
2.01256e-07
1.99629e-07
1.97971e-07
1.9631e-07
1.94668e-07
1.93065e-07
1.91518e-07
1.9004e-07
1.88642e-07
1.87334e-07
1.86124e-07
1.85017e-07
1.84017e-07
1.83129e-07
1.82355e-07
1.81695e-07
1.8115e-07
1.80718e-07
1.80399e-07
1.80189e-07
1.80086e-07
2.0601e-07
2.05362e-07
2.04456e-07
2.03344e-07
2.02069e-07
2.00663e-07
1.99161e-07
1.976e-07
1.96011e-07
1.9442e-07
1.92848e-07
1.91314e-07
1.89833e-07
1.88418e-07
1.8708e-07
1.85828e-07
1.84669e-07
1.83608e-07
1.82651e-07
1.818e-07
1.81058e-07
1.80426e-07
1.79903e-07
1.79489e-07
1.79183e-07
1.78982e-07
1.78883e-07
2.03682e-07
2.03062e-07
2.02196e-07
2.01131e-07
1.99904e-07
1.98551e-07
1.9711e-07
1.95616e-07
1.94097e-07
1.92576e-07
1.91073e-07
1.89607e-07
1.88191e-07
1.86838e-07
1.85558e-07
1.84361e-07
1.83252e-07
1.82237e-07
1.81321e-07
1.80506e-07
1.79795e-07
1.79189e-07
1.78688e-07
1.78292e-07
1.77998e-07
1.77805e-07
1.77711e-07
2.01433e-07
2.00842e-07
2.00014e-07
1.9899e-07
1.97807e-07
1.96509e-07
1.95131e-07
1.93703e-07
1.92251e-07
1.90798e-07
1.89363e-07
1.87962e-07
1.86608e-07
1.85315e-07
1.84092e-07
1.82946e-07
1.81885e-07
1.80914e-07
1.80037e-07
1.79257e-07
1.78576e-07
1.77995e-07
1.77515e-07
1.77135e-07
1.76854e-07
1.76669e-07
1.76578e-07
1.9929e-07
1.98722e-07
1.9792e-07
1.96931e-07
1.95796e-07
1.94554e-07
1.93236e-07
1.91872e-07
1.90485e-07
1.89097e-07
1.87726e-07
1.86386e-07
1.85093e-07
1.83856e-07
1.82686e-07
1.8159e-07
1.80574e-07
1.79645e-07
1.78805e-07
1.78057e-07
1.77405e-07
1.76848e-07
1.76388e-07
1.76024e-07
1.75754e-07
1.75576e-07
1.75489e-07
1.97239e-07
1.96685e-07
1.95911e-07
1.94962e-07
1.93876e-07
1.92689e-07
1.9143e-07
1.90127e-07
1.88802e-07
1.87475e-07
1.86164e-07
1.84884e-07
1.83647e-07
1.82463e-07
1.81343e-07
1.80294e-07
1.79321e-07
1.7843e-07
1.77625e-07
1.76909e-07
1.76283e-07
1.7575e-07
1.75308e-07
1.74958e-07
1.74699e-07
1.74528e-07
1.74444e-07
1.95264e-07
1.94734e-07
1.93995e-07
1.93088e-07
1.92051e-07
1.90916e-07
1.89713e-07
1.88468e-07
1.87201e-07
1.85932e-07
1.84678e-07
1.83452e-07
1.82268e-07
1.81135e-07
1.80062e-07
1.79056e-07
1.78123e-07
1.77269e-07
1.76497e-07
1.7581e-07
1.75209e-07
1.74697e-07
1.74273e-07
1.73937e-07
1.73688e-07
1.73524e-07
1.73443e-07
1.93389e-07
1.92883e-07
1.92176e-07
1.91309e-07
1.90317e-07
1.89233e-07
1.88082e-07
1.8689e-07
1.85678e-07
1.84463e-07
1.83262e-07
1.82088e-07
1.80953e-07
1.79867e-07
1.78838e-07
1.77873e-07
1.76978e-07
1.76158e-07
1.75417e-07
1.74757e-07
1.7418e-07
1.73688e-07
1.7328e-07
1.72957e-07
1.72717e-07
1.72559e-07
1.72482e-07
1.9161e-07
1.91126e-07
1.9045e-07
1.8962e-07
1.88671e-07
1.87633e-07
1.86531e-07
1.85389e-07
1.84228e-07
1.83063e-07
1.81912e-07
1.80786e-07
1.79697e-07
1.78655e-07
1.77667e-07
1.7674e-07
1.75881e-07
1.75093e-07
1.74381e-07
1.73746e-07
1.73191e-07
1.72718e-07
1.72325e-07
1.72014e-07
1.71783e-07
1.71631e-07
1.71556e-07
1.89921e-07
1.89457e-07
1.88809e-07
1.88014e-07
1.87105e-07
1.8611e-07
1.85054e-07
1.83959e-07
1.82844e-07
1.81727e-07
1.80622e-07
1.79541e-07
1.78495e-07
1.77493e-07
1.76544e-07
1.75653e-07
1.74827e-07
1.74069e-07
1.73383e-07
1.72772e-07
1.72238e-07
1.71782e-07
1.71404e-07
1.71105e-07
1.70882e-07
1.70736e-07
1.70663e-07
1.88312e-07
1.87868e-07
1.87246e-07
1.86484e-07
1.85611e-07
1.84656e-07
1.83642e-07
1.82591e-07
1.8152e-07
1.80447e-07
1.79385e-07
1.78345e-07
1.7734e-07
1.76376e-07
1.75463e-07
1.74606e-07
1.7381e-07
1.73081e-07
1.7242e-07
1.71832e-07
1.71317e-07
1.70877e-07
1.70513e-07
1.70224e-07
1.70009e-07
1.69868e-07
1.69798e-07
1.86776e-07
1.86349e-07
1.85752e-07
1.8502e-07
1.84181e-07
1.83263e-07
1.82289e-07
1.81278e-07
1.80249e-07
1.79216e-07
1.78194e-07
1.77194e-07
1.76226e-07
1.75298e-07
1.74418e-07
1.73593e-07
1.72826e-07
1.72122e-07
1.71486e-07
1.70918e-07
1.70422e-07
1.69997e-07
1.69646e-07
1.69366e-07
1.69159e-07
1.69022e-07
1.68955e-07
1.85302e-07
1.84891e-07
1.84318e-07
1.83613e-07
1.82807e-07
1.81924e-07
1.80986e-07
1.80013e-07
1.79022e-07
1.78027e-07
1.77043e-07
1.76079e-07
1.75146e-07
1.74251e-07
1.73403e-07
1.72606e-07
1.71867e-07
1.71188e-07
1.70573e-07
1.70025e-07
1.69546e-07
1.69136e-07
1.68796e-07
1.68526e-07
1.68325e-07
1.68193e-07
1.68128e-07
1.83882e-07
1.83486e-07
1.82934e-07
1.82255e-07
1.81478e-07
1.80627e-07
1.79724e-07
1.78786e-07
1.7783e-07
1.76871e-07
1.75922e-07
1.74992e-07
1.74091e-07
1.73228e-07
1.72409e-07
1.7164e-07
1.70925e-07
1.70269e-07
1.69675e-07
1.69146e-07
1.68682e-07
1.68286e-07
1.67957e-07
1.67696e-07
1.67502e-07
1.67374e-07
1.67311e-07
1.82505e-07
1.82123e-07
1.8159e-07
1.80936e-07
1.80187e-07
1.79366e-07
1.78493e-07
1.77588e-07
1.76666e-07
1.7574e-07
1.74823e-07
1.73924e-07
1.73054e-07
1.7222e-07
1.71428e-07
1.70685e-07
1.69994e-07
1.69359e-07
1.68785e-07
1.68272e-07
1.67823e-07
1.6744e-07
1.67121e-07
1.66868e-07
1.6668e-07
1.66556e-07
1.66495e-07
1.8116e-07
1.80791e-07
1.80276e-07
1.79644e-07
1.7892e-07
1.78127e-07
1.77284e-07
1.76409e-07
1.75517e-07
1.74622e-07
1.73735e-07
1.72866e-07
1.72024e-07
1.71217e-07
1.70451e-07
1.69731e-07
1.69062e-07
1.68448e-07
1.67891e-07
1.67394e-07
1.6696e-07
1.66588e-07
1.66279e-07
1.66034e-07
1.65851e-07
1.65731e-07
1.65672e-07
1.79834e-07
1.79478e-07
1.7898e-07
1.78368e-07
1.77668e-07
1.769e-07
1.76084e-07
1.75237e-07
1.74374e-07
1.73507e-07
1.72647e-07
1.71806e-07
1.7099e-07
1.70208e-07
1.69465e-07
1.68767e-07
1.68118e-07
1.67523e-07
1.66983e-07
1.66501e-07
1.66079e-07
1.65718e-07
1.65419e-07
1.65181e-07
1.65004e-07
1.64887e-07
1.64829e-07
1.78514e-07
1.78169e-07
1.77686e-07
1.77093e-07
1.76414e-07
1.7567e-07
1.74879e-07
1.74058e-07
1.7322e-07
1.72379e-07
1.71546e-07
1.70729e-07
1.69938e-07
1.69178e-07
1.68457e-07
1.6778e-07
1.6715e-07
1.66571e-07
1.66047e-07
1.65579e-07
1.65169e-07
1.64819e-07
1.64527e-07
1.64296e-07
1.64123e-07
1.6401e-07
1.63954e-07
1.77184e-07
1.76848e-07
1.7638e-07
1.75804e-07
1.75144e-07
1.74421e-07
1.73653e-07
1.72855e-07
1.72041e-07
1.71224e-07
1.70413e-07
1.6962e-07
1.6885e-07
1.68112e-07
1.67411e-07
1.66752e-07
1.6614e-07
1.65577e-07
1.65067e-07
1.64612e-07
1.64213e-07
1.63871e-07
1.63588e-07
1.63362e-07
1.63194e-07
1.63084e-07
1.63029e-07
1.75823e-07
1.75497e-07
1.75041e-07
1.7448e-07
1.73838e-07
1.73134e-07
1.72386e-07
1.71609e-07
1.70816e-07
1.7002e-07
1.69231e-07
1.68458e-07
1.67708e-07
1.66989e-07
1.66306e-07
1.65664e-07
1.65068e-07
1.64519e-07
1.64022e-07
1.63578e-07
1.63189e-07
1.62856e-07
1.6258e-07
1.6236e-07
1.62196e-07
1.62088e-07
1.62035e-07
1.7441e-07
1.74092e-07
1.73646e-07
1.73099e-07
1.72472e-07
1.71785e-07
1.71055e-07
1.70296e-07
1.69522e-07
1.68745e-07
1.67975e-07
1.6722e-07
1.66488e-07
1.65786e-07
1.65119e-07
1.64492e-07
1.6391e-07
1.63374e-07
1.62888e-07
1.62455e-07
1.62075e-07
1.61749e-07
1.61479e-07
1.61264e-07
1.61104e-07
1.60999e-07
1.60946e-07
1.72918e-07
1.72606e-07
1.72169e-07
1.71634e-07
1.7102e-07
1.70347e-07
1.69632e-07
1.68889e-07
1.68131e-07
1.67371e-07
1.66616e-07
1.65877e-07
1.65161e-07
1.64473e-07
1.63821e-07
1.63207e-07
1.62636e-07
1.62112e-07
1.61636e-07
1.61212e-07
1.60839e-07
1.6052e-07
1.60256e-07
1.60045e-07
1.59888e-07
1.59785e-07
1.59734e-07
1.71313e-07
1.71006e-07
1.70577e-07
1.70051e-07
1.69448e-07
1.68786e-07
1.68084e-07
1.67354e-07
1.66609e-07
1.65862e-07
1.65121e-07
1.64395e-07
1.63692e-07
1.63017e-07
1.62375e-07
1.61773e-07
1.61212e-07
1.60697e-07
1.6023e-07
1.59812e-07
1.59447e-07
1.59133e-07
1.58873e-07
1.58666e-07
1.58512e-07
1.58411e-07
1.5836e-07
1.69557e-07
1.69254e-07
1.68831e-07
1.68311e-07
1.67716e-07
1.67064e-07
1.6637e-07
1.6565e-07
1.64916e-07
1.64179e-07
1.63449e-07
1.62733e-07
1.62039e-07
1.61374e-07
1.60741e-07
1.60147e-07
1.59594e-07
1.59086e-07
1.58625e-07
1.58214e-07
1.57853e-07
1.57544e-07
1.57288e-07
1.57084e-07
1.56932e-07
1.56832e-07
1.56783e-07
1.67604e-07
1.67304e-07
1.66884e-07
1.66369e-07
1.65779e-07
1.65132e-07
1.64445e-07
1.63731e-07
1.63004e-07
1.62274e-07
1.6155e-07
1.60841e-07
1.60153e-07
1.59494e-07
1.58868e-07
1.58279e-07
1.57731e-07
1.57228e-07
1.56772e-07
1.56364e-07
1.56007e-07
1.55702e-07
1.55448e-07
1.55246e-07
1.55096e-07
1.54997e-07
1.54948e-07
1.65402e-07
1.65102e-07
1.64684e-07
1.6417e-07
1.63582e-07
1.62937e-07
1.62252e-07
1.61541e-07
1.60816e-07
1.60088e-07
1.59367e-07
1.5866e-07
1.57975e-07
1.57318e-07
1.56694e-07
1.56108e-07
1.55563e-07
1.55062e-07
1.54607e-07
1.54202e-07
1.53847e-07
1.53543e-07
1.5329e-07
1.5309e-07
1.5294e-07
1.52842e-07
1.52793e-07
1.62887e-07
1.62587e-07
1.62167e-07
1.61651e-07
1.61061e-07
1.60414e-07
1.59726e-07
1.59012e-07
1.58284e-07
1.57554e-07
1.5683e-07
1.56121e-07
1.55434e-07
1.54775e-07
1.5415e-07
1.53562e-07
1.53016e-07
1.52515e-07
1.5206e-07
1.51655e-07
1.51299e-07
1.50995e-07
1.50743e-07
1.50543e-07
1.50393e-07
1.50295e-07
1.50247e-07
1.5999e-07
1.59686e-07
1.59261e-07
1.58738e-07
1.5814e-07
1.57485e-07
1.56789e-07
1.56066e-07
1.5533e-07
1.54591e-07
1.53859e-07
1.53143e-07
1.52449e-07
1.51784e-07
1.51153e-07
1.5056e-07
1.50009e-07
1.49504e-07
1.49047e-07
1.48638e-07
1.48281e-07
1.47975e-07
1.47722e-07
1.4752e-07
1.47371e-07
1.47272e-07
1.47223e-07
1.5662e-07
1.56309e-07
1.55874e-07
1.5534e-07
1.54729e-07
1.5406e-07
1.53349e-07
1.52612e-07
1.51861e-07
1.51107e-07
1.50362e-07
1.49632e-07
1.48926e-07
1.4825e-07
1.47609e-07
1.47007e-07
1.46448e-07
1.45936e-07
1.45472e-07
1.45059e-07
1.44697e-07
1.44388e-07
1.44132e-07
1.43928e-07
1.43777e-07
1.43678e-07
1.43629e-07
1.52676e-07
1.52355e-07
1.51907e-07
1.51357e-07
1.50727e-07
1.50038e-07
1.49306e-07
1.48547e-07
1.47775e-07
1.47002e-07
1.46236e-07
1.45488e-07
1.44765e-07
1.44072e-07
1.43416e-07
1.42801e-07
1.4223e-07
1.41707e-07
1.41235e-07
1.40813e-07
1.40445e-07
1.4013e-07
1.3987e-07
1.39663e-07
1.3951e-07
1.39409e-07
1.39359e-07
1.48052e-07
1.47718e-07
1.47252e-07
1.4668e-07
1.46026e-07
1.45311e-07
1.44552e-07
1.43766e-07
1.42966e-07
1.42166e-07
1.41375e-07
1.40602e-07
1.39856e-07
1.39142e-07
1.38466e-07
1.37833e-07
1.37247e-07
1.3671e-07
1.36225e-07
1.35793e-07
1.35416e-07
1.35094e-07
1.34828e-07
1.34617e-07
1.3446e-07
1.34357e-07
1.34306e-07
1.42636e-07
1.42286e-07
1.41798e-07
1.412e-07
1.40516e-07
1.39769e-07
1.38977e-07
1.38157e-07
1.37324e-07
1.3649e-07
1.35667e-07
1.34865e-07
1.3409e-07
1.3335e-07
1.32651e-07
1.31997e-07
1.31391e-07
1.30837e-07
1.30337e-07
1.29892e-07
1.29504e-07
1.29174e-07
1.289e-07
1.28683e-07
1.28523e-07
1.28417e-07
1.28365e-07
1.3632e-07
1.35952e-07
1.35439e-07
1.34809e-07
1.34091e-07
1.33306e-07
1.32475e-07
1.31616e-07
1.30744e-07
1.29872e-07
1.29013e-07
1.28176e-07
1.27369e-07
1.266e-07
1.25873e-07
1.25194e-07
1.24566e-07
1.23993e-07
1.23476e-07
1.23017e-07
1.22617e-07
1.22276e-07
1.21994e-07
1.21771e-07
1.21606e-07
1.21498e-07
1.21445e-07
1.2901e-07
1.28621e-07
1.2808e-07
1.27416e-07
1.2666e-07
1.25834e-07
1.2496e-07
1.24058e-07
1.23143e-07
1.22231e-07
1.21333e-07
1.20458e-07
1.19617e-07
1.18815e-07
1.1806e-07
1.17355e-07
1.16703e-07
1.1611e-07
1.15575e-07
1.15101e-07
1.14688e-07
1.14336e-07
1.14046e-07
1.13817e-07
1.13648e-07
1.13537e-07
1.13482e-07
1.20642e-07
1.20232e-07
1.19661e-07
1.18962e-07
1.18166e-07
1.17298e-07
1.16381e-07
1.15435e-07
1.14478e-07
1.13524e-07
1.12586e-07
1.11675e-07
1.108e-07
1.09967e-07
1.09184e-07
1.08453e-07
1.0778e-07
1.07167e-07
1.06615e-07
1.06127e-07
1.05702e-07
1.05341e-07
1.05044e-07
1.04809e-07
1.04636e-07
1.04522e-07
1.04466e-07
1.11203e-07
1.10773e-07
1.10174e-07
1.09442e-07
1.08608e-07
1.07701e-07
1.06744e-07
1.05759e-07
1.04763e-07
1.03772e-07
1.028e-07
1.01857e-07
1.00953e-07
1.00094e-07
9.9287e-08
9.85361e-08
9.78451e-08
9.72165e-08
9.66522e-08
9.61531e-08
9.57198e-08
9.5352e-08
9.50492e-08
9.48103e-08
9.46341e-08
9.45186e-08
9.44621e-08
1.00758e-07
1.00311e-07
9.96899e-08
9.89313e-08
9.80685e-08
9.71306e-08
9.6143e-08
9.51278e-08
9.41039e-08
9.30872e-08
9.20913e-08
9.11271e-08
9.02039e-08
8.93291e-08
8.85083e-08
8.77461e-08
8.70458e-08
8.64099e-08
8.58399e-08
8.53365e-08
8.49e-08
8.453e-08
8.42258e-08
8.39861e-08
8.38094e-08
8.36938e-08
8.36372e-08
8.94754e-08
8.90191e-08
8.83847e-08
8.76113e-08
8.67331e-08
8.578e-08
8.47783e-08
8.37506e-08
8.27161e-08
8.16911e-08
8.0689e-08
7.9721e-08
7.87961e-08
7.79213e-08
7.71022e-08
7.63429e-08
7.56467e-08
7.50155e-08
7.44506e-08
7.39525e-08
7.35212e-08
7.31562e-08
7.28564e-08
7.26205e-08
7.24467e-08
7.23332e-08
7.22776e-08
7.76424e-08
7.71867e-08
7.65539e-08
7.57835e-08
7.49102e-08
7.39643e-08
7.29721e-08
7.19564e-08
7.09363e-08
6.99279e-08
6.89444e-08
6.79964e-08
6.70926e-08
6.62396e-08
6.54426e-08
6.47054e-08
6.40307e-08
6.342e-08
6.28744e-08
6.23942e-08
6.19789e-08
6.1628e-08
6.13401e-08
6.11137e-08
6.09473e-08
6.08386e-08
6.07854e-08
6.56618e-08
6.52199e-08
6.4607e-08
6.38621e-08
6.30192e-08
6.21081e-08
6.11548e-08
6.01811e-08
5.92057e-08
5.82438e-08
5.73079e-08
5.64081e-08
5.55523e-08
5.47466e-08
5.39954e-08
5.33021e-08
5.26687e-08
5.20967e-08
5.15865e-08
5.11381e-08
5.0751e-08
5.04243e-08
5.01567e-08
4.99465e-08
4.97921e-08
4.96913e-08
4.96421e-08
5.40134e-08
5.35996e-08
5.30264e-08
5.2331e-08
5.15457e-08
5.06988e-08
4.98148e-08
4.89143e-08
4.80146e-08
4.71297e-08
4.62711e-08
4.54479e-08
4.46669e-08
4.39334e-08
4.32513e-08
4.26231e-08
4.20505e-08
4.15345e-08
4.10751e-08
4.06721e-08
4.03248e-08
4.0032e-08
3.97926e-08
3.96047e-08
3.94669e-08
3.9377e-08
3.93332e-08
4.31774e-08
4.28045e-08
4.22886e-08
4.16638e-08
4.09598e-08
4.02024e-08
3.94139e-08
3.86129e-08
3.78149e-08
3.70324e-08
3.62753e-08
3.55515e-08
3.48668e-08
3.42255e-08
3.36308e-08
3.30845e-08
3.25878e-08