/*--------------------------------*- C++ -*----------------------------------*\
| =========                 |                                                 |
| \\      /  F ield         | OpenFOAM: The Open Source CFD Toolbox           |
|  \\    /   O peration     | Version:  2106                                  |
|   \\  /    A nd           | Website:  www.openfoam.com                      |
|    \\/     M anipulation  |                                                 |
\*---------------------------------------------------------------------------*/
FoamFile
{
    version     2.0;
    format      ascii;
    arch        "LSB;label=32;scalar=64";
    class       volScalarField;
    location    "149.99958";
    object      CH3_0;
}
// * * * * * * * * * * * * * * * * * * * * * * * * * * * * * * * * * * * * * //

dimensions      [0 0 0 0 0 0 0];

internalField   nonuniform List<scalar> 
3360
(
1.69127e-21
1.74535e-21
1.8206e-21
1.91264e-21
2.01764e-21
2.13213e-21
2.253e-21
2.37746e-21
2.503e-21
2.62741e-21
2.74878e-21
2.86549e-21
2.97621e-21
3.07986e-21
3.17563e-21
3.26297e-21
3.34152e-21
3.41114e-21
3.47186e-21
3.52385e-21
3.56744e-21
3.60303e-21
3.63115e-21
3.65235e-21
3.66727e-21
3.67655e-21
3.68086e-21
7.38914e-21
7.65899e-21
8.03977e-21
8.51393e-21
9.06696e-21
9.68616e-21
1.03602e-20
1.10788e-20
1.18323e-20
1.26115e-20
1.34078e-20
1.42127e-20
1.50177e-20
1.58147e-20
1.65954e-20
1.73519e-20
1.80763e-20
1.87611e-20
1.93989e-20
1.99828e-20
2.05067e-20
2.0965e-20
2.13529e-20
2.16666e-20
2.19034e-20
2.20615e-20
2.21404e-20
2.30305e-20
2.40346e-20
2.54611e-20
2.72535e-20
2.93645e-20
3.1752e-20
3.43758e-20
3.71962e-20
4.01732e-20
4.32661e-20
4.6433e-20
4.96326e-20
5.28239e-20
5.59665e-20
5.90211e-20
6.19507e-20
6.47209e-20
6.73009e-20
6.96639e-20
7.17877e-20
7.36553e-20
7.52545e-20
7.65783e-20
7.76247e-20
7.83961e-20
7.88991e-20
7.9144e-20
6.64792e-20
6.97584e-20
7.44486e-20
8.03816e-20
8.74163e-20
9.54209e-20
1.04264e-19
1.13808e-19
1.23912e-19
1.34424e-19
1.4519e-19
1.56053e-19
1.66856e-19
1.77447e-19
1.87682e-19
1.97429e-19
2.0657e-19
2.15006e-19
2.22656e-19
2.29461e-19
2.35382e-19
2.40397e-19
2.44504e-19
2.47717e-19
2.50061e-19
2.51574e-19
2.52304e-19
1.92199e-19
2.02435e-19
2.17103e-19
2.35699e-19
2.57796e-19
2.82982e-19
3.10837e-19
3.40913e-19
3.72737e-19
4.05808e-19
4.39609e-19
4.7362e-19
5.07332e-19
5.40259e-19
5.7195e-19
6.02002e-19
6.30067e-19
6.55861e-19
6.79161e-19
6.99808e-19
7.17707e-19
7.32818e-19
7.45156e-19
7.54778e-19
7.61781e-19
7.66292e-19
7.68463e-19
5.60233e-19
5.91308e-19
6.35893e-19
6.92465e-19
7.59721e-19
8.36401e-19
9.212e-19
1.01273e-18
1.10952e-18
1.21002e-18
1.31262e-18
1.41573e-18
1.51777e-18
1.61727e-18
1.71287e-18
1.80335e-18
1.8877e-18
1.96508e-18
2.03485e-18
2.09656e-18
2.14997e-18
2.195e-18
2.2317e-18
2.26028e-18
2.28105e-18
2.29442e-18
2.30085e-18
1.64424e-18
1.73753e-18
1.87137e-18
2.04121e-18
2.2431e-18
2.47322e-18
2.72759e-18
3.002e-18
3.29195e-18
3.59275e-18
3.89956e-18
4.20757e-18
4.5121e-18
4.80876e-18
5.0935e-18
5.36278e-18
5.61359e-18
5.8435e-18
6.05066e-18
6.23381e-18
6.39223e-18
6.52571e-18
6.63449e-18
6.71917e-18
6.78072e-18
6.82031e-18
6.83934e-18
4.83974e-18
5.11698e-18
5.51493e-18
6.02005e-18
6.62067e-18
7.30535e-18
8.06224e-18
8.87867e-18
9.7412e-18
1.06358e-17
1.15479e-17
1.24633e-17
1.33681e-17
1.4249e-17
1.50942e-17
1.58931e-17
1.66369e-17
1.73184e-17
1.79322e-17
1.84746e-17
1.89435e-17
1.93385e-17
1.96602e-17
1.99106e-17
2.00925e-17
2.02095e-17
2.02657e-17
1.42783e-17
1.51009e-17
1.62815e-17
1.77797e-17
1.9561e-17
2.15912e-17
2.3835e-17
2.62545e-17
2.88099e-17
3.14592e-17
3.41596e-17
3.68687e-17
3.95452e-17
4.21504e-17
4.46492e-17
4.70106e-17
4.92085e-17
5.12218e-17
5.30349e-17
5.46369e-17
5.60218e-17
5.71881e-17
5.81381e-17
5.88775e-17
5.94146e-17
5.976e-17
5.99259e-17
4.21097e-17
4.45414e-17
4.80316e-17
5.24616e-17
5.77283e-17
6.3731e-17
7.03647e-17
7.75175e-17
8.50709e-17
9.29008e-17
1.00881e-16
1.08884e-16
1.1679e-16
1.24484e-16
1.31862e-16
1.38832e-16
1.45318e-16
1.51259e-16
1.56607e-16
1.61331e-16
1.65414e-16
1.68851e-16
1.71651e-16
1.73829e-16
1.75411e-16
1.76428e-16
1.76916e-16
1.24188e-16
1.31369e-16
1.41675e-16
1.54752e-16
1.70296e-16
1.88008e-16
2.07577e-16
2.2867e-16
2.50938e-16
2.74013e-16
2.97522e-16
3.21094e-16
3.4437e-16
3.67014e-16
3.88722e-16
4.09226e-16
4.283e-16
4.45765e-16
4.61485e-16
4.75369e-16
4.87367e-16
4.97468e-16
5.05692e-16
5.1209e-16
5.16737e-16
5.19724e-16
5.21159e-16
3.65639e-16
3.86779e-16
4.17113e-16
4.55602e-16
5.01341e-16
5.53445e-16
6.10994e-16
6.73009e-16
7.38454e-16
8.06248e-16
8.75292e-16
9.44493e-16
1.0128e-15
1.07923e-15
1.14288e-15
1.20298e-15
1.25887e-15
1.31002e-15
1.35605e-15
1.39669e-15
1.43179e-15
1.46133e-15
1.48538e-15
1.50409e-15
1.51767e-15
1.52639e-15
1.53059e-15
1.07423e-15
1.13629e-15
1.22532e-15
1.33824e-15
1.47236e-15
1.62506e-15
1.79361e-15
1.97514e-15
2.16658e-15
2.36476e-15
2.56645e-15
2.76847e-15
2.96775e-15
3.16142e-15
3.34689e-15
3.52191e-15
3.68457e-15
3.83338e-15
3.96721e-15
4.08531e-15
4.1873e-15
4.27309e-15
4.34291e-15
4.39719e-15
4.43659e-15
4.46191e-15
4.47407e-15
3.14185e-15
3.323e-15
3.58275e-15
3.91204e-15
4.30293e-15
4.74769e-15
5.23826e-15
5.76615e-15
6.32239e-15
6.89771e-15
7.48271e-15
8.0681e-15
8.64502e-15
9.2052e-15
9.74118e-15
1.02465e-14
1.07158e-14
1.11447e-14
1.15301e-14
1.18701e-14
1.21634e-14
1.241e-14
1.26105e-14
1.27664e-14
1.28794e-14
1.29521e-14
1.29869e-14
9.13425e-15
9.65893e-15
1.04108e-14
1.13631e-14
1.24926e-14
1.37763e-14
1.51905e-14
1.67104e-14
1.83099e-14
1.99619e-14
2.16393e-14
2.33156e-14
2.49653e-14
2.6565e-14
2.80936e-14
2.9533e-14
3.0868e-14
3.20869e-14
3.31812e-14
3.41452e-14
3.49763e-14
3.56744e-14
3.62418e-14
3.66824e-14
3.70018e-14
3.72069e-14
3.73053e-14
2.63078e-14
2.78079e-14
2.99558e-14
3.26736e-14
3.58927e-14
3.95461e-14
4.35647e-14
4.78763e-14
5.24054e-14
5.70751e-14
6.18079e-14
6.65288e-14
7.11664e-14
7.56554e-14
7.99374e-14
8.39626e-14
8.76901e-14
9.10882e-14
9.41342e-14
9.6814e-14
9.91214e-14
1.01057e-13
1.02629e-13
1.03848e-13
1.04731e-13
1.05298e-13
1.05569e-13
7.48003e-14
7.9011e-14
8.50327e-14
9.26404e-14
1.01635e-13
1.11823e-13
1.23004e-13
1.34973e-13
1.47515e-13
1.60414e-13
1.73456e-13
1.86432e-13
1.9915e-13
2.1143e-13
2.23118e-13
2.34081e-13
2.44212e-13
2.5343e-13
2.61678e-13
2.68921e-13
2.75149e-13
2.80366e-13
2.84595e-13
2.87872e-13
2.90244e-13
2.91763e-13
2.92491e-13
2.08935e-13
2.20433e-13
2.3685e-13
2.57547e-13
2.81959e-13
3.09531e-13
3.39704e-13
3.71901e-13
4.05535e-13
4.40017e-13
4.74768e-13
5.09239e-13
5.42918e-13
5.75345e-13
6.06121e-13
6.34911e-13
6.6145e-13
6.8554e-13
7.07047e-13
7.25898e-13
7.42073e-13
7.55602e-13
7.66551e-13
7.75024e-13
7.81147e-13
7.85065e-13
7.86941e-13
5.70288e-13
6.00458e-13
6.43434e-13
6.97453e-13
7.60942e-13
8.32378e-13
9.10233e-13
9.92962e-13
1.07902e-12
1.16687e-12
1.25505e-12
1.34216e-12
1.42695e-12
1.5083e-12
1.58524e-12
1.65699e-12
1.72294e-12
1.78264e-12
1.8358e-12
1.8823e-12
1.92211e-12
1.95535e-12
1.98221e-12
2.00296e-12
2.01794e-12
2.02752e-12
2.03209e-12
1.51345e-12
1.58822e-12
1.69434e-12
1.82709e-12
1.98226e-12
2.15581e-12
2.34375e-12
2.54215e-12
2.74718e-12
2.95515e-12
3.16259e-12
3.3663e-12
3.56345e-12
3.75159e-12
3.92865e-12
4.09303e-12
4.24347e-12
4.37916e-12
4.49959e-12
4.6046e-12
4.69429e-12
4.76901e-12
4.82928e-12
4.87577e-12
4.90928e-12
4.93069e-12
4.94092e-12
3.89685e-12
4.06851e-12
4.31052e-12
4.61066e-12
4.95787e-12
5.34168e-12
5.75207e-12
6.17952e-12
6.61512e-12
7.05068e-12
7.47888e-12
7.89338e-12
8.28882e-12
8.66088e-12
9.00623e-12
9.32246e-12
9.60807e-12
9.86232e-12
1.00852e-11
1.02771e-11
1.04393e-11
1.05729e-11
1.06797e-11
1.07614e-11
1.08199e-11
1.0857e-11
1.08746e-11
9.74862e-12
1.01104e-11
1.06145e-11
1.12297e-11
1.19268e-11
1.26784e-11
1.34586e-11
1.42434e-11
1.50118e-11
1.57459e-11
1.6432e-11
1.70601e-11
1.7624e-11
1.81202e-11
1.85478e-11
1.89073e-11
1.91999e-11
1.94278e-11
1.95952e-11
1.97081e-11
1.97743e-11
1.98028e-11
1.98034e-11
1.9786e-11
1.97602e-11
1.97351e-11
1.9719e-11
2.35728e-11
2.42877e-11
2.52725e-11
2.64564e-11
2.77744e-11
2.91634e-11
3.05599e-11
3.18931e-11
3.30936e-11
3.4111e-11
3.49259e-11
3.55568e-11
3.60636e-11
3.65478e-11
3.71499e-11
3.80449e-11
3.92326e-11
4.05772e-11
4.19782e-11
4.33591e-11
4.46612e-11
4.58394e-11
4.68597e-11
4.7697e-11
4.83344e-11
4.87619e-11
4.89752e-11
5.336e-11
5.471e-11
5.65896e-11
5.89757e-11
6.20258e-11
6.61928e-11
7.23872e-11
8.0973e-11
9.15232e-11
1.03786e-10
1.17573e-10
1.32704e-10
1.48978e-10
1.66163e-10
1.83994e-10
2.02174e-10
2.20383e-10
2.38288e-10
2.55552e-10
2.71848e-10
2.86864e-10
3.00312e-10
3.11935e-10
3.21513e-10
3.28863e-10
3.33848e-10
3.36368e-10
1.59703e-10
1.75024e-10
1.9811e-10
2.29306e-10
2.69208e-10
3.18492e-10
3.77784e-10
4.47524e-10
5.27886e-10
6.1871e-10
7.19441e-10
8.29069e-10
9.46111e-10
1.06864e-09
1.19439e-09
1.32085e-09
1.44542e-09
1.56559e-09
1.67906e-09
1.78377e-09
1.87804e-09
1.96054e-09
2.03025e-09
2.08648e-09
2.1288e-09
2.15699e-09
2.17103e-09
9.51351e-10
1.04949e-09
1.19624e-09
1.392e-09
1.63749e-09
1.93228e-09
2.27381e-09
2.6568e-09
3.07324e-09
3.51307e-09
3.96511e-09
4.41834e-09
4.86279e-09
5.29017e-09
5.69402e-09
6.06965e-09
6.41385e-09
6.72466e-09
7.00102e-09
7.24267e-09
7.44986e-09
7.62334e-09
7.76416e-09
7.87363e-09
7.95323e-09
8.00459e-09
8.0294e-09
5.26911e-09
5.67864e-09
6.26715e-09
7.01343e-09
7.8972e-09
8.89743e-09
9.99233e-09
1.11599e-08
1.23783e-08
1.36265e-08
1.48841e-08
1.6132e-08
1.73524e-08
1.8529e-08
1.96478e-08
2.0697e-08
2.16669e-08
2.25501e-08
2.33412e-08
2.4037e-08
2.46362e-08
2.51391e-08
2.55476e-08
2.58648e-08
2.60947e-08
2.62423e-08
2.63132e-08
1.76707e-08
1.88438e-08
2.054e-08
2.27136e-08
2.53274e-08
2.83456e-08
3.1731e-08
3.54422e-08
3.94323e-08
4.36492e-08
4.80363e-08
5.25332e-08
5.70771e-08
6.16048e-08
6.60535e-08
7.03629e-08
7.44763e-08
7.83419e-08
8.19135e-08
8.51517e-08
8.80239e-08
9.05052e-08
9.25776e-08
9.42307e-08
9.54609e-08
9.62707e-08
9.66689e-08
4.73221e-08
5.08206e-08
5.59544e-08
6.2665e-08
7.09322e-08
8.0748e-08
9.21006e-08
1.04963e-07
1.19285e-07
1.34986e-07
1.51949e-07
1.70023e-07
1.89015e-07
2.087e-07
2.28817e-07
2.49081e-07
2.69183e-07
2.88803e-07
3.07615e-07
3.25298e-07
3.41542e-07
3.5606e-07
3.68591e-07
3.78908e-07
3.86825e-07
3.92193e-07
3.94907e-07
1.2054e-07
1.30559e-07
1.45444e-07
1.65217e-07
1.90045e-07
2.20154e-07
2.55772e-07
2.97085e-07
3.44187e-07
3.97137e-07
4.55757e-07
5.19699e-07
5.88425e-07
6.61201e-07
7.37107e-07
8.15054e-07
8.93808e-07
9.72024e-07
1.04829e-06
1.12109e-06
1.18903e-06
1.25067e-06
1.30464e-06
1.34969e-06
1.38469e-06
1.40871e-06
1.42099e-06
3.15601e-07
3.41889e-07
3.81032e-07
4.33161e-07
4.98779e-07
5.78528e-07
6.73029e-07
7.82763e-07
9.07957e-07
1.0485e-06
1.20387e-06
1.37311e-06
1.55473e-06
1.7465e-06
1.94573e-06
2.14939e-06
2.35412e-06
2.55636e-06
2.75242e-06
2.9386e-06
3.11127e-06
3.26705e-06
3.40271e-06
3.51538e-06
3.6026e-06
3.66229e-06
3.69278e-06
8.27054e-07
8.85611e-07
9.72057e-07
1.08594e-06
1.2275e-06
1.3968e-06
1.59376e-06
1.81796e-06
2.06841e-06
2.34346e-06
2.64075e-06
2.95717e-06
3.28897e-06
3.63177e-06
3.98074e-06
4.33068e-06
4.67618e-06
5.01177e-06
5.33196e-06
5.63162e-06
5.90591e-06
6.15026e-06
6.36062e-06
6.53359e-06
6.66626e-06
6.75627e-06
6.80187e-06
1.92657e-06
2.02882e-06
2.17722e-06
2.36839e-06
2.59979e-06
2.86903e-06
3.17351e-06
3.5102e-06
3.87552e-06
4.26532e-06
4.67493e-06
5.09919e-06
5.5326e-06
5.9694e-06
6.40375e-06
6.82982e-06
7.24181e-06
7.63432e-06
8.00232e-06
8.34116e-06
8.64665e-06
8.91501e-06
9.14308e-06
9.32844e-06
9.46909e-06
9.56358e-06
9.61102e-06
3.66724e-06
3.80088e-06
3.99174e-06
4.2326e-06
4.51726e-06
4.83993e-06
5.1949e-06
5.5765e-06
5.97896e-06
6.3965e-06
6.8234e-06
7.254e-06
7.68287e-06
8.10468e-06
8.51458e-06
8.9081e-06
9.28114e-06
9.63003e-06
9.95154e-06
1.02428e-05
1.05016e-05
1.07258e-05
1.09141e-05
1.10652e-05
1.11787e-05
1.12542e-05
1.12918e-05
5.72414e-06
5.85829e-06
6.04721e-06
6.2813e-06
6.55213e-06
6.85198e-06
7.17376e-06
7.51086e-06
7.85724e-06
8.20739e-06
8.55633e-06
8.89965e-06
9.23344e-06
9.55436e-06
9.85952e-06
1.01465e-05
1.04133e-05
1.06584e-05
1.08804e-05
1.10785e-05
1.12518e-05
1.14001e-05
1.1523e-05
1.16207e-05
1.16932e-05
1.1741e-05
1.17645e-05
7.59745e-06
7.70255e-06
7.84865e-06
8.02666e-06
8.22855e-06
8.44719e-06
8.67628e-06
8.91036e-06
9.14477e-06
9.37564e-06
9.59978e-06
9.81468e-06
1.00184e-05
1.02094e-05
1.03868e-05
1.05499e-05
1.06981e-05
1.08315e-05
1.095e-05
1.10537e-05
1.1143e-05
1.12182e-05
1.12796e-05
1.13277e-05
1.1363e-05
1.1386e-05
1.13973e-05
8.92112e-06
8.98307e-06
9.06788e-06
9.16918e-06
9.28133e-06
9.39947e-06
9.51951e-06
9.63812e-06
9.75273e-06
9.86141e-06
9.96282e-06
1.00561e-05
1.01409e-05
1.0217e-05
1.02846e-05
1.03439e-05
1.03955e-05
1.04399e-05
1.04775e-05
1.05091e-05
1.0535e-05
1.0556e-05
1.05724e-05
1.05848e-05
1.05936e-05
1.05991e-05
1.06017e-05
9.58153e-06
9.60189e-06
9.62865e-06
9.6588e-06
9.68974e-06
9.7193e-06
9.74582e-06
9.76814e-06
9.78554e-06
9.79773e-06
9.80472e-06
9.80679e-06
9.80441e-06
9.79817e-06
9.78876e-06
9.77689e-06
9.76328e-06
9.74862e-06
9.73355e-06
9.71868e-06
9.70453e-06
9.69156e-06
9.68016e-06
9.67066e-06
9.6633e-06
9.65827e-06
9.65572e-06
9.66205e-06
9.65086e-06
9.63406e-06
9.61159e-06
9.58343e-06
9.5497e-06
9.51068e-06
9.46685e-06
9.41885e-06
9.36741e-06
9.3134e-06
9.25768e-06
9.20115e-06
9.14471e-06
9.08919e-06
9.03537e-06
8.98397e-06
8.93563e-06
8.8909e-06
8.85026e-06
8.8141e-06
8.78273e-06
8.7564e-06
8.73525e-06
8.7194e-06
8.70888e-06
8.70365e-06
9.32897e-06
9.29797e-06
9.25404e-06
9.1992e-06
9.13519e-06
9.06367e-06
8.98618e-06
8.90421e-06
8.81919e-06
8.73244e-06
8.6452e-06
8.55863e-06
8.47377e-06
8.39156e-06
8.31282e-06
8.23828e-06
8.16856e-06
8.10418e-06
8.04557e-06
7.99308e-06
7.94696e-06
7.90739e-06
7.87449e-06
7.8483e-06
7.82882e-06
7.81598e-06
7.80966e-06
8.75191e-06
8.71076e-06
8.65308e-06
8.58205e-06
8.50043e-06
8.41069e-06
8.31507e-06
8.21557e-06
8.11398e-06
8.01189e-06
7.91067e-06
7.81154e-06
7.71555e-06
7.62359e-06
7.53642e-06
7.45465e-06
7.37881e-06
7.3093e-06
7.24646e-06
7.19051e-06
7.14163e-06
7.09989e-06
7.06534e-06
7.03796e-06
7.01766e-06
7.00432e-06
6.99776e-06
8.05878e-06
8.01438e-06
7.95244e-06
7.87659e-06
7.78994e-06
7.69526e-06
7.59501e-06
7.49136e-06
7.38625e-06
7.28133e-06
7.17801e-06
7.07746e-06
6.98068e-06
6.88847e-06
6.80151e-06
6.72033e-06
6.64535e-06
6.57691e-06
6.51524e-06
6.46052e-06
6.41283e-06
6.37223e-06
6.33869e-06
6.31216e-06
6.29253e-06
6.27965e-06
6.27332e-06
7.33948e-06
7.29563e-06
7.23461e-06
7.16012e-06
7.07537e-06
6.98319e-06
6.88599e-06
6.78586e-06
6.68462e-06
6.58391e-06
6.48508e-06
6.38922e-06
6.29724e-06
6.20988e-06
6.12772e-06
6.05121e-06
5.98073e-06
5.91652e-06
5.85879e-06
5.80764e-06
5.76314e-06
5.72531e-06
5.69409e-06
5.66943e-06
5.65119e-06
5.63924e-06
5.63337e-06
6.64488e-06
6.60366e-06
6.54637e-06
6.47656e-06
6.3973e-06
6.31127e-06
6.22081e-06
6.12785e-06
6.03411e-06
5.94101e-06
5.84982e-06
5.76154e-06
5.67698e-06
5.5968e-06
5.52152e-06
5.45152e-06
5.38711e-06
5.32851e-06
5.27588e-06
5.22929e-06
5.1888e-06
5.15439e-06
5.12603e-06
5.10363e-06
5.08708e-06
5.07624e-06
5.07091e-06
6.00032e-06
5.96267e-06
5.91038e-06
5.84672e-06
5.77452e-06
5.69626e-06
5.61408e-06
5.52973e-06
5.44479e-06
5.36053e-06
5.27809e-06
5.19837e-06
5.1221e-06
5.04984e-06
4.98206e-06
4.91908e-06
4.86118e-06
4.80853e-06
4.76127e-06
4.71946e-06
4.68313e-06
4.65228e-06
4.62686e-06
4.60679e-06
4.59196e-06
4.58225e-06
4.57748e-06
5.41586e-06
5.38203e-06
5.33508e-06
5.27794e-06
5.21317e-06
5.14302e-06
5.06939e-06
4.99387e-06
4.91785e-06
4.84251e-06
4.76886e-06
4.69767e-06
4.6296e-06
4.56515e-06
4.50472e-06
4.44859e-06
4.397e-06
4.35012e-06
4.30803e-06
4.27082e-06
4.23849e-06
4.21104e-06
4.18842e-06
4.17056e-06
4.15737e-06
4.14873e-06
4.14449e-06
4.89291e-06
4.8628e-06
4.82101e-06
4.77018e-06
4.71257e-06
4.65019e-06
4.58473e-06
4.5176e-06
4.45003e-06
4.38311e-06
4.31771e-06
4.25452e-06
4.19412e-06
4.13694e-06
4.08332e-06
4.03355e-06
3.9878e-06
3.94621e-06
3.9089e-06
3.8759e-06
3.84723e-06
3.82288e-06
3.80282e-06
3.78697e-06
3.77527e-06
3.7676e-06
3.76384e-06
4.42836e-06
4.40169e-06
4.36467e-06
4.31964e-06
4.26862e-06
4.21337e-06
4.15534e-06
4.09587e-06
4.03603e-06
3.97677e-06
3.91887e-06
3.86294e-06
3.80947e-06
3.75886e-06
3.7114e-06
3.66734e-06
3.62684e-06
3.59003e-06
3.557e-06
3.52778e-06
3.5024e-06
3.48084e-06
3.46307e-06
3.44904e-06
3.43867e-06
3.43188e-06
3.42855e-06
4.01708e-06
3.9935e-06
3.96077e-06
3.92095e-06
3.87582e-06
3.82694e-06
3.77559e-06
3.72294e-06
3.66999e-06
3.61756e-06
3.56633e-06
3.51684e-06
3.46953e-06
3.42475e-06
3.38275e-06
3.34374e-06
3.30789e-06
3.27531e-06
3.24605e-06
3.22018e-06
3.1977e-06
3.1786e-06
3.16286e-06
3.15043e-06
3.14124e-06
3.13522e-06
3.13227e-06
3.65329e-06
3.63244e-06
3.6035e-06
3.56828e-06
3.52836e-06
3.48506e-06
3.43958e-06
3.39297e-06
3.34609e-06
3.29968e-06
3.25432e-06
3.2105e-06
3.1686e-06
3.12893e-06
3.09172e-06
3.05716e-06
3.02538e-06
2.99649e-06
2.97055e-06
2.9476e-06
2.92766e-06
2.91072e-06
2.89675e-06
2.88571e-06
2.87755e-06
2.87219e-06
2.86957e-06
3.33129e-06
3.31283e-06
3.28721e-06
3.25601e-06
3.2206e-06
3.18221e-06
3.14189e-06
3.10056e-06
3.05901e-06
3.01786e-06
2.97764e-06
2.93878e-06
2.9016e-06
2.8664e-06
2.83337e-06
2.80269e-06
2.77448e-06
2.74882e-06
2.72578e-06
2.70539e-06
2.68767e-06
2.67261e-06
2.66019e-06
2.65038e-06
2.64312e-06
2.63836e-06
2.63602e-06
3.04583e-06
3.02945e-06
3.00671e-06
2.97898e-06
2.94753e-06
2.91342e-06
2.87761e-06
2.8409e-06
2.80399e-06
2.76743e-06
2.73169e-06
2.69715e-06
2.6641e-06
2.63279e-06
2.60341e-06
2.57611e-06
2.551e-06
2.52817e-06
2.50765e-06
2.4895e-06
2.47371e-06
2.4603e-06
2.44923e-06
2.44049e-06
2.43402e-06
2.42978e-06
2.42769e-06
2.79223e-06
2.77764e-06
2.75737e-06
2.73268e-06
2.70467e-06
2.6743e-06
2.64242e-06
2.60975e-06
2.57688e-06
2.54432e-06
2.51248e-06
2.4817e-06
2.45225e-06
2.42433e-06
2.39814e-06
2.37379e-06
2.35139e-06
2.33101e-06
2.3127e-06
2.29649e-06
2.2824e-06
2.27041e-06
2.26053e-06
2.25272e-06
2.24694e-06
2.24315e-06
2.24129e-06
2.56626e-06
2.55325e-06
2.53516e-06
2.51311e-06
2.48811e-06
2.46102e-06
2.43257e-06
2.40342e-06
2.37408e-06
2.34501e-06
2.31658e-06
2.28908e-06
2.26276e-06
2.23781e-06
2.21439e-06
2.19261e-06
2.17258e-06
2.15434e-06
2.13796e-06
2.12345e-06
2.11084e-06
2.10011e-06
2.09126e-06
2.08426e-06
2.07909e-06
2.07569e-06
2.07402e-06
2.36444e-06
2.35278e-06
2.33659e-06
2.31688e-06
2.29452e-06
2.27029e-06
2.24485e-06
2.21876e-06
2.19251e-06
2.16648e-06
2.14102e-06
2.11639e-06
2.09281e-06
2.07046e-06
2.04946e-06
2.02994e-06
2.01197e-06
1.99562e-06
1.98092e-06
1.9679e-06
1.95658e-06
1.94695e-06
1.939e-06
1.93272e-06
1.92807e-06
1.92502e-06
1.92352e-06
2.18367e-06
2.17322e-06
2.15872e-06
2.14105e-06
2.12101e-06
2.09928e-06
2.07647e-06
2.05307e-06
2.02951e-06
2.00616e-06
1.9833e-06
1.96118e-06
1.94e-06
1.91992e-06
1.90105e-06
1.8835e-06
1.86735e-06
1.85264e-06
1.83942e-06
1.82771e-06
1.81752e-06
1.80886e-06
1.80171e-06
1.79605e-06
1.79187e-06
1.78912e-06
1.78777e-06
2.02139e-06
2.01201e-06
1.99898e-06
1.9831e-06
1.9651e-06
1.94557e-06
1.92506e-06
1.90401e-06
1.88282e-06
1.86181e-06
1.84124e-06
1.82133e-06
1.80225e-06
1.78416e-06
1.76717e-06
1.75135e-06
1.73679e-06
1.72354e-06
1.71162e-06
1.70106e-06
1.69187e-06
1.68405e-06
1.6776e-06
1.6725e-06
1.66872e-06
1.66624e-06
1.66502e-06
1.87536e-06
1.86691e-06
1.85517e-06
1.84087e-06
1.82465e-06
1.80705e-06
1.78857e-06
1.76959e-06
1.75049e-06
1.73153e-06
1.71297e-06
1.695e-06
1.67779e-06
1.66145e-06
1.64611e-06
1.63182e-06
1.61867e-06
1.60669e-06
1.59591e-06
1.58637e-06
1.57806e-06
1.57099e-06
1.56516e-06
1.56054e-06
1.55713e-06
1.55488e-06
1.55378e-06
1.74362e-06
1.73599e-06
1.7254e-06
1.71249e-06
1.69784e-06
1.68194e-06
1.66524e-06
1.64809e-06
1.63082e-06
1.61368e-06
1.5969e-06
1.58065e-06
1.56507e-06
1.55029e-06
1.53639e-06
1.52346e-06
1.51155e-06
1.5007e-06
1.49094e-06
1.48229e-06
1.47476e-06
1.46836e-06
1.46307e-06
1.45889e-06
1.45579e-06
1.45376e-06
1.45276e-06
1.6245e-06
1.6176e-06
1.60801e-06
1.59633e-06
1.58306e-06
1.56867e-06
1.55355e-06
1.53802e-06
1.52237e-06
1.50684e-06
1.49163e-06
1.47689e-06
1.46277e-06
1.44936e-06
1.43675e-06
1.42502e-06
1.41421e-06
1.40436e-06
1.3955e-06
1.38765e-06
1.38081e-06
1.37499e-06
1.37019e-06
1.36638e-06
1.36357e-06
1.36172e-06
1.36082e-06
1.51655e-06
1.51029e-06
1.50159e-06
1.491e-06
1.47896e-06
1.46591e-06
1.45218e-06
1.43808e-06
1.42387e-06
1.40977e-06
1.39595e-06
1.38256e-06
1.36972e-06
1.35753e-06
1.34607e-06
1.3354e-06
1.32557e-06
1.31661e-06
1.30855e-06
1.3014e-06
1.29518e-06
1.28988e-06
1.28551e-06
1.28205e-06
1.27949e-06
1.2778e-06
1.27698e-06
1.4185e-06
1.41282e-06
1.40491e-06
1.39528e-06
1.38434e-06
1.37247e-06
1.35998e-06
1.34715e-06
1.33422e-06
1.32138e-06
1.3088e-06
1.29661e-06
1.28492e-06
1.27382e-06
1.26338e-06
1.25365e-06
1.24469e-06
1.23652e-06
1.22917e-06
1.22265e-06
1.21698e-06
1.21215e-06
1.20816e-06
1.205e-06
1.20266e-06
1.20113e-06
1.20037e-06
1.32927e-06
1.32409e-06
1.31689e-06
1.30811e-06
1.29814e-06
1.28732e-06
1.27594e-06
1.26425e-06
1.25246e-06
1.24075e-06
1.22927e-06
1.21815e-06
1.20748e-06
1.19734e-06
1.18781e-06
1.17893e-06
1.17074e-06
1.16328e-06
1.15656e-06
1.15061e-06
1.14542e-06
1.141e-06
1.13736e-06
1.13447e-06
1.13233e-06
1.13093e-06
1.13024e-06
1.24787e-06
1.24315e-06
1.23658e-06
1.22856e-06
1.21946e-06
1.20958e-06
1.19918e-06
1.1885e-06
1.17773e-06
1.16703e-06
1.15653e-06
1.14636e-06
1.1366e-06
1.12733e-06
1.11861e-06
1.11048e-06
1.10299e-06
1.09616e-06
1.09001e-06
1.08456e-06
1.07981e-06
1.07576e-06
1.07242e-06
1.06978e-06
1.06782e-06
1.06653e-06
1.0659e-06
1.17347e-06
1.16915e-06
1.16314e-06
1.15581e-06
1.14748e-06
1.13844e-06
1.12892e-06
1.11914e-06
1.10928e-06
1.09948e-06
1.08987e-06
1.08055e-06
1.0716e-06
1.06311e-06
1.05511e-06
1.04766e-06
1.04079e-06
1.03452e-06
1.02888e-06
1.02388e-06
1.01952e-06
1.0158e-06
1.01274e-06
1.01031e-06
1.00851e-06
1.00733e-06
1.00675e-06
1.10532e-06
1.10135e-06
1.09584e-06
1.08912e-06
1.08149e-06
1.0732e-06
1.06447e-06
1.0555e-06
1.04645e-06
1.03745e-06
1.02863e-06
1.02007e-06
1.01186e-06
1.00405e-06
9.96707e-07
9.89861e-07
9.83546e-07
9.77786e-07
9.72599e-07
9.67997e-07
9.63987e-07
9.60573e-07
9.57752e-07
9.5552e-07
9.53866e-07
9.52779e-07
9.52245e-07
1.04273e-06
1.03909e-06
1.03403e-06
1.02785e-06
1.02084e-06
1.01322e-06
1.0052e-06
9.9695e-07
9.88626e-07
9.80354e-07
9.72237e-07
9.64364e-07
9.56806e-07
9.49622e-07
9.42859e-07
9.36554e-07
9.30738e-07
9.25431e-07
9.20652e-07
9.16411e-07
9.12716e-07
9.0957e-07
9.06969e-07
9.04911e-07
9.03387e-07
9.02385e-07
9.01892e-07
9.85108e-07
9.81759e-07
9.771e-07
9.71417e-07
9.64958e-07
9.57939e-07
9.5055e-07
9.42951e-07
9.35281e-07
9.27656e-07
9.20174e-07
9.12913e-07
9.05943e-07
8.99315e-07
8.93074e-07
8.87255e-07
8.81886e-07
8.76986e-07
8.72573e-07
8.68656e-07
8.65244e-07
8.62337e-07
8.59935e-07
8.58033e-07
8.56625e-07
8.55699e-07
8.55243e-07
9.31915e-07
9.28825e-07
9.24527e-07
9.19283e-07
9.13322e-07
9.06843e-07
9.0002e-07
8.93003e-07
8.85919e-07
8.78874e-07
8.7196e-07
8.65249e-07
8.58805e-07
8.52676e-07
8.46903e-07
8.4152e-07
8.36551e-07
8.32016e-07
8.27931e-07
8.24306e-07
8.21146e-07
8.18455e-07
8.16231e-07
8.1447e-07
8.13165e-07
8.12308e-07
8.11886e-07
8.82654e-07
8.79796e-07
8.7582e-07
8.70969e-07
8.65454e-07
8.59459e-07
8.53144e-07
8.46648e-07
8.40088e-07
8.33564e-07
8.27158e-07
8.2094e-07
8.14966e-07
8.09284e-07
8.03931e-07
7.98937e-07
7.94327e-07
7.9012e-07
7.86329e-07
7.82964e-07
7.80032e-07
7.77534e-07
7.75469e-07
7.73834e-07
7.72623e-07
7.71827e-07
7.71435e-07
8.36868e-07
8.34218e-07
8.30531e-07
8.26032e-07
8.20915e-07
8.15353e-07
8.09492e-07
8.03462e-07
7.97371e-07
7.91312e-07
7.85361e-07
7.79582e-07
7.7403e-07
7.68746e-07
7.63768e-07
7.59122e-07
7.54833e-07
7.50919e-07
7.47392e-07
7.44261e-07
7.41532e-07
7.39207e-07
7.37285e-07
7.35763e-07
7.34635e-07
7.33894e-07
7.33529e-07
7.94135e-07
7.9167e-07
7.88241e-07
7.84055e-07
7.79295e-07
7.74118e-07
7.68663e-07
7.63048e-07
7.57375e-07
7.5173e-07
7.46184e-07
7.40797e-07
7.35619e-07
7.3069e-07
7.26045e-07
7.21711e-07
7.1771e-07
7.14057e-07
7.10765e-07
7.07843e-07
7.05296e-07
7.03125e-07
7.01331e-07
6.9991e-07
6.98857e-07
6.98165e-07
6.97824e-07
7.54055e-07
7.51755e-07
7.48555e-07
7.44648e-07
7.40203e-07
7.35369e-07
7.30273e-07
7.25027e-07
7.19724e-07
7.14446e-07
7.09258e-07
7.04218e-07
6.99372e-07
6.94759e-07
6.90412e-07
6.86355e-07
6.82609e-07
6.7919e-07
6.76108e-07
6.73371e-07
6.70986e-07
6.68953e-07
6.67272e-07
6.65941e-07
6.64955e-07
6.64306e-07
6.63987e-07
7.16248e-07
7.14093e-07
7.11095e-07
7.07434e-07
7.03268e-07
6.98735e-07
6.93956e-07
6.89033e-07
6.84056e-07
6.79099e-07
6.74227e-07
6.69493e-07
6.64941e-07
6.60609e-07
6.56525e-07
6.52714e-07
6.49195e-07
6.45982e-07
6.43085e-07
6.40514e-07
6.38271e-07
6.3636e-07
6.3478e-07
6.33528e-07
6.32601e-07
6.31991e-07
6.31691e-07
6.80342e-07
6.78315e-07
6.75493e-07
6.72045e-07
6.68122e-07
6.6385e-07
6.59344e-07
6.54702e-07
6.50009e-07
6.45335e-07
6.40741e-07
6.36278e-07
6.31986e-07
6.279e-07
6.24049e-07
6.20454e-07
6.17133e-07
6.14101e-07
6.11368e-07
6.08941e-07
6.06824e-07
6.0502e-07
6.03529e-07
6.02347e-07
6.01471e-07
6.00896e-07
6.00612e-07
6.45967e-07
6.44046e-07
6.41372e-07
6.38106e-07
6.34389e-07
6.30343e-07
6.26076e-07
6.2168e-07
6.17236e-07
6.12811e-07
6.0846e-07
6.04232e-07
6.00167e-07
5.96296e-07
5.92646e-07
5.89239e-07
5.86092e-07
5.83217e-07
5.80626e-07
5.78324e-07
5.76317e-07
5.74606e-07
5.73192e-07
5.72071e-07
5.7124e-07
5.70694e-07
5.70425e-07
6.12728e-07
6.10901e-07
6.08358e-07
6.05252e-07
6.01716e-07
5.97867e-07
5.93807e-07
5.89625e-07
5.85395e-07
5.81183e-07
5.77041e-07
5.73015e-07
5.69143e-07
5.65456e-07
5.61979e-07
5.58733e-07
5.55734e-07
5.52995e-07
5.50525e-07
5.48331e-07
5.46418e-07
5.44787e-07
5.43438e-07
5.42369e-07
5.41577e-07
5.41056e-07
5.408e-07
5.80294e-07
5.78546e-07
5.76114e-07
5.73142e-07
5.69759e-07
5.66076e-07
5.62191e-07
5.58187e-07
5.54138e-07
5.50104e-07
5.46137e-07
5.42281e-07
5.38571e-07
5.35038e-07
5.31706e-07
5.28595e-07
5.2572e-07
5.23094e-07
5.20726e-07
5.18623e-07
5.16789e-07
5.15225e-07
5.13931e-07
5.12906e-07
5.12147e-07
5.11647e-07
5.11402e-07
5.48308e-07
5.46626e-07
5.44284e-07
5.41422e-07
5.38163e-07
5.34615e-07
5.30871e-07
5.27013e-07
5.2311e-07
5.19221e-07
5.15397e-07
5.11679e-07
5.08101e-07
5.04694e-07
5.0148e-07
4.98479e-07
4.95706e-07
4.93173e-07
4.90889e-07
4.8886e-07
4.8709e-07
4.85581e-07
4.84333e-07
4.83345e-07
4.82612e-07
4.8213e-07
4.81893e-07
5.16409e-07
5.14777e-07
5.12505e-07
5.09728e-07
5.06567e-07
5.03124e-07
4.9949e-07
4.95746e-07
4.91957e-07
4.88182e-07
4.84469e-07
4.80858e-07
4.77385e-07
4.74077e-07
4.70956e-07
4.68042e-07
4.65349e-07
4.6289e-07
4.60672e-07
4.58702e-07
4.56984e-07
4.5552e-07
4.54309e-07
4.53349e-07
4.52638e-07
4.52171e-07
4.51941e-07
4.84236e-07
4.82641e-07
4.8042e-07
4.77705e-07
4.74615e-07
4.71249e-07
4.67696e-07
4.64035e-07
4.60331e-07
4.5664e-07
4.5301e-07
4.4948e-07
4.46085e-07
4.42851e-07
4.39801e-07
4.36953e-07
4.34322e-07
4.31919e-07
4.29752e-07
4.27828e-07
4.2615e-07
4.2472e-07
4.23538e-07
4.22601e-07
4.21907e-07
4.21451e-07
4.21226e-07
4.51444e-07
4.49873e-07
4.47686e-07
4.45014e-07
4.4197e-07
4.38656e-07
4.35159e-07
4.31555e-07
4.27909e-07
4.24276e-07
4.20704e-07
4.17231e-07
4.13891e-07
4.10711e-07
4.07712e-07
4.04912e-07
4.02327e-07
3.99966e-07
3.97838e-07
3.95948e-07
3.94301e-07
3.92898e-07
3.91737e-07
3.90819e-07
3.90138e-07
3.89691e-07
3.89471e-07
4.17728e-07
4.16171e-07
4.14004e-07
4.11355e-07
4.0834e-07
4.05057e-07
4.01594e-07
3.98025e-07
3.94416e-07
3.90821e-07
3.87288e-07
3.83854e-07
3.80552e-07
3.7741e-07
3.74448e-07
3.71684e-07
3.69132e-07
3.66804e-07
3.64705e-07
3.62843e-07
3.6122e-07
3.59838e-07
3.58696e-07
3.57792e-07
3.57122e-07
3.56682e-07
3.56466e-07
3.82851e-07
3.81301e-07
3.79143e-07
3.76507e-07
3.73507e-07
3.70242e-07
3.66798e-07
3.63252e-07
3.59667e-07
3.56098e-07
3.52592e-07
3.49187e-07
3.45915e-07
3.42803e-07
3.39871e-07
3.37137e-07
3.34615e-07
3.32314e-07
3.30243e-07
3.28405e-07
3.26805e-07
3.25442e-07
3.24317e-07
3.23427e-07
3.22768e-07
3.22335e-07
3.22122e-07
3.46694e-07
3.45148e-07
3.42997e-07
3.4037e-07
3.37381e-07
3.34129e-07
3.30703e-07
3.27177e-07
3.23615e-07
3.20073e-07
3.16595e-07
3.13221e-07
3.09981e-07
3.06902e-07
3.04004e-07
3.01305e-07
2.98816e-07
2.96548e-07
2.94507e-07
2.92698e-07
2.91124e-07
2.89785e-07
2.8868e-07
2.87806e-07
2.87159e-07
2.86735e-07
2.86526e-07
3.09316e-07
3.07778e-07
3.05638e-07
3.03027e-07
3.00058e-07
2.96832e-07
2.93435e-07
2.89943e-07
2.86419e-07
2.82918e-07
2.79486e-07
2.76159e-07
2.7297e-07
2.69941e-07
2.67095e-07
2.64446e-07
2.62007e-07
2.59787e-07
2.57791e-07
2.56024e-07
2.54487e-07
2.53181e-07
2.52104e-07
2.51253e-07
2.50624e-07
2.50211e-07
2.50009e-07
2.71016e-07
2.69497e-07
2.67386e-07
2.64812e-07
2.61889e-07
2.58716e-07
2.5538e-07
2.51954e-07
2.48503e-07
2.4508e-07
2.41729e-07
2.38486e-07
2.35381e-07
2.32438e-07
2.29676e-07
2.2711e-07
2.2475e-07
2.22604e-07
2.20678e-07
2.18975e-07
2.17496e-07
2.1624e-07
2.15205e-07
2.14389e-07
2.13785e-07
2.1339e-07
2.13196e-07
2.32389e-07
2.30911e-07
2.28859e-07
2.2636e-07
2.23526e-07
2.20455e-07
2.1723e-07
2.13926e-07
2.10604e-07
2.07314e-07
2.041e-07
2.00996e-07
1.9803e-07
1.95225e-07
1.92596e-07
1.90158e-07
1.87921e-07
1.85889e-07
1.84069e-07
1.82462e-07
1.81068e-07
1.79886e-07
1.78913e-07
1.78146e-07
1.7758e-07
1.7721e-07
1.77028e-07
1.94347e-07
1.92942e-07
1.90992e-07
1.8862e-07
1.85936e-07
1.83032e-07
1.7999e-07
1.7688e-07
1.7376e-07
1.70678e-07
1.67674e-07
1.64781e-07
1.62022e-07
1.59419e-07
1.56986e-07
1.54734e-07
1.52671e-07
1.50802e-07
1.49131e-07
1.47658e-07
1.46382e-07
1.45302e-07
1.44415e-07
1.43716e-07
1.43201e-07
1.42865e-07
1.427e-07
1.58063e-07
1.56766e-07
1.54968e-07
1.52787e-07
1.50321e-07
1.47661e-07
1.44882e-07
1.42049e-07
1.39214e-07
1.36422e-07
1.33708e-07
1.31102e-07
1.28625e-07
1.26293e-07
1.2412e-07
1.22113e-07
1.2028e-07
1.18624e-07
1.17146e-07
1.15845e-07
1.14721e-07
1.13772e-07
1.12993e-07
1.12381e-07
1.1193e-07
1.11636e-07
1.11492e-07
1.24804e-07
1.23651e-07
1.22056e-07
1.20123e-07
1.17945e-07
1.15601e-07
1.1316e-07
1.10679e-07
1.08204e-07
1.05776e-07
1.03424e-07
1.01172e-07
9.90389e-08
9.70379e-08
9.51786e-08
9.34676e-08
9.19088e-08
9.05041e-08