/*--------------------------------*- C++ -*----------------------------------*\
| =========                 |                                                 |
| \\      /  F ield         | OpenFOAM: The Open Source CFD Toolbox           |
|  \\    /   O peration     | Version:  2106                                  |
|   \\  /    A nd           | Website:  www.openfoam.com                      |
|    \\/     M anipulation  |                                                 |
\*---------------------------------------------------------------------------*/
FoamFile
{
    version     2.0;
    format      ascii;
    arch        "LSB;label=32;scalar=64";
    class       surfaceScalarField;
    location    "149.99958";
    object      phi;
}
// * * * * * * * * * * * * * * * * * * * * * * * * * * * * * * * * * * * * * //

dimensions      [1 0 -1 0 0 0 0];

oriented        oriented;

internalField   nonuniform List<scalar> 
6572
(
-1.49017e-10
4.1432e-10
3.90105e-11
-3.19779e-10
6.41405e-10
-5.42026e-10
8.33201e-10
-8.07025e-10
9.93273e-10
-1.10617e-09
1.12445e-09
-1.43073e-09
1.22905e-09
-1.77176e-09
1.30899e-09
-2.12008e-09
1.36598e-09
-2.46633e-09
1.40157e-09
-2.80117e-09
1.41729e-09
-3.11532e-09
1.41459e-09
-3.39955e-09
1.39472e-09
-3.64527e-09
1.35943e-09
-3.84457e-09
1.31032e-09
-3.99009e-09
1.24885e-09
-4.07522e-09
1.17645e-09
-4.09408e-09
1.09459e-09
-4.0417e-09
1.00472e-09
-3.91399e-09
9.08288e-10
-3.70789e-09
8.06734e-10
-3.42128e-09
7.01444e-10
-3.053e-09
5.93696e-10
-2.60272e-09
4.84652e-10
-2.07089e-09
3.75358e-10
-1.45866e-09
2.66749e-10
-7.67779e-10
1.59624e-10
5.41732e-11
-1.01049e-10
4.88259e-10
2.71096e-11
-2.11615e-10
7.5197e-10
-3.48421e-10
9.70007e-10
-5.01122e-10
1.14597e-09
-6.59815e-10
1.28315e-09
-8.15323e-10
1.38455e-09
-9.59452e-10
1.45312e-09
-1.08521e-09
1.49174e-09
-1.18696e-09
1.50331e-09
-1.26061e-09
1.49094e-09
-1.30476e-09
1.45874e-09
-1.31916e-09
1.40912e-09
-1.30427e-09
1.34455e-09
-1.26148e-09
1.26753e-09
-1.19316e-09
1.18053e-09
-1.10262e-09
1.08591e-09
-9.93888e-10
9.85867e-10
-8.71611e-10
8.82447e-10
-7.4082e-10
7.77497e-10
-6.06741e-10
6.72655e-10
-4.74638e-10
5.69342e-10
-3.49703e-10
4.68761e-10
-2.36956e-10
3.71906e-10
-1.41256e-10
2.79657e-10
-6.70766e-11
1.9257e-10
-1.84921e-11
1.11039e-10
3.56811e-11
-8.01287e-11
5.47209e-10
2.11796e-11
-1.6695e-10
8.38792e-10
-2.71289e-10
1.07435e-09
-3.83356e-10
1.25804e-09
-4.94444e-10
1.39423e-09
-5.97228e-10
1.48734e-09
-6.86181e-10
1.54207e-09
-7.5746e-10
1.56302e-09
-8.08831e-10
1.55469e-09
-8.39365e-10
1.52147e-09
-8.48258e-10
1.46763e-09
-8.36256e-10
1.39712e-09
-8.04995e-10
1.31328e-09
-7.56827e-10
1.21936e-09
-6.94707e-10
1.11841e-09
-6.22006e-10
1.01321e-09
-5.4231e-10
9.0617e-10
-4.59214e-10
7.99351e-10
-3.76165e-10
6.94448e-10
-2.96293e-10
5.92784e-10
-2.22332e-10
4.9538e-10
-1.56583e-10
4.03011e-10
-1.00907e-10
3.1623e-10
-5.66464e-11
2.35397e-10
-2.47848e-11
1.60709e-10
-5.97604e-12
9.22306e-11
2.97051e-11
-3.77165e-11
5.74502e-10
1.04236e-11
-7.68359e-11
8.77911e-10
-1.22551e-10
1.12006e-09
-1.69901e-10
1.30539e-09
-2.14623e-10
1.43896e-09
-2.53465e-10
1.52618e-09
-2.84049e-10
1.57266e-09
-3.05011e-10
1.58398e-09
-3.15844e-10
1.56552e-09
-3.16774e-10
1.5224e-09
-3.0864e-10
1.4595e-09
-2.9267e-10
1.38115e-09
-2.70574e-10
1.29119e-09
-2.4422e-10
1.19301e-09
-2.1537e-10
1.08956e-09
-1.85565e-10
9.83403e-10
-1.56077e-10
8.76682e-10
-1.27903e-10
7.71176e-10
-1.01774e-10
6.68319e-10
-7.82266e-11
5.69236e-10
-5.76263e-11
4.7478e-10
-4.01843e-11
3.85569e-10
-2.59767e-11
3.02023e-10
-1.49692e-11
2.24389e-10
-7.04035e-12
1.5278e-10
-2.00165e-12
8.71919e-11
2.77034e-11
-1.91147e-11
5.88639e-10
4.97771e-12
-3.93035e-11
8.981e-10
-6.22789e-11
1.14304e-09
-8.52548e-11
1.32837e-09
-1.06154e-10
1.45986e-09
-1.23625e-10
1.54365e-09
-1.36828e-10
1.58586e-09
-1.4538e-10
1.59253e-09
-1.49302e-10
1.56944e-09
-1.48899e-10
1.522e-09
-1.44584e-10
1.45518e-09
-1.36896e-10
1.37346e-09
-1.265e-10
1.28079e-09
-1.14129e-10
1.18064e-09
-1.00515e-10
1.07595e-09
-8.63413e-11
9.69229e-10
-7.22044e-11
8.62545e-10
-5.86062e-11
7.57578e-10
-4.59498e-11
6.55663e-10
-3.45441e-11
5.5783e-10
-2.46121e-11
4.64848e-10
-1.63013e-11
3.77259e-10
-9.69448e-12
2.95416e-10
-4.82119e-12
2.19516e-10
-1.66755e-12
1.49626e-10
-1.85784e-13
8.57101e-11
2.75176e-11
-9.33021e-12
5.95255e-10
2.71376e-12
-1.83605e-11
9.0713e-10
-2.83126e-11
1.15299e-09
-3.7861e-11
1.33792e-09
-4.60183e-11
1.46801e-09
-5.21857e-11
1.54982e-09
-5.61002e-11
1.58978e-09
-5.77563e-11
1.59419e-09
-5.73401e-11
1.56902e-09
-5.51649e-11
1.51983e-09
-5.16104e-11
1.45163e-09
-4.70742e-11
1.36892e-09
-4.19374e-11
1.27566e-09
-3.65396e-11
1.17524e-09
-3.11642e-11
1.07057e-09
-2.60317e-11
9.64097e-10
-2.12992e-11
8.57813e-10
-1.70653e-11
7.53344e-10
-1.33782e-11
6.51976e-10
-1.02447e-11
5.54697e-10
-7.64e-12
4.62243e-10
-5.51648e-12
3.75135e-10
-3.81196e-12
2.93711e-10
-2.45624e-12
2.1816e-10
-1.37669e-12
1.48547e-10
-5.02377e-13
8.48358e-11
2.70152e-11
-4.79711e-12
5.98884e-10
1.1684e-12
-1.01493e-11
9.12483e-10
-1.64177e-11
1.15926e-09
-2.28768e-11
1.34438e-09
-2.88858e-11
1.47402e-09
-3.38982e-11
1.55483e-09
-3.76118e-11
1.59349e-09
-3.99142e-11
1.59649e-09
-4.08326e-11
1.56994e-09
-4.04888e-11
1.51948e-09
-3.90606e-11
1.4502e-09
-3.67525e-11
1.36662e-09
-3.37755e-11
1.27268e-09
-3.03323e-11
1.1718e-09
-2.66094e-11
1.06685e-09
-2.27725e-11
9.6026e-10
-1.89646e-11
8.54005e-10
-1.53069e-11
7.49687e-10
-1.18993e-11
6.48568e-10
-8.82277e-12
5.5162e-10
-6.14109e-12
4.59562e-10
-3.90261e-12
3.72897e-10
-2.14205e-12
2.91951e-10
-8.82118e-13
2.169e-10
-1.34717e-13
1.47799e-10
9.74793e-14
8.46036e-11
2.71127e-11
-1.83786e-12
6.00125e-10
5.96794e-13
-3.47203e-12
9.14117e-10
-5.25508e-12
1.16104e-09
-6.94039e-12
1.34606e-09
-8.32787e-12
1.47541e-09
-9.28591e-12
1.55579e-09
-9.76125e-12
1.59397e-09
-9.76826e-12
1.5965e-09
-9.37016e-12
1.56954e-09
-8.65872e-12
1.51877e-09
-7.73666e-12
1.44928e-09
-6.70389e-12
1.36558e-09
-5.64844e-12
1.27162e-09
-4.6409e-12
1.17079e-09
-3.73237e-12
1.06594e-09
-2.95444e-12
9.59482e-10
-2.32086e-12
8.53371e-10
-1.83023e-12
7.49196e-10
-1.46891e-12
6.48207e-10
-1.21431e-12
5.51366e-10
-1.03786e-12
4.59385e-10
-9.07641e-13
3.72766e-10
-7.90848e-13
2.91834e-10
-6.55584e-13
2.16765e-10
-4.72295e-13
1.47616e-10
-2.14922e-13
8.43462e-11
2.68978e-11
-1.84435e-12
6.01543e-10
4.25961e-13
-3.94168e-12
9.16214e-10
-6.37498e-12
1.16347e-09
-8.85583e-12
1.34854e-09
-1.11562e-11
1.47771e-09
-1.31125e-11
1.55775e-09
-1.46234e-11
1.59548e-09
-1.56414e-11
1.59751e-09
-1.61616e-11
1.57006e-09
-1.62103e-11
1.51882e-09
-1.58347e-11
1.4489e-09
-1.5095e-11
1.36484e-09
-1.40576e-11
1.27059e-09
-1.27913e-11
1.16952e-09
-1.13639e-11
1.06452e-09
-9.84022e-12
9.57958e-10
-8.28106e-12
8.51812e-10
-6.74207e-12
7.47657e-10
-5.27347e-12
6.46738e-10
-3.91956e-12
5.50012e-10
-2.71863e-12
4.58184e-10
-1.7028e-12
3.71751e-10
-8.9813e-13
2.91029e-10
-3.24624e-13
2.16191e-10
3.48752e-15
1.47288e-10
7.74157e-14
8.42723e-11
2.69752e-11
-6.92444e-13
6.0199e-10
2.45134e-13
-1.2564e-12
9.16778e-10
-1.86118e-12
1.16408e-09
-2.42539e-12
1.34911e-09
-2.88471e-12
1.47817e-09
-3.1994e-12
1.55806e-09
-3.3544e-12
1.59563e-09
-3.3554e-12
1.59751e-09
-3.22326e-12
1.56993e-09
-2.98787e-12
1.51858e-09
-2.68291e-12
1.4486e-09
-2.34165e-12
1.3645e-09
-1.99376e-12
1.27024e-09
-1.66345e-12
1.16919e-09
-1.36842e-12
1.06422e-09
-1.11963e-12
9.5771e-10
-9.21608e-13
8.51614e-10
-7.73131e-13
7.47509e-10
-6.68164e-13
6.46634e-10
-5.97004e-13
5.49941e-10
-5.47238e-13
4.58134e-10
-5.04955e-13
3.71708e-10
-4.55614e-13
2.9098e-10
-3.84913e-13
2.16121e-10
-2.79467e-13
1.47182e-10
-1.27294e-13
8.41201e-11
2.68479e-11
-1.0435e-12
6.02796e-10
2.38372e-13
-2.24377e-12
9.17978e-10
-3.65132e-12
1.16549e-09
-5.10864e-12
1.35056e-09
-6.48952e-12
1.47955e-09
-7.70026e-12
1.55927e-09
-8.6778e-12
1.59661e-09
-9.38617e-12
1.59822e-09
-9.81186e-12
1.57036e-09
-9.95904e-12
1.51873e-09
-9.8452e-12
1.44848e-09
-9.4974e-12
1.36415e-09
-8.94907e-12
1.26969e-09
-8.2376e-12
1.16848e-09
-7.40234e-12
1.06338e-09
-6.48304e-12
9.5679e-10
-5.51863e-12
8.5065e-10
-4.54608e-12
7.46536e-10
-3.60085e-12
6.45688e-10
-2.71521e-12
5.49055e-10
-1.91793e-12
4.57337e-10
-1.2336e-12
3.71024e-10
-6.82524e-13
2.90429e-10
-2.80476e-13
2.15719e-10
-3.88933e-14
1.46941e-10
3.50047e-14
8.40463e-11
2.68829e-11
-6.67312e-13
6.03249e-10
2.14297e-13
-1.28043e-12
9.18591e-10
-1.97976e-12
1.16618e-09
-2.68837e-12
1.35127e-09
-3.34075e-12
1.4802e-09
-3.88847e-12
1.55982e-09
-4.30123e-12
1.59702e-09
-4.56544e-12
1.59849e-09
-4.68145e-12
1.57047e-09
-4.6601e-12
1.51871e-09
-4.51949e-12
1.44834e-09
-4.28183e-12
1.36392e-09
-3.97088e-12
1.26938e-09
-3.61005e-12
1.16812e-09
-3.22072e-12
1.063e-09
-2.82148e-12
9.56391e-10
-2.42746e-12
8.50256e-10
-2.05068e-12
7.46159e-10
-1.6989e-12
6.45337e-10
-1.37775e-12
5.48734e-10
-1.09004e-12
4.57049e-10
-8.35966e-13
3.7077e-10
-6.13541e-13
2.90206e-10
-4.1913e-13
2.15524e-10
-2.47958e-13
1.4677e-10
-9.45067e-14
8.38928e-11
2.67884e-11
-1.6987e-12
6.04516e-10
4.31506e-13
-3.5582e-12
9.20451e-10
-5.75017e-12
1.16838e-09
-8.04076e-12
1.35356e-09
-1.02327e-11
1.48239e-09
-1.21716e-11
1.56176e-09
-1.37471e-11
1.5986e-09
-1.48914e-11
1.59963e-09
-1.55746e-11
1.57116e-09
-1.57987e-11
1.51893e-09
-1.55917e-11
1.44814e-09
-1.50009e-11
1.36333e-09
-1.40869e-11
1.26847e-09
-1.2918e-11
1.16695e-09
-1.15653e-11
1.06164e-09
-1.00994e-11
9.54925e-10
-8.58657e-12
8.48743e-10
-7.08696e-12
7.4466e-10
-5.65279e-12
6.43902e-10
-4.32637e-12
5.47408e-10
-3.14169e-12
4.55865e-10
-2.12496e-12
3.69753e-10
-1.29559e-12
2.89377e-10
-6.66646e-13
2.14895e-10
-2.45737e-13
1.46349e-10
-3.55649e-14
8.36827e-11
2.67529e-11
-1.86455e-12
6.05858e-10
5.22054e-13
-3.77896e-12
9.22365e-10
-6.01042e-12
1.17061e-09
-8.31677e-12
1.35587e-09
-1.04915e-11
1.48457e-09
-1.23749e-11
1.56364e-09
-1.38576e-11
1.60008e-09
-1.48781e-11
1.60065e-09
-1.54172e-11
1.5717e-09
-1.54911e-11
1.51901e-09
-1.51424e-11
1.44779e-09
-1.44322e-11
1.36262e-09
-1.34327e-11
1.26747e-09
-1.22204e-11
1.16574e-09
-1.08693e-11
1.06029e-09
-9.44814e-12
9.53504e-10
-8.0174e-12
8.47312e-10
-6.62858e-12
7.43271e-10
-5.32251e-12
6.42596e-10
-4.13031e-12
5.46215e-10
-3.07407e-12
4.54808e-10
-2.16791e-12
3.68847e-10
-1.41929e-12
2.88628e-10
-8.29972e-13
2.14306e-10
-3.9729e-13
1.45916e-10
-1.15073e-13
8.34004e-11
2.66378e-11
-2.95952e-12
6.08036e-10
7.81354e-13
-6.13224e-12
9.25538e-10
-9.87743e-12
1.17435e-09
-1.38067e-11
1.3598e-09
-1.75892e-11
1.48835e-09
-2.09638e-11
1.56702e-09
-2.37429e-11
1.60286e-09
-2.58088e-11
1.60272e-09
-2.71066e-11
1.57299e-09
-2.76341e-11
1.51954e-09
-2.74312e-11
1.44758e-09
-2.65694e-11
1.36175e-09
-2.51416e-11
1.26604e-09
-2.32539e-11
1.16385e-09
-2.10195e-11
1.05806e-09
-1.8552e-11
9.51036e-10
-1.59612e-11
8.44721e-10
-1.33486e-11
7.40658e-10
-1.08063e-11
6.40054e-10
-8.41502e-12
5.43824e-10
-6.24284e-12
4.52636e-10
-4.34455e-12
3.66949e-10
-2.76194e-12
2.87046e-10
-1.52455e-12
2.13069e-10
-6.50722e-13
1.45042e-10
-1.4883e-13
8.28985e-11
2.6489e-11
-3.72299e-12
6.10744e-10
1.01504e-12
-7.62265e-12
9.29438e-10
-1.21958e-11
1.17893e-09
-1.69573e-11
1.36456e-09
-2.14941e-11
1.49289e-09
-2.54843e-11
1.57101e-09
-2.87023e-11
1.60608e-09
-3.10142e-11
1.60503e-09
-3.23677e-11
1.57435e-09
-3.27777e-11
1.51995e-09
-3.23114e-11
1.44712e-09
-3.10733e-11
1.36052e-09
-2.91916e-11
1.26416e-09
-2.68067e-11
1.16146e-09
-2.40628e-11
1.05531e-09
-2.10996e-11
9.48073e-10
-1.8047e-11
8.41669e-10
-1.50206e-11
7.37632e-10
-1.212e-11
6.37153e-10
-9.42714e-12
5.41131e-10
-7.00706e-12
4.50216e-10
-4.90836e-12
3.6485e-10
-3.16466e-12
2.85302e-10
-1.79628e-12
2.117e-10
-8.12067e-13
1.44058e-10
-2.11234e-13
8.22977e-11
2.62777e-11
-4.73822e-12
6.14215e-10
1.2673e-12
-9.74449e-12
9.34444e-10
-1.55878e-11
1.18477e-09
-2.16279e-11
1.3706e-09
-2.73285e-11
1.49859e-09
-3.22806e-11
1.57596e-09
-3.62061e-11
1.61e-09
-3.895e-11
1.60777e-09
-4.04631e-11
1.57586e-09
-4.07828e-11
1.52027e-09
-4.00107e-11
1.44635e-09
-3.82932e-11
1.3588e-09
-3.58032e-11
1.26167e-09
-3.27247e-11
1.15839e-09
-2.92403e-11
1.05183e-09
-2.55225e-11
9.44356e-10
-2.17283e-11
8.37875e-10
-1.79952e-11
7.33899e-10
-1.44402e-11
6.33598e-10
-1.11592e-11
5.3785e-10
-8.22725e-12
4.47284e-10
-5.70062e-12
3.62323e-10
-3.61808e-12
2.8322e-10
-2.00309e-12
2.10085e-10
-8.65861e-13
1.42921e-10
-2.05454e-13
8.16373e-11
2.60723e-11
-5.50179e-12
6.18223e-10
1.49446e-12
-1.12389e-11
9.40181e-10
-1.78951e-11
1.19143e-09
-2.47258e-11
1.37743e-09
-3.1114e-11
1.50498e-09
-3.65981e-11
1.58144e-09
-4.08746e-11
1.61428e-09
-4.37855e-11
1.61068e-09
-4.5296e-11
1.57737e-09
-4.54678e-11
1.52044e-09
-4.4433e-11
1.44531e-09
-4.23689e-11
1.35673e-09
-3.94777e-11
1.25878e-09
-3.59693e-11
1.15488e-09
-3.20482e-11
1.04791e-09
-2.79048e-11
9.40212e-10
-2.37095e-11
8.33679e-10
-1.96093e-11
7.29799e-10
-1.57264e-11
6.29716e-10
-1.21592e-11
5.34283e-10
-8.98258e-12
4.44108e-10
-6.2508e-12
3.59592e-10
-3.99927e-12
2.80968e-10
-2.24727e-12
2.08333e-10
-1.00042e-12
1.41674e-10
-2.53144e-13
8.089e-11
2.58191e-11
-6.12918e-12
6.22702e-10
1.64986e-12
-1.25322e-11
9.46584e-10
-1.99176e-11
1.19881e-09
-2.74346e-11
1.38495e-09
-3.43914e-11
1.51193e-09
-4.02827e-11
1.58733e-09
-4.47902e-11
1.61879e-09
-4.7762e-11
1.61366e-09
-4.91843e-11
1.57879e-09
-4.91477e-11
1.5204e-09
-4.78159e-11
1.44398e-09
-4.53971e-11
1.35431e-09
-4.21208e-11
1.2555e-09
-3.82194e-11
1.15098e-09
-3.39156e-11
1.0436e-09
-2.94128e-11
9.35709e-10
-2.48904e-11
8.29157e-10
-2.05009e-11
7.25409e-10
-1.63695e-11
6.25584e-10
-1.25951e-11
5.30509e-10
-9.25218e-12
4.40765e-10
-6.39336e-12
3.56733e-10
-4.05195e-12
2.78627e-10
-2.24483e-12
2.06526e-10
-9.75165e-13
1.40404e-10
-2.34955e-13
8.01498e-11
2.55842e-11
-6.20616e-12
6.27221e-10
1.68716e-12
-1.26213e-11
9.52999e-10
-1.99678e-11
1.20616e-09
-2.73784e-11
1.39236e-09
-3.41592e-11
1.51871e-09
-3.98172e-11
1.59299e-09
-4.40562e-11
1.62303e-09
-4.67514e-11
1.61635e-09
-4.79152e-11
1.57996e-09
-4.76611e-11
1.52015e-09
-4.61688e-11
1.44249e-09
-4.36558e-11
1.3518e-09
-4.03541e-11
1.2522e-09
-3.64928e-11
1.14712e-09
-3.22868e-11
1.0394e-09
-2.79286e-11
9.31351e-10
-2.35851e-11
8.24813e-10
-1.93956e-11
7.2122e-10
-1.54726e-11
6.21661e-10
-1.19032e-11
5.26939e-10
-8.75151e-12
4.37613e-10
-6.0614e-12
3.54043e-10
-3.8592e-12
2.76424e-10
-2.15654e-12
2.04824e-10
-9.52975e-13
1.39201e-10
-2.38296e-13
7.94351e-11
2.53459e-11
-5.83313e-12
6.31477e-10
1.57696e-12
-1.186e-11
9.59026e-10
-1.87199e-11
1.21302e-09
-2.55832e-11
1.39922e-09
-3.17987e-11
1.52493e-09
-3.69173e-11
1.59811e-09
-4.06816e-11
1.62679e-09
-4.29978e-11
1.61867e-09
-4.38986e-11
1.58086e-09
-4.35066e-11
1.51975e-09
-4.20009e-11
1.44098e-09
-3.95896e-11
1.34939e-09
-3.64894e-11
1.2491e-09
-3.29102e-11
1.14354e-09
-2.90459e-11
1.03553e-09
-2.50681e-11
9.27373e-10
-2.11239e-11
8.20869e-10
-1.7335e-11
7.17431e-10
-1.37989e-11
6.18125e-10
-1.05905e-11
5.23731e-10
-7.76468e-12
4.34787e-10
-5.35861e-12
3.51637e-10
-3.39444e-12
2.7446e-10
-1.88173e-12
2.03311e-10
-8.19645e-13
1.38139e-10
-1.99063e-13
7.88146e-11
2.51468e-11
-4.87996e-12
6.35028e-10
1.32936e-12
-9.88046e-12
9.64027e-10
-1.55412e-11
1.21868e-09
-2.11681e-11
1.40485e-09
-2.62245e-11
1.52999e-09
-3.0349e-11
1.60223e-09
-3.33435e-11
1.62978e-09
-3.51457e-11
1.62047e-09
-3.57955e-11
1.58151e-09
-3.54033e-11
1.51936e-09
-3.41215e-11
1.4397e-09
-3.21224e-11
1.34739e-09
-2.95823e-11
1.24656e-09
-2.66697e-11
1.14062e-09
-2.35384e-11
1.0324e-09
-2.03237e-11
9.24159e-10
-1.7141e-11
8.17686e-10
-1.40854e-11
7.14375e-10
-1.12329e-11
6.15273e-10
-8.6424e-12
5.2114e-10
-6.35686e-12
4.32502e-10
-4.40595e-12
3.49686e-10
-2.80767e-12
2.72862e-10
-1.57041e-12
2.02074e-10
-6.94513e-13
1.37263e-10
-1.73864e-13
7.82939e-11
2.4973e-11
-3.61703e-12
6.37666e-10
9.79136e-13
-7.33311e-12
9.67743e-10
-1.15319e-11
1.22288e-09
-1.56965e-11
1.40901e-09
-1.9432e-11
1.53372e-09
-2.24764e-11
1.60528e-09
-2.46892e-11
1.632e-09
-2.60287e-11
1.62181e-09
-2.65266e-11
1.58201e-09
-2.62642e-11
1.5191e-09
-2.53514e-11
1.43879e-09
-2.39118e-11
1.34595e-09
-2.20711e-11
1.24472e-09
-1.99495e-11
1.1385e-09
-1.76574e-11
1.03011e-09
-1.52923e-11
9.21794e-10
-1.29382e-11
8.15332e-10
-1.06658e-11
7.12103e-10
-8.53251e-12
6.13139e-10
-6.58404e-12
5.19192e-10
-4.85527e-12
4.30773e-10
-3.37158e-12
3.48202e-10
-2.15011e-12
2.71641e-10
-1.20089e-12
2.01124e-10
-5.27911e-13
1.3659e-10
-1.3016e-13
7.78962e-11
2.48428e-11
-2.14067e-12
6.39223e-10
5.83523e-13
-4.33309e-12
9.69935e-10
-6.81709e-12
1.22536e-09
-9.29364e-12
1.41149e-09
-1.15344e-11
1.53596e-09
-1.33871e-11
1.60713e-09
-1.47681e-11
1.63338e-09
-1.56496e-11
1.62269e-09
-1.60442e-11
1.5824e-09
-1.59925e-11
1.51905e-09
-1.55515e-11
1.43835e-09
-1.47867e-11
1.34519e-09
-1.37659e-11
1.2437e-09
-1.25556e-11
1.13729e-09
-1.12183e-11
1.02877e-09
-9.81093e-12
9.20386e-10
-8.3845e-12
8.13906e-10
-6.98352e-12
7.10702e-10
-5.6462e-12
6.11802e-10
-4.40466e-12
5.1795e-10
-3.28531e-12
4.29654e-10
-2.30919e-12
3.47226e-10
-1.49253e-12
2.70824e-10
-8.47068e-13
2.00479e-10
-3.80608e-13
1.36123e-10
-9.74011e-14
7.7613e-11
2.47454e-11
-6.80019e-13
6.39722e-10
1.81124e-13
-1.39662e-12
9.70652e-10
-2.22842e-12
1.22619e-09
-3.08687e-12
1.41235e-09
-3.9028e-12
1.53678e-09
-4.6268e-12
1.60786e-09
-5.22676e-12
1.63398e-09
-5.68438e-12
1.62315e-09
-5.99186e-12
1.58271e-09
-6.14916e-12
1.51921e-09
-6.16205e-12
1.43836e-09
-6.04068e-12
1.34507e-09
-5.79853e-12
1.24345e-09
-5.45173e-12
1.13695e-09
-5.01837e-12
1.02834e-09
-4.51789e-12
9.19886e-10
-3.97059e-12
8.13359e-10
-3.39699e-12
7.10128e-10
-2.81741e-12
6.11222e-10
-2.25141e-12
5.17384e-10
-1.71741e-12
4.2912e-10
-1.23236e-12
3.46741e-10
-8.11416e-13
2.70403e-10
-4.67783e-13
2.00135e-10
-2.1259e-13
1.35868e-10
-5.48134e-14
7.74552e-11
2.46906e-11
7.26319e-13
6.39193e-10
-1.97831e-13
1.45581e-12
9.69922e-10
2.25215e-12
1.2254e-09
2.99941e-12
1.4116e-09
3.6118e-12
1.53617e-09
4.03709e-12
1.60743e-09
4.25435e-12
1.63376e-09
4.2683e-12
1.62313e-09
4.10236e-12
1.58287e-09
3.79159e-12
1.51952e-09
3.3765e-12
1.43877e-09
2.89813e-12
1.34554e-09
2.39447e-12
1.24396e-09
1.89803e-12
1.13744e-09
1.43466e-12
1.0288e-09
1.02309e-12
9.20297e-10
6.75127e-13
8.13707e-10
3.96301e-13
7.10407e-10
1.86726e-13
6.11432e-10
4.21078e-14
5.17529e-10
-4.52486e-14
4.29207e-10
-8.54358e-14
3.46781e-10
-9.0075e-14
2.70408e-10
-7.15422e-14
2.00117e-10
-4.23214e-14
1.35839e-10
-1.44755e-14
7.74273e-11
2.46761e-11
2.00777e-12
6.37733e-10
-5.47986e-13
4.05136e-12
9.67879e-10
6.34246e-12
1.22311e-09
8.58643e-12
1.40936e-09
1.05578e-11
1.5342e-09
1.21084e-11
1.60588e-09
1.31622e-11
1.63271e-09
1.37031e-11
1.62259e-09
1.37603e-11
1.58282e-09
1.33933e-11
1.51988e-09
1.26788e-11
1.43949e-09
1.17007e-11
1.34652e-09
1.05419e-11
1.24512e-09
9.27915e-12
1.1387e-09
7.97956e-12
1.0301e-09
6.69916e-12
9.21578e-10
5.48229e-12
8.14923e-10
4.36201e-12
7.11527e-10
3.36099e-12
6.12433e-10
2.49282e-12
5.18397e-10
1.76337e-12
4.29937e-10
1.17226e-12
3.47372e-10
7.14154e-13
2.70866e-10
3.80088e-13
2.00451e-10
1.58504e-13
1.36061e-10
3.62499e-14
7.75496e-11
2.47124e-11
3.18245e-12
6.35414e-10
-8.63428e-13
6.4553e-12
9.64606e-10
1.01651e-11
1.2194e-09
1.38562e-11
1.40567e-09
1.71731e-11
1.53088e-09
1.98735e-11
1.60318e-09
2.18219e-11
1.63076e-09
2.2973e-11
1.62144e-09
2.33511e-11
1.58244e-09
2.30298e-11
1.5202e-09
2.2113e-11
1.44041e-09
2.07197e-11
1.34792e-09
1.89729e-11
1.24686e-09
1.69904e-11
1.14069e-09
1.48801e-11
1.03221e-09
1.2736e-11
9.23722e-10
1.06371e-11
8.17022e-10
8.64711e-12
7.13517e-10
6.81491e-12
6.14265e-10
5.17598e-12
5.20036e-10
3.75382e-12
4.31359e-10
2.56167e-12
3.48564e-10
1.60417e-12
2.71823e-10
8.79016e-13
2.01176e-10
3.78427e-13
1.36561e-10
9.05214e-14
7.78375e-11
2.48029e-11
4.21289e-12
6.32344e-10
-1.14233e-12
8.5685e-12
9.6025e-10
1.35468e-11
1.21442e-09
1.85573e-11
1.40065e-09
2.31317e-11
1.5263e-09
2.69404e-11
1.59937e-09
2.97875e-11
1.62791e-09
3.15923e-11
1.61964e-09
3.23654e-11
1.58167e-09
3.21835e-11
1.52039e-09
3.11677e-11
1.44142e-09
2.94636e-11
1.34962e-09
2.72268e-11
1.2491e-09
2.46113e-11
1.1433e-09
2.17621e-11
1.03506e-09
1.88116e-11
9.26672e-10
1.5871e-11
8.19963e-10
1.30356e-11
7.16353e-10
1.03823e-11
6.16918e-10
7.97091e-12
5.22447e-10
5.84521e-12
4.33484e-10
4.0349e-12
3.50375e-10
2.55746e-12
2.73301e-10
1.41999e-12
2.02313e-10
6.21009e-13
1.3736e-10
1.52159e-13
7.83063e-11
2.49551e-11
5.0632e-12
6.2865e-10
-1.36929e-12
1.03285e-11
9.54985e-10
1.63874e-11
1.20836e-09
2.25413e-11
1.3945e-09
2.82278e-11
1.52062e-09
3.30416e-11
1.59456e-09
3.67305e-11
1.62422e-09
3.91765e-11
1.61719e-09
4.03756e-11
1.58047e-09
4.03957e-11
1.52037e-09
3.93662e-11
1.44245e-09
3.7451e-11
1.35153e-09
3.48308e-11
1.25172e-09
3.16894e-11
1.14644e-09
2.82037e-11
1.03855e-09
2.45369e-11
9.30339e-10
2.08346e-11
8.23665e-10
1.72221e-11
7.19965e-10
1.38041e-11
6.20336e-10
1.06649e-11
5.25587e-10
7.86968e-12
4.3628e-10
5.46595e-12
3.52778e-10
3.48566e-12
2.75281e-10
1.94703e-12
2.03852e-10
8.56679e-13
1.3845e-10
2.1147e-13
7.89516e-11
2.51665e-11
5.65121e-12
6.24526e-10
-1.52714e-12
1.15503e-11
9.49086e-10
1.83751e-11
1.20153e-09
2.53572e-11
1.38752e-09
3.18702e-11
1.5141e-09
3.74536e-11
1.58897e-09
4.18108e-11
1.61987e-09
4.47917e-11
1.61421e-09
4.63669e-11
1.57889e-09
4.65998e-11
1.52013e-09
4.56202e-11
1.44343e-09
4.36008e-11
1.35355e-09
4.07375e-11
1.25458e-09
3.72339e-11
1.14995e-09
3.329e-11
1.04249e-09
2.90917e-11
9.34537e-10
2.48117e-11
8.27945e-10
2.05996e-11
7.24177e-10
1.65829e-11
6.24353e-10
1.28668e-11
5.29303e-10
9.53494e-12
4.39611e-10
6.65084e-12
3.55662e-10
4.25963e-12
2.77672e-10
2.39016e-12
2.05722e-10
1.05706e-12
1.39784e-10
2.62839e-13
7.97458e-11
2.54294e-11
5.91085e-12
6.2021e-10
-1.5951e-12
1.21015e-11
9.42895e-10
1.92919e-11
1.19434e-09
2.66859e-11
1.38012e-09
3.3629e-11
1.50716e-09
3.96329e-11
1.58297e-09
4.43756e-11
1.61512e-09
4.76855e-11
1.6109e-09
4.95123e-11
1.57706e-09
4.99137e-11
1.51973e-09
4.90145e-11
1.44433e-09
4.69877e-11
1.35558e-09
4.40341e-11
1.25754e-09
4.0366e-11
1.15362e-09
3.61948e-11
1.04666e-09
3.17215e-11
9.39011e-10
2.71308e-11
8.32536e-10
2.25867e-11
7.28721e-10
1.82311e-11
6.28709e-10
1.41823e-11
5.33352e-10
1.05362e-11
4.43258e-10
7.36714e-12
3.58832e-10
4.72952e-12
2.8031e-10
2.65987e-12
2.07791e-10
1.17897e-12
1.41264e-10
2.93922e-13
8.06308e-11
2.57233e-11
5.79446e-12
6.15979e-10
-1.56327e-12
1.18735e-11
9.36816e-10
1.89514e-11
1.18727e-09
2.6253e-11
1.37282e-09
3.31366e-11
1.50028e-09
3.91194e-11
1.57699e-09
4.38784e-11
1.61036e-09
4.72361e-11
1.60754e-09
4.91387e-11
1.57516e-09
4.96298e-11
1.51924e-09
4.88254e-11
1.44513e-09
4.68907e-11
1.35752e-09
4.40204e-11
1.26041e-09
4.04224e-11
1.15721e-09
3.63056e-11
1.05078e-09
3.187e-11
9.43446e-10
2.73005e-11
8.37106e-10
2.27626e-11
7.33259e-10
1.84003e-11
6.33071e-10
1.43347e-11
5.37417e-10
1.06646e-11
4.46928e-10
7.46753e-12
3.62029e-10
4.80088e-12
2.82976e-10
2.70415e-12
2.09888e-10
1.20074e-12
1.42768e-10
3.00152e-13
8.15314e-11
2.60234e-11
5.33149e-12
6.12085e-10
-1.43761e-12
1.09308e-11
9.31217e-10
1.74575e-11
1.18074e-09
2.41999e-11
1.36608e-09
3.05671e-11
1.49391e-09
3.61126e-11
1.57144e-09
4.05356e-11
1.60594e-09
4.36691e-11
1.60441e-09
4.54596e-11
1.57337e-09
4.59442e-11
1.51876e-09
4.52276e-11
1.44585e-09
4.34606e-11
1.35928e-09
4.08221e-11
1.26305e-09
3.75041e-11
1.16053e-09
3.36998e-11
1.05458e-09
2.95948e-11
9.47551e-10
2.53611e-11
8.41339e-10
2.11529e-11
7.37467e-10
1.71045e-11
6.3712e-10
1.3329e-11
5.41193e-10
9.91892e-12
4.50338e-10
6.94693e-12
3.65001e-10
4.46704e-12
2.85456e-10
2.51647e-12
2.11838e-10
1.1175e-12
1.44167e-10
2.79365e-13
8.23695e-11
2.63028e-11
4.60342e-12
6.08723e-10
-1.24167e-12
9.43714e-12
9.26383e-10
1.50711e-11
1.17511e-09
2.08904e-11
1.36026e-09
2.63843e-11
1.48842e-09
3.11664e-11
1.56666e-09
3.49768e-11
1.60213e-09
3.76712e-11
1.60172e-09
3.92039e-11
1.57184e-09
3.96078e-11
1.51835e-09
3.89743e-11
1.44648e-09
3.7435e-11
1.36082e-09
3.51454e-11
1.26533e-09
3.22723e-11
1.1634e-09
2.89832e-11
1.05787e-09
2.54388e-11
9.51096e-10
2.17875e-11
8.44991e-10
1.81621e-11
7.41093e-10
1.46778e-11
6.40604e-10
1.14318e-11
5.44439e-10
8.50266e-12
4.53267e-10
5.95212e-12
3.67551e-10
3.8257e-12
2.87583e-10
2.15445e-12
2.1351e-10
9.56587e-13
1.45365e-10
2.39214e-13
8.30869e-11
2.6542e-11
3.74099e-12
6.05991e-10
-1.00907e-12
7.66681e-12
9.22457e-10
1.22379e-11
1.17053e-09
1.69526e-11
1.35555e-09
2.13948e-11
1.48397e-09
2.52508e-11
1.5628e-09
2.83109e-11
1.59907e-09
3.04602e-11
1.59957e-09
3.16643e-11
1.57063e-09
3.1953e-11
1.51806e-09
3.14036e-11
1.44703e-09
3.01252e-11
1.3621e-09
2.82462e-11
1.26721e-09
2.59032e-11
1.16575e-09
2.32325e-11
1.06054e-09
2.03643e-11
9.53964e-10
1.74183e-11
8.47937e-10
1.45009e-11
7.4401e-10
1.17038e-11
6.43401e-10
9.10374e-12
5.47039e-10
6.76253e-12
4.55608e-10
4.72801e-12
3.69586e-10
3.03507e-12
2.89276e-10
1.70699e-12
2.14838e-10
7.56855e-13
1.46315e-10
1.88945e-13
8.36548e-11
2.6731e-11
2.86986e-12
6.03896e-10
-7.74701e-13
5.87701e-12
9.1945e-10
9.37259e-12
1.16704e-09
1.29698e-11
1.35195e-09
1.63488e-11
1.4806e-09
1.92699e-11
1.55988e-09
2.15742e-11
1.59677e-09
2.31766e-11
1.59796e-09
2.40541e-11
1.56976e-09
2.4233e-11
1.51788e-09
2.37757e-11
1.44749e-09
2.27682e-11
1.36311e-09
2.13106e-11
1.26867e-09
1.95085e-11
1.16755e-09
1.74664e-11
1.06259e-09
1.52835e-11
9.56147e-10
1.30502e-11
8.5017e-10
1.08462e-11
7.46214e-10
8.73971e-12
6.45507e-10
6.78735e-12
5.48991e-10
5.03416e-12
4.57361e-10
3.5145e-12
3.71105e-10
2.253e-12
2.90537e-10
1.26557e-12
2.15825e-10
5.60561e-13
1.4702e-10
1.3985e-13
8.40755e-11
2.68708e-11
2.09376e-12
6.02368e-10
-5.65256e-13
4.2849e-12
9.17259e-10
6.82673e-12
1.1645e-09
9.43516e-12
1.34934e-09
1.18764e-11
1.47815e-09
1.39763e-11
1.55778e-09
1.56209e-11
1.59512e-09
1.6751e-11
1.59683e-09
1.73526e-11
1.56915e-09
1.74481e-11
1.51779e-09
1.70851e-11
1.44785e-09
1.63286e-11
1.36386e-09
1.52528e-11
1.26975e-09
1.39352e-11
1.16887e-09
1.24518e-11
1.06407e-09
1.08742e-11
9.57724e-10
9.26724e-12
8.51777e-10
7.68743e-12
7.47794e-10
6.18284e-12
6.47012e-10
4.79279e-12
5.50381e-10
3.54832e-12
4.58606e-10
2.4727e-12
3.72181e-10
1.58225e-12
2.91428e-10
8.87095e-13
2.1652e-10
3.9208e-13
1.47515e-10
9.75416e-14
8.43701e-11
2.69684e-11
1.45818e-12
6.01304e-10
-3.94038e-13
2.98144e-12
9.15736e-10
4.74503e-12
1.16273e-09
6.55008e-12
1.34754e-09
8.23357e-12
1.47647e-09
9.67499e-12
1.55634e-09
1.07964e-11
1.594e-09
1.15581e-11
1.59607e-09
1.19527e-11
1.56876e-09
1.19973e-11
1.51774e-09
1.17268e-11
1.44812e-09
1.11875e-11
1.3644e-09
1.04317e-11
1.2705e-09
9.5137e-12
1.16979e-09
8.48616e-12
1.0651e-09
7.39836e-12
9.58812e-10
6.29452e-12
8.52881e-10
5.21305e-12
7.48875e-10
4.18623e-12
6.48039e-10
3.24025e-12
5.51327e-10
2.39554e-12
4.5945e-10
1.6672e-12
3.72909e-10
1.06559e-12
2.92029e-10
5.96865e-13
2.16989e-10
2.63658e-13
1.47848e-10
6.56094e-14
8.45681e-11
2.7034e-11
9.50642e-13
6.0061e-10
-2.5709e-13
1.94161e-12
9.14745e-10
3.08587e-12
1.16159e-09
4.25273e-12
1.34637e-09
5.3357e-12
1.47539e-09
6.25679e-12
1.55542e-09
6.96639e-12
1.59329e-09
7.44033e-12
1.5956e-09
7.67543e-12
1.56853e-09
7.68455e-12
1.51774e-09
7.49187e-12
1.44832e-09
7.1286e-12
1.36477e-09
6.62949e-12
1.271e-09
6.03006e-12
1.17038e-09
5.36456e-12
1.06576e-09
4.66462e-12
9.59512e-10
3.95831e-12
8.53587e-10
3.26976e-12
7.49564e-10
2.619e-12
6.4869e-10
2.02203e-12
5.51924e-10
1.49113e-12
4.59981e-10
1.03513e-12
3.73365e-10
6.59869e-13
2.92404e-10
3.68573e-13
2.1728e-10
1.62274e-13
1.48054e-10
4.01857e-14
8.46902e-11
2.70742e-11
5.93572e-13
6.00177e-10
-1.60452e-13
1.21143e-12
9.14127e-10
1.9227e-12
1.16088e-09
2.64501e-12
1.34565e-09
3.3117e-12
1.47472e-09
3.87445e-12
1.55486e-09
4.3031e-12
1.59286e-09
4.58367e-12
1.59532e-09
4.71539e-12
1.56839e-09
4.70748e-12
1.51774e-09
4.57602e-12
1.44845e-09
4.34122e-12
1.365e-09
4.02523e-12
1.27132e-09
3.65035e-12
1.17076e-09
3.23787e-12
1.06617e-09
2.80715e-12
9.59943e-10
2.37523e-12
8.54019e-10
1.95651e-12
7.49983e-10
1.56278e-12
6.49083e-10
1.20332e-12
5.52284e-10
8.85063e-13
4.60299e-10
6.12855e-13
3.73637e-10
3.89736e-13
2.92628e-10
2.1719e-13
2.17453e-10
9.54201e-14
1.48176e-10
2.35799e-14
8.47621e-11
2.70977e-11
3.62618e-13
5.99913e-10
-9.82765e-14
7.3895e-13
9.1375e-10
1.17135e-12
1.16045e-09
1.60933e-12
1.34521e-09
2.01214e-12
1.47432e-09
2.35048e-12
1.55452e-09
2.60627e-12
1.59261e-09
2.77139e-12
1.59515e-09
2.84585e-12
1.56832e-09
2.83569e-12
1.51775e-09
2.75113e-12
1.44853e-09
2.60478e-12
1.36515e-09
2.41032e-12
1.27151e-09
2.18141e-12
1.17099e-09
1.93101e-12
1.06643e-09
1.67077e-12
9.60203e-10
1.41089e-12
8.54279e-10
1.1599e-12
7.50234e-10
9.24709e-13
6.49319e-10
7.1069e-13
5.52498e-10
5.21786e-13
4.60488e-10
3.60691e-13
3.73799e-10
2.29011e-13
2.92759e-10
1.27447e-13
2.17554e-10
5.59352e-14
1.48248e-10
1.38215e-14
8.48042e-11
2.71116e-11
1.96418e-13
5.99769e-10
-5.32288e-14
3.99239e-13
9.13548e-10
6.30374e-13
1.16021e-09
8.61781e-13
1.34498e-09
1.0713e-12
1.47411e-09
1.24347e-12
1.55435e-09
1.36929e-12
1.59248e-09
1.44539e-12
1.59508e-09
1.47281e-12
1.56829e-09
1.45578e-12
1.51777e-09
1.40062e-12
1.44859e-09
1.31476e-12
1.36523e-09
1.20592e-12
1.27162e-09
1.08161e-12
1.17111e-09
9.48703e-13
1.06656e-09
8.13246e-13
9.60339e-10
6.80304e-13
8.54412e-10
5.5398e-13
7.5036e-10
4.37427e-13
6.49435e-10
3.3294e-13
5.52602e-10
2.4206e-13
4.60579e-10
1.65669e-13
3.73875e-10
1.04118e-13
2.92821e-10
5.73192e-14
2.17601e-10
2.48521e-14
1.4828e-10
6.0398e-15
8.4823e-11
2.71176e-11
8.24324e-14
5.99709e-10
-2.24495e-14
1.663e-13
9.13464e-10
2.59977e-13
1.16012e-09
3.51139e-13
1.34489e-09
4.30358e-13
1.47403e-09
4.91491e-13
1.55428e-09
5.31489e-13
1.59244e-09
5.49897e-13
1.59506e-09
5.48202e-13
1.56829e-09
5.29178e-13
1.51779e-09
4.96314e-13
1.44862e-09
4.53343e-13
1.36528e-09
4.03887e-13
1.27167e-09
3.51227e-13
1.17117e-09
2.98146e-13
1.06661e-09
2.46887e-13
9.6039e-10
1.99129e-13
8.5446e-10
1.56046e-13
7.50403e-10
1.18344e-13
6.49473e-10
8.63407e-14
5.52634e-10
6.00463e-14
4.60606e-10
3.92313e-14
3.73896e-10
2.34879e-14
2.92837e-10
1.2292e-14
2.17612e-10
5.05594e-15
1.48287e-10
1.1571e-15
8.48269e-11
2.71187e-11
9.9628e-15
5.99702e-10
-2.85492e-15
1.82525e-14
9.13455e-10
2.48156e-14
1.16011e-09
2.7183e-14
1.34488e-09
2.40314e-14
1.47403e-09
1.5142e-14