/*--------------------------------*- C++ -*----------------------------------*\
| =========                 |                                                 |
| \\      /  F ield         | OpenFOAM: The Open Source CFD Toolbox           |
|  \\    /   O peration     | Version:  2106                                  |
|   \\  /    A nd           | Website:  www.openfoam.com                      |
|    \\/     M anipulation  |                                                 |
\*---------------------------------------------------------------------------*/
FoamFile
{
    version     2.0;
    format      ascii;
    arch        "LSB;label=32;scalar=64";
    class       surfaceScalarField;
    location    "149.99958";
    object      phi_0;
}
// * * * * * * * * * * * * * * * * * * * * * * * * * * * * * * * * * * * * * //

dimensions      [1 0 -1 0 0 0 0];

oriented        oriented;

internalField   nonuniform List<scalar> 
6572
(
-1.49017e-10
4.1432e-10
3.90105e-11
-3.19779e-10
6.41405e-10
-5.42026e-10
8.33201e-10
-8.07025e-10
9.93273e-10
-1.10617e-09
1.12445e-09
-1.43073e-09
1.22905e-09
-1.77176e-09
1.30899e-09
-2.12008e-09
1.36598e-09
-2.46633e-09
1.40157e-09
-2.80117e-09
1.41729e-09
-3.11532e-09
1.41459e-09
-3.39955e-09
1.39472e-09
-3.64527e-09
1.35943e-09
-3.84457e-09
1.31032e-09
-3.99009e-09
1.24885e-09
-4.07522e-09
1.17645e-09
-4.09408e-09
1.09459e-09
-4.0417e-09
1.00472e-09
-3.91399e-09
9.08288e-10
-3.70789e-09
8.06734e-10
-3.42128e-09
7.01444e-10
-3.053e-09
5.93696e-10
-2.60272e-09
4.84652e-10
-2.07089e-09
3.75358e-10
-1.45866e-09
2.66749e-10
-7.67779e-10
1.59624e-10
5.41732e-11
-1.01049e-10
4.88259e-10
2.71096e-11
-2.11615e-10
7.5197e-10
-3.48421e-10
9.70007e-10
-5.01122e-10
1.14597e-09
-6.59815e-10
1.28315e-09
-8.15323e-10
1.38455e-09
-9.59452e-10
1.45312e-09
-1.08521e-09
1.49174e-09
-1.18696e-09
1.50331e-09
-1.26061e-09
1.49094e-09
-1.30476e-09
1.45874e-09
-1.31916e-09
1.40912e-09
-1.30427e-09
1.34455e-09
-1.26148e-09
1.26753e-09
-1.19316e-09
1.18053e-09
-1.10262e-09
1.08591e-09
-9.93888e-10
9.85867e-10
-8.71611e-10
8.82447e-10
-7.4082e-10
7.77497e-10
-6.06741e-10
6.72655e-10
-4.74638e-10
5.69342e-10
-3.49703e-10
4.68761e-10
-2.36956e-10
3.71906e-10
-1.41256e-10
2.79657e-10
-6.70766e-11
1.9257e-10
-1.84921e-11
1.11039e-10
3.56811e-11
-8.01287e-11
5.47209e-10
2.11796e-11
-1.6695e-10
8.38792e-10
-2.71289e-10
1.07435e-09
-3.83356e-10
1.25804e-09
-4.94444e-10
1.39423e-09
-5.97228e-10
1.48734e-09
-6.86181e-10
1.54207e-09
-7.5746e-10
1.56302e-09
-8.08831e-10
1.55468e-09
-8.39365e-10
1.52147e-09
-8.48258e-10
1.46763e-09
-8.36256e-10
1.39712e-09
-8.04995e-10
1.31328e-09
-7.56827e-10
1.21936e-09
-6.94707e-10
1.11841e-09
-6.22006e-10
1.01321e-09
-5.42309e-10
9.0617e-10
-4.59214e-10
7.99351e-10
-3.76165e-10
6.94448e-10
-2.96293e-10
5.92784e-10
-2.22332e-10
4.9538e-10
-1.56583e-10
4.03011e-10
-1.00907e-10
3.1623e-10
-5.66463e-11
2.35397e-10
-2.47848e-11
1.60709e-10
-5.97603e-12
9.22306e-11
2.9705e-11
-3.77165e-11
5.74501e-10
1.04236e-11
-7.6836e-11
8.77911e-10
-1.22551e-10
1.12006e-09
-1.69902e-10
1.30539e-09
-2.14623e-10
1.43896e-09
-2.53465e-10
1.52618e-09
-2.84049e-10
1.57266e-09
-3.05011e-10
1.58398e-09
-3.15844e-10
1.56552e-09
-3.16774e-10
1.5224e-09
-3.0864e-10
1.4595e-09
-2.9267e-10
1.38115e-09
-2.70574e-10
1.29119e-09
-2.4422e-10
1.19301e-09
-2.1537e-10
1.08956e-09
-1.85565e-10
9.83403e-10
-1.56077e-10
8.76682e-10
-1.27903e-10
7.71176e-10
-1.01774e-10
6.68319e-10
-7.82266e-11
5.69236e-10
-5.76263e-11
4.7478e-10
-4.01843e-11
3.85569e-10
-2.59767e-11
3.02023e-10
-1.49692e-11
2.24389e-10
-7.04034e-12
1.5278e-10
-2.00165e-12
8.71919e-11
2.77034e-11
-1.91147e-11
5.88638e-10
4.97773e-12
-3.93035e-11
8.981e-10
-6.22789e-11
1.14304e-09
-8.52547e-11
1.32837e-09
-1.06154e-10
1.45986e-09
-1.23625e-10
1.54365e-09
-1.36828e-10
1.58586e-09
-1.4538e-10
1.59253e-09
-1.49302e-10
1.56944e-09
-1.48899e-10
1.522e-09
-1.44584e-10
1.45518e-09
-1.36896e-10
1.37346e-09
-1.265e-10
1.28079e-09
-1.14129e-10
1.18064e-09
-1.00515e-10
1.07595e-09
-8.63412e-11
9.69229e-10
-7.22044e-11
8.62545e-10
-5.86062e-11
7.57578e-10
-4.59498e-11
6.55663e-10
-3.45441e-11
5.5783e-10
-2.46121e-11
4.64848e-10
-1.63013e-11
3.77259e-10
-9.69448e-12
2.95416e-10
-4.82119e-12
2.19516e-10
-1.66754e-12
1.49626e-10
-1.85789e-13
8.57101e-11
2.75176e-11
-9.33023e-12
5.95255e-10
2.71378e-12
-1.83605e-11
9.0713e-10
-2.83126e-11
1.15299e-09
-3.7861e-11
1.33792e-09
-4.60183e-11
1.46801e-09
-5.21857e-11
1.54982e-09
-5.61002e-11
1.58978e-09
-5.77563e-11
1.59419e-09
-5.73401e-11
1.56902e-09
-5.51649e-11
1.51983e-09
-5.16103e-11
1.45163e-09
-4.70742e-11
1.36892e-09
-4.19374e-11
1.27566e-09
-3.65396e-11
1.17524e-09
-3.11642e-11
1.07057e-09
-2.60317e-11
9.64097e-10
-2.12991e-11
8.57813e-10
-1.70653e-11
7.53344e-10
-1.33782e-11
6.51976e-10
-1.02447e-11
5.54697e-10
-7.63997e-12
4.62243e-10
-5.51646e-12
3.75135e-10
-3.81195e-12
2.93711e-10
-2.45623e-12
2.1816e-10
-1.37668e-12
1.48547e-10
-5.02375e-13
8.48358e-11
2.70152e-11
-4.79707e-12
5.98884e-10
1.16837e-12
-1.01494e-11
9.12483e-10
-1.64177e-11
1.15926e-09
-2.28768e-11
1.34438e-09
-2.88858e-11
1.47402e-09
-3.38982e-11
1.55483e-09
-3.76119e-11
1.59349e-09
-3.99142e-11
1.59649e-09
-4.08326e-11
1.56994e-09
-4.04888e-11
1.51948e-09
-3.90606e-11
1.4502e-09
-3.67525e-11
1.36662e-09
-3.37755e-11
1.27268e-09
-3.03323e-11
1.1718e-09
-2.66094e-11
1.06685e-09
-2.27725e-11
9.6026e-10
-1.89646e-11
8.54005e-10
-1.53069e-11
7.49687e-10
-1.18993e-11
6.48568e-10
-8.82275e-12
5.5162e-10
-6.14108e-12
4.59562e-10
-3.90258e-12
3.72897e-10
-2.14205e-12
2.91951e-10
-8.82098e-13
2.169e-10
-1.34712e-13
1.47799e-10
9.74811e-14
8.46036e-11
2.71127e-11
-1.8379e-12
6.00125e-10
5.96846e-13
-3.47201e-12
9.14117e-10
-5.25507e-12
1.16104e-09
-6.94037e-12
1.34606e-09
-8.32785e-12
1.47541e-09
-9.28589e-12
1.55579e-09
-9.76123e-12
1.59397e-09
-9.76825e-12
1.5965e-09
-9.37014e-12
1.56954e-09
-8.6587e-12
1.51877e-09
-7.73664e-12
1.44928e-09
-6.70388e-12
1.36558e-09
-5.64843e-12
1.27162e-09
-4.6409e-12
1.17079e-09
-3.73236e-12
1.06594e-09
-2.95442e-12
9.59482e-10
-2.32086e-12
8.53371e-10
-1.83021e-12
7.49196e-10
-1.46891e-12
6.48207e-10
-1.21431e-12
5.51366e-10
-1.03784e-12
4.59385e-10
-9.07637e-13
3.72766e-10
-7.90852e-13
2.91834e-10
-6.55568e-13
2.16765e-10
-4.72299e-13
1.47616e-10
-2.14921e-13
8.43462e-11
2.68978e-11
-1.84433e-12
6.01543e-10
4.25947e-13
-3.94169e-12
9.16214e-10
-6.37498e-12
1.16347e-09
-8.85581e-12
1.34854e-09
-1.11562e-11
1.47771e-09
-1.31125e-11
1.55774e-09
-1.46234e-11
1.59548e-09
-1.56414e-11
1.59751e-09
-1.61616e-11
1.57006e-09
-1.62103e-11
1.51882e-09
-1.58347e-11
1.4489e-09
-1.50949e-11
1.36484e-09
-1.40575e-11
1.27059e-09
-1.27912e-11
1.16952e-09
-1.13638e-11
1.06452e-09
-9.84019e-12
9.57958e-10
-8.28102e-12
8.51812e-10
-6.74205e-12
7.47657e-10
-5.27345e-12
6.46738e-10
-3.91954e-12
5.50012e-10
-2.7186e-12
4.58184e-10
-1.70279e-12
3.71751e-10
-8.98119e-13
2.91029e-10
-3.24609e-13
2.16191e-10
3.4929e-15
1.47288e-10
7.74131e-14
8.42723e-11
2.69752e-11
-6.92434e-13
6.0199e-10
2.45127e-13
-1.25643e-12
9.16778e-10
-1.86121e-12
1.16408e-09
-2.42541e-12
1.34911e-09
-2.88473e-12
1.47817e-09
-3.19942e-12
1.55806e-09
-3.35441e-12
1.59563e-09
-3.35542e-12
1.59751e-09
-3.22326e-12
1.56993e-09
-2.98786e-12
1.51858e-09
-2.68291e-12
1.4486e-09
-2.34164e-12
1.3645e-09
-1.99375e-12
1.27024e-09
-1.66345e-12
1.16919e-09
-1.36841e-12
1.06422e-09
-1.11962e-12
9.5771e-10
-9.21597e-13
8.51614e-10
-7.73105e-13
7.47509e-10
-6.68157e-13
6.46633e-10
-5.96979e-13
5.49941e-10
-5.47222e-13
4.58134e-10
-5.04947e-13
3.71708e-10
-4.55595e-13
2.9098e-10
-3.84903e-13
2.16121e-10
-2.79459e-13
1.47182e-10
-1.27285e-13
8.41201e-11
2.68479e-11
-1.04353e-12
6.02796e-10
2.38401e-13
-2.24373e-12
9.17978e-10
-3.65129e-12
1.16549e-09
-5.1086e-12
1.35056e-09
-6.4895e-12
1.47955e-09
-7.70022e-12
1.55927e-09
-8.67776e-12
1.59661e-09
-9.38615e-12
1.59822e-09
-9.81184e-12
1.57036e-09
-9.95901e-12
1.51873e-09
-9.84518e-12
1.44848e-09
-9.49737e-12
1.36415e-09
-8.94905e-12
1.26969e-09
-8.23758e-12
1.16848e-09
-7.40233e-12
1.06338e-09
-6.48302e-12
9.5679e-10
-5.51861e-12
8.5065e-10
-4.54608e-12
7.46536e-10
-3.60083e-12
6.45688e-10
-2.7152e-12
5.49055e-10
-1.91791e-12
4.57337e-10
-1.2336e-12
3.71024e-10
-6.82515e-13
2.90429e-10
-2.80476e-13
2.15719e-10
-3.88834e-14
1.46941e-10
3.50008e-14
8.40462e-11
2.68829e-11
-6.673e-13
6.03249e-10
2.14282e-13
-1.28044e-12
9.18591e-10
-1.97977e-12
1.16618e-09
-2.68836e-12
1.35127e-09
-3.34073e-12
1.4802e-09
-3.88844e-12
1.55982e-09
-4.30119e-12
1.59702e-09
-4.56541e-12
1.59849e-09
-4.6814e-12
1.57047e-09
-4.66006e-12
1.51871e-09
-4.51945e-12
1.44834e-09
-4.28179e-12
1.36392e-09
-3.97084e-12
1.26938e-09
-3.61001e-12
1.16812e-09
-3.22068e-12
1.063e-09
-2.82145e-12
9.56391e-10
-2.42741e-12
8.50256e-10
-2.05065e-12
7.46159e-10
-1.69887e-12
6.45336e-10
-1.37773e-12
5.48734e-10
-1.09003e-12
4.57049e-10
-8.3595e-13
3.7077e-10
-6.13529e-13
2.90206e-10
-4.19124e-13
2.15524e-10
-2.47961e-13
1.4677e-10
-9.44969e-14
8.38928e-11
2.67884e-11
-1.69867e-12
6.04516e-10
4.31481e-13
-3.55821e-12
9.20451e-10
-5.75017e-12
1.16838e-09
-8.04076e-12
1.35356e-09
-1.02327e-11
1.48239e-09
-1.21716e-11
1.56176e-09
-1.37471e-11
1.5986e-09
-1.48914e-11
1.59963e-09
-1.55745e-11
1.57116e-09
-1.57986e-11
1.51893e-09
-1.55916e-11
1.44814e-09
-1.50009e-11
1.36333e-09
-1.40869e-11
1.26847e-09
-1.29179e-11
1.16695e-09
-1.15653e-11
1.06164e-09
-1.00993e-11
9.54925e-10
-8.58655e-12
8.48743e-10
-7.08694e-12
7.4466e-10
-5.65275e-12
6.43902e-10
-4.32635e-12
5.47408e-10
-3.14166e-12
4.55865e-10
-2.12494e-12
3.69753e-10
-1.29557e-12
2.89377e-10
-6.66634e-13
2.14895e-10
-2.45719e-13
1.46349e-10
-3.55617e-14
8.36826e-11
2.67528e-11
-1.86458e-12
6.05858e-10
5.22079e-13
-3.77892e-12
9.22365e-10
-6.01039e-12
1.17061e-09
-8.31672e-12
1.35587e-09
-1.04914e-11
1.48457e-09
-1.23749e-11
1.56364e-09
-1.38576e-11
1.60008e-09
-1.4878e-11
1.60065e-09
-1.54172e-11
1.5717e-09
-1.54911e-11
1.51901e-09
-1.51423e-11
1.44779e-09
-1.44322e-11
1.36262e-09
-1.34327e-11
1.26747e-09
-1.22203e-11
1.16574e-09
-1.08693e-11
1.06029e-09
-9.44812e-12
9.53504e-10
-8.01737e-12
8.47312e-10
-6.62856e-12
7.43271e-10
-5.32249e-12
6.42596e-10
-4.13029e-12
5.46215e-10
-3.07404e-12
4.54808e-10
-2.1679e-12
3.68847e-10
-1.41927e-12
2.88628e-10
-8.29957e-13
2.14306e-10
-3.97285e-13
1.45916e-10
-1.1507e-13
8.34004e-11
2.66378e-11
-2.95952e-12
6.08036e-10
7.81352e-13
-6.13223e-12
9.25538e-10
-9.87741e-12
1.17435e-09
-1.38067e-11
1.3598e-09
-1.75892e-11
1.48835e-09
-2.09638e-11
1.56702e-09
-2.37429e-11
1.60286e-09
-2.58088e-11
1.60272e-09
-2.71065e-11
1.57299e-09
-2.7634e-11
1.51954e-09
-2.74312e-11
1.44758e-09
-2.65694e-11
1.36175e-09
-2.51416e-11
1.26604e-09
-2.32539e-11
1.16385e-09
-2.10194e-11
1.05806e-09
-1.8552e-11
9.51036e-10
-1.59612e-11
8.44721e-10
-1.33486e-11
7.40658e-10
-1.08062e-11
6.40054e-10
-8.415e-12
5.43824e-10
-6.24282e-12
4.52636e-10
-4.34453e-12
3.66949e-10
-2.76192e-12
2.87046e-10
-1.52454e-12
2.13069e-10
-6.50719e-13
1.45042e-10
-1.4883e-13
8.28985e-11
2.64889e-11
-3.72294e-12
6.10744e-10
1.01499e-12
-7.62266e-12
9.29438e-10
-1.21958e-11
1.17893e-09
-1.69573e-11
1.36456e-09
-2.14941e-11
1.49289e-09
-2.54843e-11
1.57101e-09
-2.87023e-11
1.60608e-09
-3.10142e-11
1.60503e-09
-3.23677e-11
1.57435e-09
-3.27777e-11
1.51995e-09
-3.23114e-11
1.44712e-09
-3.10733e-11
1.36052e-09
-2.91916e-11
1.26416e-09
-2.68067e-11
1.16146e-09
-2.40627e-11
1.05531e-09
-2.10996e-11
9.48073e-10
-1.80469e-11
8.41669e-10
-1.50206e-11
7.37632e-10
-1.212e-11
6.37153e-10
-9.42711e-12
5.41131e-10
-7.00704e-12
4.50216e-10
-4.90834e-12
3.6485e-10
-3.16465e-12
2.85302e-10
-1.79626e-12
2.117e-10
-8.12049e-13
1.44058e-10
-2.11238e-13
8.22977e-11
2.62777e-11
-4.73823e-12
6.14215e-10
1.26732e-12
-9.74447e-12
9.34444e-10
-1.55878e-11
1.18477e-09
-2.16278e-11
1.3706e-09
-2.73285e-11
1.49859e-09
-3.22805e-11
1.57596e-09
-3.62061e-11
1.61e-09
-3.89499e-11
1.60777e-09
-4.04631e-11
1.57586e-09
-4.07827e-11
1.52027e-09
-4.00107e-11
1.44635e-09
-3.82932e-11
1.3588e-09
-3.58031e-11
1.26167e-09
-3.27247e-11
1.15839e-09
-2.92403e-11
1.05183e-09
-2.55225e-11
9.44355e-10
-2.17282e-11
8.37874e-10
-1.79952e-11
7.33899e-10
-1.44402e-11
6.33598e-10
-1.11592e-11
5.3785e-10
-8.22723e-12
4.47284e-10
-5.70061e-12
3.62323e-10
-3.61806e-12
2.8322e-10
-2.00308e-12
2.10085e-10
-8.65854e-13
1.42921e-10
-2.05443e-13
8.16373e-11
2.60723e-11
-5.50179e-12
6.18223e-10
1.49446e-12
-1.12389e-11
9.40181e-10
-1.78951e-11
1.19143e-09
-2.47257e-11
1.37743e-09
-3.1114e-11
1.50498e-09
-3.6598e-11
1.58144e-09
-4.08745e-11
1.61428e-09
-4.37855e-11
1.61068e-09
-4.52959e-11
1.57737e-09
-4.54678e-11
1.52044e-09
-4.44329e-11
1.44531e-09
-4.23688e-11
1.35673e-09
-3.94777e-11
1.25878e-09
-3.59692e-11
1.15488e-09
-3.20481e-11
1.04791e-09
-2.79048e-11
9.40212e-10
-2.37095e-11
8.33679e-10
-1.96092e-11
7.29799e-10
-1.57264e-11
6.29715e-10
-1.21591e-11
5.34283e-10
-8.98255e-12
4.44108e-10
-6.25078e-12
3.59592e-10
-3.99925e-12
2.80968e-10
-2.24727e-12
2.08333e-10
-1.00042e-12
1.41674e-10
-2.53138e-13
8.089e-11
2.58191e-11
-6.12915e-12
6.22702e-10
1.64983e-12
-1.25322e-11
9.46584e-10
-1.99176e-11
1.19881e-09
-2.74346e-11
1.38495e-09
-3.43913e-11
1.51193e-09
-4.02827e-11
1.58733e-09
-4.47901e-11
1.61879e-09
-4.7762e-11
1.61366e-09
-4.91842e-11
1.57879e-09
-4.91477e-11
1.5204e-09
-4.78159e-11
1.44398e-09
-4.53971e-11
1.35431e-09
-4.21207e-11
1.2555e-09
-3.82194e-11
1.15098e-09
-3.39155e-11
1.0436e-09
-2.94128e-11
9.35709e-10
-2.48904e-11
8.29157e-10
-2.05008e-11
7.25409e-10
-1.63694e-11
6.25584e-10
-1.2595e-11
5.30509e-10
-9.25216e-12
4.40765e-10
-6.39334e-12
3.56733e-10
-4.05193e-12
2.78627e-10
-2.24481e-12
2.06526e-10
-9.7515e-13
1.40404e-10
-2.3495e-13
8.01498e-11
2.55842e-11
-6.20617e-12
6.27221e-10
1.68717e-12
-1.26212e-11
9.52999e-10
-1.99677e-11
1.20616e-09
-2.73783e-11
1.39236e-09
-3.41591e-11
1.51871e-09
-3.98172e-11
1.59299e-09
-4.40562e-11
1.62303e-09
-4.67513e-11
1.61635e-09
-4.79152e-11
1.57996e-09
-4.7661e-11
1.52015e-09
-4.61687e-11
1.44249e-09
-4.36557e-11
1.3518e-09
-4.0354e-11
1.2522e-09
-3.64928e-11
1.14712e-09
-3.22867e-11
1.0394e-09
-2.79285e-11
9.31351e-10
-2.3585e-11
8.24813e-10
-1.93955e-11
7.2122e-10
-1.54725e-11
6.21661e-10
-1.19031e-11
5.26939e-10
-8.7515e-12
4.37613e-10
-6.06138e-12
3.54043e-10
-3.85918e-12
2.76424e-10
-2.15653e-12
2.04824e-10
-9.52969e-13
1.39201e-10
-2.38288e-13
7.94351e-11
2.53459e-11
-5.83307e-12
6.31477e-10
1.5769e-12
-1.18599e-11
9.59026e-10
-1.87199e-11
1.21302e-09
-2.55831e-11
1.39922e-09
-3.17987e-11
1.52493e-09
-3.69173e-11
1.59811e-09
-4.06816e-11
1.62679e-09
-4.29977e-11
1.61867e-09
-4.38985e-11
1.58086e-09
-4.35065e-11
1.51975e-09
-4.20008e-11
1.44098e-09
-3.95896e-11
1.34939e-09
-3.64893e-11
1.2491e-09
-3.29102e-11
1.14354e-09
-2.90458e-11
1.03553e-09
-2.5068e-11
9.27373e-10
-2.11238e-11
8.20869e-10
-1.73349e-11
7.17431e-10
-1.37988e-11
6.18125e-10
-1.05905e-11
5.23731e-10
-7.76465e-12
4.34787e-10
-5.35859e-12
3.51637e-10
-3.39443e-12
2.7446e-10
-1.88171e-12
2.03311e-10
-8.19635e-13
1.38139e-10
-1.99058e-13
7.88145e-11
2.51468e-11
-4.87996e-12
6.35028e-10
1.32937e-12
-9.88043e-12
9.64027e-10
-1.55412e-11
1.21868e-09
-2.1168e-11
1.40485e-09
-2.62244e-11
1.52999e-09
-3.03489e-11
1.60223e-09
-3.33435e-11
1.62978e-09
-3.51456e-11
1.62047e-09
-3.57955e-11
1.58151e-09
-3.54033e-11
1.51936e-09
-3.41214e-11
1.4397e-09
-3.21224e-11
1.34739e-09
-2.95823e-11
1.24656e-09
-2.66697e-11
1.14062e-09
-2.35383e-11
1.0324e-09
-2.03237e-11
9.24159e-10
-1.7141e-11
8.17686e-10
-1.40853e-11
7.14375e-10
-1.12329e-11
6.15273e-10
-8.64237e-12
5.2114e-10
-6.35684e-12
4.32502e-10
-4.40593e-12
3.49686e-10
-2.80765e-12
2.72862e-10
-1.5704e-12
2.02074e-10
-6.94506e-13
1.37263e-10
-1.7386e-13
7.82939e-11
2.4973e-11
-3.61706e-12
6.37666e-10
9.79174e-13
-7.33307e-12
9.67743e-10
-1.15319e-11
1.22288e-09
-1.56964e-11
1.40901e-09
-1.94319e-11
1.53372e-09
-2.24764e-11
1.60528e-09
-2.46891e-11
1.632e-09
-2.60286e-11
1.62181e-09
-2.65266e-11
1.58201e-09
-2.62641e-11
1.5191e-09
-2.53513e-11
1.43879e-09
-2.39117e-11
1.34595e-09
-2.2071e-11
1.24472e-09
-1.99495e-11
1.1385e-09
-1.76573e-11
1.03011e-09
-1.52922e-11
9.21794e-10
-1.29382e-11
8.15332e-10
-1.06657e-11
7.12103e-10
-8.53248e-12
6.13139e-10
-6.58401e-12
5.19192e-10
-4.85526e-12
4.30773e-10
-3.37156e-12
3.48202e-10
-2.1501e-12
2.7164e-10
-1.20088e-12
2.01124e-10
-5.27908e-13
1.3659e-10
-1.30159e-13
7.78961e-11
2.48428e-11
-2.14062e-12
6.39223e-10
5.83482e-13
-4.33311e-12
9.69935e-10
-6.8171e-12
1.22536e-09
-9.29364e-12
1.41149e-09
-1.15344e-11
1.53596e-09
-1.33871e-11
1.60713e-09
-1.47681e-11
1.63338e-09
-1.56495e-11
1.62269e-09
-1.60441e-11
1.5824e-09
-1.59924e-11
1.51905e-09
-1.55514e-11
1.43835e-09
-1.47866e-11
1.34519e-09
-1.37658e-11
1.2437e-09
-1.25556e-11
1.13729e-09
-1.12182e-11
1.02877e-09
-9.81089e-12
9.20386e-10
-8.38447e-12
8.13906e-10
-6.98349e-12
7.10702e-10
-5.64617e-12
6.11802e-10
-4.40464e-12
5.1795e-10
-3.28529e-12
4.29654e-10
-2.30918e-12
3.47226e-10
-1.49251e-12
2.70824e-10
-8.47055e-13
2.00479e-10
-3.806e-13
1.36123e-10
-9.73971e-14
7.76129e-11
2.47454e-11
-6.80012e-13
6.39722e-10
1.81124e-13
-1.39663e-12
9.70652e-10
-2.22842e-12
1.22619e-09
-3.08687e-12
1.41235e-09
-3.90279e-12
1.53678e-09
-4.62679e-12
1.60786e-09
-5.22675e-12
1.63398e-09
-5.68436e-12
1.62315e-09
-5.99183e-12
1.58271e-09
-6.14913e-12
1.51921e-09
-6.16202e-12
1.43836e-09
-6.04065e-12
1.34507e-09
-5.7985e-12
1.24345e-09
-5.45171e-12
1.13694e-09
-5.01835e-12
1.02834e-09
-4.51788e-12
9.19886e-10
-3.97057e-12
8.13359e-10
-3.39698e-12
7.10128e-10
-2.8174e-12
6.11222e-10
-2.2514e-12
5.17384e-10
-1.71741e-12
4.2912e-10
-1.23236e-12
3.46741e-10
-8.11413e-13
2.70403e-10
-4.67778e-13
2.00135e-10
-2.12587e-13
1.35868e-10
-5.48119e-14
7.74552e-11
2.46906e-11
7.26314e-13
6.39193e-10
-1.97819e-13
1.45584e-12
9.69922e-10
2.25219e-12
1.2254e-09
2.99945e-12
1.4116e-09
3.61183e-12
1.53617e-09
4.03713e-12
1.60743e-09
4.25438e-12
1.63376e-09
4.26834e-12
1.62313e-09
4.1024e-12
1.58287e-09
3.79162e-12
1.51952e-09
3.37653e-12
1.43877e-09
2.89817e-12
1.34554e-09
2.3945e-12
1.24396e-09
1.89806e-12
1.13744e-09
1.43468e-12
1.0288e-09
1.02311e-12
9.20297e-10
6.75149e-13
8.13707e-10
3.96324e-13
7.10407e-10
1.86747e-13
6.11432e-10
4.21226e-14
5.17529e-10
-4.52359e-14
4.29207e-10
-8.54248e-14
3.46781e-10
-9.00665e-14
2.70408e-10
-7.15368e-14
2.00117e-10
-4.23164e-14
1.35839e-10
-1.4474e-14
7.74273e-11
2.46761e-11
2.00774e-12
6.37733e-10
-5.47961e-13
4.05137e-12
9.67878e-10
6.34247e-12
1.22311e-09
8.58644e-12
1.40936e-09
1.05578e-11
1.53419e-09
1.21084e-11
1.60588e-09
1.31622e-11
1.63271e-09
1.37031e-11
1.62259e-09
1.37603e-11
1.58282e-09
1.33933e-11
1.51988e-09
1.26788e-11
1.43949e-09
1.17008e-11
1.34652e-09
1.0542e-11
1.24512e-09
9.27916e-12
1.1387e-09
7.97956e-12
1.0301e-09
6.69917e-12
9.21578e-10
5.4823e-12
8.14923e-10
4.36202e-12
7.11527e-10
3.361e-12
6.12433e-10
2.49282e-12
5.18397e-10
1.76338e-12
4.29936e-10
1.17226e-12
3.47372e-10
7.14161e-13
2.70866e-10
3.80091e-13
2.00451e-10
1.58507e-13
1.36061e-10
3.62509e-14
7.75496e-11
2.47124e-11
3.18249e-12
6.35414e-10
-8.63463e-13
6.45529e-12
9.64606e-10
1.01651e-11
1.2194e-09
1.38561e-11
1.40567e-09
1.7173e-11
1.53088e-09
1.98735e-11
1.60318e-09
2.18219e-11
1.63076e-09
2.29729e-11
1.62144e-09
2.33511e-11
1.58244e-09
2.30298e-11
1.5202e-09
2.2113e-11
1.44041e-09
2.07197e-11
1.34792e-09
1.89729e-11
1.24686e-09
1.69904e-11
1.14069e-09
1.48801e-11
1.03221e-09
1.2736e-11
9.23722e-10
1.06371e-11
8.17022e-10
8.64712e-12
7.13517e-10
6.81491e-12
6.14265e-10
5.17598e-12
5.20036e-10
3.75382e-12
4.31359e-10
2.56167e-12
3.48564e-10
1.60418e-12
2.71823e-10
8.79019e-13
2.01176e-10
3.78428e-13
1.36561e-10
9.05209e-14
7.78375e-11
2.48029e-11
4.21287e-12
6.32344e-10
-1.14231e-12
8.56852e-12
9.6025e-10
1.35468e-11
1.21442e-09
1.85574e-11
1.40065e-09
2.31317e-11
1.5263e-09
2.69404e-11
1.59937e-09
2.97875e-11
1.62791e-09
3.15924e-11
1.61964e-09
3.23654e-11
1.58166e-09
3.21835e-11
1.52039e-09
3.11677e-11
1.44142e-09
2.94636e-11
1.34962e-09
2.72268e-11
1.2491e-09
2.46113e-11
1.1433e-09
2.17621e-11
1.03506e-09
1.88116e-11
9.26672e-10
1.58711e-11
8.19963e-10
1.30356e-11
7.16353e-10
1.03824e-11
6.16918e-10
7.97092e-12
5.22447e-10
5.84521e-12
4.33484e-10
4.0349e-12
3.50375e-10
2.55746e-12
2.73301e-10
1.41999e-12
2.02313e-10
6.2101e-13
1.3736e-10
1.52161e-13
7.83063e-11
2.4955e-11
5.06319e-12
6.2865e-10
-1.36928e-12
1.03285e-11
9.54985e-10
1.63874e-11
1.20836e-09
2.25413e-11
1.3945e-09
2.82278e-11
1.52062e-09
3.30416e-11
1.59456e-09
3.67304e-11
1.62422e-09
3.91765e-11
1.61719e-09
4.03756e-11
1.58047e-09
4.03957e-11
1.52037e-09
3.93662e-11
1.44245e-09
3.7451e-11
1.35153e-09
3.48308e-11
1.25172e-09
3.16894e-11
1.14644e-09
2.82037e-11
1.03855e-09
2.45369e-11
9.30339e-10
2.08346e-11
8.23665e-10
1.72221e-11
7.19965e-10
1.38041e-11
6.20336e-10
1.06649e-11
5.25587e-10
7.86968e-12
4.3628e-10
5.46596e-12
3.52778e-10
3.48566e-12
2.75281e-10
1.94704e-12
2.03852e-10
8.5668e-13
1.3845e-10
2.1147e-13
7.89515e-11
2.51665e-11
5.65121e-12
6.24526e-10
-1.52714e-12
1.15503e-11
9.49086e-10
1.83751e-11
1.20153e-09
2.53572e-11
1.38752e-09
3.18702e-11
1.5141e-09
3.74536e-11
1.58897e-09
4.18108e-11
1.61987e-09
4.47917e-11
1.61421e-09
4.63669e-11
1.57889e-09
4.65998e-11
1.52013e-09
4.56202e-11
1.44343e-09
4.36008e-11
1.35355e-09
4.07375e-11
1.25458e-09
3.72339e-11
1.14995e-09
3.329e-11
1.04249e-09
2.90917e-11
9.34537e-10
2.48117e-11
8.27945e-10
2.05995e-11
7.24177e-10
1.65829e-11
6.24353e-10
1.28668e-11
5.29303e-10
9.53493e-12
4.39611e-10
6.65084e-12
3.55662e-10
4.25963e-12
2.77672e-10
2.39016e-12
2.05721e-10
1.05706e-12
1.39784e-10
2.62839e-13
7.97458e-11
2.54294e-11
5.91084e-12
6.2021e-10
-1.59509e-12
1.21015e-11
9.42895e-10
1.92919e-11
1.19434e-09
2.6686e-11
1.38012e-09
3.3629e-11
1.50716e-09
3.96329e-11
1.58297e-09
4.43756e-11
1.61512e-09
4.76855e-11
1.6109e-09
4.95123e-11
1.57706e-09
4.99137e-11
1.51973e-09
4.90145e-11
1.44433e-09
4.69877e-11
1.35558e-09
4.40341e-11
1.25754e-09
4.0366e-11
1.15362e-09
3.61948e-11
1.04666e-09
3.17215e-11
9.39011e-10
2.71308e-11
8.32536e-10
2.25867e-11
7.28721e-10
1.82311e-11
6.28709e-10
1.41823e-11
5.33351e-10
1.05362e-11
4.43257e-10
7.36714e-12
3.58831e-10
4.72952e-12
2.8031e-10
2.65988e-12
2.07791e-10
1.17897e-12
1.41264e-10
2.93922e-13
8.06308e-11
2.57233e-11
5.79447e-12
6.15979e-10
-1.56329e-12
1.18735e-11
9.36816e-10
1.89514e-11
1.18727e-09
2.6253e-11
1.37282e-09
3.31366e-11
1.50028e-09
3.91194e-11
1.57699e-09
4.38783e-11
1.61036e-09
4.72361e-11
1.60754e-09
4.91387e-11
1.57516e-09
4.96298e-11
1.51924e-09
4.88254e-11
1.44513e-09
4.68907e-11
1.35752e-09
4.40203e-11
1.26041e-09
4.04224e-11
1.15721e-09
3.63056e-11
1.05078e-09
3.187e-11
9.43446e-10
2.73004e-11
8.37105e-10
2.27626e-11
7.33259e-10
1.84003e-11
6.33071e-10
1.43347e-11
5.37417e-10
1.06646e-11
4.46928e-10
7.46753e-12
3.62029e-10
4.80088e-12
2.82976e-10
2.70415e-12
2.09888e-10
1.20074e-12
1.42768e-10
3.00153e-13
8.15314e-11
2.60234e-11
5.33149e-12
6.12085e-10
-1.43762e-12
1.09308e-11
9.31217e-10
1.74575e-11
1.18074e-09
2.41999e-11
1.36608e-09
3.05671e-11
1.49391e-09
3.61126e-11
1.57144e-09
4.05356e-11
1.60594e-09
4.36691e-11
1.60441e-09
4.54596e-11
1.57337e-09
4.59442e-11
1.51876e-09
4.52276e-11
1.44585e-09
4.34606e-11
1.35928e-09
4.08221e-11
1.26305e-09
3.75041e-11
1.16053e-09
3.36998e-11
1.05458e-09
2.95948e-11
9.47551e-10
2.53611e-11
8.41339e-10
2.11529e-11
7.37467e-10
1.71044e-11
6.3712e-10
1.33289e-11
5.41193e-10
9.91891e-12
4.50338e-10
6.94692e-12
3.65001e-10
4.46703e-12
2.85456e-10
2.51647e-12
2.11838e-10
1.11749e-12
1.44167e-10
2.79363e-13
8.23695e-11
2.63028e-11
4.60343e-12
6.08723e-10
-1.24169e-12
9.43715e-12
9.26383e-10
1.50711e-11
1.17511e-09
2.08904e-11
1.36026e-09
2.63843e-11
1.48842e-09
3.11664e-11
1.56666e-09
3.49768e-11
1.60213e-09
3.76712e-11
1.60172e-09
3.92039e-11
1.57184e-09
3.96078e-11
1.51835e-09
3.89743e-11
1.44648e-09
3.7435e-11
1.36082e-09
3.51454e-11
1.26533e-09
3.22723e-11
1.1634e-09
2.89832e-11
1.05787e-09
2.54388e-11
9.51096e-10
2.17875e-11
8.4499e-10
1.81621e-11
7.41093e-10
1.46778e-11
6.40604e-10
1.14318e-11
5.44439e-10
8.50265e-12
4.53267e-10
5.95212e-12
3.67551e-10
3.82569e-12
2.87583e-10
2.15444e-12
2.1351e-10
9.56586e-13
1.45365e-10
2.39211e-13
8.30869e-11
2.6542e-11
3.74098e-12
6.05991e-10
-1.00906e-12
7.6668e-12
9.22457e-10
1.22379e-11
1.17053e-09
1.69526e-11
1.35555e-09
2.13947e-11
1.48397e-09
2.52508e-11
1.5628e-09
2.83109e-11
1.59907e-09
3.04601e-11
1.59957e-09
3.16642e-11
1.57063e-09
3.1953e-11
1.51806e-09
3.14035e-11
1.44703e-09
3.01252e-11
1.3621e-09
2.82462e-11
1.26721e-09
2.59032e-11
1.16575e-09
2.32325e-11
1.06054e-09
2.03643e-11
9.53964e-10
1.74183e-11
8.47936e-10
1.45009e-11
7.4401e-10
1.17038e-11
6.43401e-10
9.10373e-12
5.47039e-10
6.76253e-12
4.55608e-10
4.72801e-12
3.69586e-10
3.03507e-12
2.89276e-10
1.70699e-12
2.14838e-10
7.56853e-13
1.46315e-10
1.88945e-13
8.36548e-11
2.6731e-11
2.86984e-12
6.03896e-10
-7.7468e-13
5.877e-12
9.1945e-10
9.37258e-12
1.16704e-09
1.29698e-11
1.35195e-09
1.63488e-11
1.4806e-09
1.92699e-11
1.55988e-09
2.15742e-11
1.59677e-09
2.31765e-11
1.59796e-09
2.40541e-11
1.56976e-09
2.4233e-11
1.51788e-09
2.37756e-11
1.44749e-09
2.27681e-11
1.36311e-09
2.13106e-11
1.26867e-09
1.95085e-11
1.16755e-09
1.74664e-11
1.06259e-09
1.52835e-11
9.56147e-10
1.30502e-11
8.5017e-10
1.08461e-11
7.46214e-10
8.7397e-12
6.45507e-10
6.78734e-12
5.48991e-10
5.03415e-12
4.57361e-10
3.51449e-12
3.71105e-10
2.25299e-12
2.90537e-10
1.26557e-12
2.15825e-10
5.60559e-13
1.4702e-10
1.39848e-13
8.40755e-11
2.68708e-11
2.09376e-12
6.02368e-10
-5.65254e-13
4.28487e-12
9.17259e-10
6.8267e-12
1.1645e-09
9.43513e-12
1.34934e-09
1.18763e-11
1.47815e-09
1.39762e-11
1.55778e-09
1.56209e-11
1.59512e-09
1.67509e-11
1.59683e-09
1.73526e-11
1.56915e-09
1.7448e-11
1.51779e-09
1.70851e-11
1.44785e-09
1.63286e-11
1.36386e-09
1.52528e-11
1.26975e-09
1.39351e-11
1.16887e-09
1.24518e-11
1.06407e-09
1.08742e-11
9.57724e-10
9.26723e-12
8.51777e-10
7.68742e-12
7.47794e-10
6.18283e-12
6.47012e-10
4.79278e-12
5.50381e-10
3.54831e-12
4.58606e-10
2.47269e-12
3.72181e-10
1.58224e-12
2.91428e-10
8.8709e-13
2.1652e-10
3.92076e-13
1.47515e-10
9.75393e-14
8.43701e-11
2.69683e-11
1.45818e-12
6.01303e-10
-3.94037e-13
2.98142e-12
9.15735e-10
4.745e-12
1.16273e-09
6.55005e-12
1.34754e-09
8.23354e-12
1.47647e-09
9.67496e-12
1.55634e-09
1.07963e-11
1.594e-09
1.15581e-11
1.59607e-09
1.19527e-11
1.56876e-09
1.19972e-11
1.51774e-09
1.17268e-11
1.44812e-09
1.11875e-11
1.3644e-09
1.04317e-11
1.2705e-09
9.51367e-12
1.16979e-09
8.48614e-12
1.0651e-09
7.39834e-12
9.58812e-10
6.2945e-12
8.52881e-10
5.21304e-12
7.48875e-10
4.18621e-12
6.48039e-10
3.24024e-12
5.51327e-10
2.39553e-12
4.5945e-10
1.66719e-12
3.72909e-10
1.06558e-12
2.92029e-10
5.96859e-13
2.16989e-10
2.63655e-13
1.47848e-10
6.56063e-14
8.45681e-11
2.7034e-11
9.50597e-13
6.0061e-10
-2.5705e-13
1.9416e-12
9.14744e-10
3.08586e-12
1.16159e-09
4.25272e-12
1.34637e-09
5.33568e-12
1.47539e-09
6.25676e-12
1.55542e-09
6.96637e-12
1.59329e-09
7.44031e-12
1.5956e-09
7.6754e-12
1.56853e-09
7.68452e-12
1.51774e-09
7.49184e-12
1.44832e-09
7.12858e-12
1.36477e-09
6.62947e-12
1.271e-09
6.03003e-12
1.17038e-09
5.36454e-12
1.06576e-09
4.6646e-12
9.59512e-10
3.95829e-12
8.53587e-10
3.26975e-12
7.49564e-10
2.61898e-12
6.4869e-10
2.02202e-12
5.51924e-10
1.49112e-12
4.59981e-10
1.03512e-12
3.73365e-10
6.59861e-13
2.92404e-10
3.68569e-13
2.1728e-10
1.6227e-13
1.48054e-10
4.01835e-14
8.46902e-11
2.70741e-11
5.93582e-13
6.00177e-10
-1.60466e-13
1.21141e-12
9.14127e-10
1.92267e-12
1.16088e-09
2.64499e-12
1.34565e-09
3.31167e-12
1.47472e-09
3.87442e-12
1.55486e-09
4.30307e-12
1.59286e-09
4.58364e-12
1.59532e-09
4.71536e-12
1.56839e-09
4.70746e-12
1.51774e-09
4.57599e-12
1.44845e-09
4.3412e-12
1.365e-09
4.0252e-12
1.27132e-09
3.65033e-12
1.17076e-09
3.23785e-12
1.06617e-09
2.80714e-12
9.59943e-10
2.37521e-12
8.54019e-10
1.95649e-12
7.49983e-10
1.56277e-12
6.49083e-10
1.20331e-12
5.52284e-10
8.85053e-13
4.60299e-10
6.12847e-13
3.73637e-10
3.8973e-13
2.92628e-10
2.17185e-13
2.17453e-10
9.54162e-14
1.48176e-10
2.3577e-14
8.4762e-11
2.70977e-11
3.62622e-13
5.99912e-10
-9.82857e-14
7.38972e-13
9.1375e-10
1.17137e-12
1.16045e-09
1.60934e-12
1.34521e-09
2.01216e-12
1.47432e-09
2.35049e-12
1.55452e-09
2.60627e-12
1.59261e-09
2.77139e-12
1.59515e-09
2.84585e-12
1.56832e-09
2.83569e-12
1.51775e-09
2.75112e-12
1.44853e-09
2.60477e-12
1.36515e-09
2.4103e-12
1.27151e-09
2.18141e-12
1.17099e-09
1.931e-12
1.06643e-09
1.67076e-12
9.60203e-10
1.41088e-12
8.54279e-10
1.15989e-12
7.50234e-10
9.247e-13
6.49318e-10
7.1068e-13
5.52498e-10
5.21777e-13
4.60488e-10
3.60683e-13
3.73799e-10
2.29006e-13
2.92759e-10
1.27441e-13
2.17554e-10
5.59315e-14
1.48248e-10
1.38182e-14
8.48042e-11
2.71115e-11
1.96391e-13
5.99769e-10
-5.32112e-14
3.99258e-13
9.13547e-10
6.30388e-13
1.16021e-09
8.61795e-13
1.34498e-09
1.07131e-12
1.47411e-09
1.24347e-12
1.55435e-09
1.36929e-12
1.59248e-09
1.44539e-12
1.59508e-09
1.47279e-12
1.56829e-09
1.45576e-12
1.51777e-09
1.40061e-12
1.44859e-09
1.31474e-12
1.36523e-09
1.2059e-12
1.27162e-09
1.08159e-12
1.17111e-09
9.48687e-13
1.06656e-09
8.13228e-13
9.60339e-10
6.80286e-13
8.54412e-10
5.53964e-13
7.5036e-10
4.37411e-13
6.49435e-10
3.32928e-13
5.52602e-10
2.42047e-13
4.60579e-10
1.65658e-13
3.73875e-10
1.04108e-13
2.92821e-10
5.73109e-14
2.17601e-10
2.48461e-14
1.4828e-10
6.03717e-15
8.4823e-11
2.71176e-11
8.24898e-14
5.99709e-10
-2.25156e-14
1.66337e-13
9.13464e-10
2.60002e-13
1.16012e-09
3.51155e-13
1.34489e-09
4.30369e-13
1.47403e-09
4.91497e-13
1.55428e-09
5.31493e-13
1.59244e-09
5.49894e-13
1.59506e-09
5.48195e-13
1.56829e-09
5.29168e-13
1.51779e-09
4.96301e-13
1.44862e-09
4.53328e-13
1.36528e-09
4.03874e-13
1.27167e-09
3.51211e-13
1.17117e-09
2.98131e-13
1.06661e-09
2.4687e-13
9.6039e-10
1.99115e-13
8.54459e-10
1.56031e-13
7.50403e-10
1.18329e-13
6.49473e-10
8.63282e-14
5.52634e-10
6.00365e-14
4.60606e-10
3.92218e-14
3.73896e-10
2.34781e-14
2.92837e-10
1.22856e-14
2.17612e-10
5.05013e-15
1.48287e-10
1.15442e-15
8.48269e-11
2.71187e-11
9.92784e-15
5.99702e-10
-2.82924e-15
1.83151e-14
9.13455e-10
2.48712e-14
1.16011e-09
2.72286e-14
1.34488e-09
2.40673e-14