/*--------------------------------*- C++ -*----------------------------------*\
| =========                 |                                                 |
| \\      /  F ield         | OpenFOAM: The Open Source CFD Toolbox           |
|  \\    /   O peration     | Version:  2106                                  |
|   \\  /    A nd           | Website:  www.openfoam.com                      |
|    \\/     M anipulation  |                                                 |
\*---------------------------------------------------------------------------*/
FoamFile
{
    version     2.0;
    format      ascii;
    arch        "LSB;label=32;scalar=64";
    class       volScalarField;
    location    "149.99958";
    object      Qdot;
}
// * * * * * * * * * * * * * * * * * * * * * * * * * * * * * * * * * * * * * //

dimensions      [1 -1 -3 0 0 0 0];

internalField   nonuniform List<scalar> 
3360
(
-5.45257e-14
-5.61325e-14
-5.83685e-14
-6.11035e-14
-6.42237e-14
-6.76266e-14
-7.12197e-14
-7.49197e-14
-7.86522e-14
-8.23516e-14
-8.5961e-14
-8.94323e-14
-9.27254e-14
-9.58088e-14
-9.86582e-14
-1.01257e-13
-1.03594e-13
-1.05666e-13
-1.07472e-13
-1.0902e-13
-1.10317e-13
-1.11376e-13
-1.12213e-13
-1.12844e-13
-1.13288e-13
-1.13565e-13
-1.13693e-13
-2.2363e-13
-2.31682e-13
-2.43045e-13
-2.57196e-13
-2.73701e-13
-2.92182e-13
-3.12302e-13
-3.3375e-13
-3.56241e-13
-3.79501e-13
-4.0327e-13
-4.27294e-13
-4.51323e-13
-4.75109e-13
-4.9841e-13
-5.20986e-13
-5.42604e-13
-5.63036e-13
-5.82066e-13
-5.99489e-13
-6.15118e-13
-6.28789e-13
-6.40359e-13
-6.49717e-13
-6.56779e-13
-6.61494e-13
-6.63846e-13
-6.92031e-13
-7.22209e-13
-7.6509e-13
-8.18974e-13
-8.82449e-13
-9.54246e-13
-1.03316e-12
-1.118e-12
-1.20756e-12
-1.30062e-12
-1.39592e-12
-1.49221e-12
-1.58826e-12
-1.68285e-12
-1.7748e-12
-1.86299e-12
-1.94639e-12
-2.02407e-12
-2.09521e-12
-2.15916e-12
-2.21539e-12
-2.26354e-12
-2.30341e-12
-2.33491e-12
-2.35814e-12
-2.37328e-12
-2.38065e-12
-2.00742e-12
-2.10692e-12
-2.24927e-12
-2.42937e-12
-2.64296e-12
-2.88606e-12
-3.15468e-12
-3.44469e-12
-3.75176e-12
-4.07133e-12
-4.39869e-12
-4.72906e-12
-5.05767e-12
-5.37989e-12
-5.69133e-12
-5.98796e-12
-6.26619e-12
-6.52298e-12
-6.75589e-12
-6.96308e-12
-7.14336e-12
-7.29607e-12
-7.42114e-12
-7.51895e-12
-7.59032e-12
-7.63639e-12
-7.6586e-12
-5.85929e-12
-6.1734e-12
-6.6236e-12
-7.19453e-12
-7.87313e-12
-8.64688e-12
-9.50288e-12
-1.04275e-11
-1.14061e-11
-1.24234e-11
-1.34635e-11
-1.45104e-11
-1.55484e-11
-1.65624e-11
-1.75386e-11
-1.84645e-11
-1.93294e-11
-2.01244e-11
-2.08427e-11
-2.14792e-11
-2.20311e-11
-2.2497e-11
-2.28775e-11
-2.31742e-11
-2.33901e-11
-2.35291e-11
-2.35959e-11
-1.72805e-11
-1.82461e-11
-1.96318e-11
-2.13907e-11
-2.34826e-11
-2.58686e-11
-2.85085e-11
-3.13592e-11
-3.43751e-11
-3.75077e-11
-4.07074e-11
-4.3924e-11
-4.71088e-11
-5.02153e-11
-5.3201e-11
-5.60279e-11
-5.86639e-11
-6.10826e-11
-6.3264e-11
-6.5194e-11
-6.68646e-11
-6.8273e-11
-6.94212e-11
-7.03155e-11
-7.09655e-11
-7.13837e-11
-7.15847e-11
-5.13861e-11
-5.43255e-11
-5.85439e-11
-6.38991e-11
-7.02685e-11
-7.75327e-11
-8.55675e-11
-9.42407e-11
-1.03411e-10
-1.12931e-10
-1.22647e-10
-1.32408e-10
-1.42064e-10
-1.51476e-10
-1.60515e-10
-1.69068e-10
-1.77039e-10
-1.84349e-10
-1.90939e-10
-1.96768e-10
-2.01812e-10
-2.06064e-10
-2.09531e-10
-2.12232e-10
-2.14197e-10
-2.15462e-10
-2.16073e-10
-1.53469e-10
-1.62343e-10
-1.75088e-10
-1.91277e-10
-2.10541e-10
-2.32521e-10
-2.56843e-10
-2.83105e-10
-3.1088e-10
-3.39718e-10
-3.69156e-10
-3.98731e-10
-4.27993e-10
-4.56517e-10
-4.83914e-10
-5.0984e-10
-5.34003e-10
-5.56166e-10
-5.76149e-10
-5.93828e-10
-6.09133e-10
-6.22041e-10
-6.32573e-10
-6.40787e-10
-6.46775e-10
-6.50649e-10
-6.52545e-10
-4.60383e-10
-4.87225e-10
-5.25777e-10
-5.74761e-10
-6.33074e-10
-6.99636e-10
-7.73321e-10
-8.52921e-10
-9.37146e-10
-1.02464e-09
-1.114e-09
-1.20382e-09
-1.29276e-09
-1.37951e-09
-1.46289e-09
-1.54186e-09
-1.61553e-09
-1.68317e-09
-1.74423e-09
-1.79831e-09
-1.84521e-09
-1.88484e-09
-1.91726e-09
-1.94263e-09
-1.96123e-09
-1.97339e-09
-1.97951e-09
-1.38547e-09
-1.4668e-09
-1.58371e-09
-1.73237e-09
-1.90951e-09
-2.11193e-09
-2.33627e-09
-2.57893e-09
-2.83603e-09
-3.10348e-09
-3.37703e-09
-3.65245e-09
-3.92554e-09
-4.19237e-09
-4.44928e-09
-4.69303e-09
-4.92083e-09
-5.1304e-09
-5.26839e-09
-5.43676e-09
-5.58317e-09
-5.70732e-09
-5.80934e-09
-5.88971e-09
-5.9492e-09
-5.98885e-09
-6.00985e-09
-4.19374e-09
-4.44221e-09
-4.79961e-09
-5.20301e-09
-5.74595e-09
-6.36737e-09
-7.05734e-09
-7.92126e-09
-8.71523e-09
-9.54304e-09
-1.03918e-08
-1.12485e-08
-1.21003e-08
-9.29509e-08
-9.37568e-08
-9.45237e-08
-9.52428e-08
-9.5855e-08
-9.6458e-08
-9.69958e-08
-9.74658e-08
-9.78668e-08
-9.81988e-08
-9.84633e-08
-9.86622e-08
-9.87988e-08
-9.88765e-08
-9.28728e-08
-9.36402e-08
-9.47459e-08
-9.61046e-08
-9.77916e-08
8.03088e-08
7.81526e-08
7.56919e-08
7.32453e-08
7.06309e-08
6.79397e-08
6.52123e-08
6.25407e-08
-2.02715e-08
-2.28712e-08
-2.53571e-08
-2.76998e-08
-2.98227e-08
-3.18091e-08
-3.35925e-08
-3.51627e-08
-3.66305e-08
1.42274e-07
1.41358e-07
1.40705e-07
1.40203e-07
1.39892e-07
-1.96453e-08
-2.20609e-08
-2.55484e-08
-2.9958e-08
-3.53124e-08
1.3849e-07
5.15731e-08
4.39687e-08
3.59453e-08
-5.26317e-08
1.18661e-07
1.09579e-07
2.06082e-08
1.16249e-08
1.82889e-07
9.45407e-08
8.6468e-08
7.90785e-08
-7.73883e-09
1.65974e-07
1.60504e-07
1.55694e-07
1.51488e-07
6.81533e-08
6.54868e-08
6.34998e-08
6.21598e-08
1.55603e-08
7.76281e-09
9.64247e-08
8.1904e-08
1.6436e-07
6.40515e-08
1.41115e-07
3.60275e-08
1.08833e-07
1.80062e-07
2.50117e-07
1.39246e-07
2.0802e-07
1.96825e-07
2.66123e-07
3.3637e-07
2.27775e-07
3.00758e-07
3.75734e-07
2.72781e-07
3.52031e-07
2.53711e-07
4.17965e-07
3.24718e-07
3.13833e-07
4.85447e-07
3.99246e-07
1.18624e-07
1.92592e-07
2.54469e-07
2.25311e-07
2.85773e-07
4.16163e-07
4.57097e-07
4.0942e-07
5.33914e-07
4.71748e-07
5.8424e-07
6.92527e-07
7.1843e-07
8.23264e-07
8.4881e-07
9.56473e-07
1.06763e-06
1.18517e-06
1.12742e-06
1.25688e-06
1.29434e-06
1.34024e-06
1.29493e-06
1.35884e-06
1.33187e-06
1.39378e-06
1.46454e-06
7.18216e-07
7.46695e-07
9.32762e-07
1.09865e-06
1.06526e-06
1.27522e-06
1.36708e-06
1.62406e-06
1.84589e-06
1.98124e-06
2.27167e-06
2.54187e-06
2.81749e-06
2.90543e-06
3.16959e-06
3.51758e-06
3.79526e-06
4.06819e-06
4.35911e-06
4.57901e-06
4.72636e-06
4.80529e-06
5.07824e-06
5.10616e-06
5.32996e-06
5.48928e-06
5.40356e-06
2.62658e-06
2.8669e-06
3.1083e-06
3.43291e-06
4.10277e-06
4.59536e-06
5.17831e-06
5.84991e-06
6.69914e-06
7.6509e-06
8.52705e-06
9.43876e-06
1.06515e-05
1.16259e-05
1.27319e-05
1.38908e-05
1.49718e-05
1.6083e-05
1.70626e-05
1.80974e-05
1.88798e-05
1.98264e-05
2.05532e-05
2.12617e-05
2.18018e-05
2.22507e-05
2.2787e-05
9.98682e-06
1.07606e-05
1.20038e-05
1.3466e-05
1.53309e-05
1.76475e-05
2.01809e-05
2.32153e-05
2.66801e-05
3.04683e-05
3.46291e-05
3.89763e-05
4.36335e-05
4.84619e-05
5.34204e-05
5.8385e-05
6.3418e-05
6.8341e-05
7.30652e-05
7.75726e-05
8.18721e-05
8.59205e-05
8.95694e-05
9.29077e-05
9.57768e-05
9.8336e-05
0.000100498
4.06374e-05
4.39092e-05
4.87455e-05
5.53151e-05
6.35402e-05
7.35392e-05
8.51851e-05
9.87536e-05
0.000114119
0.00013139
0.000150135
0.000170475
0.000191947
0.00021446
0.000237666
0.000261191
0.000284734
0.000308002
0.000330632
0.000352359
0.000372945
0.000392274
0.000409973
0.000426149
0.0004406
0.000453338
0.00046429
0.000179209
0.000194337
0.000216724
0.000246889
0.000284916
0.000331172
0.000386178
0.000449977
0.000522469
0.000603482
0.000692278
0.000788035
0.000889728
0.000996029
0.00110545
0.00121637
0.00132731
0.00143678
0.00154337
0.00164579
0.0017429
0.00183378
0.00191777
0.00199425
0.00206304
0.00212386
0.0021767
0.000859281
0.000932286
0.00104157
0.00118772
0.00137213
0.0015965
0.00186184
0.00216839
0.00251512
0.00290019
0.00331976
0.00376931
0.004243
0.00473436
0.00523646
0.00574219
0.00624458
0.00673706
0.00721382
0.0076696
0.00810004
0.00850178
0.00887209
0.00920935
0.00951254
0.00978138
0.0100161
0.00438098
0.00474813
0.00529522
0.00602313
0.00693566
0.00803661
0.00932603
0.0107997
0.0124473
0.0142526
0.0161939
0.0182447
0.0203754
0.0225545
0.0247503
0.0269324
0.0290726
0.0311459
0.033131
0.0350104
0.0367709
0.0384031
0.0399008
0.0412615
0.042485
0.0435737
0.0445316
0.0227387
0.0245864
0.0273265
0.0309488
0.0354565
0.0408483
0.0471078
0.0541969
0.0620531
0.0705913
0.0797062
0.0892786
0.0991799
0.10928
0.119453
0.129361
0.138861
0.148013
0.156724
0.164921
0.172547
0.179562
0.185938
0.191665
0.196743
0.201182
0.205003
0.113801
0.122904
0.136419
0.154336
0.176761
0.203856
0.235277
0.270779
0.310653
0.354735
0.402811
0.454616
0.509836
0.56811
0.629021
0.692092
0.756783
0.822484
0.888521
0.954164
1.01864
1.08117
1.14096
1.19725
1.24935
1.29664
1.33858
0.545127
0.590783
0.659172
0.75099
0.867809
1.01177
1.18543
1.3916
1.63314
1.9127
2.23226
2.59264
2.99297
3.43034
3.89961
4.39365
4.90386
5.42088
5.93541
6.43898
6.92446
7.38633
7.82081
8.22566
8.59995
8.94382
9.25815
2.9173
3.19811
3.62403
4.20352
4.94843
5.86922
6.97017
8.24504
9.67429
11.2252
12.8556
14.5207
16.1796
17.8015
19.3668
20.8668
22.3008
23.6732
24.9909
26.2611
27.4903
28.684
29.8459
30.9784
32.0827
33.1589
34.2064
16.6455
17.901
19.7108
22.0106
24.7347
27.8126
31.1757
34.7653
38.5391
42.473
46.5586
50.7989
55.2033
59.7922
64.5923
69.59
74.7858
80.1733
85.7398
91.4661
97.3281
103.297
109.342
115.429
121.524
127.596
133.611
53.0256
56.1864
60.7693
66.6763
73.8634
82.3524
92.1118
103.161
115.529
129.245
144.334
160.808
178.657
197.852
218.335
240.024
262.811
286.566
311.142
336.379
362.107
388.156
414.357
440.544
466.564
492.275
517.547
141.509
151.048
165.102
183.586
206.551
234.122
266.45
303.681
345.927
393.242
445.606
502.906
564.937
631.4
701.906
775.985
853.105
932.682
1014.1
1096.73
1179.94
1263.12
1345.68
1427.09
1506.86
1584.53
1659.74
396.356
422.756
461.664
512.817
576.291
652.305
741.091
842.811
959.123
1086.88
1227.11
1379.17
1542.19
1715.1
1896.59
2085.35
2279.61
2477.83
2676.5
2878.05
3079.82
3280.04
3476.4
3665.59
3849.07
4024.85
4192.63
1058.09
1118.45
1206.8
1321.95
1463.35
1630.74
1823.82
2042.19
2285.27
2551.75
2840.35
3149.84
3480.33
3827.02
4187.04
4557.29
4934.54
5315.47
5696.79
6074.81
6448.74
6811.51
7163.76
7503.08
7825.9
8131.06
8414.1
2460.34
2572.8
2736.02
2946.5
3203.82
3504.49
3846.58
4227.94
4646.09
5098.09
5580.53
6089.52
6620.8
7169.74
7731.51
8301.14
8873.64
9443.08
10008
10562
11097.6
11615.8
12113.4
12584.7
13027.5
13441.7
13823.2
4909.31
5085.77
5339.67
5663.24
6050.39
6495.66
6993.79
7539.41
8126.87
8750.26
9403.35
10079.7
10772.7
11475.9
12182.7
12885.8
13582.4
14265.2
14929.3
15570.2
16179.7
16761.9
17313.4
17827.8
18305.2
18744.3
19145
8460.07
8689.55
9016.42
9427.59
9911.94
10459.3
11060.2
11705.1
12385
13091
13814.7
14547.8
15281.6
16011.6
16730
17431
18109.9
18762.3
19384.8
19974.5
20524.8
21042
21521.5
21965.8
22369.3
22734.9
23062.7
12776.5
13023.8
13372.4
13804.6
14305.1
14860
15456.4
16082.6
16727.7
17381.9
18036.7
18684.3
19318.3
19933
20524.2
21088.2
21622.4
22124.7
22594.1
23029.7
23431.4
23799.5
24129.5
24431.2
24701.5
24941.5
25155.9
17181.8
17400.4
17704.9
18076.9
18500.2
18960.1
19443.8
19940
20439.1
20932.8
21414.6
21879
22322.2
22741.1
23133.7
23498.9
23836.2
24145.5
24427.4
24682.6
24912.2
25117.3
25299.2
25459.3
25599
25719.5
25818.2
20957.1
21112.5
21326.3
21583.4
21870.2
22175
22487.9
22800.4
23105.8
23399
23676.2
23934.7
24173
24390.3
24586.4
24761.7
24917.1
25053.6
25172.4
25274.8
25362.2
25435.9
25497.2
25547.5
25587.8
25619.3
25643
23671.8
23754
23865
23995.2
24136.1
24280.3
24422
24556.5
24680.6
24791.9
24889.2
24971.9
25040.2
25094.5
25135.7
25165.1
25183.7
25193
25194.2
25188.5
25177.3
25161.5
25142.2
25120.2
25096.4
25071.5
25046
25261.2
25278.8
25300.7
25323.2
25341.3
25353.2
25357.1
25351.6
25336.1
25310.7
25275.7
25232
25180.6
25122.6
25059.4
24992.2
24922.2
24850.6
24778.3
24705.3
24634.6
24565
24497.8
24433.8
24373.2
24316.5
24263.8
25872.8
25844.6
25803.2
25749.3
25683.3
25605.8
25517.9
25420.4
25314.8
25202.3
25084.4
24962.7
24838.6
24713.5
24588.6
24465.3
24344.5
24227.2
24114.3
24006.2
23903.6
23806.1
23715
23629.4
23550.4
23478.2
23414.8
25805.7
25749
25668.6
25568.3
25451.2
25320.2
25177.9
25026.8
24869.4
24707.8
24544
24379.7
24216.7
24056.3
23899.7
23748
23602.2
23462.9
23330.7
23206.1
23089.4
22980.6
22878.9
22785.5
22699.6
22623.9
22554.5
25261.1
25194.5
25101.2
24986.2
24853.3
24703.3
24540.6
24362.5
24179.9
23995.1
23810.4
23627.4
23447.9
23273.2
23104.4
22942.3
22787.8
22641.5
22503.6
22374.6
22254.6
22143.5
22040.8
21946.7
21860.5
21785.2
21716.6
24490.7
24418.2
24317
24193.2
24051.8
23898
23733.2
23560.6
23369.6
23178.1
22988.1
22801.3
22619.2
22443.1
22273.8
22112.1
21958.8
21814.2
21678.6
21552.3
21435.2
21327.5
21228.4
21137.7
21055.1
20983.2
20918.2
23622.6
23549.6
23447.8
23323.6
23182.1
23028.3
22866.5
22694.3
22515.9
22327.8
22142.1
21960.2
21783.7
21613.5
21450.5
21295.3
21148.6
21010.6
20881.6
20761.8
20651.1
20549.5
20456.4
20371.3
20294.1
20227.2
20167
22726.1
22655.5
22557.3
22437.6
22301.5
22153.8
21999.1
21835.7
21665.1
21486.4
21310.3
21138.4
20971.7
20811.4
20658.2
20512.6
20375.2
20246.3
20126
20014.5
19911.7
19817.5
19731.3
19652.7
19581.7
19520.4
19465.5
21843.6
21777.1
21684.6
21572
21444.1
21305.5
21160.3
21007.2
20844.7
20678.2
20514.3
20354.4
20199.7
20050.9
19908.9
19774.3
19647.3
19528.2
19417.4
19314.7
19220.3
19133.9
19054.7
18982.9
18918.2
18862.5
18812.8
20998.9
20937.1
20851.3
20746.8
20628.4
20500.2
20365.2
20222.9
20068.6
19915.3
19764.3
19617.2
19474.8
19338
19207.5
19083.9
18967.4
18858.3
18756.8
18662.9
18576.6
18497.9
18425.7
18360.3
18301.6
18250
18206.5
20203.5
20146.6
20067.7
19971.7
19862.9
19745.5
19618.7
19484
19342.8
19202.3
19064.1
18929.3
18798.9
18673.8
18554.4
18441.3
18334.8
18235.2
18142.5
18057
17978.4
17906.8
17841.3
17781.7
17728.6
17682.1
17643
19461.4
19409.3
19337.1
19249.2
19149.8
19041.6
18924.3
18796.5
18667.7
18539.5
18413.2
18290.1
18170.9
18056.6
17947.5
17844.3
17747.1
17656.2
17571.8
17493.9
17422.5
17357.4
17297.8
17243.7
17195.7
17153.8
17118.7
18772.4
18724.9
18658.9
18578.7
18487.6
18388.2
18275.3
18158.9
18041.5
17924.5
17809.2
17696.7
17587.9
17483.4
17383.9
17289.6
17200.9
17118
17041.1
16970.1
16905.2
16846
16791.7
16742.6
16699.3
16661.5
16629
18134.1
18090.7
18030.6
17957.5
17872.9
17777.5
17674.3
17568.2
17460.9
17354
17248.7
17145.8
17046.4
16950.9
16859.8
16773.7
16692.7
16617
16546.8
16482.1
16422.9
16368.8
16319.4
16274.9
16235.7
16201.6
16172.5
17542.8
17503.3
17448.3
17379.9
17300.9
17211.4
17117.2
17020.2
16922.1
16824.3
16727.8
16633.7
16542.6
16455.1
16371.8
16292.9
16218.8
16149.6
16085.4
16026.4
15972.4
15922.8
15877.9
15837.4
15801.9
15771.1
15744.9
16994.6
16958.2
16906.7
16843.3
16768
16686.1
16599.9
16511.1
16421.2
16331.5
16243
16156.6
16073
15992.7
15916.3
15844
15776
15712.6
15653.9
15599.8
15550.4
15505.1
15463.9
15427.1
15394.9
15367
15343.4
16484.7
16451.2
16402.5
16341.8
16272.8
16197.8
16118.6
16037
15954.4
15871.9
15790.5
15711.1
15634.2
15560.4
15490.2
15423.7
15361.3
15303
15249.1
15199.6
15154.3
15112.9
15075
15041.4
15012
14986.8
14965.5
16009.4
15976.6
15930.9
15875.2
15811.7
15742.6
15669.7
15594.5
15518.4
15442.3
15367.3
15294.1
15223.2
15155.2
15090.5
15029.2
14971.8
14918.2
14868.6
14823.1
14781.5
14743.3
14708.5
14677.8
14651.1
14628.1
14608.9
15563.4
15533.2
15491
15439.6
15381
15317.2
15249.8
15180.4
15110
15039.8
14970.5
14902.8
14837.3
14774.5
14714.7
14658.2
14605.1
14555.7
14510
14468
14429.7
14394.4
14362.5
14334.4
14309.9
14289
14271.6
15146.4
15118.4
15079.4
15031.8
14977.5
14918.5
14856.1
14791.8
14726.6
14661.5
14597.3
14534.7
14474
14415.9
14360.5
14308.2
14259.1
14213.4
14171.2
14132.4
14096.8
14064.3
14035
14009.2
13986.8
13967.7
13951.9
14755.3
14729.4
14693.2
14649
14598.6
14543.8
14485.9
14426.2
14365.7
14305.3
14245.7
14187.5
14131.2
14077.2
14025.9
13977.3
13931.8
13889.5
13850.4
13814.6
13781.5
13751.4
13724.4
13700.6
13680.1
13662.6
13648.2
14387.6
14363.4
14329.8
14288.7
14241.8
14190.8
14136.9
14081.4
14025.1
13968.9
13913.4
13859.3
13806.9
13756.7
13709
13663.9
13621.6
13582.3
13546
13512.8
13482.1
13454.1
13429.1
13407.2
13388.3
13372.3
13359.2
14041
14018.4
13987
13948.7
13905
13857.5
13807.2
13755.4
13702.9
13650.5
13598.8
13548.3
13499.5
13452.7
13408.2
13366.2
13326.8
13290.2
13256.5
13225.6
13197
13170.9
13147.8
13127.5
13110.1
13095.4
13083.5
13713.4
13692.3
13663
13627.2
13586.4
13541.9
13495
13446.6
13397.5
13348.5
13300.2
13253
13207.4
13163.7
13122.1
13082.9
13046.2
13012.1
12980.6
12951.7
12925
12900.7
12879.2
12860.5
12844.4
12830.9
12820
13403.1
13383.4
13355.9
13322.4
13284.2
13242.5
13198.6
13153.2
13107.3
13061.4
13016.1
12972
12929.3
12888.4
12849.5
12812.8
12778.4
12746.5
12717.1
12689.9
12665
12642.4
12622.4
12605
12590.1
12577.7
12567.6
13108.5
13090
13064.3
13032.8
12996.9
12957.8
12916.6
12874
12830.9
12787.8
12745.3
12703.9
12663.8
12625.4
12589
12554.6
12522.4
12492.5
12465
12439.5
12415.9
12394.8
12376.2
12360
12346.2
12334.7
12325.5
12828.2
12810.8
12786.6
12756.9
12723.2
12686.5
12647.7
12607.6
12567
12526.5
12486.6
12447.6
12410
12373.9
12339.6
12307.3
12277
12249
12223.1
12198.9
12176.8
12157.1
12139.7
12124.6
12111.8
12101.1
12092.7
12560.8
12544.4
12521.6
12493.6
12461.8
12427.2
12390.6
12352.9
12314.6
12276.4
12238.8
12202.1
12166.6
12132.6
12100.3
12069.8
12041.4
12015
11990.4
11967.6
11946.8
11928.3
11912
11897.9
11886
11876.1
11868.2
12305.1
12289.6
12268.1
12241.7
12211.6
12178.9
12144.4
12108.7
12072.6
12036.5
12000.9
11966.2
11932.7
11900.6
11870.1
11841.4
11814.5
11789.6
11766.2
11744.5
11725
11707.6
11692.3
11679.1
11667.9
11658.7
11651.4
12060
12045.4
12024.9
12000
11971.5
11940.5
11907.8
11874
11839.8
11805.7
11772
11739.1
11707.4
11677
11648.1
11620.9
11595.5
11571.6
11549.3
11528.9
11510.4
11494
11479.6
11467.2
11456.7
11448.1
11441.3
11824.5
11810.6
11791.2
11767.5
11740.5
11711.1
11680
11647.9
11615.4
11583
11551
11519.8
11489.7
11460.9
11433.5
11407.7
11383.4
11360.5
11339.2
11319.8
11302.3
11286.8
11273.2
11261.5
11251.6
11243.5
11237.2
11597.4
11584.2
11565.7
11543.2
11517.5
11489.5
11459.9
11429.4
11398.5
11367.6
11337.1
11307.4
11278.7
11251.3
11225.2
11200.6
11177.1
11155
11134.8
11116.3
11099.8
11085
11072.1
11061
11051.7
11044.1
11038.2
11377.9
11365.3
11347.6
11326.1
11301.6
11274.9
11246.6
11217.5
11187.9
11158.4
11129.3
11101
11073.6
11047.3
11022.4
10998.4
10975.6
10954.6
10935.2
10917.6
10901.8
10887.8
10875.5
10864.9
10856.1
10848.9
10843.3
11164.9
11152.7
11135.9
11115.3
11091.8
11066.1
11039.1
11011.2
10982.8
10954.6
10926.7
10899.5
10873.2
10847.9
10823.4
10800.1
10778.3
10758.1
10739.6
10722.7
10707.5
10694.1
10682.3
10672.2
10663.8
10656.9
10651.6
10957.2
10945.6
10929.4
10909.6
10887
10862.3
10836.3
10809.4
10782.2
10755
10728.1
10701.9
10676.3
10651.2
10627.4
10605
10584
10564.5
10546.7
10530.4
10515.8
10502.9
10491.6
10481.9
10473.7
10467.1
10462
10754
10742.8
10727.1
10708
10686.1
10662.3
10637.2
10611.2
10584.8
10558.5
10532.2
10506.3
10480.9
10456.7
10433.6
10411.8
10391.5
10372.7
10355.4
10339.7
10325.5
10313
10302
10292.6
10284.7
10278.3
10273.4
10553.9
10543
10527.8
10509.2
10488
10464.9
10440.4
10415.1
10389.2
10362.9
10336.8
10311.3
10286.7
10263
10240.6
10219.4
10199.6
10181.2
10164.4
10149
10135.2
10123
10112.3
10103.1
10095.4
10089.1
10084.3
10355.6
10345
10330.1
10311.9
10291.2
10268.4
10244
10218.5
10192.6
10166.7
10141.2
10116.2
10092
10068.8
10046.8
10026
10006.6
9988.59
9972.03
9956.96
9943.39
9931.33
9920.77
9911.68
9904.05
9897.82
9892.97
10157.5
10146.8
10131.9
10113.4
10092.4
10069.4
10045.1
10020
9994.47
9968.94
9943.73
9919.08
9895.22
9872.33
9850.55
9830
9810.77
9792.92
9776.5
9761.54
9748.06
9736.06
9725.52
9716.44
9708.78
9702.51
9697.58
9955.08
9944.36
9929.42
9911.13
9890.25
9867.44
9843.3
9818.33
9792.97
9767.58
9742.48
9717.93
9694.16
9671.33
9649.6
9629.07
9609.84
9591.98
9575.53
9560.51
9546.96
9534.87
9524.23
9515.02
9507.22
9500.8
9495.7
9748.18
9737.46
9722.5
9704.18
9683.26
9660.4
9636.19
9611.13
9585.66
9560.15
9534.9
9510.2
9486.25
9463.24
9441.3
9420.57
9401.12
9383.02
9366.33
9351.08
9337.27
9324.92
9314.02
9304.55
9296.47
9289.77
9284.39
9534.34
9523.49
9508.35
9489.79
9468.59
9445.42
9420.85
9395.41
9369.52
9343.57
9317.88
9292.71
9268.29
9244.8
9222.38
9201.16
9181.23
9162.66
9145.5
9129.78
9115.51
9102.71
9091.36
9081.45
9072.94
9065.82
9060.02
9310.14
9299.02
9283.49
9264.46
9242.7
9218.89
9193.64
9167.46
9140.8
9114.06
9087.56
9061.57
9036.32
9012.01
8988.78
8966.76
8946.04
8926.7
8908.79
8892.34
8877.37
8863.88
8851.87
8841.32
8832.2
8824.48
8818.1
9071.35
9059.79
9043.64
9023.83
9001.17
8976.36
8950.02
8922.7
8894.86
8866.89
8839.15
8811.92
8785.43
8759.89
8735.46
8712.27
8690.41
8669.96
8650.97
8633.49
8617.53
8603.09
8590.17
8578.74
8568.79
8560.26
8553.13
8812.73
8800.52
8783.47
8762.54
8738.58
8712.33
8684.44
8655.49
8625.96
8596.27
8566.79
8537.83
8509.62
8482.39
8456.31
8431.5
8408.08
8386.13
8365.7
8346.83
8329.55
8313.85
8299.72
8287.15
8276.11
8266.55
8258.43
8527.88
8514.8
8496.51
8474.05
8448.33
8420.13
8390.15
8359.01
8327.21
8295.23
8263.44
8232.18
8201.7
8172.25
8144
8117.09
8091.65
8067.75
8045.45
8024.81
8005.82
7988.51
7972.85
7958.83
7946.41
7935.55
7926.2
8209.25
8195.01
8175.11
8150.66
8122.65
8091.93
8059.26
8025.29
7990.6
7955.68
7920.95
7886.76
7853.41
7821.15
7790.17
7760.63
7732.65
7706.33
7681.71
7658.86
7637.78
7618.47
7600.93
7585.13
7571.03
7558.58
7547.73
7848.26
7832.58
7810.66
7783.74
7752.87
7719.02
7683
7645.54
7607.28
7568.75
7530.42
7492.67
7455.83
7420.16
7385.88
7353.17
7322.15
7292.91
7265.53
7240.04
7216.46
7194.8
7175.02
7157.11
7141.02
7126.69
7114.08
7435.95
7418.54
7394.2
7364.3
7330.03
7292.44
7252.45
7210.87
7168.4
7125.63
7083.08
7041.17
7000.27
6960.66
6922.58
6886.21
6851.69
6819.13
6788.58
6760.09
6733.68
6709.33
6687.03
6666.73
6648.39
6631.94
6617.32
6964.05
6944.66
6917.55
6884.27
6846.13
6804.32
6759.86
6713.64
6666.46
6618.97
6571.75
6525.26
6479.89
6435.96
6393.73
6353.4
6315.1
6278.94
6244.99
6213.28
6183.83
6156.62
6131.61
6108.77
6088.02
6069.31
6052.54
6426.75
6405.23
6375.17
6338.26
6296.01
6249.72
6200.54
6149.48
6097.38
6045
5992.96
5941.76
5891.84
5843.54
5797.13
5752.81
5710.73
5671
5633.67
5598.79
5566.34
5536.3
5508.64
5483.29
5460.18
5439.23
5420.35
5823.04
5799.42
5766.44
5725.99
5679.73
5629.11
5575.4
5519.71
5462.97
5406.01
5349.48
5293.95
5239.88
5187.61
5137.44
5089.57
5044.15
5001.27
4961
4923.35
4888.3
4855.83
4825.87
4798.35
4773.19
4750.3
4729.57
5159.07
5133.62
5098.11
5054.63
5004.96
4950.7
4893.23
4833.74
4773.26
4712.65
4652.63
4593.77
4536.55
4481.35
4428.44
4378.02
4330.23
4285.17
4242.87
4203.33
4166.53
4132.41
4100.9
4071.93
4045.38
4021.15
3999.14
4449.94
4423.22
4386
4340.48
4288.59
4232.01
4172.23
4110.49
4047.88
3985.29
3923.45
3862.98
3804.33
3747.86
3693.86
3642.5
3593.91
3548.16
3505.26
3465.2
3427.94
3393.4
3361.49
3332.13
3305.19
3280.57
3258.13
3719.93
3692.82
3655.11
3609.07
3556.72
3499.79
3439.8
3378.03
3315.58
3253.35
3192.06
3132.3
3074.51
3019.04
2966.13
2915.94
2868.56
2824.04
2782.36
2743.5
2707.38
2673.93
2643.04
2614.59
2588.48
2564.58
2542.76
3000.59
2974.19
2937.53
2892.89
2842.26
2787.38
2729.74
2670.61
2611.05
2551.91
2493.98
2438.01
2384.08
2332.51
2283.48
2237.12
2193.51
2152.64
2114.5
2079.01
2046.11
2015.69
1987.65
1961.86
1938.21
1913.44
1893.71
2327.11
2302.74
2268.98
2227.98
2181.64
2131.58
2079.22
2025.72
1972.06
1919.01
1864.07
1813.97
1765.91
1720.12
1676.76
1635.91
1597.59
1561.8
1528.48
1497.55
1468.93
1442.51
1418.18
1395.83
1375.33
1356.58
1339.46
1730.15
1708.73
1679.12
1643.28
1602.9
1559.46
1514.21
1468.19
1422.25
1377.03
1333.07
1290.74
1250.3
1211.94
1175.76
1141.8
1110.07
1080.52
1053.09
1027.7
1004.27
982.678
962.834
944.626
927.949
912.7
898.778
1235.48
1217.67
1193.1
1163.45
1130.17
1094.51
1057.53
1020.09
982.878
946.443
911.184
877.392
845.266
814.926
786.433
759.801
735.009
712.009
690.735
671.107
653.038
636.437
621.212
607.271
594.523
582.882
572.264
847.157
833.116
813.795
790.548
764.552
736.813
708.174
679.317
650.779
622.972
596.196
570.661
546.502
523.794
502.566
482.813
464.503
447.584
431.994
417.661
404.511
392.467
381.451
371.391
362.212
353.849
346.234
559.047
548.523
534.076
516.748
497.442
476.928
455.843
434.697
413.888
393.714
374.387
356.048
338.784
322.637
307.615
293.702
280.863
269.051
258.213
248.288
239.217
230.939
223.393
216.524
210.276
204.599
199.444
356.112
348.58
338.265
325.93
312.236
297.745
282.917
268.116
253.623
239.642
226.317
213.738
201.958
190.996
180.849
171.498
162.91
155.046
147.862
141.312
135.359
129.976
125.089
120.657
116.642
113.009
109.723
219.664
214.491
207.422
198.994
189.671
179.845
169.833
159.886
150.191
140.885
132.072
123.83
116.15
109.043
102.5
96.5043
91.029
86.0435
81.5147
77.4084
73.691
70.3296
67.2933
64.5528
62.081
59.8531
57.8461
131.581
128.165
123.509
117.976
111.879
105.482
98.9956
92.5864
86.3765
80.4522
74.8695
69.6608
64.8397
60.4059
56.3494
52.6535
49.2973
46.2656
43.5349
41.0723
38.8553
36.8627
35.0745
33.4724
32.0393
30.7596
29.6189
76.9327
74.7541
71.792
68.2838
64.4338
60.4122
56.3553
52.367
48.5227
44.8812
41.476
38.3132
35.3988
32.7311
30.3036
28.1059
26.1255
24.3483
22.7593
21.3433
20.0853
18.9704
17.9849
17.1158
16.3511
15.6802
15.0931
44.1356
42.7985
40.9834
38.8377
36.4877
34.0381
31.5724
29.1547
26.8325
24.6392
22.5963
20.7161
19.0028
17.4549
16.0662
14.8276
13.7282
12.7562
11.8997
11.1473
10.488
9.91195
9.40999
8.97394
8.59653
8.27128
7.99249
25.0441
24.2285
23.1233
21.8206
20.4004
18.9297
17.4623
16.039
14.689
13.431
12.2754
11.226
10.282
9.43909
8.69118
8.03092
7.45049
6.94205
6.49806
6.1115
5.77601
5.48587
5.23605
5.02215
4.84032
4.68723
4.55997
14.0972
13.6191
12.975
12.2216
11.4075
10.5724
9.74723
8.9543
8.20872
7.51957
6.89123
6.32456
5.81789
5.36797
4.97064
4.62134
4.3155
4.04876
3.81712
3.61694
3.43925
3.28554
3.15638
3.0433
2.94768
2.87041
2.8096
8.07435
7.80658
7.44691
7.02773
6.57658
6.11573
5.66216
5.22797
4.82106
4.44594
4.10457
3.79714
3.52266
3.27946
3.06015
2.86438
2.69526
2.53899
2.40493
2.29051
2.19355
2.11218
2.04481
1.99011
1.94694
1.91431
1.8914
4.82727
4.67842
4.47866
4.24609
3.99599
3.74067
3.48947
3.24913
3.02415
2.81234
2.61606
2.44095
2.27468
2.12777
1.99866
1.88574
1.78745
1.70238
1.62925
1.56691
1.51436
1.47071
1.43501
1.407
1.38613
1.37192
1.3638
3.0556
2.97188
2.8597
2.72946
2.5835
2.4351
2.28989
2.14414
2.00528
1.87703
1.75995
1.65411
1.55917
1.47458
1.39964
1.33361
1.27577
1.22518
1.18151
1.1443
1.11301
1.0871
1.06645
1.05075
1.03975
1.0332
1.03091
2.05009
1.99818
1.92828
1.84655
1.75819
1.66742
1.57749
1.49071
1.40863
1.33216
1.26177
1.19757
1.13944
1.08691
1.03994
0.998238
0.96143
0.92906
0.901061
0.87716
0.857116
0.840716
0.827773
0.818125
0.811632
0.808168
0.807619
1.4415
1.41013
1.36779
1.31812
1.26418
1.20848
1.15293
1.09891
1.04738
0.998752
0.953499
0.911856
0.873837
0.839218
0.808012
0.780133
0.755419
0.733709
0.714848
0.698693
0.685114
0.673992
0.66522
0.6587
0.654348
0.652084
0.651838
1.06957
1.04966
1.0227
0.990925
0.956213
0.919928
0.883476
0.847758
0.813413
0.780827
0.750182
0.721783
0.695688
0.671896
0.650364
0.631027
0.613806
0.598614
0.585367
0.573981
0.564373
0.55647
0.550202
0.545505
0.54232
0.540592
0.540272
0.828808
0.815453
0.797303
0.775807
0.752201
0.727484
0.70237
0.677608
0.653655
0.630831
0.609348
0.589332
0.570852
0.55393
0.538557
0.524704
0.512329
0.501381
0.491806
0.483548
0.476553
0.470769
0.466146
0.462638
0.460201
0.458795
0.458382
0.664591
0.655207
0.642418
0.627218
0.610459
0.592852
0.574968
0.557252
0.540037
0.523564
0.508
0.493449
0.479974
0.467603
0.456339
0.446168
0.437063
0.428993
0.421919
0.415802
0.410604
0.406284
0.402806
0.400134
0.398234
0.397076
0.396629
0.547681
0.540881
0.531592
0.520522
0.508278
0.495373
0.482221
0.469152
0.456415
0.444195
0.432621
0.421778
0.411719
0.402469
0.394034
0.386409
0.379575
0.373509
0.368185
0.363572
0.359641
0.356362
0.353704
0.351642
0.350148
0.349197
0.348767
0.461798
0.456718
0.449767
0.441468
0.43227
0.422553
0.41263
0.402749
0.393101
0.383828
0.375031
0.36678
0.359116
0.352062
0.345625
0.339801
0.334578
0.329939
0.325862
0.322325
0.319305
0.316778
0.31472
0.313111
0.311928
0.311151
0.310763
0.396898
0.393009
0.387683
0.381315
0.374247
0.36677
0.359124
0.351498
0.344043
0.33687
0.330059
0.323665
0.317722
0.31225
0.307253
0.30273
0.298673
0.295067
0.291896
0.289143
0.286789
0.284816
0.283203
0.281934
0.280992
0.280359
0.280022
0.346743
0.343707
0.339547
0.334568
0.329037
0.32318
0.317185
0.311201
0.305345
0.299708
0.294351
0.28932
0.284643
0.280334
0.276399
0.272838
0.269642
0.266801
0.264303
0.262133
0.260276
0.258717
0.257441
0.256432
0.255677
0.255162
0.254875
0.307385
0.30498
0.301683
0.297735
0.293347
0.288697
0.283934
0.279179
0.274524
0.270041
0.265781
0.261779
0.258058
0.254631
0.251501
0.248669
0.246129
0.243871
0.241886
0.240162
0.238686
0.237446
0.236429
0.235623
0.235017
0.234599
0.234358
0.27664
0.274717
0.272079
0.26892
0.265409
0.261689
0.257879
0.254075
0.250352
0.246768
0.243364
0.240169
0.237199
0.234466
0.231972
0.229717
0.227696
0.225901
0.224324
0.222955
0.221783
0.220799
0.219991
0.219349
0.218864
0.218527
0.218329
0.255165
0.253598
0.251451
0.248881
0.246026
0.243004
0.239911
0.236827
0.233814
0.230917
0.22817
0.225596
0.223208
0.221015
0.219019
0.217217
0.215606
0.214177
0.212924
0.211838
0.21091
0.21013
0.20949
0.208982
0.208596
0.208325
0.208162
-5.37332e-14
-2.197e-13
-6.77342e-13
-1.95934e-12
-5.70753e-12
-1.68151e-11
-4.99683e-11
-1.49193e-10
-4.47445e-10
-1.34631e-09
-4.07411e-09
-1.24876e-08
-1.83687e-08
1.92467e-08
2.11181e-07
7.41782e-07
2.54781e-06
9.74288e-06
3.90804e-05
0.000172145
0.000825003
0.00420814
0.0218668
0.109505
0.523685
2.78655
16.0431
51.5104
136.983
383.832
1029.34
2406.49
4824.37
8348.94
12655.8
17074.4
20880.2
23630.8
25251.8
25886.2
25833.2
25293.7
24526.2
23658.5
22760.8
21876.3
21029.2
20231.4
19487
18795.8
18155.5
17562.3
17012.4
16501.2
16025.5
15578.3
15160.2
14768.1
14399.5
14052
13723.7
13412.8
13117.6
12836.7
12568.8
12312.7
12067.2
11831.3
11603.9
11384.1
11170.8