/*--------------------------------*- C++ -*----------------------------------*\
| =========                 |                                                 |
| \\      /  F ield         | OpenFOAM: The Open Source CFD Toolbox           |
|  \\    /   O peration     | Version:  2106                                  |
|   \\  /    A nd           | Website:  www.openfoam.com                      |
|    \\/     M anipulation  |                                                 |
\*---------------------------------------------------------------------------*/
FoamFile
{
    version     2.0;
    format      ascii;
    arch        "LSB;label=32;scalar=64";
    class       volVectorField;
    location    "149.99958";
    object      U_0;
}
// * * * * * * * * * * * * * * * * * * * * * * * * * * * * * * * * * * * * * //

dimensions      [0 1 -1 0 0 0 0];

internalField   nonuniform List<vector> 
3360
(
(0.0806831 -0.00345958 -1.68157e-11)
(0.0809017 -0.00539631 -2.37477e-11)
(0.0811917 -0.00737211 -2.49243e-11)
(0.0815273 -0.0092423 -1.89404e-11)
(0.0818731 -0.0110177 -4.80931e-12)
(0.0821929 -0.0126853 1.56875e-11)
(0.0824477 -0.014231 4.19385e-11)
(0.0825968 -0.0156407 7.18332e-11)
(0.0825991 -0.0169067 1.042e-10)
(0.0823854 -0.0179747 1.38498e-10)
(0.0817457 -0.0188844 6.53222e-11)
(0.0806974 -0.0195829 4.48393e-12)
(0.0792389 -0.020066 -5.12096e-11)
(0.0773584 -0.0203225 -1.99961e-11)
(0.0750377 -0.020343 1.50572e-12)
(0.0722557 -0.0201201 1.7108e-11)
(0.0689898 -0.0196483 2.90501e-11)
(0.0652177 -0.018924 3.85017e-11)
(0.0609174 -0.0179462 4.62782e-11)
(0.0560679 -0.0167158 5.3243e-11)
(0.050649 -0.0152362 6.38808e-11)
(0.0446412 -0.0135113 4.75387e-11)
(0.0380259 -0.0115543 3.68168e-11)
(0.0307723 -0.00936463 2.74914e-11)
(0.0228694 -0.00696164 1.89779e-11)
(0.014305 -0.00434603 1.10208e-11)
(0.00506345 -0.00146074 3.55458e-12)
(0.101583 -0.00238325 2.97704e-10)
(0.101516 -0.00362319 4.84566e-10)
(0.101357 -0.00482212 6.66304e-10)
(0.101046 -0.00585567 8.65312e-10)
(0.100523 -0.00672361 8.12239e-10)
(0.0997297 -0.00741513 7.99985e-10)
(0.0986139 -0.00792592 6.40294e-10)
(0.0971297 -0.00825451 5.16553e-10)
(0.0952401 -0.0083964 4.3135e-10)
(0.0929469 -0.00839491 3.73659e-10)
(0.0903886 -0.00821394 3.36421e-10)
(0.0874798 -0.00790579 3.16233e-10)
(0.0842074 -0.00748799 3.09929e-10)
(0.0805576 -0.0069734 3.15311e-10)
(0.0765149 -0.00638088 3.28007e-10)
(0.0720721 -0.00573009 2.89756e-10)
(0.0672327 -0.005041 2.59984e-10)
(0.0620104 -0.00433372 2.37e-10)
(0.0564284 -0.00362781 2.19626e-10)
(0.0505222 -0.00294222 2.07643e-10)
(0.0443325 -0.00229465 1.96145e-10)
(0.0379011 -0.00170266 1.69083e-10)
(0.0312697 -0.00117449 1.43036e-10)
(0.024493 -0.000733293 1.20982e-10)
(0.0176049 -0.000383573 1.01588e-10)
(0.0106375 -0.000139571 6.68907e-11)
(0.00361973 -1.19862e-05 2.18526e-11)
(0.11444 -0.00188144 1.39305e-10)
(0.113636 -0.0028753 1.88392e-10)
(0.112435 -0.00378703 1.83252e-10)
(0.110828 -0.00452612 1.37509e-10)
(0.108804 -0.00509669 3.16754e-10)
(0.106355 -0.00549846 4.27161e-10)
(0.103482 -0.00573938 4.80119e-10)
(0.100194 -0.00583344 5.0168e-10)
(0.0965113 -0.00579762 4.97456e-10)
(0.0924544 -0.00564918 3.90488e-10)
(0.0880459 -0.00540249 3.91624e-10)
(0.0833262 -0.00507825 4.06385e-10)
(0.0783062 -0.00468454 4.25603e-10)
(0.0730233 -0.00424317 4.49757e-10)
(0.0675334 -0.00377051 4.78995e-10)
(0.0618963 -0.00328258 4.35058e-10)
(0.0561694 -0.00279511 3.49681e-10)
(0.0504062 -0.00232158 2.69939e-10)
(0.0446537 -0.00187431 1.95748e-10)
(0.0389479 -0.00146305 1.58086e-10)
(0.0333185 -0.00109548 1.16129e-10)
(0.0277915 -0.000777217 1.07874e-10)
(0.0223894 -0.000512013 9.59016e-11)
(0.0171303 -0.000301678 8.54323e-11)
(0.0120286 -0.000146616 5.86056e-11)
(0.00709548 -4.76392e-05 3.39445e-11)
(0.00233938 -1.3572e-06 1.09015e-11)
(0.126366 -0.000906244 -5.81972e-10)
(0.125003 -0.0013369 -9.47331e-10)
(0.12303 -0.0017281 -1.32606e-09)
(0.120493 -0.00202675 -1.07848e-09)
(0.11743 -0.00224028 -9.90173e-10)
(0.113878 -0.00235961 -7.23328e-10)
(0.109896 -0.00240808 -6.07426e-10)
(0.10553 -0.00238346 -5.77052e-10)
(0.100825 -0.00229956 -4.55704e-10)
(0.0958326 -0.00216993 -2.68143e-10)
(0.0906121 -0.00200356 -1.30681e-10)
(0.0852092 -0.00181196 -3.4402e-11)
(0.0796595 -0.00160596 3.17851e-11)
(0.0739966 -0.00139607 7.64681e-11)
(0.0682541 -0.00119088 1.0539e-10)
(0.062465 -0.000996678 1.21975e-10)
(0.0566606 -0.000817338 1.36316e-10)
(0.0508689 -0.000655804 8.08674e-11)
(0.0451148 -0.00051323 3.52642e-11)
(0.0394199 -0.000389939 1.78539e-12)
(0.0338026 -0.000285681 2.22444e-14)
(0.0282785 -0.000199752 2.28937e-11)
(0.0228606 -0.000131088 1.8185e-11)
(0.0175597 -7.83621e-05 1.40376e-11)
(0.0123844 -4.00359e-05 9.9958e-12)
(0.00734148 -1.46174e-05 5.90862e-12)
(0.00243639 -1.83091e-06 1.92416e-12)
(0.127638 -0.000447912 3.88945e-10)
(0.126002 -0.00068486 9.49592e-11)
(0.123659 -0.000883295 -3.74116e-11)
(0.120688 -0.00102539 -4.90648e-11)
(0.117159 -0.00111205 8.92851e-12)
(0.113137 -0.00116239 1.16342e-10)
(0.108683 -0.00116638 2.74655e-10)
(0.103863 -0.00114153 3.16263e-10)
(0.0987369 -0.00109124 2.63936e-10)
(0.0933639 -0.00102211 2.71627e-10)
(0.0877989 -0.00093948 3.07683e-10)
(0.0820937 -0.000847702 2.49254e-10)
(0.0762957 -0.000750825 2.0953e-10)
(0.0704483 -0.000652611 1.81615e-10)
(0.0645905 -0.000556327 1.61242e-10)
(0.0587568 -0.000464609 1.45741e-10)
(0.0529777 -0.000379425 1.33615e-10)
(0.0472793 -0.000302141 1.23758e-10)
(0.0416836 -0.00023361 1.16328e-10)
(0.0362088 -0.000174262 1.11586e-10)
(0.0308697 -0.000124193 1.09382e-10)
(0.0256778 -8.32455e-05 1.11521e-10)
(0.0206418 -5.10713e-05 7.09892e-11)
(0.0157679 -2.71818e-05 5.12972e-11)
(0.0110602 -1.10482e-05 3.48234e-11)
(0.0065206 -2.27156e-06 2.00282e-11)
(0.00214976 7.48274e-07 6.42987e-12)
(0.131649 -0.000230539 6.24647e-11)
(0.129767 -0.000325069 6.22989e-11)
(0.12711 -0.000406649 6.44313e-11)
(0.1238 -0.000460555 7.9263e-11)
(0.119946 -0.000489899 1.06103e-10)
(0.115642 -0.000496632 1.39733e-10)
(0.110947 -0.000485634 1.72194e-10)
(0.105925 -0.000460912 1.95771e-10)
(0.100638 -0.000426341 2.15252e-10)
(0.0951408 -0.000385512 2.37251e-10)
(0.0894864 -0.000341478 2.58566e-10)
(0.083721 -0.000296727 1.80057e-10)
(0.0778863 -0.000253189 1.09261e-10)
(0.0720188 -0.000212277 4.70492e-11)
(0.0661501 -0.000174938 -7.90858e-12)
(0.0603077 -0.00014172 -5.60691e-11)
(0.0545146 -0.000112841 -4.93646e-11)
(0.0487905 -8.82638e-05 -4.07982e-11)
(0.0431517 -6.77633e-05 -2.69814e-11)
(0.0376117 -5.09861e-05 -7.03341e-12)
(0.0321816 -3.75027e-05 1.97017e-11)
(0.0268704 -2.68476e-05 1.88305e-11)
(0.0216851 -1.85519e-05 2.12841e-11)
(0.0166315 -1.21649e-05 2.4085e-11)
(0.0117139 -7.23245e-06 2.64784e-11)
(0.00693547 -3.305e-06 1.55512e-11)
(0.00229859 -8.30004e-07 5.04976e-12)
(0.131316 -0.000108954 6.12543e-11)
(0.129368 -0.000174737 9.17621e-11)
(0.126615 -0.000230516 1.11383e-10)
(0.123186 -0.000272696 1.33759e-10)
(0.119189 -0.000301688 1.56218e-10)
(0.114718 -0.00031732 1.42761e-10)
(0.109855 -0.000320662 4.77574e-11)
(0.104674 -0.000313868 -7.01008e-11)
(0.0992416 -0.000299209 -1.84375e-10)
(0.0936173 -0.000278839 -1.88494e-10)
(0.087855 -0.000254662 -2.04916e-10)
(0.0820026 -0.000228279 -2.35966e-10)
(0.0761026 -0.000200993 -2.77043e-10)
(0.070192 -0.000173829 -3.25139e-10)
(0.0643035 -0.000147567 -3.049e-10)
(0.0584649 -0.000122787 -2.93875e-10)
(0.0527002 -9.98974e-05 -2.89337e-10)
(0.0470297 -7.9178e-05 -2.9176e-10)
(0.0414702 -6.08027e-05 -2.62028e-10)
(0.0360355 -4.48657e-05 -2.20843e-10)
(0.0307369 -3.14003e-05 -1.80799e-10)
(0.0255829 -2.03931e-05 -1.28496e-10)
(0.0205802 -1.17936e-05 -1.035e-10)
(0.0157334 -5.52129e-06 -7.80201e-11)
(0.0110455 -1.50141e-06 -5.35819e-11)
(0.00651807 2.81154e-07 -3.09336e-11)
(0.00215152 5.10436e-07 -9.92827e-12)
(0.132711 -4.79279e-05 4.79405e-10)
(0.130733 -6.22655e-05 8.63395e-10)
(0.127943 -7.60934e-05 3.22859e-10)
(0.124472 -8.49975e-05 -1.76583e-11)
(0.120432 -8.92998e-05 -2.9826e-10)
(0.115922 -8.92722e-05 -5.5595e-10)
(0.111027 -8.56018e-05 -7.08421e-10)
(0.105822 -7.91884e-05 -6.90783e-10)
(0.100375 -7.0966e-05 -7.43103e-10)
(0.0947459 -6.17961e-05 -6.93737e-10)
(0.0889857 -5.24033e-05 -5.88769e-10)
(0.0831403 -4.33508e-05 -5.09054e-10)
(0.0772493 -3.50388e-05 -4.48064e-10)
(0.0713467 -2.77188e-05 -3.9784e-10)
(0.0654618 -2.15154e-05 -3.53253e-10)
(0.0596196 -1.6451e-05 -3.05274e-10)
(0.0538412 -1.24703e-05 -3.31209e-10)
(0.0481441 -9.46242e-06 -3.54147e-10)
(0.0425432 -7.28069e-06 -3.43939e-10)
(0.0370505 -5.75893e-06 -3.08039e-10)
(0.031676 -4.72412e-06 -2.72625e-10)
(0.0264276 -4.00696e-06 -2.30196e-10)
(0.0213117 -3.45013e-06 -1.85926e-10)
(0.016333 -2.91304e-06 -1.25928e-10)
(0.0114954 -2.25135e-06 -8.78258e-11)
(0.00680118 -1.30398e-06 -5.09904e-11)
(0.00225213 -4.9028e-07 -1.63894e-11)
(0.132359 -4.09977e-05 1.09719e-10)
(0.130348 -6.77985e-05 1.3669e-10)
(0.127513 -8.96396e-05 8.51696e-11)
(0.123988 -0.000105785 3.16014e-11)
(0.119889 -0.000116624 -5.13438e-11)
(0.115317 -0.0001226 -2.20095e-10)
(0.110359 -0.000124335 -3.72423e-10)
(0.105095 -0.00012253 -4.7584e-10)
(0.099592 -0.000117887 -5.51658e-10)
(0.0939111 -0.000111074 -6.07895e-10)
(0.0881054 -0.000102689 -6.54793e-10)
(0.0822213 -9.32547e-05 -7.03297e-10)
(0.0762994 -8.32144e-05 -6.60233e-10)
(0.0703748 -7.2939e-05 -6.30801e-10)
(0.0644779 -6.27342e-05 -6.10807e-10)
(0.0586347 -5.28494e-05 -5.98752e-10)
(0.0528674 -4.3486e-05 -5.93877e-10)
(0.0471946 -3.48047e-05 -5.91952e-10)
(0.0416318 -2.69317e-05 -5.73799e-10)
(0.0361918 -1.9963e-05 -5.15617e-10)
(0.030885 -1.3969e-05 -4.61579e-10)
(0.0257193 -8.99694e-06 -3.73495e-10)
(0.020701 -5.07304e-06 -2.92073e-10)
(0.0158346 -2.20364e-06 -2.17905e-10)
(0.0111229 -3.91112e-07 -1.49746e-10)
(0.00656773 3.333e-07 -8.66075e-11)
(0.00216953 2.55524e-07 -2.7839e-11)
(0.133129 -1.89022e-05 -1.74094e-11)
(0.131113 -2.28648e-05 -5.31604e-11)
(0.128271 -2.72148e-05 -1.23803e-10)
(0.12474 -2.99029e-05 -2.14313e-10)
(0.120637 -3.1079e-05 -3.18401e-10)
(0.116063 -3.0856e-05 -4.3653e-10)
(0.111107 -2.94769e-05 -5.51533e-10)
(0.105846 -2.72334e-05 -6.60999e-10)
(0.10035 -2.44232e-05 -7.72757e-10)
(0.0946779 -2.13196e-05 -7.56389e-10)
(0.0888816 -1.81544e-05 -7.53417e-10)
(0.0830065 -1.51109e-05 -7.54912e-10)
(0.0770918 -1.2322e-05 -7.57967e-10)
(0.0711712 -9.87344e-06 -7.62494e-10)
(0.0652736 -7.80935e-06 -7.11401e-10)
(0.0594235 -6.13895e-06 -6.66855e-10)
(0.0536418 -4.84354e-06 -6.29283e-10)
(0.0479458 -3.88316e-06 -5.9265e-10)
(0.0423502 -3.20319e-06 -5.40472e-10)
(0.0368668 -2.73976e-06 -4.52818e-10)
(0.0315056 -2.42467e-06 -3.79985e-10)
(0.0262743 -2.18956e-06 -2.94953e-10)
(0.021179 -1.96999e-06 -2.32663e-10)
(0.0162244 -1.70732e-06 -1.74404e-10)
(0.0114141 -1.33214e-06 -1.20146e-10)
(0.00675013 -7.5734e-07 -6.95893e-11)
(0.00223404 -3.82423e-07 -2.23846e-11)
(0.133038 -2.31061e-05 4.0865e-10)
(0.131007 -3.85366e-05 7.52198e-10)
(0.128144 -5.12499e-05 1.41645e-10)
(0.124588 -6.08924e-05 -2.51325e-10)
(0.120457 -6.76668e-05 -5.80923e-10)
(0.115853 -7.17892e-05 -9.00617e-10)
(0.110867 -7.35567e-05 -1.05624e-09)
(0.105575 -7.32992e-05 -1.03748e-09)
(0.100048 -7.13533e-05 -1.07201e-09)
(0.0943455 -6.80457e-05 -1.03419e-09)
(0.0885206 -6.36817e-05 -9.05551e-10)
(0.0826193 -5.85404e-05 -8.08171e-10)
(0.0766813 -5.28721e-05 -7.25664e-10)
(0.0707412 -4.6898e-05 -6.52157e-10)
(0.0648287 -4.08123e-05 -5.83979e-10)
(0.0589692 -3.47832e-05 -5.16703e-10)
(0.0531843 -2.89552e-05 -5.17291e-10)
(0.0474923 -2.34497e-05 -5.10322e-10)
(0.0419084 -1.83701e-05 -4.86702e-10)
(0.036445 -1.38033e-05 -4.24029e-10)
(0.0311122 -9.8178e-06 -3.72115e-10)
(0.0259182 -6.46501e-06 -3.03098e-10)
(0.020869 -3.77945e-06 -2.40257e-10)
(0.0159692 -1.77881e-06 -1.67956e-10)
(0.0112218 -4.67294e-07 -1.15413e-10)
(0.00662875 1.45897e-07 -6.66917e-11)
(0.00219075 -8.07403e-09 -2.14301e-11)
(0.133691 -1.73335e-05 9.36005e-11)
(0.131663 -2.28293e-05 1.07921e-10)
(0.128803 -2.84076e-05 4.68506e-11)
(0.125252 -3.25327e-05 -1.74509e-11)
(0.121128 -3.52805e-05 -8.80614e-11)
(0.116531 -3.66918e-05 -2.95934e-10)
(0.111552 -3.69034e-05 -4.5744e-10)
(0.106269 -3.60983e-05 -5.60208e-10)
(0.10075 -3.44797e-05 -6.23187e-10)
(0.0950544 -3.22518e-05 -6.57573e-10)
(0.0892348 -2.96057e-05 -6.73387e-10)
(0.083336 -2.67123e-05 -6.80294e-10)
(0.0773972 -2.37168e-05 -6.83727e-10)
(0.071452 -2.0738e-05 -6.86888e-10)
(0.0655293 -1.78677e-05 -6.91403e-10)
(0.0596539 -1.51723e-05 -7.01607e-10)
(0.0538468 -1.26869e-05 -6.49236e-10)
(0.0481257 -1.04743e-05 -6.10946e-10)
(0.0425053 -8.48684e-06 -5.52442e-10)
(0.0369982 -6.76131e-06 -4.50534e-10)
(0.0316142 -5.27676e-06 -3.58861e-10)
(0.0263616 -4.01428e-06 -2.7379e-10)
(0.0212465 -2.95097e-06 -1.92299e-10)
(0.0162738 -2.05914e-06 -1.3734e-10)
(0.0114471 -1.2873e-06 -8.38791e-11)
(0.00676857 -5.61069e-07 -4.8628e-11)
(0.00223969 -4.69774e-07 -1.57261e-11)
(0.13407 -3.95184e-05 -7.98731e-11)
(0.132034 -6.18311e-05 -1.42173e-10)
(0.129163 -8.12732e-05 -2.1827e-10)
(0.125598 -9.63491e-05 -3.05831e-10)
(0.121456 -0.000107231 -4.03963e-10)
(0.11684 -0.000114086 -5.13357e-10)
(0.111839 -0.000117241 -6.24157e-10)
(0.106532 -0.000117115 -7.32202e-10)
(0.100987 -0.000114183 -8.34765e-10)
(0.0952635 -0.000108942 -8.20143e-10)
(0.0894148 -0.000101889 -8.12439e-10)
(0.083486 -9.35044e-05 -8.1069e-10)
(0.0775168 -8.42327e-05 -8.13031e-10)
(0.0715415 -7.44779e-05 -8.16228e-10)
(0.0655898 -6.45948e-05 -7.62318e-10)
(0.0596869 -5.48878e-05 -7.1291e-10)
(0.0538547 -4.56173e-05 -6.67346e-10)
(0.0481114 -3.6948e-05 -6.29826e-10)
(0.0424726 -2.90874e-05 -5.67822e-10)
(0.0369511 -2.20994e-05 -4.81526e-10)
(0.0315573 -1.60559e-05 -4.07805e-10)
(0.0262996 -1.09886e-05 -3.08898e-10)
(0.0211846 -6.90519e-06 -2.42623e-10)
(0.016217 -3.79247e-06 -1.80584e-10)
(0.0114003 -1.6042e-06 -1.23921e-10)
(0.00673675 -2.81284e-07 -7.16016e-11)
(0.00222746 -3.9334e-07 -2.30002e-11)
(0.135253 -4.56325e-05 -1.66889e-10)
(0.13321 -6.67218e-05 -2.56848e-10)
(0.130331 -8.59847e-05 -3.62861e-10)
(0.126754 -0.000100724 -4.7349e-10)
(0.122599 -0.000111102 -5.82911e-10)
(0.117968 -0.000117254 -6.87852e-10)
(0.11295 -0.000119531 -7.89703e-10)
(0.107623 -0.000118414 -8.89194e-10)
(0.102056 -0.000114452 -9.84515e-10)
(0.0963089 -0.000108222 -9.51786e-10)
(0.0904338 -0.000100294 -9.28937e-10)
(0.0844759 -9.12056e-05 -9.14263e-10)
(0.0784747 -8.14425e-05 -9.04485e-10)
(0.072464 -7.14314e-05 -9.0013e-10)
(0.0664733 -6.15265e-05 -8.25141e-10)
(0.0605274 -5.20079e-05 -7.60488e-10)
(0.0546478 -4.30886e-05 -7.02259e-10)
(0.0488525 -3.49219e-05 -6.48805e-10)
(0.0431567 -2.76069e-05 -5.7859e-10)
(0.0375728 -2.11945e-05 -4.83643e-10)
(0.0321114 -1.56995e-05 -3.97988e-10)
(0.0267807 -1.11082e-05 -3.09956e-10)
(0.0215876 -7.3877e-06 -2.43128e-10)
(0.0165374 -4.48781e-06 -1.81912e-10)
(0.0116338 -2.31012e-06 -1.25298e-10)
(0.00687972 -7.22146e-07 -7.25452e-11)
(0.00227671 -8.21272e-07 -2.3326e-11)
(0.13652 -7.09751e-05 5.88462e-10)
(0.134469 -0.000108308 -4.72132e-10)
(0.131576 -0.000141689 -3.25964e-10)
(0.127983 -0.000167856 -2.15459e-10)
(0.123807 -0.000187063 -1.53848e-10)
(0.11915 -0.000199527 -2.45334e-10)
(0.114102 -0.000205748 -3.32246e-10)
(0.108741 -0.000206394 -3.94781e-10)
(0.103135 -0.00020223 -4.34233e-10)
(0.0973443 -0.000194062 -4.5422e-10)
(0.0914213 -0.0001827 -4.60202e-10)
(0.0854113 -0.000168919 -4.55679e-10)
(0.079354 -0.000153447 -4.4298e-10)
(0.0732841 -0.000136943 -4.23779e-10)
(0.067231 -0.000119994 -3.99445e-10)
(0.0612205 -0.000103117 -3.7219e-10)
(0.0552745 -8.67515e-05 -3.42847e-10)
(0.049412 -7.12586e-05 -3.12606e-10)
(0.0436487 -5.693e-05 -2.62963e-10)
(0.0379982 -4.39931e-05 -2.27822e-10)
(0.0324714 -3.26139e-05 -1.8312e-10)
(0.0270775 -2.29013e-05 -1.5202e-10)
(0.0218236 -1.49162e-05 -1.05547e-10)
(0.0167153 -8.67096e-06 -7.81989e-11)
(0.0117569 -4.09479e-06 -5.41977e-11)
(0.00695109 -1.07474e-06 -3.14737e-11)
(0.00229973 -1.03747e-06 -1.01356e-11)
(0.138899 -9.17593e-05 2.00289e-10)
(0.136836 -0.000136885 2.5644e-10)
(0.133925 -0.000177745 -5.57915e-10)
(0.130307 -0.000209501 -4.74911e-10)
(0.126099 -0.000232454 -4.46184e-10)
(0.121404 -0.000246869 -4.71132e-10)
(0.116309 -0.000253405 -5.26056e-10)
(0.110894 -0.000252955 -5.98948e-10)
(0.105226 -0.000246545 -6.84164e-10)
(0.0993648 -0.000235258 -6.52391e-10)
(0.0933631 -0.00022017 -6.37757e-10)
(0.0872666 -0.000202308 -6.34693e-10)
(0.0811155 -0.000182616 -6.3987e-10)
(0.0749448 -0.000161937 -6.50508e-10)
(0.0687851 -0.000141006 -6.00567e-10)
(0.0626628 -0.000120448 -5.59422e-10)
(0.0566007 -0.000100776 -5.25488e-10)
(0.0506185 -8.2393e-05 -5.01628e-10)
(0.0447326 -6.56007e-05 -4.45366e-10)
(0.0389572 -5.06106e-05 -3.72255e-10)
(0.0333038 -3.7554e-05 -3.04468e-10)
(0.027782 -2.64946e-05 -2.36111e-10)
(0.0223996 -1.74446e-05 -1.85475e-10)
(0.0171627 -1.03645e-05 -1.38734e-10)
(0.0120757 -5.10859e-06 -9.53325e-11)
(0.00714207 -1.4705e-06 -5.50955e-11)
(0.00236389 -1.56455e-06 -1.76898e-11)
(0.14194 -0.000117855 -7.82161e-10)
(0.139857 -0.000178094 -1.28199e-09)
(0.136918 -0.000231657 -1.06846e-09)
(0.133262 -0.000272883 -9.74457e-10)
(0.129006 -0.000302228 -9.64993e-10)
(0.124253 -0.00032017 -1.01186e-09)
(0.11909 -0.000327693 -1.09711e-09)
(0.113596 -0.000326073 -1.20468e-09)
(0.107839 -0.000316742 -1.18875e-09)
(0.101879 -0.000301185 -1.08908e-09)
(0.0957689 -0.000280858 -1.01322e-09)
(0.0895549 -0.000257131 -9.59992e-10)
(0.0832783 -0.000231253 -9.22503e-10)
(0.0769747 -0.000204322 -8.98802e-10)
(0.0706758 -0.000177278 -8.14478e-10)
(0.0644088 -0.000150894 -7.44418e-10)
(0.0581977 -0.000125791 -6.83432e-10)
(0.052063 -0.000102446 -6.3091e-10)
(0.0460223 -8.12127e-05 -5.57292e-10)
(0.0400906 -6.2332e-05 -4.76763e-10)
(0.0342806 -4.59502e-05 -4.00228e-10)
(0.0286027 -3.21343e-05 -3.09136e-10)
(0.0230654 -2.08916e-05 -2.4162e-10)
(0.0176755 -1.21687e-05 -1.79925e-10)
(0.0124382 -5.77911e-06 -1.23363e-10)
(0.00735727 -1.46252e-06 -7.1185e-11)
(0.0024354 -2.00188e-06 -2.28373e-11)
(0.146604 -0.000141432 -6.91426e-10)
(0.144493 -0.000211397 -1.11794e-09)
(0.141512 -0.000273791 -1.48481e-09)
(0.137801 -0.000321473 -1.2513e-09)
(0.133475 -0.000354993 -1.09535e-09)
(0.128636 -0.000374985 -1.001e-09)
(0.123372 -0.000382696 -9.37877e-10)
(0.117761 -0.000379719 -8.89651e-10)
(0.11187 -0.00036782 -8.45769e-10)
(0.105761 -0.000348807 -8.03723e-10)
(0.0994874 -0.000324428 -7.64015e-10)
(0.0930959 -0.000296304 -7.25978e-10)
(0.0866289 -0.000265893 -6.88186e-10)
(0.0801235 -0.000234457 -6.5732e-10)
(0.0736127 -0.000203064 -5.54808e-10)
(0.0671253 -0.000172587 -4.69343e-10)
(0.0606866 -0.000143714 -4.32367e-10)
(0.0543188 -0.000116968 -4.00317e-10)
(0.0480408 -9.27239e-05 -3.42559e-10)
(0.0418691 -7.12277e-05 -2.88017e-10)
(0.0358176 -5.26172e-05 -2.3753e-10)
(0.0298978 -3.69411e-05 -1.90462e-10)
(0.0241194 -2.41836e-05 -1.46592e-10)
(0.0184902 -1.42616e-05 -1.05571e-10)
(0.0130161 -6.92263e-06 -6.71875e-11)
(0.00770178 -1.81871e-06 -3.1339e-11)
(0.00255045 -2.71251e-06 -1.00409e-11)
(0.152841 -0.000162618 -9.64392e-10)
(0.150691 -0.000244548 -1.5674e-09)
(0.147649 -0.000316709 -1.30867e-09)
(0.143857 -0.000371357 -1.16147e-09)
(0.139429 -0.000409201 -1.08494e-09)
(0.134466 -0.000431152 -1.04625e-09)
(0.129056 -0.000438806 -1.03213e-09)
(0.123277 -0.000434143 -1.03493e-09)
(0.117197 -0.000419313 -1.0589e-09)
(0.110878 -0.00039648 -9.77519e-10)
(0.104374 -0.000367705 -9.22566e-10)
(0.0977352 -0.000334877 -8.80861e-10)
(0.091005 -0.000299667 -8.48912e-10)
(0.0842227 -0.000263512 -8.22986e-10)
(0.0774233 -0.000227605 -7.454e-10)
(0.070638 -0.000192912 -6.7739e-10)
(0.0638941 -0.000160185 -6.19313e-10)
(0.0572158 -0.000129987 -5.66585e-10)
(0.0506242 -0.000102711 -5.02841e-10)
(0.0441375 -7.86108e-05 -4.24522e-10)
(0.0377712 -5.78178e-05 -3.55998e-10)
(0.0315384 -4.03682e-05 -2.72468e-10)
(0.0254502 -2.62304e-05 -2.13451e-10)
(0.0195153 -1.52981e-05 -1.59825e-10)
(0.0137408 -7.26156e-06 -1.10123e-10)
(0.00813231 -1.70207e-06 -6.37308e-11)
(0.00269363 -3.39155e-06 -2.04754e-11)
(0.161607 -0.000173613 -1.03157e-09)
(0.159397 -0.000259269 -1.67059e-09)
(0.156266 -0.000334547 -1.40007e-09)
(0.152353 -0.000391065 -1.2706e-09)
(0.147775 -0.000429589 -1.20423e-09)
(0.14263 -0.000451224 -1.17256e-09)
(0.137007 -0.000457791 -1.16293e-09)
(0.130983 -0.00045151 -1.16747e-09)
(0.124628 -0.000434752 -1.18527e-09)
(0.118006 -0.000409864 -1.09656e-09)
(0.111174 -0.000379053 -1.02878e-09)
(0.104182 -0.00034431 -9.74686e-10)
(0.0970794 -0.000307371 -9.3072e-10)
(0.0899066 -0.000269708 -8.93359e-10)
(0.0827022 -0.000232524 -8.122e-10)
(0.0755001 -0.000196778 -7.40281e-10)
(0.0683307 -0.000163203 -6.771e-10)
(0.0612209 -0.000132335 -6.17525e-10)
(0.0541943 -0.000104539 -5.45491e-10)
(0.0472715 -8.00385e-05 -4.64338e-10)
(0.04047 -5.89375e-05 -3.81737e-10)
(0.0338049 -4.12464e-05 -3.00522e-10)
(0.0272888 -2.69149e-05 -2.34857e-10)
(0.0209321 -1.58173e-05 -1.74783e-10)
(0.0147429 -7.58541e-06 -1.1966e-10)
(0.00872793 -1.72384e-06 -6.8975e-11)
(0.00289187 -4.26315e-06 -2.21025e-11)
(0.173186 -0.000173304 -2.99263e-10)
(0.170885 -0.000259823 -4.45923e-10)
(0.16762 -0.000335064 -5.28638e-10)
(0.16353 -0.000391091 -5.71892e-10)
(0.15873 -0.000428743 -5.87066e-10)
(0.153321 -0.000449308 -5.81631e-10)
(0.147391 -0.00045477 -5.40868e-10)
(0.14102 -0.000447477 -6.6281e-10)
(0.13428 -0.00042989 -7.32261e-10)
(0.127237 -0.000404411 -6.96556e-10)
(0.119953 -0.000373264 -6.52098e-10)
(0.112482 -0.000338432 -6.05877e-10)
(0.104875 -0.000301621 -5.59652e-10)
(0.0971801 -0.000264263 -5.13915e-10)
(0.0894377 -0.000227516 -4.68623e-10)
(0.0816864 -0.000192296 -4.24199e-10)
(0.0739603 -0.000159293 -3.81117e-10)
(0.0662896 -0.000129009 -3.33795e-10)
(0.058701 -0.000101781 -2.83523e-10)
(0.0512179 -7.78112e-05 -2.51032e-10)
(0.0438604 -5.71904e-05 -1.91504e-10)
(0.0366457 -3.9922e-05 -1.61897e-10)
(0.0295884 -2.59564e-05 -1.17835e-10)
(0.0227002 -1.5168e-05 -8.84823e-11)
(0.015991 -7.15181e-06 -6.0962e-11)
(0.00946826 -1.36152e-06 -3.53372e-11)
(0.00313769 -5.09973e-06 -1.13571e-11)
(0.188484 -0.00015733 -6.94453e-10)
(0.186045 -0.000234715 -1.2139e-09)
(0.182578 -0.000301848 -8.68954e-10)
(0.178225 -0.000351587 -7.28793e-10)
(0.173101 -0.000384679 -6.57366e-10)
(0.16731 -0.000402397 -6.18869e-10)
(0.160943 -0.000406614 -5.98421e-10)
(0.154084 -0.000399512 -5.89636e-10)
(0.146808 -0.000383348 -5.84903e-10)
(0.139188 -0.000360294 -5.8047e-10)
(0.131289 -0.000332338 -5.77196e-10)
(0.123172 -0.000301232 -5.76052e-10)
(0.114894 -0.000268475 -5.76958e-10)
(0.106507 -0.000235307 -5.78512e-10)
(0.0980575 -0.000202729 -5.34577e-10)
(0.0895888 -0.000171526 -4.95299e-10)
(0.0811393 -0.000142289 -4.61567e-10)
(0.0727434 -0.000115446 -4.33113e-10)
(0.0644314 -9.1284e-05 -3.92062e-10)
(0.0562299 -6.99781e-05 -3.36435e-10)
(0.0481617 -5.16075e-05 -2.91272e-10)
(0.0402465 -3.61788e-05 -2.29411e-10)
(0.0325007 -2.36594e-05 -1.92201e-10)
(0.0249381 -1.39447e-05 -1.44056e-10)
(0.0175697 -6.61038e-06 -9.90093e-11)
(0.0104043 -1.07303e-06 -5.71198e-11)
(0.00344834 -6.0104e-06 -1.83097e-11)
(0.207788 -0.000127531 -7.63796e-10)
(0.205146 -0.000191266 -1.19796e-09)
(0.201384 -0.000246182 -9.4633e-10)
(0.196649 -0.000286856 -7.82873e-10)
(0.191066 -0.000313921 -6.93915e-10)
(0.184741 -0.000328493 -6.37136e-10)
(0.177773 -0.000332139 -5.98311e-10)
(0.170251 -0.000326648 -5.70443e-10)
(0.16226 -0.000313848 -5.49513e-10)
(0.153877 -0.000295478 -5.33155e-10)
(0.145177 -0.000273121 -5.2016e-10)
(0.136227 -0.000248164 -5.09643e-10)
(0.127092 -0.00022179 -5.00567e-10)
(0.117829 -0.000194983 -4.91769e-10)
(0.108492 -0.000168541 -4.43911e-10)
(0.0991301 -0.000143093 -3.99975e-10)
(0.0897858 -0.000119127 -3.59586e-10)
(0.0804982 -9.70028e-05 -3.26259e-10)
(0.0713018 -7.69752e-05 -2.73828e-10)
(0.0622264 -5.92108e-05 -2.10751e-10)
(0.0532978 -4.38026e-05 -1.56146e-10)
(0.0445381 -3.07863e-05 -1.13895e-10)
(0.0359658 -2.01718e-05 -9.1666e-11)
(0.0275964 -1.18992e-05 -6.89736e-11)
(0.0194421 -5.55363e-06 -4.76177e-11)
(0.0115127 -5.45343e-07 -2.75777e-11)
(0.00381554 -6.79967e-06 -8.85792e-12)
(0.231512 -8.3921e-05 -4.6332e-10)
(0.228581 -0.000125588 -7.36474e-10)
(0.224404 -0.000161635 -1.05341e-09)
(0.219144 -0.000188629 -7.43746e-10)
(0.212934 -0.000206946 -5.85819e-10)
(0.205894 -0.000217294 -4.64787e-10)
(0.198131 -0.00022065 -3.63908e-10)
(0.189746 -0.000218118 -2.75005e-10)
(0.180834 -0.000210818 -1.84841e-10)
(0.171482 -0.000199811 -1.92204e-10)
(0.161774 -0.000186062 -1.85353e-10)
(0.151786 -0.000170421 -1.74013e-10)
(0.141592 -0.00015362 -1.58402e-10)
(0.131257 -0.000136279 -1.39305e-10)
(0.120841 -0.000118916 -1.17971e-10)
(0.110398 -0.000101955 -9.34702e-11)
(0.0999781 -8.57404e-05 -1.08895e-10)
(0.0896241 -7.0544e-05 -1.20221e-10)
(0.0793745 -5.65775e-05 -1.06701e-10)
(0.0692624 -4.39992e-05 -9.42049e-11)
(0.0593166 -3.29206e-05 -8.28189e-11)
(0.0495616 -2.34163e-05 -7.24292e-11)
(0.0400178 -1.55515e-05 -6.22699e-11)
(0.0307019 -9.32696e-06 -4.41349e-11)
(0.0216276 -4.35912e-06 -2.6793e-11)
(0.0128055 -7.08299e-08 -1.04773e-11)
(0.00424349 -7.48406e-06 -3.43172e-12)
(0.259263 -2.92077e-05 -5.85309e-10)
(0.25595 -4.49697e-05 -9.98011e-10)
(0.25123 -5.86904e-05 -7.18255e-10)
(0.245287 -6.95012e-05 -5.67798e-10)
(0.238275 -7.75607e-05 -4.72396e-10)
(0.230328 -8.30636e-05 -4.03385e-10)
(0.221573 -8.62575e-05 -3.51253e-10)
(0.212123 -8.74095e-05 -3.11323e-10)
(0.202086 -8.67822e-05 -2.81077e-10)
(0.191564 -8.46239e-05 -2.58894e-10)
(0.180651 -8.11664e-05 -2.42038e-10)
(0.169434 -7.6628e-05 -2.28791e-10)
(0.157996 -7.12163e-05 -2.1825e-10)
(0.146409 -6.51313e-05 -2.09914e-10)
(0.134742 -5.85667e-05 -2.03466e-10)
(0.123056 -5.171e-05 -1.98491e-10)
(0.111404 -4.4742e-05 -1.94715e-10)
(0.0998344 -3.78347e-05 -1.87282e-10)
(0.0883899 -3.11492e-05 -1.71853e-10)
(0.0771068 -2.48336e-05 -1.48843e-10)
(0.0660164 -1.90197e-05 -1.22998e-10)
(0.0551451 -1.38255e-05 -9.93091e-11)
(0.0445151 -9.37685e-06 -7.7655e-11)
(0.0341443 -5.74357e-06 -5.78746e-11)
(0.0240473 -2.59655e-06 -3.97047e-11)
(0.0142351 6.03518e-07 -2.29196e-11)
(0.00471605 -7.88553e-06 -7.35131e-12)
(0.290379 3.62449e-05 -5.71319e-10)
(0.286595 5.31456e-05 -9.85029e-10)
(0.28121 6.7378e-05 -7.36593e-10)
(0.274438 7.70547e-05 -6.38208e-10)
(0.266461 8.22693e-05 -5.82495e-10)
(0.257437 8.34561e-05 -5.53633e-10)
(0.247511 8.12289e-05 -5.42305e-10)
(0.236817 7.63028e-05 -5.43345e-10)
(0.225479 6.94187e-05 -5.54887e-10)
(0.213614 6.12839e-05 -5.71894e-10)
(0.201329 5.25324e-05 -5.44398e-10)
(0.188723 4.37012e-05 -4.84448e-10)
(0.175887 3.52194e-05 -4.32337e-10)
(0.162903 2.7407e-05 -3.90601e-10)
(0.149847 2.04811e-05 -3.55719e-10)
(0.136786 1.45666e-05 -3.26279e-10)
(0.123778 9.71011e-06 -3.00666e-10)
(0.110877 5.89367e-06 -2.77021e-10)
(0.0981276 3.04959e-06 -2.50675e-10)
(0.0855695 1.07402e-06 -2.08715e-10)
(0.0732363 -1.59836e-07 -1.72831e-10)
(0.0611562 -7.95437e-07 -1.39905e-10)
(0.0493524 -1.00726e-06 -1.09814e-10)
(0.0378439 -9.30304e-07 -8.20847e-11)
(0.0266457 -3.06573e-07 -5.64254e-11)
(0.0157692 1.35097e-06 -3.26137e-11)
(0.00522278 -7.97987e-06 -1.04692e-11)
(0.323434 0.000110913 -5.52563e-10)
(0.319111 0.000164237 -8.60425e-10)
(0.312968 0.000210132 -7.03889e-10)
(0.305259 0.000243542 -6.00183e-10)
(0.296196 0.00026468 -5.28538e-10)
(0.285969 0.000274572 -4.78301e-10)
(0.274747 0.000274678 -4.41555e-10)
(0.262686 0.000266706 -4.1293e-10)
(0.249929 0.000252431 -3.88867e-10)
(0.236608 0.000233569 -3.67075e-10)
(0.222845 0.000211685 -3.45981e-10)
(0.208751 0.000188146 -3.25452e-10)
(0.194426 0.000164096 -3.06133e-10)
(0.179963 0.000140457 -2.8825e-10)
(0.165443 0.000117938 -2.71861e-10)
(0.150938 9.70503e-05 -2.56751e-10)
(0.136513 7.81392e-05 -2.42684e-10)
(0.122224 6.14035e-05 -2.29238e-10)
(0.10812 4.69239e-05 -2.03816e-10)
(0.0942429 3.46876e-05 -1.72709e-10)
(0.0806271 2.4611e-05 -1.43813e-10)
(0.0673025 1.65557e-05 -1.17113e-10)
(0.0542934 1.03225e-05 -9.2116e-11)
(0.0416191 5.72657e-06 -6.89002e-11)
(0.0292948 2.95008e-06 -4.73638e-11)
(0.0173319 2.39382e-06 -2.73725e-11)
(0.00573839 -7.64935e-06 -8.78451e-12)
(0.35683 0.000193548 -4.92011e-10)
(0.351932 0.000288607 -7.98159e-10)
(0.344982 0.000370983 -6.12442e-10)
(0.33628 0.000432284 -5.07968e-10)
(0.326074 0.00047279 -4.3907e-10)
(0.314586 0.000494087 -3.89965e-10)
(0.302013 0.000498457 -3.52962e-10)
(0.288534 0.000488602 -3.23655e-10)
(0.274314 0.000467356 -2.99475e-10)
(0.2595 0.000437489 -2.789e-10)
(0.244229 0.000401562 -2.61045e-10)
(0.228623 0.000361853 -2.45401e-10)
(0.212794 0.000320317 -2.31661e-10)
(0.19684 0.000278577 -2.19634e-10)
(0.18085 0.00023793 -2.09244e-10)
(0.164902 0.000199377 -2.0022e-10)
(0.149065 0.000163654 -1.92316e-10)
(0.133397 0.000131261 -1.85216e-10)
(0.117949 0.000102505 -1.70906e-10)
(0.102766 7.75318e-05 -1.41253e-10)
(0.0878844 5.63567e-05 -1.17122e-10)
(0.0733335 3.8893e-05 -9.47819e-11)
(0.0591384 2.49539e-05 -7.44502e-11)
(0.0453187 1.43302e-05 -5.56823e-11)
(0.0318895 7.12509e-06 -3.82871e-11)
(0.0188617 3.64767e-06 -2.21315e-11)
(0.00624287 -6.92164e-06 -7.10401e-12)
(0.388696 0.000279839 4.97996e-10)
(0.383224 0.000418122 1.9334e-10)
(0.375472 0.000538829 4.40921e-11)
(0.365784 0.000630053 -4.12174e-11)
(0.354449 0.000691996 5.2717e-11)
(0.34172 0.000726675 -1.67873e-11)
(0.327823 0.000737079 -4.31447e-11)
(0.312962 0.000726797 -5.75256e-11)
(0.29732 0.000699655 -6.17881e-11)
(0.281062 0.000659429 -5.96205e-11)
(0.264339 0.000609667 -5.3123e-11)
(0.247284 0.000553572 -4.3576e-11)
(0.230016 0.00049394 -3.2244e-11)
(0.212643 0.000433142 -1.46212e-11)
(0.195259 0.000373125 -3.61419e-11)
(0.177946 0.000315465 -5.04922e-11)
(0.160775 0.000261348 -8.38594e-11)
(0.143809 0.000211624 -9.38078e-11)
(0.127101 0.000166892 -8.95435e-11)
(0.110696 0.000127516 -7.06907e-11)
(0.0946302 9.36644e-05 -6.55025e-11)
(0.0789351 6.53477e-05 -5.92501e-11)
(0.0636354 4.24324e-05 -4.61928e-11)
(0.0487504 2.47151e-05 -3.41985e-11)
(0.0342948 1.2224e-05 -2.34245e-11)
(0.020279 5.17725e-06 -1.35117e-11)
(0.00670998 -5.81324e-06 -4.32964e-12)
(0.417485 0.000362394 -2.95757e-10)
(0.411475 0.000542982 -4.95788e-10)
(0.402975 0.000701374 -3.47959e-10)
(0.39237 0.0008224 -2.60472e-10)
(0.379986 0.000906137 -2.05102e-10)
(0.366109 0.000954944 -1.71925e-10)