/*--------------------------------*- C++ -*----------------------------------*\
| =========                 |                                                 |
| \\      /  F ield         | OpenFOAM: The Open Source CFD Toolbox           |
|  \\    /   O peration     | Version:  2212                                  |
|   \\  /    A nd           | Website:  www.openfoam.com                      |
|    \\/     M anipulation  |                                                 |
\*---------------------------------------------------------------------------*/
FoamFile
{
    version     2.0;
    format      ascii;
    arch        "LSB;label=32;scalar=64";
    class       volScalarField;
    location    "20.00000000";
    object      A1C2H_0;
}
// * * * * * * * * * * * * * * * * * * * * * * * * * * * * * * * * * * * * * //

dimensions      [0 0 0 0 0 0 0];

internalField   nonuniform List<scalar> 
3000
(
9.410340684e-31
1.167007707e-30
1.528178253e-30
2.045930389e-30
2.742172693e-30
3.624734105e-30
4.659403551e-30
5.722666449e-30
6.533133279e-30
3.965485995e-30
4.953800834e-30
6.53316738e-30
8.801510923e-30
1.187652134e-29
1.587597472e-29
2.087458931e-29
2.678681661e-29
3.258745642e-29
1.021862868e-29
1.292681888e-29
1.729994469e-29
2.37019536e-29
3.265429446e-29
4.483934077e-29
6.096081706e-29
8.111026946e-29
1.008918854e-28
2.232836294e-29
2.870610011e-29
3.920545601e-29
5.503983827e-29
7.805428891e-29
1.107553344e-28
1.557438589e-28
2.128272819e-28
2.666942523e-28
4.541071633e-29
5.954844582e-29
8.339010806e-29
1.205048084e-28
1.763758943e-28
2.58367926e-28
3.732167151e-28
5.170260065e-28
6.460793665e-28
8.945331305e-29
1.198830387e-28
1.724907685e-28
2.568271876e-28
3.874994093e-28
5.833807948e-28
8.591374368e-28
1.197138888e-27
1.486584655e-27
1.74473381e-28
2.390917993e-28
3.533900593e-28
5.412651938e-28
8.388328353e-28
1.290759536e-27
1.926132731e-27
2.687913947e-27
3.298749608e-27
3.40604273e-28
4.767631688e-28
7.223830157e-28
1.134309622e-27
1.797340246e-27
2.812629292e-27
4.238673172e-27
5.941882757e-27
7.372495455e-27
6.689830054e-28
9.54522111e-28
1.477854436e-27
2.368849988e-27
3.818087296e-27
6.043819002e-27
9.151469642e-27
1.280604327e-26
1.577025525e-26
1.324129572e-27
1.920888722e-27
3.028413727e-27
4.935221068e-27
8.058267244e-27
1.285879453e-26
1.95259559e-26
2.72887398e-26
3.351221498e-26
2.64093245e-27
3.885048578e-27
6.216748392e-27
1.026478967e-26
1.69261347e-26
2.716599224e-26
4.132706536e-26
5.769975986e-26
7.072821544e-26
5.302465546e-27
7.891029245e-27
1.277976307e-26
2.132037356e-26
3.542075455e-26
5.708958542e-26
8.695452867e-26
1.213024615e-25
1.484842706e-25
1.070451271e-26
1.608139597e-26
2.629709977e-26
4.422875813e-26
7.390236541e-26
1.19483691e-25
1.82135299e-25
2.539020686e-25
3.104596079e-25
2.170271495e-26
3.285508281e-26
5.414371535e-26
9.164771709e-26
1.538143841e-25
2.492644853e-25
3.801756031e-25
5.296634776e-25
6.470897157e-25
4.414536993e-26
6.724740608e-26
1.115110245e-25
1.897098787e-25
3.194940448e-25
5.186784015e-25
7.913856248e-25
1.102021498e-24
1.345410425e-24
9.001898847e-26
1.378218758e-25
2.296846889e-25
3.923351468e-25
6.625369508e-25
1.077068761e-24
1.64381136e-24
2.288097186e-24
2.791867769e-24
1.839061891e-25
2.827269921e-25
4.730846021e-25
8.107223679e-25
1.372032337e-24
2.2328872e-24
3.408479972e-24
4.742763483e-24
5.784294817e-24
3.762472921e-25
5.803719214e-25
9.74335636e-25
1.674099032e-24
2.838097863e-24
4.622757058e-24
7.057578846e-24
9.817390669e-24
1.196873934e-23
7.705787806e-25
1.191934949e-24
2.00643749e-24
3.454817024e-24
5.865155362e-24
9.55975974e-24
1.459625076e-23
2.029860304e-23
2.473860816e-23
1.579484974e-24
2.448755826e-24
4.131251189e-24
7.125870954e-24
1.211109128e-23
1.975059901e-23
3.015737615e-23
4.192850736e-23
5.108447186e-23
3.239529986e-24
5.031986206e-24
8.504938719e-24
1.469084291e-23
2.499114488e-23
4.077154514e-23
6.225401931e-23
8.653136485e-23
1.053974716e-22
6.647310734e-24
1.034181323e-23
1.750605504e-23
3.027398086e-23
5.153721332e-23
8.410373506e-23
1.28409546e-22
1.78437119e-22
2.172791426e-22
1.364410494e-23
2.125598738e-23
3.602647733e-23
6.236108327e-23
1.062196806e-22
1.733699265e-22
2.64665391e-22
3.676622243e-22
4.475572819e-22
2.80104094e-23
4.368732494e-23
7.412317001e-23
1.284029239e-22
2.187959762e-22
3.571340641e-22
5.450778787e-22
7.569138328e-22
9.210730407e-22
5.750497229e-23
8.977872312e-23
1.524596921e-22
2.642616461e-22
4.504107721e-22
7.35137474e-22
1.121633775e-21
1.55680349e-21
1.893650858e-21
1.180395012e-22
1.844473985e-22
3.134533506e-22
5.435574939e-22
9.265511416e-22
1.511957192e-21
2.305785961e-21
3.198457507e-21
3.888506605e-21
2.422153184e-22
3.787744145e-22
6.440868329e-22
1.117246517e-21
1.90439507e-21
3.106485171e-21
4.734508669e-21
6.562431198e-21
7.973118244e-21
4.967422816e-22
7.773384539e-22
1.322477865e-21
2.29437501e-21
3.910075245e-21
6.374665546e-21
9.707344607e-21
1.344220279e-20
1.63187309e-20
1.017888559e-21
1.593863211e-21
2.71267145e-21
4.706317281e-21
8.017429628e-21
1.306089203e-20
1.986763797e-20
2.747816147e-20
3.332509434e-20
2.083409569e-21
3.264165222e-21
5.556986441e-21
9.639682507e-21
1.641192745e-20
2.670861932e-20
4.057212268e-20
5.602872188e-20
6.786750626e-20
4.257952088e-21
6.674515905e-21
1.136469523e-20
1.970805477e-20
3.352583275e-20
5.448735379e-20
8.262768226e-20
1.138934917e-19
1.377533632e-19
8.685747253e-21
1.362132438e-20
2.319376425e-20
4.020051852e-20
6.831028564e-20
1.108347519e-19
1.677209782e-19
2.306636712e-19
2.784875924e-19
1.767693052e-20
2.773172902e-20
4.721451845e-20
8.177261643e-20
1.387528414e-19
2.246636852e-19
3.391028749e-19
4.651050432e-19
5.603525745e-19
3.58757135e-20
5.629667698e-20
9.581799111e-20
1.657797027e-19
2.80792199e-19
4.535050177e-19
6.824210217e-19
9.330253165e-19
1.12134829e-18
7.257401175e-20
1.138977255e-19
1.937521495e-19
3.347670633e-19
5.657624609e-19
9.110039114e-19
1.365930478e-18
1.860689357e-18
2.230017309e-18
1.462643703e-19
2.295330293e-19
3.901435319e-19
6.729302712e-19
1.134213019e-18
1.819837824e-18
2.717262478e-18
3.68603158e-18
4.403863628e-18
2.935385133e-19
4.605142129e-19
7.818556018e-19
1.345659836e-18
2.260822328e-18
3.612455403e-18
5.368295537e-18
7.248134087e-18
8.629844342e-18
5.863550674e-19
9.193535236e-19
1.558476741e-18
2.675230109e-18
4.477670345e-18
7.12065769e-18
1.052525318e-17
1.413756865e-17
1.676982791e-17
1.165299952e-18
1.825354034e-18
3.088166951e-18
5.284189939e-18
8.805732177e-18
1.392814379e-17
2.046607873e-17
2.733610891e-17
3.229694091e-17
2.303166153e-18
3.602752913e-18
6.079900087e-18
1.036413395e-17
1.718461886e-17
2.701819329e-17
3.944502131e-17
5.237041652e-17
6.161654773e-17
4.525558147e-18
7.06579229e-18
1.18870662e-17
2.017402271e-17
3.326106722e-17
5.194918971e-17
7.531779246e-17
9.936766898e-17
1.164081426e-16
8.837898619e-18
1.376461775e-17
2.306992101e-17
3.895398507e-17
6.381887234e-17
9.896280093e-17
1.424268138e-16
1.866761186e-16
2.177306205e-16
1.714940569e-17
2.662600705e-17
4.442712142e-17
7.458274537e-17
1.213424895e-16
1.867212744e-16
2.666658679e-16
3.47172644e-16
4.031428825e-16
3.305884073e-17
5.112968835e-17
8.486873048e-17
1.415516011e-16
2.285622856e-16
3.488600312e-16
4.942760867e-16
6.391399859e-16
7.389335825e-16
6.329952809e-17
9.744894051e-17
1.607838381e-16
2.662452459e-16
4.264281295e-16
6.453576186e-16
9.069715446e-16
1.164848506e-15
1.340936311e-15
1.203764522e-16
1.843121375e-16
3.020377835e-16
4.962253052e-16
7.879577805e-16
1.182074963e-15
1.647712656e-15
2.102026869e-15
2.409664522e-15
2.273420815e-16
3.459094787e-16
5.625541019e-16
9.16396124e-16
1.442064668e-15
2.144035779e-15
2.964257319e-15
3.756743887e-15
4.289170639e-15
4.263794663e-16
6.441435045e-16
1.03882166e-15
1.676904469e-15
2.614202983e-15
3.851650985e-15
5.282193867e-15
6.651634831e-15
7.564973111e-15
7.941102294e-16
1.190181961e-15
1.901991349e-15
3.040890427e-15
4.695149409e-15
6.855000192e-15
9.326567846e-15
1.167214115e-14
1.322596865e-14
1.468689208e-15
2.182079338e-15
3.453100344e-15
5.465584305e-15
8.356551825e-15
1.209085984e-14
1.632316183e-14
2.030747991e-14
2.293062189e-14
2.697401121e-15
3.969952369e-15
6.217383508e-15
9.73905689e-15
1.474375048e-14
2.114262058e-14
2.832968068e-14
3.504556628e-14
3.944233027e-14
4.919659894e-15
7.168083206e-15
1.11042281e-14
1.72093129e-14
2.579559154e-14
3.666807414e-14
4.87778044e-14
6.001706493e-14
6.733810817e-14
8.91072834e-15
1.284646415e-14
1.96767658e-14
3.016582259e-14
4.477196698e-14
6.309981578e-14
8.33560031e-14
1.020408547e-13
1.141571946e-13
1.602895084e-14
2.285617228e-14
3.460378796e-14
5.247155821e-14
7.711994807e-14
1.077863772e-13
1.414403895e-13
1.72313496e-13
1.922553084e-13
2.863840665e-14
4.037953489e-14
6.041433082e-14
9.060441131e-14
1.318795151e-13
1.828363458e-13
2.384043976e-13
2.891335561e-13
3.217892852e-13
5.082102746e-14
7.084023988e-14
1.047254243e-13
1.553411807e-13
2.239743023e-13
3.0810973e-13
3.993384769e-13
4.822676098e-13
5.354954337e-13
8.955898145e-14
1.234115834e-13
1.802753718e-13
2.645251012e-13
3.779039501e-13
5.160035838e-13
6.649889027e-13
7.999175802e-13
8.863100946e-13
1.567143844e-13
2.135088187e-13
3.082308681e-13
4.475164922e-13
6.336678259e-13
8.591001988e-13
1.101216035e-12
1.319792926e-12
1.459469031e-12
2.722874717e-13
3.668560704e-13
5.235396926e-13
7.52344542e-13
1.056218027e-12
1.42231446e-12
1.813970695e-12
2.166611109e-12
2.391618053e-12
4.697448248e-13
6.26082407e-13
8.835371282e-13
1.257119156e-12
1.750452877e-12
2.342075725e-12
2.97287232e-12
3.53959993e-12
3.90082062e-12
8.046639208e-13
1.061341576e-12
1.481689909e-12
2.088123873e-12
2.88485086e-12
3.836431944e-12
4.848098579e-12
5.755442707e-12
6.333370732e-12
1.368648809e-12
1.78728566e-12
2.46939527e-12
3.448315009e-12
4.728486615e-12
6.251990982e-12
7.867719591e-12
9.314878898e-12
1.023630891e-11
2.311561004e-12
2.990000953e-12
4.090323309e-12
5.661919914e-12
7.708629942e-12
1.013663058e-11
1.270619646e-11
1.50052551e-11
1.646892794e-11
3.876774241e-12
4.969457108e-12
6.734162495e-12
9.243776773e-12
1.249978847e-11
1.635137064e-11
2.042004345e-11
2.405730272e-11
2.637296887e-11
6.456689538e-12
8.205954682e-12
1.102018525e-11
1.500644979e-11
2.016046933e-11
2.624137407e-11
3.265439265e-11
3.83831547e-11
4.203055679e-11
1.067955596e-11
1.346345203e-11
1.792634272e-11
2.422464647e-11
3.234190855e-11
4.189568359e-11
5.19555073e-11
6.093534691e-11
6.665253735e-11
1.754432168e-11
2.194917154e-11
2.898740347e-11
3.888600616e-11
5.160470491e-11
6.653937508e-11
8.224075169e-11
9.624506633e-11
1.051596591e-10
2.862860318e-11
3.55584524e-11
4.659707868e-11
6.207127876e-11
8.189631183e-11
1.051222259e-10
1.29501385e-10
1.512247343e-10
1.650477118e-10
4.640705522e-11
5.724775697e-11
7.44657126e-11
9.852713916e-11
1.292668898e-10
1.651974075e-10
2.028478913e-10
2.363586353e-10
2.576690119e-10
7.473512343e-11
9.159894017e-11
1.183091096e-10
1.555238534e-10
2.029360822e-10
2.582256752e-10
3.16056555e-10
3.674604107e-10
4.00121551e-10
1.195786571e-10
1.456668094e-10
1.868781386e-10
2.441309787e-10
3.168728019e-10
4.014997368e-10
4.898450854e-10
5.682539631e-10
6.180202322e-10
1.901058849e-10
2.302426135e-10
2.934864213e-10
3.811015338e-10
4.921191779e-10
6.209659493e-10
7.552012688e-10
8.741424429e-10
9.495402146e-10
3.0030819e-10
3.617223198e-10
4.582593602e-10
5.91634096e-10
7.601849459e-10
9.553338204e-10
1.158220561e-09
1.337678156e-09
1.451280681e-09
4.713846549e-10
5.648456425e-10
7.114179419e-10
9.133899814e-10
1.167967729e-09
1.462017266e-09
1.767086752e-09
2.036445924e-09
2.206710403e-09
7.352185153e-10
8.766762059e-10
1.0980324e-09
1.402287346e-09
1.784827501e-09
2.225656014e-09
2.682066219e-09
3.084336406e-09
3.338237513e-09
1.139398278e-09
1.352332543e-09
1.684842353e-09
2.140784945e-09
2.712670092e-09
3.370231782e-09
4.049692173e-09
4.647525477e-09
5.024306166e-09
1.754400391e-09
2.073161701e-09
2.569949257e-09
3.249613363e-09
4.100182451e-09
5.076128315e-09
6.082695308e-09
6.966893802e-09
7.523363502e-09
2.683759372e-09
3.158277213e-09
3.896448054e-09
4.904212175e-09
6.162708749e-09
7.603878687e-09
9.087676387e-09
1.038909514e-08
1.120703469e-08
4.078306743e-09
4.78065937e-09
5.871370506e-09
7.357472475e-09
9.209634806e-09
1.132675631e-08
1.350295641e-08
1.540893867e-08
1.660530698e-08
6.155850324e-09
7.189319801e-09
8.791633437e-09
1.097071917e-08
1.368148894e-08
1.677469859e-08
1.994934953e-08
2.272602774e-08
2.446677357e-08
9.227958331e-09
1.073932034e-08
1.307895725e-08
1.625510372e-08
2.019913884e-08
2.469212583e-08
2.929655245e-08
3.331841781e-08
3.583671872e-08
1.373574838e-08
1.593163111e-08
1.932583927e-08
2.39255724e-08
2.962727223e-08
3.611177645e-08
4.274711119e-08
4.853504157e-08
5.215462292e-08
2.02966736e-08
2.346481027e-08
2.835450081e-08
3.496915754e-08
4.315357617e-08
5.244545095e-08
6.193817812e-08
7.020641084e-08
7.537010189e-08
2.976415178e-08
3.430018455e-08
4.129016165e-08
5.072838734e-08
6.238354913e-08
7.559041199e-08
8.905838044e-08
1.00769503e-07
1.080722354e-07
4.330143107e-08
4.974155312e-08
5.964901513e-08
7.299917249e-08
8.944885109e-08
1.080474418e-07
1.26973572e-07
1.433984207e-07
1.536224309e-07
6.247032541e-08
7.152947744e-08
8.544002956e-08
1.041409366e-07
1.271251503e-07
1.530442963e-07
1.793527009e-07
2.021295327e-07
2.162775248e-07
8.933445073e-08
1.01949092e-07
1.212784557e-07
1.47195515e-07
1.789544967e-07
2.146582295e-07
2.507865715e-07
2.819735106e-07
3.012952408e-07
1.265754136e-07
1.439491569e-07
1.705077555e-07
2.060104687e-07
2.493671881e-07
2.97933125e-07
3.46898428e-07
3.890213956e-07
4.150416727e-07
1.776190486e-07
2.012687212e-07
2.373253404e-07
2.853610987e-07
3.437961565e-07
4.089823296e-07
4.744328714e-07
5.305204598e-07
5.650629119e-07
2.467672547e-07
2.785663147e-07
3.269063365e-07
3.910650253e-07
4.687787123e-07
5.550762781e-07
6.413330995e-07
7.149527299e-07
7.601576118e-07
3.393290953e-07
3.815447924e-07
4.455179096e-07
5.300813749e-07
6.32036979e-07
7.447034648e-07
8.567865175e-07
9.520716357e-07
1.010411055e-06
4.617426012e-07
5.170630596e-07
6.006154363e-07
7.105869357e-07
8.425327692e-07
9.876091154e-07
1.131266851e-06
1.252931173e-06
1.327215764e-06
6.21676015e-07
6.93223857e-07
8.009114314e-07
9.420243526e-07
1.110498828e-06
1.294822579e-06
1.476540997e-06
1.629882518e-06
1.723261971e-06
8.280941652e-07
9.194243295e-07
1.056405428e-06
1.235110931e-06
1.447434056e-06
1.678650636e-06
1.905650186e-06
2.096543188e-06
2.212499378e-06
1.091277378e-06
1.206359969e-06
1.378371634e-06
1.601818545e-06
1.866105103e-06
2.152653085e-06
2.432866744e-06
2.667738928e-06
2.810070401e-06
1.422788488e-06
1.565987805e-06
1.77932872e-06
2.055377567e-06
2.380514176e-06
2.731590007e-06
3.073621933e-06
3.359415989e-06
3.532213428e-06
1.835413764e-06
2.011489408e-06
2.273038215e-06
2.610236983e-06
3.005838078e-06
3.431339157e-06
3.844403384e-06
4.188522864e-06
4.396135576e-06
2.343177116e-06
2.557290571e-06
2.874472004e-06
3.282002148e-06
3.758339993e-06
4.268783971e-06
4.762622646e-06
5.172862365e-06
5.419856061e-06
2.961344403e-06
3.219017307e-06
3.599742913e-06
4.087340762e-06
4.655250668e-06
5.261671799e-06
5.846453993e-06
6.330916028e-06
6.622022649e-06
3.706349606e-06
4.013409844e-06
4.465999178e-06
5.043855231e-06
5.714618471e-06
6.428443427e-06
7.114646836e-06
7.681644092e-06
8.02170488e-06
4.595680978e-06
4.958197252e-06
5.491282752e-06
6.169922213e-06
6.955130074e-06
7.788036709e-06
8.586315527e-06
9.244265558e-06
9.638168944e-06
5.647729171e-06
6.07193571e-06
6.694354149e-06
7.484502388e-06
8.395905482e-06
9.359668787e-06
1.02807117e-05
1.103802396e-05
1.149064014e-05
6.881600974e-06
7.373814428e-06
8.094488122e-06
9.006925129e-06
1.005627258e-05
1.116260259e-05
1.221698532e-05
1.308194531e-05
1.359805953e-05
8.316903418e-06
8.88343433e-06
9.711245645e-06
1.075665395e-05
1.195552745e-05
1.321590415e-05
1.441394108e-05
1.539459506e-05
1.597884158e-05
9.973504118e-06
1.062056565e-05
1.156422865e-05
1.275303943e-05
1.411268737e-05
1.553819776e-05
1.688979728e-05
1.799384087e-05
1.865063975e-05
1.18712747e-05
1.260489144e-05
1.367282472e-05
1.501506688e-05
1.654624364e-05
1.81474259e-05
1.966195373e-05
2.089662783e-05
2.163012609e-05
1.402982494e-05
1.485574467e-05
1.605594926e-05
1.756110611e-05
1.927392136e-05
2.106062057e-05
2.274677489e-05
2.411877164e-05
2.493279059e-05
1.646823568e-05
1.739184677e-05
1.873179278e-05
2.040867051e-05
2.231245269e-05
2.429369219e-05
2.615939383e-05
2.767477484e-05
2.857276464e-05
1.920479848e-05
2.02310553e-05
2.171758058e-05
2.357419207e-05
2.567736971e-05
2.786124098e-05
2.991354106e-05
3.157766979e-05
3.256267218e-05
2.225676967e-05
2.339012804e-05
2.502935137e-05
2.70728182e-05
2.938282163e-05
3.177639508e-05
3.402140183e-05
3.5838891e-05
3.691351077e-05
2.564014559e-05
2.688450973e-05
2.868176049e-05
3.091823508e-05
3.344142025e-05
3.605067818e-05
3.849350377e-05
4.046817834e-05
4.163456371e-05
2.936946484e-05
3.072814679e-05
3.26879122e-05
3.512252112e-05
3.786411641e-05
4.069390854e-05
4.333863594e-05
4.547351162e-05
4.673334329e-05
3.345764182e-05
3.493333375e-05
3.705922415e-05
3.969603284e-05
4.266010867e-05
4.571412985e-05
4.856379921e-05
5.08610757e-05
5.221556439e-05
3.791583468e-05
3.951059402e-05
4.180532585e-05
4.46473242e-05
4.78367846e-05
5.11175736e-05
5.417418691e-05
5.663525505e-05
5.808514668e-05
4.275334937e-05
4.446859613e-05
4.693399178e-05
4.998309933e-05
5.339969394e-05
5.69086516e-05
6.017319395e-05
6.279865521e-05
6.434424309e-05
4.797757974e-05
4.981410526e-05
5.245110839e-05
5.570819731e-05
5.935255178e-05
6.308997638e-05
6.656245191e-05
6.935214886e-05
7.099329185e-05
5.359398292e-05
5.555196872e-05
5.836067331e-05
6.182560717e-05
6.569726956e-05
6.966240704e-05
7.334188729e-05
7.629494312e-05
7.803108894e-05
5.960608786e-05
6.168513327e-05
6.466482443e-05
6.833651016e-05
7.243401069e-05
7.662511711e-05
8.050979958e-05
8.362466511e-05
8.545487759e-05
6.601553404e-05
6.8214691e-05
7.136389548e-05
7.524034619e-05
7.956126769e-05
8.397568129e-05
8.806295585e-05
9.133746212e-05
9.326045167e-05
7.282213692e-05
7.513995055e-05
7.845649466e-05
8.253490065e-05
8.707595712e-05
9.171017751e-05
9.599669843e-05
9.942811335e-05
0.0001014422695
8.002397618e-05
8.24585295e-05
8.593960252e-05
9.021640821e-05
9.497352881e-05
9.982330079e-05
0.0001043050624
0.0001078901498
0.0001099935749
8.761750273e-05
9.01664641e-05
9.380868514e-05
9.827966945e-05
0.0001032480857
0.0001083084857
0.0001129808999
0.0001167159795
0.0001189065234
9.559766021e-05
9.825833224e-05
0.0001020578188
0.0001067181772
0.0001118925114
0.0001171580341
0.0001220160077
0.0001258970153
0.0001281723094
0.0001039580171
0.0001067273859
0.0001106798225
0.0001155242487
0.0001208986014
0.000126363246
0.0001314012567
0.0001354238028
0.0001377812934
0.0001126909059
0.0001155656893
0.000119666395
0.0001246891611
0.0001302571964
0.0001359145494
0.00014112672
0.0001452861464
0.0001477231272
0.0001217875654
0.0001247642602
0.0001290082537
0.0001342032869
0.0001399583146
0.0001458016296
0.0001511817976
0.0001554732315
0.0001579868742
0.0001312382837
0.0001343132101
0.0001386952718
0.0001440562276
0.0001499912804
0.0001560135531
0.0001615553372
0.0001659737417
0.0001685611249
0.000141032539
0.0001442018827
0.0001487166126
0.0001542369434
0.0001603448491
0.0001665388872
0.0001722357483
0.0001767759696
0.0001794341058
0.0001511591361
0.0001544189874
0.000159060859
0.0001647338766
0.000171007325
0.0001773658124
0.0001832111103
0.0001878679209
0.0001905937806
0.0001616063367
0.000164952726
0.0001697161353
0.000175535069
0.0001819666722
0.0001884822277
0.0001944692722
0.0001992374097
0.0002020279442
0.0001723619828
0.0001757909127
0.0001806702229
0.0001866282709
0.0001932106184
0.0001998758477
0.0002059979444
0.0002108721473
0.0002137243084
0.0001834136109
0.0001869210851
0.0001919106657
0.0001980010421
0.0002047267486
0.0002115342914
0.0002177847828
0.0002227598211
0.000225670579
0.0001947485578
0.0001983306065
0.0002034248686
0.0002096408434
0.000216502592
0.0002234451627
0.0002298174637
0.0002348881665
0.0002378545257
0.0002063540569
0.0002100067589
0.0002152001852
0.0002215351197
0.000228525699
0.0002355961222
0.0002420837511
0.0002472450302
0.0002502640426
0.0002182173248
0.0002219368261
0.000227223997
0.0002336713744
0.0002407837095
0.0002479749505
0.0002545715554
0.0002598184255
0.0002628872021
0.000230325638
0.0002341081683
0.0002394837841
0.0002460372344
0.0002532644142
0.0002605696038
0.0002672689846
0.0002725965804
0.0002757123012
0.0002426664016
0.0002465082874
0.0002519671857
0.0002586205074
0.0002659558059
0.000273368262
0.0002801643889
0.0002855679786
0.0002887279004
0.0002552272077
0.0002591248829
0.0002646620541
0.0002714092307
0.0002788461249
0.0002863593689
0.0002932463968
0.0002987213939
0.0003019228568
0.0002679958864
0.0002719459009
0.0002775564993
0.0002843917128
0.0002919238969
0.0002995316668
0.0003065039468
0.0003120459182
0.0003152863509
0.0002809605481
0.0002849595744
0.000290638927
0.0002975565681
0.0003051779633
0.0003128742239
0.0003199263117
0.0003255309846
0.0003288079077
0.0002941096193
0.0002981544569
0.0003038980701
0.0003108927452
0.0003185975076
0.0003263764568
0.0003335031187
0.0003391663846
0.0003424774135
0.0003074318703
0.0003115194489
0.000317323012
0.000324389548
0.0003321720727
0.0003400281467
0.000347224363
0.0003529422812
0.0003562851276
0.0003209164382
0.0003250438198
0.0003309032076
0.0003380366537
0.0003458915768
0.0003538194506
0.0003610804177
0.0003668492164
0.0003702216894
0.0003345528428
0.0003387172212
0.0003446284947
0.0003518241237
0.0003597463234
0.0003677409117
0.0003750620411
0.0003808781167
0.0003842781225
0.0003483310029
0.0003525297031
0.0003584891069
0.0003657424125
0.0003737270067
0.0003817834623
0.0003891603798
0.0003950202959
0.0003984458371
0.0003622412421
0.0003664717193
0.0003724756806
0.0003797823751
0.0003878247181
0.000395938428
0.0004033669698
0.0004092674547
0.0004127166288
0.0003762742927
0.0003805341294
0.0003865792541
0.0003939352642
0.0004020309424
0.0004101975233
0.0004176737329
0.0004236116768
0.0004270826752
0.0003904212937
0.0003947081974
0.0004007912667
0.0004081927291
0.0004163375557
0.0004245528495
0.0004320729723
0.0004380454238
0.0004415365292
0.0004046737904
0.0004089855902
0.0004151035559
0.0004225468117
0.0004307368209
0.000438996888
0.0004465573666
0.0004525615281
0.0004560711121
0.0004190237302
0.0004233583728
0.000429508352
0.0004369899402
0.0004452213805
0.0004535224935
0.0004611199609
0.0004671531842
0.0004706797049
0.000433463455
0.0004378190013
0.0004439982706
0.0004515149216
0.0004597842482
0.0004681228845
0.0004757541583
0.0004818139395
0.0004853559383
0.0004479856935
0.000452360314
0.0004585663038
0.0004661149322
0.0004744187995
0.0004827916338
0.000490453709
0.0004965376831
0.0005000937822
0.0004625835512
0.0004669755215
0.0004732058099
0.0004807835071
0.0004891187608
0.0004975226573
0.0005052126996
0.0005113186354
0.0005148875342
0.0004772504993
0.0004816581959
0.0004879105024
0.0004955145293
0.0005038781982
0.0005123102027
0.0005200255412
0.0005261513356
0.000529731808
0.000491980363
0.0004964022588
0.0005026744379
0.0005103022173
0.0005186915056
0.0005271488375
0.0005348869576
0.00054103063
0.0005446215209
0.000506767309
0.0005112019687
0.0005174920039
0.000525141113
0.0005335533918
0.000542033436
0.0005497919725
0.0005559516595
0.0005595518818
0.0005216058325
0.0005260519084
0.0005323579058
0.0005400260688
0.0005484588683
0.0005569591676
0.0005647358974
0.000570909847
0.0005745183784
0.0005364907443
0.0005409469716
0.0005472671538
0.0005549522348
0.0005634032364
0.0005719214836
0.0005797143188
0.0005859008854
0.0005895167652
0.0005514171571
0.0005558823499
0.00056221505
0.0005699150455
0.0005783820744
0.0005869161047
0.0005947230859
0.0006009207246
0.0006045430508
0.0005663804721
0.0005708535192
0.0005771971753
0.0005849102076
0.0005933912248
0.0006019390083
0.0006097582979
0.0006159655595
0.0006195934858
0.0005813763662
0.0005858562269
0.000592209376
0.0005999336862
0.0006084267816
0.0006169864164
0.0006248162922
0.0006310318183
0.0006346645511
0.0005964007781
0.0006008864786
0.0006072477515
0.0006149816932
0.0006234850783
0.0006320547835
0.0006398936325
0.0006461161504
0.000649752946
0.0006114498962
0.0006159405255
0.0006223086413
0.0006300506742
0.0006385626758
0.0006471407845
0.0006549870968
0.0006612154151
0.0006648555771
0.0006265201452
0.0006310148518
0.0006373886133
0.000645137297
0.0006536563502
0.0006622413034
0.0006700936666
0.0006763266703
0.0006799695469
0.0006416081745
0.0006461061629
0.000652484451
0.0006602384398
0.000668763082
0.0006773534224
0.0006852105157
0.0006914471621
0.0006950921439
0.0006567108457
0.0006612113729
0.0006675931429
0.0006753511796
0.0006838800444
0.0006924744103
0.0007003349996
0.0007065743144
0.0007102208312
0.0006718252215
0.0006763275941
0.0006827118706
0.0006904727815
0.0006990045933
0.0007076017131
0.0007154646457
0.0007217057183
0.0007253532377
0.0006869485543
0.0006914521255
0.0006978379983
0.0007056006884
0.0007141342565
0.0007227329432
0.0007305971427
0.0007368391231
0.0007404871476
0.0007020782755
0.0007065824419
0.0007129690623
0.00072073251
0.0007292667237
0.0007378658698
0.0007457303318
0.0007519724263
0.0007556204916
0.000717211985
0.0007217161843
0.0007281027611
0.0007358660138
0.0007443998371
0.0007529984094
0.0007608621969
0.0007671036649
0.0007707513375
0.0007323474416
0.0007368511495
0.000743236945
0.0007509991149
0.0007595315818
0.0007681286167
0.0007759908554
0.0007822310059
0.0007858778811
0.0007474825526
0.0007519852808
0.0007583696076
0.0007661298667
0.0007746600765
0.0007832546754
0.0007911145494
0.0007973527373
0.0008009984373
0.0007626153648
0.000767116658
0.0007734988753
0.0007812564517
0.0007897835644
0.0007983748884
0.0008062316363
0.000812467259
0.0008161114308
0.0007777440548
0.0007822434887
0.0007886229987
0.0007963771722
0.0008049004033
0.000813487669
0.0008213405789
0.0008275730729
0.000831215386
0.0007928669198
0.000797364098
0.0008037403425
0.0008114904402
0.0008200090562
0.0008285915304
0.0008364399353
0.0008426687721
0.0008463089164
0.0008079823673
0.0008124769192
0.0008188493759
0.0008265947672
0.0008351080803
0.0008436850742
0.0008515283469
0.0008577530288
0.0008613907118
0.0008230889052
0.0008275804829
0.0008339486609
0.0008416887527
0.0008501961146
0.0008587669781
0.0008666045249
0.0008728245797
0.0008764595236
0.00083818513
0.0008426734052
0.0008490368405
0.0008567710709
0.0008652718661
0.0008738359797
0.0008816672334
0.0008878822085
0.0008915141463
0.0008532697138
0.0008577543738
0.0008641126238
0.0008718404551
0.0008803340918
0.0008888908575
0.0008967152684
0.0009029247236
0.0009065533945
0.0008683413885
0.0008728221316
0.0008791747673
0.0008868956764
0.0008953815765
0.0009039304073
0.0009117474319
0.0009179509294
0.0009215760728
0.0008833989252
0.0008878754545
0.0008942220526
0.0009019355203
0.0009104131063
0.0009189534106
0.0009267624971
0.0009329595887
0.0009365809362
0.0008984411109
0.000902913127
0.0009092532583
0.0009169587547
0.0009254274315
0.0009339585942
0.0009417591633
0.0009479493742
0.0009515666393
0.0009134667176
0.0009179339087
0.0009242671234
0.0009319640883
0.0009404232209
0.0009489445783
0.0009567359977
0.0009629188049
0.0009665316701
0.0009284744625
0.0009329364915
0.0009392623
0.0009469501181
0.0009553990013
0.0009639098081
0.0009716913608
0.0009778661656
0.0009814742644
0.0009434629573
0.0009479194451
0.000954237293
0.0009619152612
0.0009703530814
0.0009788524691
0.000986623311
0.000992789403
0.0009963922983
0.0009584306432
0.0009628811473
0.0009691903834
0.0009768576694
0.0009852834551
0.0009937703777
0.001001529485
0.001007685997
0.001011283153
0.0009733757097
0.0009778196965
0.0009841195319
0.0009917751214
0.001000187681
0.001008660847
0.001016406949
0.0010225528
0.001026143547
0.0009882959919
0.0009927328025
0.0009990222594
0.00100666489
0.001015062733
0.001023520523
0.001031252019
0.001037385846
0.001040969339
0.001003188845
0.001007617653
0.001013895501
0.001021523581
0.001029904825
0.001038345186
0.001046060047
0.00105218012
0.001055755284
0.001018050994
0.00102247075
0.001028735431
0.00103634694
0.001044709195
0.001053129521
0.00106082517
0.00106692929
0.001070494766
0.001032878349
0.001037287725
0.001043537257
0.001051129631
0.001059469862
0.001067866848
0.001075540021
0.001081625412
0.001085179481
0.0010476658
0.001052063109
0.001058294986
0.001065864976
0.001074179349
0.001082548827
0.001090195418
0.001096258591
0.001099799099
0.001062406966
0.001066790084
0.001073001147
0.001080544676
0.001088828381
0.001097165134
0.001104780015
0.001110816631
0.001114340907
0.001077093927
0.001081460197
0.001087646504
0.001095158489
0.001103405551
0.001111703118
0.001119279958
0.001125284673
0.001128789437
0.001091716932
0.001096063061
0.001102219738
0.001109693914
0.001117896989
0.001126147454
0.001133678527
0.00113964484
0.001143126115
0.001106264083
0.00111058604
0.00111670713
0.001124135859
0.001132286027
0.001140479815
0.001147955809
0.001153875915
0.001157328942
0.001120721025
0.00112501393
0.001131092239
0.001138466332
0.001146552899
0.001154678578
0.001162088423
0.001167953083
0.001171372248
0.001135070637
0.001139328658
0.001145355619
0.001152664163
0.001160674485
0.001168718596
0.001176049322
0.001181847757
0.001185226537
0.001149292758
0.001153509027
0.001159474569
0.001166704793
0.001174624138
0.001182571077
0.001189807716
0.001195527548
0.001198858481
0.001163363969
0.001167530508
0.001173422976
0.001180560155
0.001188371618
0.001196203575
0.00120332914
0.001208956389
0.001212231087
0.001177257446
0.001181365135
0.001187171246
0.001194198676
0.001201883179
0.00120958017
0.001216575706
0.001222094864
0.001225304067
0.001190942932
0.001194981512
0.001200686381
0.00120758543
0.001215121817
0.001222661818
0.001229506575
0.001234900765
0.001238034446
0.001204386841
0.001208344972
0.001213932212
0.001220682478
0.001228047728
0.001235406939
0.001242078649
0.001247329887
0.001250377427
0.001217552526
0.00122141791
0.001226869823
0.0012334494
0.001240618969
0.001247772215
0.001254247514
0.001259337072
0.001262287483
0.001230400734
0.0012341603
0.001239458171