/*--------------------------------*- C++ -*----------------------------------*\
| =========                 |                                                 |
| \\      /  F ield         | OpenFOAM: The Open Source CFD Toolbox           |
|  \\    /   O peration     | Version:  2212                                  |
|   \\  /    A nd           | Website:  www.openfoam.com                      |
|    \\/     M anipulation  |                                                 |
\*---------------------------------------------------------------------------*/
FoamFile
{
    version     2.0;
    format      ascii;
    arch        "LSB;label=32;scalar=64";
    class       volScalarField;
    location    "20.00000000";
    object      A2CH3-2;
}
// * * * * * * * * * * * * * * * * * * * * * * * * * * * * * * * * * * * * * //

dimensions      [0 0 0 0 0 0 0];

internalField   nonuniform List<scalar> 
3000
(
9.404010586e-31
1.166220106e-30
1.527142219e-30
2.04453599e-30
2.740293646e-30
3.622238271e-30
4.656183331e-30
5.718701927e-30
6.528602039e-30
3.962815666e-30
4.950452214e-30
6.528728422e-30
8.795495854e-30
1.186835815e-29
1.586500939e-29
2.086012182e-29
2.676821697e-29
3.256481523e-29
1.021173732e-29
1.291806203e-29
1.728815727e-29
2.36857028e-29
3.263177706e-29
4.480829013e-29
6.091851726e-29
8.105399808e-29
1.008219737e-28
2.23132863e-29
2.868662286e-29
3.917869546e-29
5.500204571e-29
7.800045008e-29
1.106788164e-28
1.556365234e-28
2.126814508e-28
2.665123942e-28
4.538004646e-29
5.950804234e-29
8.333323167e-29
1.204222619e-28
1.762549115e-28
2.581914393e-28
3.72964578e-28
5.166810634e-28
6.456484558e-28
8.939297187e-29
1.198018789e-28
1.723735761e-28
2.566523982e-28
3.872364389e-28
5.829889269e-28
8.585684622e-28
1.196340531e-27
1.485549036e-27
1.74355976e-28
2.389305455e-28
3.531512735e-28
5.408994645e-28
8.382680865e-28
1.289896103e-27
1.924835784e-27
2.686007801e-27
3.298358126e-27
3.403757043e-28
4.764428514e-28
7.218972011e-28
1.133546441e-27
1.796131173e-27
2.810739637e-27
4.235845905e-27
5.938012451e-27
7.365729988e-27
6.685350626e-28
9.538827187e-28
1.476864222e-27
2.367262587e-27
3.81552814e-27
6.039765056e-27
9.145327099e-27
1.279746989e-26
1.575975669e-26
1.323244099e-27
1.919604142e-27
3.026388614e-27
4.931921274e-27
8.052879721e-27
1.285019641e-26
1.951289553e-26
2.727048496e-26
3.34898054e-26
2.639167358e-27
3.882452128e-27
6.212594036e-27
1.025793097e-26
1.691482599e-26
2.714784236e-26
4.129945296e-26
5.766120629e-26
7.068095697e-26
5.298922077e-27
7.885756181e-27
1.277122367e-26
2.130612803e-26
3.539708823e-26
5.705144086e-26
8.689642797e-26
1.212214075e-25
1.483850515e-25
1.069735917e-26
1.607064945e-26
2.627952691e-26
4.419920288e-26
7.38529811e-26
1.194038464e-25
1.82013585e-25
2.53732392e-25
3.102521324e-25
2.168821114e-26
3.28331261e-26
5.410753186e-26
9.158647018e-26
1.537115914e-25
2.490979028e-25
3.799215305e-25
5.293094986e-25
6.466572574e-25
4.411586716e-26
6.720246407e-26
1.114365008e-25
1.895830938e-25
3.192805231e-25
5.18331761e-25
7.908567279e-25
1.101284996e-24
1.34451126e-24
8.995882726e-26
1.37729767e-25
2.295311865e-25
3.92072942e-25
6.620941644e-25
1.076348933e-24
1.642712765e-24
2.286568e-24
2.7900019e-24
1.837832809e-25
2.825380399e-25
4.727684296e-25
8.101805445e-25
1.371115377e-24
2.23139491e-24
3.406202004e-24
4.739593782e-24
5.780429036e-24
3.759958379e-25
5.79984046e-25
9.736844652e-25
1.672980192e-24
2.836201094e-24
4.619667557e-24
7.052862092e-24
9.810829463e-24
1.196074034e-23
7.700637852e-25
1.191138351e-24
2.005096539e-24
3.452508083e-24
5.86123553e-24
9.553370708e-24
1.458649571e-23
2.028503695e-23
2.472207469e-23
1.578429366e-24
2.447119261e-24
4.128490168e-24
7.121108546e-24
1.210299711e-23
1.973739914e-23
3.013722114e-23
4.190048535e-23
5.105033065e-23
3.237364924e-24
5.028623194e-24
8.499254633e-24
1.46810246e-23
2.497444258e-23
4.074429631e-23
6.221241305e-23
8.647353326e-23
1.053270311e-22
6.642868148e-24
1.03349015e-23
1.749435522e-23
3.025374784e-23
5.150276938e-23
8.40475258e-23
1.283237256e-22
1.783178634e-22
2.171339275e-22
1.363498616e-23
2.124178133e-23
3.600239966e-23
6.231940526e-23
1.061486903e-22
1.732540572e-22
2.644885054e-22
3.674165018e-22
4.472581624e-22
2.799168911e-23
4.36581272e-23
7.407363086e-23
1.283171075e-22
2.186497464e-22
3.568953773e-22
5.447135811e-22
7.56407956e-22
9.20457449e-22
5.746653963e-23
8.971872062e-23
1.523577973e-22
2.640850292e-22
4.501097435e-22
7.346461495e-22
1.120884137e-21
1.555763007e-21
1.892385244e-21
1.179606107e-22
1.843241246e-22
3.132438561e-22
5.431942099e-22
9.25931884e-22
1.510946678e-21
2.30424489e-21
3.196319816e-21
3.885907716e-21
2.420534353e-22
3.785212622e-22
6.436563586e-22
1.116499805e-21
1.903122264e-21
3.104408941e-21
4.731344337e-21
6.558045157e-21
7.967789356e-21
4.964102844e-22
7.768189192e-22
1.321593982e-21
2.292841551e-21
3.907461918e-21
6.370404983e-21
9.700856602e-21
1.343321854e-20
1.630782408e-20
1.017208249e-21
1.592797943e-21
2.710858413e-21
4.703171762e-21
8.012071077e-21
1.305216259e-20
1.985435911e-20
2.745979595e-20
3.33028209e-20
2.082017104e-21
3.26198358e-21
5.553272353e-21
9.633239667e-21
1.640095823e-20
2.669076806e-20
4.054500539e-20
5.599127373e-20
6.782214532e-20
4.255106225e-21
6.67005488e-21
1.135709941e-20
1.969488245e-20
3.350342493e-20
5.445093568e-20
8.257245563e-20
1.138173675e-19
1.376612914e-19
8.679941965e-21
1.361222027e-20
2.317826211e-20
4.017364936e-20
6.826462834e-20
1.107606718e-19
1.676088758e-19
2.305094985e-19
2.783014544e-19
1.766511572e-20
2.771319376e-20
4.718296115e-20
8.171796086e-20
1.386601007e-19
2.245135221e-19
3.388762209e-19
4.647941694e-19
5.599780372e-19
3.585173496e-20
5.625904927e-20
9.575394766e-20
1.656688971e-19
2.806045192e-19
4.532018965e-19
6.819648917e-19
9.324016807e-19
1.120598778e-18
7.252550467e-20
1.138215979e-19
1.936226474e-19
3.345433066e-19
5.653843055e-19
9.103949936e-19
1.365017482e-18
1.859445656e-18
2.228526743e-18
1.461666101e-19
2.293796124e-19
3.898827627e-19
6.724804853e-19
1.133454906e-18
1.818621428e-18
2.715446226e-18
3.68356778e-18
4.400920012e-18
2.933423197e-19
4.602064129e-19
7.813330159e-19
1.344760397e-18
2.259311179e-18
3.610040791e-18
5.364707273e-18
7.243289278e-18
8.624075951e-18
5.859631724e-19
9.187390544e-19
1.55743508e-18
2.673441997e-18
4.474677445e-18
7.11589814e-18
1.051821787e-17
1.412811872e-17
1.675861846e-17
1.164521156e-18
1.824134071e-18
3.086102934e-18
5.280658083e-18
8.799846449e-18
1.391883406e-17
2.045239873e-17
2.731783659e-17
3.227535246e-17
2.301627054e-18
3.60034524e-18
6.075836767e-18
1.035720708e-17
1.717313305e-17
2.700013431e-17
3.941865545e-17
5.233541032e-17
6.15753606e-17
4.522534517e-18
7.061071068e-18
1.187912283e-17
2.016054064e-17
3.323883768e-17
5.191446811e-17
7.526744927e-17
9.930124808e-17
1.163303296e-16
8.83199594e-18
1.375542326e-17
2.305450849e-17
3.892795718e-17
6.377622519e-17
9.889666149e-17
1.423316174e-16
1.865513381e-16
2.175850766e-16
1.713795942e-17
2.660823116e-17
4.43974536e-17
7.453292793e-17
1.212614208e-16
1.865965016e-16
2.664876438e-16
3.469405849e-16
4.028733927e-16
3.303680212e-17
5.109558764e-17
8.481210186e-17
1.414571099e-16
2.2840965e-16
3.486269751e-16
4.939457837e-16
6.387127787e-16
7.384396091e-16
6.325742036e-17
9.738406559e-17
1.606767128e-16
2.660677177e-16
4.261435863e-16
6.449267033e-16
9.06365602e-16
1.164069946e-15
1.340039846e-15
1.202966852e-16
1.841898381e-16
3.018370834e-16
4.958951145e-16
7.874327777e-16
1.181286407e-15
1.646612323e-15
2.100622038e-15
2.408053381e-15
2.271924722e-16
3.456813078e-16
5.621821038e-16
9.157886533e-16
1.441106463e-15
2.142607968e-15
2.962279463e-15
3.754233556e-15
4.286302157e-15
4.261023059e-16
6.437230964e-16
1.038140721e-15
1.675800498e-15
2.61247461e-15
3.84909418e-15
5.278674924e-15
6.647191362e-15
7.55991158e-15
7.936051769e-16
1.189419755e-15
1.900764124e-15
3.03891336e-15
4.692073584e-15
6.850476596e-15
9.320372957e-15
1.166434838e-14
1.32171121e-14
1.467790616e-15
2.180728361e-15
3.450934531e-15
5.462110296e-15
8.351168508e-15
1.208296841e-14
1.631238067e-14
2.029393877e-14
2.291524452e-14
2.695861361e-15
3.967639255e-15
6.213678106e-15
9.733115429e-15
1.473453971e-14
2.112910041e-14
2.831117093e-14
3.502226316e-14
3.941582023e-14
4.917188212e-15
7.164347225e-15
1.109820184e-14
1.719957505e-14
2.578036243e-14
3.664550239e-14
4.874659298e-14
5.997741203e-14
6.729271667e-14
8.907250335e-15
1.284107505e-14
1.96678434e-14
3.015102225e-14
4.47482031e-14
6.306366782e-14
8.330478349e-14
1.019744089e-13
1.140800728e-13
1.602557949e-14
2.285035394e-14
3.45931692e-14
5.245239778e-14
7.708684299e-14
1.077327107e-13
1.4136014e-13
1.722048689e-13
1.921257989e-13
2.864048373e-14
4.037982627e-14
6.041002427e-14
9.058988934e-14
1.31845231e-13
1.827688977e-13
2.382895403e-13
2.889638801e-13
3.215766276e-13
5.084680048e-14
7.086952378e-14
1.047567197e-13
1.553670796e-13
2.239778891e-13
3.080628987e-13
3.992067299e-13
4.820268056e-13
5.351627094e-13
8.966283575e-14
1.235385676e-13
1.804316033e-13
2.647039618e-13
3.780758734e-13
5.161086455e-13
6.649438039e-13
7.996526091e-13
8.858453421e-13
1.570460391e-13
2.139229485e-13
3.087599345e-13
4.48165403e-13
6.343871259e-13
8.597626015e-13
1.10162467e-12
1.319762404e-12
1.459007927e-12
2.732365997e-13
3.680499213e-13
5.250877054e-13
7.542972822e-13
1.058500881e-12
1.424663082e-12
1.815935046e-12
2.167729417e-12
2.391836393e-12
4.722812192e-13
6.29279078e-13
8.877090565e-13
1.26245863e-12
1.756873592e-12
2.349049986e-12
2.979412502e-12
3.544618656e-12
3.904050745e-12
8.111099742e-13
1.069461402e-12
1.49231508e-12
2.101839012e-12
2.901643384e-12
3.855306946e-12
4.866985567e-12
5.771905099e-12
6.346521969e-12
1.384376716e-12
1.807061625e-12
2.495290254e-12
3.481924134e-12
4.770174884e-12
6.300027474e-12
7.917972263e-12
9.36212327e-12
1.027801198e-11
2.348607245e-12
3.036466079e-12
4.151138842e-12
5.741148461e-12
7.807904015e-12
1.025328448e-11
1.283240258e-11
1.513024014e-11
1.658604593e-11
3.961314889e-12
5.075190308e-12
6.872402832e-12
9.42435666e-12
1.272794249e-11
1.662383099e-11
2.072277716e-11
2.436884887e-11
2.667690031e-11
6.644083708e-12
8.439623358e-12
1.132526196e-11
1.540576405e-11
2.066852217e-11
2.685636572e-11
3.335262865e-11
3.912316508e-11
4.27736053e-11
1.108386906e-11
1.396609107e-11
1.858154543e-11
2.508354958e-11
3.344118756e-11
4.324156934e-11
5.351066358e-11
6.262172363e-11
6.838235953e-11
1.839496683e-11
2.300359382e-11
3.035959039e-11
4.068683402e-11
5.392091445e-11
6.940208469e-11
8.559607338e-11
9.994931711e-11
1.090208228e-10
3.037682476e-11
3.771938298e-11
4.940443534e-11
6.575828457e-11
8.665737454e-11
1.110520362e-10
1.365316303e-10
1.590955746e-10
1.733522956e-10
4.992243613e-11
6.158125892e-11
8.008545682e-11
1.059099015e-10
1.38829249e-10
1.771799865e-10
2.171834468e-10
2.525836344e-10
2.749464067e-10
8.166185088e-11
1.001149834e-10
1.293313891e-10
1.700013522e-10
2.217277726e-10
2.818838419e-10
3.445597375e-10
3.999899277e-10
4.350017727e-10
1.329701778e-10
1.620869797e-10
2.080852021e-10
2.719673972e-10
3.53051174e-10
4.472027324e-10
5.451991997e-10
6.318235738e-10
6.865356956e-10
2.155359192e-10
2.613389735e-10
3.335532921e-10
4.336340263e-10
5.604310637e-10
7.074604789e-10
8.603604535e-10
9.954622389e-10
1.080791657e-09
3.477821939e-10
4.1961206e-10
5.326560901e-10
6.890251811e-10
8.868109354e-10
1.11587655e-09
1.35390879e-09
1.564164394e-09
1.696962498e-09
5.585711211e-10
6.708547313e-10
8.472740102e-10
1.090888979e-09
1.398573797e-09
1.754534053e-09
2.124188484e-09
2.450621043e-09
2.656802284e-09
8.928128531e-10
1.06772608e-09
1.342138363e-09
1.720480448e-09
2.197688461e-09
2.749239696e-09
3.321688673e-09
3.827094392e-09
4.14632442e-09
1.419858484e-09
1.691295197e-09
2.116555339e-09
2.70204087e-09
3.439625661e-09
4.291380007e-09
5.174968473e-09
5.954924482e-09
6.447563734e-09
2.245892181e-09
2.665311734e-09
3.321581942e-09
4.223918905e-09
5.359388669e-09
6.669568163e-09
8.028091961e-09
9.227049363e-09
9.984292702e-09
3.531959606e-09
4.176885784e-09
5.184796861e-09
6.568880102e-09
8.308693282e-09
1.031465865e-08
1.239369318e-08
1.422812289e-08
1.538656e-08
5.51977743e-09
6.50596342e-09
8.045414862e-09
1.015682591e-08
1.280807969e-08
1.586252314e-08
1.902666279e-08
2.181772212e-08
2.357984438e-08
8.568052619e-09
1.006660096e-08
1.240315288e-08
1.560384743e-08
1.961847893e-08
2.423973904e-08
2.902420086e-08
3.324286641e-08
3.590532371e-08
1.32026791e-08
1.546369669e-08
1.898492653e-08
2.380221098e-08
2.983740287e-08
3.677792712e-08
4.395847036e-08
5.028645182e-08
5.427806165e-08
2.018484106e-08
2.356949133e-08
2.883408058e-08
3.602643532e-08
4.502538002e-08
5.5362764e-08
6.604816851e-08
7.545807983e-08
8.138964889e-08
3.060169141e-08
3.562474294e-08
4.342736562e-08
5.40709876e-08
6.736841441e-08
8.262356989e-08
9.837488653e-08
1.122330069e-07
1.209608757e-07
4.598482938e-08
5.336994493e-08
6.482517817e-08
8.042518975e-08
9.988198472e-08
1.221687186e-07
1.451490627e-07
1.65343519e-07
1.780483672e-07
6.846218318e-08
7.921218435e-08
9.586055885e-08
1.184905483e-07
1.466612689e-07
1.788707886e-07
2.120285708e-07
2.411250438e-07
2.594073057e-07
1.009489809e-07
1.164330837e-07
1.403719204e-07
1.728446832e-07
2.131806039e-07
2.592030187e-07
3.064901246e-07
3.479164793e-07
3.739099193e-07
1.473830981e-07
1.694425598e-07
2.034832746e-07
2.495541422e-07
3.066423839e-07
3.716245939e-07
4.38248043e-07
4.965077789e-07
5.33018359e-07
2.130090198e-07
2.440817138e-07
2.919337637e-07
3.565357246e-07
4.363720865e-07
5.270074586e-07
6.19706564e-07
7.006051208e-07
7.512310036e-07
3.047127875e-07
3.479759424e-07
4.144556268e-07
5.03962926e-07
6.14253383e-07
7.390973963e-07
8.664444796e-07
9.773418364e-07
1.046601127e-06
4.314075032e-07
4.909362242e-07
5.821961156e-07
7.047096968e-07
8.551910337e-07
1.024990268e-06
1.19769353e-06
1.347709113e-06
1.44118652e-06
6.0446532e-07
6.854027436e-07
8.091751474e-07
9.748209032e-07
1.177589569e-06
1.405611545e-06
1.63681229e-06
1.837031304e-06
1.961489851e-06
8.381875807e-07
9.469205761e-07
1.1127655e-06
1.333992522e-06
1.603828269e-06
1.906182088e-06
2.211655207e-06
2.475328012e-06
2.638811672e-06
1.150300614e-06
1.294633195e-06
1.51417877e-06
1.806042107e-06
2.160699834e-06
2.55656151e-06
2.954936019e-06
3.297613131e-06
3.509517029e-06
1.562460904e-06
1.751777736e-06
2.038943177e-06
2.41935611e-06
2.879814633e-06
3.391569003e-06
3.904467183e-06
4.344081102e-06
4.615187055e-06
2.100755893e-06
2.346166749e-06
2.717353962e-06
3.207303598e-06
3.797802315e-06
4.451188538e-06
5.10328645e-06
5.660168381e-06
6.002641131e-06
2.79617789e-06
3.110632497e-06
3.584859244e-06
4.208361245e-06
4.956527724e-06
5.780657337e-06
6.599655816e-06
7.296480467e-06
7.723821849e-06
3.685054858e-06
4.08335873e-06
4.682155775e-06
5.466331882e-06
6.403149494e-06
7.430422086e-06
8.446923548e-06
9.308580079e-06
9.835540953e-06
4.80916239e-06
5.307899705e-06
6.055357885e-06
7.030367304e-06
8.190040823e-06
9.455955338e-06
1.070324701e-05
1.175663851e-05
1.239909067e-05
6.215799481e-06
6.833332316e-06
7.755992633e-06
8.954855582e-06
1.037456931e-05
1.191743243e-05
1.343118096e-05
1.470495832e-05
1.547973057e-05
7.957839036e-06
8.714183239e-06
9.840839777e-06
1.129916213e-05
1.301873551e-05
1.487927473e-05
1.669714165e-05
1.822138086e-05
1.914606493e-05
1.009355559e-05
1.101019788e-05
1.237161956e-05
1.412722562e-05
1.618867669e-05
1.84095707e-05
2.057076184e-05
2.237659588e-05
2.346932916e-05
1.268628979e-05
1.378595103e-05
1.541453123e-05
1.750701664e-05
1.995404813e-05
2.257939072e-05
2.512415543e-05
2.72433739e-05
2.852260642e-05
1.58039536e-05
1.711030613e-05
1.903965237e-05
2.150987304e-05
2.438729931e-05
2.746201592e-05
3.043111359e-05
3.289574338e-05
3.43799968e-05
1.951838794e-05
2.105573714e-05
2.332021575e-05
2.620973101e-05
2.956286637e-05
3.313210342e-05
3.656625509e-05
3.940813593e-05
4.111576209e-05
2.390459108e-05
2.569753276e-05
2.833178502e-05
3.16822751e-05
3.555630458e-05
3.966481202e-05
4.360415467e-05
4.685452224e-05
4.88034682e-05
2.903984186e-05
3.111290795e-05
3.41513549e-05
3.800403274e-05
4.24433862e-05
4.713491271e-05
5.161847235e-05
5.53075606e-05
5.751514645e-05
3.500274599e-05
3.738005079e-05
4.085640351e-05
4.525144004e-05
5.029918908e-05
5.561590748e-05
6.06811053e-05
6.483777807e-05
6.732049258e-05
4.187223577e-05
4.45771344e-05
4.852392536e-05
5.349990573e-05
5.919720044e-05
6.517917845e-05
7.086138199e-05
7.551280181e-05
7.82861202e-05
4.972655458e-05
5.2781324e-05
5.722947296e-05
6.282289859e-05
6.920845847e-05
7.589318699e-05
8.222531539e-05
8.739665577e-05
9.047488261e-05
5.864225635e-05
6.206780745e-05
6.704623319e-05
7.329108143e-05
8.040075141e-05
8.782273937e-05
9.483492949e-05
0.0001005491346
0.0001039452737
6.869324795e-05
7.250887549e-05
7.804416164e-05
8.497151178e-05
9.283789112e-05
0.0001010283326
0.0001087476698
0.000115025264
0.0001187509164
7.994989892e-05
8.417307383e-05
9.028919459e-05
9.792692563e-05
0.0001065790739
0.0001155655909
0.0001240159057
0.0001308748527
0.0001349401424
9.247823905e-05
9.712444577e-05
0.0001038425542
0.0001122151167
0.0001216783383
0.0001314847983
0.0001406865286
0.0001481421405
0.0001525556677
0.0001063392593
0.0001114218787
0.0001187601582
0.0001278884201
0.0001381841256
0.000148830533
0.000158800649
0.0001668655406
0.0001716343605
0.0001215883268
0.0001271185643
0.0001350921411
0.0001449933041
0.0001561389456
0.0001676414013
0.0001783933885
0.0001870774763
0.0001922071016
0.0001382747209
0.0001442615762
0.0001528824903
0.0001635700728
0.0001755791464
0.0001879498713
0.0001994937671
0.0002088043062
0.0002142987311
0.0001564412906
0.0001628915673
0.0001721687953
0.0001836526755
0.0001965347853
0.0002097821996
0.0002221246767
0.0002320663324
0.0002379280755
0.0001761242332
0.0001830425827
0.0001929821079
0.0002052686195
0.000219029595
0.0002331584463
0.0002463029366
0.0002568778854
0.0002631080483
0.0001973529868
0.0002047419825
0.0002153469049
0.0002284389785
0.0002430810363
0.0002580925691
0.0002720394212
0.000283247476
0.0002898458154
0.00022015023
0.0002280104665
0.0002392811469
0.0002531784877
0.0002687004311
0.0002845925883
0.0002993392518
0.0003111780066
0.0003181430168
0.0002445319788
0.000252862191
0.0002647964207
0.000279495716
0.0002958931621
0.0003126608129
0.0003282020433
0.0003406670316
0.0003479960347
0.0002705077676
0.0002793049657
0.0002918981563
0.0003073933046
0.0003246589329
0.0003422941175
0.0003586221951
0.0003717070596
0.0003793963014
0.0002980809043
0.0003073405187
0.000320585906
0.0003368682603
0.0003549920742
0.0003734842614
0.000390589219
0.0004042858859
0.0004123306352
0.0003272487856
0.0003369648185
0.0003508536742
0.0003679122938
0.0003868818898
0.0004062182387
0.0004240880933
0.0004383869501
0.0004467815985
0.00035800326
0.0003681684401
0.0003826902863
0.0004005121909
0.0004203130291
0.000440478652
0.0004590996357
0.0004739897075
0.0004827278693
0.0003903310274
0.0004009369639
0.0004160797871
0.0004346502088
0.0004552658796
0.0004762441005
0.0004956008873
0.0005110700099
0.0005201446202
0.0004242140644
0.0004352513976
0.0004510018571
0.0004703044859
0.0004917169702
0.0005134895753
0.0005335655006
0.0005496004879
0.000559003897
0.0004596300633
0.0004710886103
0.0004874322396
0.0005074494595
0.0005296393772
0.0005521868547
0.0005729641253
0.0005895509295
0.0005992749939
0.0004965528786
0.0005084217718
0.000525343169
0.0005460562818
0.0005690031279
0.0005923048955
0.0006137647879
0.0006308886506
0.0006409248182
0.0005349529707
0.0005472207877
0.0005647037954
0.0005860932307
0.0006097755959
0.0006338102126
0.0006559332587
0.0006735788525
0.0006839182433
0.0005747978417
0.0005874527263
0.0006054805975
0.0006275261071
0.0006519218825
0.0006766672456
0.0006994334045
0.0007175849642
0.0007282184446
0.0006160524571
0.0006290822301
0.0006476377812
0.0006703186178
0.0006954051824
0.0007208387078
0.0007442275234
0.0007628689662
0.0007737872179
0.0006586796489
0.0006720719091
0.0006911376586
0.0007144327379
0.0007401871294
0.000766285915
0.0007902766595
0.000809391695
0.0008205852773
0.0007026404977
0.0007163827125
0.0007359410059
0.0007598290525
0.0007862281202
0.000812969094
0.0008375408966
0.0008571131254
0.0008685725316
0.0007478946895
0.000761974276
0.0007820073968
0.0008064670744
0.0008334876157
0.0008608476668
0.0008859796291
0.0009059926312
0.0009177083396
0.0007944008477
0.0008088052437
0.0008292955119
0.0008543055373
0.0008819244187
0.0009098805131
0.0009355518111
0.0009559892241
0.0009679517428
0.0008421168376
0.0008568335641
0.0008777634211
0.0009033026647
0.0009314969264
0.0009600262089
0.0009862161818
0.00100706177
0.001019261676
0.0008910000446
0.0009060167589
0.0009273688416
0.0009534164136
0.0009821633604
0.001011243242
0.001037931469
0.001059169182
0.001071597158
0.0009410076249
0.0009563121666
0.0009780693701
0.001004604693
0.001033881973
0.001063490205
0.001090656573
0.001112270598
0.001124917457
0.0009920967297
0.001007677159
0.001029822689
0.001056825562
0.001086611228
0.001116725967
0.001144350725
0.00116632553
0.001179182246
0.001044224704
0.001060069333
0.001082586751
0.001110037398
0.001140309967
0.001170909827
0.001198973631
0.001221293999
0.001234351725
0.001097349261
0.001113446679
0.001136319935
0.001164199048
0.001194937543
0.001226001636
0.001254485591
0.001277136652
0.001290386739
0.001151428631
0.001167767727
0.001190981191
0.001219269961
0.001250453942
0.001281961912
0.001310847601
0.001333814858
0.001347248868
0.001206421691
0.001222991668
0.001246530149
0.001275210295
0.001306819891
0.001338751943
0.001368021446
0.001391290789
0.001404900506
0.001262288092
0.001279078474
0.001302927231
0.001331981014
0.001363996937
0.001396333853
0.00142596977
0.001449527491
0.001463304932
0.001318988345
0.001335988986
0.001360133744
0.001389543976
0.001421947537
0.001454670689
0.001484656147
0.001508488947
0.001522426363
0.00137648389
0.001393684982
0.001418111931
0.001447861984
0.001480635098
0.001513726453
0.001544045114
0.001568140115
0.001582229999
0.001434737155
0.001452129223
0.001476825028
0.001506898839
0.001540024027
0.001573466155
0.00160410222
0.001628446963
0.001642682049
0.001493711608
0.001511285514
0.001536237307
0.001566619374
0.001600079764
0.001633855832
0.001664794042
0.001689376488
0.001703749754
0.001553371789
0.001571118727
0.001596314106
0.001626989486
0.001660768809
0.001694862581
0.001726088208
0.001750896736
0.001765401401
0.001613683339
0.001631594831
0.001657021855
0.001687976151
0.001722058731
0.001756454557
0.001787953404
0.001812976807
0.00182760633
0.001674613012
0.001692680902
0.001718328078
0.001749547437
0.00178391818
0.001818600988
0.001850359378
0.001875586855
0.001890334929
0.001736128684
0.001754345129
0.001780201407
0.001811672501
0.001846316886
0.00188127217
0.001913276933
0.001938698084
0.001953558636
0.001798199349
0.001816556814
0.001842611573
0.00187432159
0.001909225652
0.001944439458
0.001976677924
0.002002282738
0.00201724992
0.001860795117
0.001879286362
0.001905529398
0.001937466026
0.001972616342
0.002008075254
0.002040535238
0.002066314087
0.002081382273
0.001923887195
0.001942505271
0.001968926784
0.002001078197
0.00203646187
0.002072152995
0.002104822782
0.002130766407
0.002145930187
0.001987447877
0.002006186113
0.002032776694
0.002065131536
0.002100736177
0.002136647127
0.002169515462
0.002195614963
0.002210869137
0.00205145052
0.002070302512
0.002097053133
0.002129600499
0.002165414213
0.00220153309
0.002234589157
0.002260835984
0.002276175554
0.00211586952
0.002134829126
0.002161731118
0.002194460544
0.002230471909
0.002266787286
0.002300020698
0.002326406637
0.002341826801
0.002180680288
0.002199741612
0.00222678666
0.0022596881
0.002295886152
0.002332387058
0.002365787839
0.002392305001
0.002407801149
0.002245859221
0.002265016608
0.002292196731
0.002325260544
0.002361634759
0.00239831066
0.002431869233
0.002458510041
0.002474077743
0.002311383673
0.002330631696
0.002357939236
0.002391156171
0.002427696445
0.002464537229
0.002498244396
0.002525001576
0.002540636578
0.002377231922
0.002396565376
0.002423992984
0.00245735416
0.002494050796
0.002531046755
0.002564893686
0.002591760252
0.002607458471
0.002443383143
0.002462797031
0.002490337656
0.00252383455
0.002560678237
0.00259782005
0.002631798266
0.00265876751
0.002674525026
0.002509817372
0.0025293069
0.002556953772
0.002590578202
0.002627560004
0.002664838721
0.00269894008
0.002726005561
0.002741818608
0.002576515479
0.002596076043
0.002623822665
0.002657566775
0.002694678109
0.002732085136
0.002766301819
0.002793457352
0.002809322314
0.002643459129
0.00266308631
0.002690926442
0.002724782689
0.002762015314
0.002799542396
0.002833866893
0.002861106535
0.00287701994
0.002710630756
0.002730320312
0.00275824796
0.002792209099
0.002829555097
0.002867194305
0.002901619399
0.002928937443
0.002944895955
0.00277801353
0.002797761383
0.002825770792
0.00285982986
0.002897281624
0.002935025336
0.002969544095
0.002996935055
0.003012935469
0.002845591324
0.002865393557
0.002893479193
0.0029276295
0.002965179716
0.003003020608
0.003037626365
0.003065084969
0.003081124203
0.002913348684
0.00293320153
0.002961358073
0.002995593185
0.003033234822
0.003071165848
0.003105852193
0.003133373368
0.00314944846
0.002981270798
0.003001170634
0.003029392967
0.003063706693
0.003101432984
0.003139447364
0.003174208127
0.003201786992
0.003217895089
0.003049343461
0.0030692868
0.003097569997
0.003131956378
0.003169760806
0.003207852011
0.003242681248
0.003270313101
0.003286451457
0.00311755305
0.003137536532
0.003165875845
0.003200329138
0.003238205423
0.003276367156
0.003311259135
0.003338939439
0.003355105405
0.003185886481
0.003205906866
0.003234297716
0.003268812378
0.003306754456
0.003344980637
0.003379929821
0.003407654192
0.003423845204
0.003254331181
0.003274385338
0.003302823299
0.00333739397
0.003375395975
0.003413680719
0.003448681742
0.003476445933
0.003492659507
0.00332287504
0.003342959937
0.003371440721
0.003406062206
0.003444118447
0.003482456037
0.003517503686
0.003545303561
0.00356153728
0.00339150637
0.003411619059
0.003440138498
0.00347480574
0.00351291067
0.00355129553
0.003586384708
0.003614216223
0.003630467717
0.003460213842
0.00348035145
0.003508905467
0.003543613518
0.003581761701
0.003620188349
0.003655314042
0.003683173207
0.003699440137
0.003528986423
0.003549146121
0.003577730706
0.003612474683
0.003650660742
0.003689123749
0.00372428097
0.003752163808
0.003768443834
0.003597813277
0.00361799226
0.003646603424
0.003681378463
0.003719597023
0.003758090937
0.00379327466
0.003821177146
0.003837467893
0.003666683654
0.003686879104
0.003715512831
0.003750314014
0.003788559618
0.003827078876
0.003862283946
0.003890201929
0.003906500936
0.003735586744
0.003755795782
0.003784447958
0.003819270223
0.003857537223
0.00389607603
0.003931297041
0.00395922614
0.003975530799
0.003804511482
0.003824731109
0.003853397427
0.003888235447
0.003926517858
0.003965070031
0.004000301167
0.004028236639
0.004044544108
0.003873446299
0.003893673313
0.003922349154
0.003957197182
0.003995488496
0.004034047252
0.004069282087
0.004097218649
0.004113525743
0.003942378805
0.003962609696
0.003991289972
0.004026141632
0.004064434577
0.004102992275
0.004138223509
0.004166155115
0.004182458169
0.004011295383
0.004031526199
0.004060205154
0.004095053185
0.004133339416
0.004171887222
0.004207106348
0.00423502591
0.004251320605
0.004080180689
0.004100406868
0.004129077823
0.004163913755
0.004202183472
0.004240710939
0.00427590784
0.004303806881
0.00432008803
0.004149017029
0.004169233188
0.004197888234
0.004232701984
0.004270943463
0.004309438031
0.004344600482
0.004372468716
0.004388730009
0.00421778362
0.004237983297
0.004266612915
0.004301392307
0.004339591334
0.004378037718
0.004413150796
0.004440975638
0.00445720934
0.0042864557
0.004306631052
0.00433522366
0.004369953848
0.004408093054
0.004446472539
0.004481517937
0.004509283931
0.004525480534
0.004355003506
0.004375144952
0.004403686389
0.004438349185
0.004476407271
0.004514696897
0.004549652156
0.004577340331
0.004593488168
0.00442339108
0.004443486895
0.004471959823
0.00450653297
0.004544483866
0.004582655519
0.004617493151
0.004645080326
0.004661165153
0.004491574982
0.004511610842
0.004539994093
0.004574450433
0.004612262357
0.004650281821
0.004684968415
0.00471242644
0.004728430995
0.004559502885
0.004579461379
0.00460772925
0.004642035849
0.004679670337
0.00471749628
0.004751991567
0.004779286595
0.004795190156
0.004627112112
0.004646972234
0.004675093759
0.004709211023
0.004746621936
0.004784204919
0.00481846087
0.00484555264
0.004861330622
0.00469432817
0.004714064814
0.004742003049
0.004775883856
0.004813016452
0.004850298006
0.004884258012
0.004911099229
0.004926722834
0.00476106336
0.004780646843
0.004808358208
0.004841947132
0.004878737246
0.004915649101
0.004949247324
0.00497578319
0.00499121916
0.004827215557
0.004846611214
0.00487404494
0.004907277633
0.004943651061
0.00498011461
0.005013275584
0.00503944355
0.005054654064
0.004892667271
0.004911835161
0.004938932918
0.00497173572
0.005007607904
0.005043534005
0.005076172574
0.005101902402
0.005116845165
0.004957285127
0.004976179896
0.005002875657
0.005035165539
0.005070441633
0.005105730849
0.005137752552
0.005162966746
0.005177595308
0.005020919879
0.005039490835
0.005065711056
0.005097395968
0.005131971405
0.00516651477
0.005197816752
0.005222431432
0.005236695783
0.005083407105
0.005101598546
0.005127262732
0.00515824244
0.005192004065
0.005225684475
0.00525615698
0.005280083258
0.005293930718
0.005144568691
0.005162320536
0.005187342238
0.005217509727
0.005250337567
0.005283031832
0.005312560341
0.005335706202
0.005349082613
0.005204215196
0.005221463947
0.005245752242
0.005274995696
0.005306765401
0.00533834698
0.005366814969
0.005389087654
0.005401938869
0.005262149158
0.005278829195
0.005302290649
0.005330496034
0.00536108196
0.005391424336
0.005418716611
0.005440025438
0.005452299047
0.00531816931
0.005334214525
0.005356755614
0.0053838098
0.005413088662
0.005442069264
0.005468075747
0.005488335259
0.005499982488
0.00537207565
0.005387421361
0.005408951283
0.005434745609
0.005462600576
0.00549010507
0.005514724866
0.005533858134