/*--------------------------------*- C++ -*----------------------------------*\
| =========                 |                                                 |
| \\      /  F ield         | OpenFOAM: The Open Source CFD Toolbox           |
|  \\    /   O peration     | Version:  2212                                  |
|   \\  /    A nd           | Website:  www.openfoam.com                      |
|    \\/     M anipulation  |                                                 |
\*---------------------------------------------------------------------------*/
FoamFile
{
    version     2.0;
    format      ascii;
    arch        "LSB;label=32;scalar=64";
    class       volScalarField;
    location    "20.00000000";
    object      C2H2_0;
}
// * * * * * * * * * * * * * * * * * * * * * * * * * * * * * * * * * * * * * //

dimensions      [0 0 0 0 0 0 0];

internalField   nonuniform List<scalar> 
3000
(
0.3340065119
0.3340065119
0.3340065119
0.3340065119
0.3340065119
0.3340065119
0.3340065119
0.3340065119
0.3340065119
0.3340065119
0.3340065119
0.3340065119
0.3340065119
0.3340065119
0.3340065119
0.3340065119
0.3340065119
0.3340065119
0.3340065119
0.3340065119
0.3340065119
0.3340065119
0.3340065119
0.3340065119
0.3340065119
0.3340065119
0.3340065119
0.3340065119
0.3340065119
0.3340065119
0.3340065119
0.3340065119
0.3340065119
0.3340065119
0.3340065119
0.3340065119
0.3340065119
0.3340065119
0.3340065119
0.3340065119
0.3340065119
0.3340065119
0.3340065119
0.3340065119
0.3340065119
0.3340065119
0.3340065119
0.3340065119
0.3340065119
0.3340065119
0.3340065119
0.3340065119
0.3340065119
0.3340065119
0.3340065119
0.3340065119
0.3340065119
0.3340065119
0.3340065119
0.3340065119
0.3340065119
0.3340065119
0.3340065119
0.3340065119
0.3340065119
0.3340065119
0.3340065119
0.3340065119
0.3340065119
0.3340065119
0.3340065119
0.3340065119
0.3340065119
0.3340065119
0.3340065119
0.3340065119
0.3340065119
0.3340065119
0.3340065119
0.3340065119
0.3340065119
0.3340065119
0.3340065119
0.3340065119
0.3340065119
0.3340065119
0.3340065119
0.3340065119
0.3340065119
0.3340065119
0.3340065119
0.3340065119
0.3340065119
0.3340065119
0.3340065119
0.3340065119
0.3340065119
0.3340065119
0.3340065119
0.3340065119
0.3340065119
0.3340065119
0.3340065119
0.3340065119
0.3340065119
0.3340065119
0.3340065119
0.3340065119
0.3340065119
0.3340065119
0.3340065119
0.3340065119
0.3340065119
0.3340065119
0.3340065119
0.3340065119
0.3340065119
0.3340065119
0.3340065119
0.3340065119
0.3340065119
0.3340065119
0.3340065119
0.3340065119
0.3340065119
0.3340065119
0.3340065119
0.3340065119
0.3340065119
0.3340065119
0.3340065119
0.3340065119
0.3340065119
0.3340065119
0.3340065119
0.3340065119
0.3340065119
0.3340065119
0.3340065119
0.3340065119
0.3340065119
0.3340065119
0.3340065119
0.3340065119
0.3340065119
0.3340065119
0.3340065119
0.3340065119
0.3340065119
0.3340065119
0.3340065119
0.3340065119
0.3340065119
0.3340065119
0.3340065119
0.3340065119
0.3340065119
0.3340065119
0.3340065119
0.3340065119
0.3340065119
0.3340065119
0.3340065119
0.3340065119
0.3340065119
0.3340065119
0.3340065119
0.3340065119
0.3340065119
0.3340065119
0.3340065119
0.3340065119
0.3340065119
0.3340065119
0.3340065119
0.3340065119
0.3340065119
0.3340065119
0.3340065119
0.3340065119
0.3340065119
0.3340065119
0.3340065119
0.3340065119
0.3340065119
0.3340065119
0.3340065119
0.3340065119
0.3340065119
0.3340065119
0.3340065119
0.3340065119
0.3340065119
0.3340065119
0.3340065119
0.3340065119
0.3340065119
0.3340065119
0.3340065119
0.3340065119
0.3340065119
0.3340065119
0.3340065119
0.3340065119
0.3340065119
0.3340065119
0.3340065119
0.3340065119
0.3340065119
0.3340065119
0.3340065119
0.3340065119
0.3340065119
0.3340065119
0.3340065119
0.3340065119
0.3340065119
0.3340065119
0.3340065119
0.3340065119
0.3340065119
0.3340065119
0.3340065119
0.3340065119
0.3340065119
0.3340065119
0.3340065119
0.3340065119
0.3340065119
0.3340065119
0.3340065119
0.3340065119
0.3340065119
0.3340065119
0.3340065119
0.3340065119
0.3340065119
0.3340065119
0.3340065119
0.3340065119
0.3340065119
0.3340065119
0.3340065119
0.3340065119
0.3340065119
0.3340065119
0.3340065119
0.3340065119
0.3340065119
0.3340065119
0.3340065119
0.3340065119
0.3340065119
0.3340065119
0.3340065119
0.3340065119
0.3340065119
0.3340065119
0.3340065119
0.3340065119
0.3340065119
0.3340065119
0.3340065119
0.3340065119
0.3340065119
0.3340065119
0.3340065119
0.3340065119
0.3340065119
0.3340065119
0.3340065119
0.3340065119
0.3340065119
0.3340065119
0.3340065119
0.3340065119
0.3340065119
0.3340065119
0.3340065119
0.3340065119
0.3340065119
0.3340065119
0.3340065119
0.3340065119
0.3340065119
0.3340065119
0.3340065119
0.3340065119
0.3340065119
0.3340065119
0.3340065119
0.3340065119
0.3340065119
0.3340065119
0.3340065119
0.3340065119
0.3340065119
0.3340065119
0.3340065119
0.3340065119
0.3340065119
0.3340065119
0.3340065119
0.3340065119
0.3340065119
0.3340065119
0.3340065119
0.3340065119
0.3340065119
0.3340065119
0.3340065119
0.3340065119
0.3340065119
0.3340065119
0.3340065119
0.3340065119
0.3340065119
0.3340065119
0.3340065119
0.3340065119
0.3340065119
0.3340065119
0.3340065119
0.3340065119
0.3340065119
0.3340065119
0.3340065119
0.3340065119
0.3340065119
0.3340065119
0.3340065119
0.3340065119
0.3340065119
0.3340065119
0.3340065119
0.3340065119
0.3340065119
0.3340065119
0.3340065119
0.3340065119
0.3340065119
0.3340065119
0.3340065119
0.3340065119
0.3340065119
0.3340065119
0.3340065119
0.3340065119
0.3340065118
0.3340065118
0.3340065118
0.3340065119
0.3340065119
0.3340065119
0.3340065119
0.3340065119
0.3340065118
0.3340065118
0.3340065118
0.3340065118
0.3340065119
0.3340065119
0.3340065119
0.3340065118
0.3340065118
0.3340065118
0.3340065118
0.3340065118
0.3340065118
0.3340065119
0.3340065119
0.3340065118
0.3340065118
0.3340065118
0.3340065118
0.3340065118
0.3340065118
0.3340065118
0.3340065119
0.3340065118
0.3340065118
0.3340065118
0.3340065118
0.3340065118
0.3340065117
0.3340065117
0.3340065117
0.3340065118
0.3340065118
0.3340065118
0.3340065118
0.3340065117
0.3340065117
0.3340065116
0.3340065115
0.3340065115
0.3340065118
0.3340065118
0.3340065118
0.3340065117
0.3340065116
0.3340065115
0.3340065114
0.3340065113
0.3340065112
0.3340065118
0.3340065118
0.3340065117
0.3340065116
0.3340065115
0.3340065113
0.334006511
0.3340065108
0.3340065107
0.3340065117
0.3340065117
0.3340065116
0.3340065114
0.3340065111
0.3340065108
0.3340065104
0.33400651
0.3340065097
0.3340065116
0.3340065115
0.3340065113
0.334006511
0.3340065106
0.33400651
0.3340065092
0.3340065086
0.3340065081
0.3340065115
0.3340065113
0.3340065109
0.3340065104
0.3340065095
0.3340065085
0.3340065073
0.3340065061
0.3340065053
0.3340065111
0.3340065108
0.3340065102
0.3340065092
0.3340065077
0.3340065059
0.3340065038
0.3340065018
0.3340065005
0.3340065105
0.3340065099
0.3340065088
0.3340065071
0.3340065046
0.3340065015
0.3340064979
0.3340064946
0.3340064924
0.3340065095
0.3340065084
0.3340065064
0.3340065035
0.3340064993
0.3340064939
0.3340064879
0.3340064823
0.3340064787
0.3340065076
0.3340065056
0.3340065023
0.3340064972
0.3340064901
0.3340064811
0.3340064712
0.3340064618
0.3340064557
0.3340065042
0.3340065009
0.3340064953
0.3340064867
0.3340064748
0.3340064598
0.3340064433
0.3340064279
0.3340064178
0.3340064984
0.3340064928
0.3340064833
0.334006469
0.3340064492
0.3340064247
0.3340063975
0.3340063723
0.3340063557
0.3340064884
0.3340064791
0.3340064633
0.3340064397
0.3340064074
0.3340063674
0.3340063233
0.3340062823
0.3340062551
0.3340064714
0.3340064561
0.3340064302
0.3340063918
0.3340063396
0.3340062752
0.3340062044
0.3340061385
0.3340060946
0.3340064431
0.3340064182
0.3340063764
0.3340063147
0.3340062315
0.3340061292
0.3340060168
0.334005912
0.334005842
0.3340063967
0.3340063567
0.3340062902
0.3340061925
0.3340060615
0.3340059011
0.3340057251
0.3340055609
0.334005451
0.3340063216
0.3340062583
0.334006154
0.3340060017
0.3340057984
0.3340055504
0.3340052789
0.3340050257
0.334004856
0.3340062019
0.3340061035
0.3340059422
0.3340057081
0.3340053974
0.3340050198
0.3340046075
0.3340042236
0.3340039662
0.3340060142
0.3340058635
0.3340056177
0.3340052633
0.3340047955
0.3340042295
0.3340036138
0.3340030418
0.3340026587
0.3340057244
0.334005497
0.3340051282
0.3340045997
0.3340039061
0.3340030713
0.3340021672
0.3340013301
0.3340007707
0.3340052837
0.3340049457
0.3340044005
0.3340036244
0.3340026122
0.3340014011
0.3340000961
0.3339988924
0.3339980905
0.3340046233
0.3340041283
0.3340033346
0.3340022124
0.3340007587
0.3339990304
0.3339971783
0.3339954775
0.3339943488
0.334003648
0.334002934
0.3340017961
0.3340001984
0.3339981438
0.3339957174
0.3339931318
0.3339907695
0.3339892089
0.3340022282
0.3340012141
0.3339996078
0.3339973688
0.3339945104
0.3339911573
0.3339876056
0.3339843785
0.3339822578
0.3340001918
0.3339987736
0.3339965412
0.3339934517
0.3339895359
0.3339849731
0.3339801702
0.3339758321
0.3339729978
0.3339973154
0.3339953628
0.3339923075
0.3339881085
0.3339828236
0.3339767069
0.3339703098
0.3339645684
0.3339608401
0.3339933156
0.3339906678
0.3339865485
0.3339809247
0.3339738946
0.3339658129
0.3339574171
0.3339499311
0.3339451008
0.3339878401
0.3339843025
0.3339788287
0.3339714028
0.3339621821
0.333951654
0.333940791
0.3339311698
0.3339250017
0.3339804597
0.3339758007
0.3339686283
0.3339589576
0.3339470291
0.3339335019
0.3339196395
0.3339074443
0.3338996763
0.3339706616
0.3339646104
0.3339553402
0.3339429159
0.3339276908
0.3339105422
0.3338930881
0.3338778354
0.3338681816
0.3339578452
0.333950092
0.3339382708
0.3339225199
0.3339033425
0.3338818867
0.333860195
0.3338413633
0.3338295184
0.3339413228
0.3339315211
0.3339166451
0.3338969367
0.3338730922
0.3338465899
0.3338199722
0.3337970112
0.3337826562
0.3339203246
0.3339080954
0.3338896174
0.3338652726
0.3338359998
0.3338036726
0.333771412
0.3337437552
0.333726565
0.3338940084
0.3338789466
0.3338562864
0.3338265915
0.3337910993
0.3337521473
0.3337135162
0.3336805953
0.3336602471
0.3338614732
0.3338431567
0.3338157133
0.3337799371
0.3337374234
0.3336910464
0.3336453261
0.3336065865
0.3335827692
0.3338217766
0.3337997758
0.3337669429
0.3337243546
0.3336740282
0.3336194469
0.3335659475
0.3335208648
0.3334932877
0.3337739535
0.3337478425
0.3337090237
0.3336589124
0.3336000137
0.3335364915
0.3334745713
0.3334226652
0.3333910661
0.3337170346
0.333686402
0.3336410264
0.3335827196
0.3335145407
0.3334414025
0.3333704843
0.333311331
0.3332754825
0.3336500639
0.3336145232
0.3335620592
0.3334949392
0.3334168404
0.3333334886
0.3332530724
0.333186313
0.3331460265
0.3335721137
0.3335313119
0.3334712793
0.3333947965
0.3333062197
0.3332121446
0.3331218158
0.3330471611
0.3330022886
0.333482296
0.3334359208
0.3333678999
0.3332815823
0.3331820594
0.3330768462
0.3329762788
0.3328935105
0.3328439448
0.3333797718
0.3333275568
0.3332511947
0.3331546539
0.3330438111
0.3329271412
0.3328160972
0.3327250648
0.3326707361
0.333263758
0.3332054857
0.3331204997
0.3330134336
0.3328909919
0.3327626409
0.3326409645
0.3325415784
0.3324824476
0.3331335332
0.3330690366
0.3329752155
0.3328574083
0.3327231815
0.3325830145
0.3324506261
0.3323428464
0.3322788868
0.3329884429
0.3329176059
0.33281481
0.3326861302
0.3325400216
0.3323879895
0.332244883
0.3321287263
0.3320599575
0.3328279059
0.3327506625
0.3326388212
0.3324992189
0.3323412168
0.3321773505
0.3320235855
0.3318991119
0.3318255987
0.3326514201
0.3325677526
0.3324468617
0.3322963642
0.3321265371
0.3319509421
0.3317866422
0.3316539816
0.3315758127
0.3324585678
0.3323685043
0.3322386221
0.3320773281
0.331895818
0.3317086683
0.3315340165
0.3313933587
0.3313106511
0.3322490209
0.3321526318
0.3320138738
0.3318419478
0.3316489614
0.3314504893
0.3312657508
0.3311173264
0.3310302191
0.3320225431
0.3319199375
0.3317724717
0.3315901361
0.3313859403
0.331176451
0.3309819466
0.3308260226
0.3307346733
0.3317789912
0.3316703118
0.3315143504
0.3313218791
0.3311067949
0.3308866691
0.3306827647
0.3305196387
0.3304242206
0.3315183088
0.3314037263
0.3312395193
0.3310372273
0.3308116605
0.3305813265
0.3303684239
0.3301984173
0.3300991158
0.3312405195
0.3311202281
0.3309480605
0.3307363433
0.3305007453
0.3302606683
0.3300391972
0.3298626496
0.3297596589
0.3309457184
0.3308199469
0.330640172
0.3304194668
0.3301743241
0.3299249974
0.3296954077
0.3295126715
0.3294061919
0.3306341188
0.3305031364
0.3303161357
0.330086908
0.3298327324
0.329574669
0.3293374243
0.3291488595
0.329039095
0.3303060413
0.3301701315
0.3299763057
0.32973904
0.3294763597
0.3292100848
0.328965656
0.3287716265
0.3286587821
0.3299618806
0.3298213365
0.329621098
0.3293762904
0.3291056429
0.3288316874
0.3285805477
0.328381417
0.3282656972
0.3296020942
0.3294572141
0.3292509817
0.3289991338
0.3287210594
0.3284399544
0.3281825745
0.327978703
0.3278603098
0.3292271926
0.3290782767
0.3288664706
0.3286080838
0.3283231207
0.3280353922
0.3277722367
0.3275639788
0.3274431105
0.3288377298
0.3286850774
0.3284681153
0.3282036865
0.3279123659
0.3276185313
0.3273500554
0.3271377573
0.3270146075
0.3284342956
0.3282782022
0.3280564959
0.3277865135
0.3274893559
0.3271899207
0.3269165676
0.3267005657
0.3265753222
0.3280175073
0.3278582626
0.3276322151
0.327357156
0.327054668
0.3267501229
0.3264723221
0.3262529416
0.3261257859
0.3275880029
0.3274258891
0.3271958922
0.326916219
0.3266088913
0.3262997101
0.3260178753
0.3257954294
0.325666536
0.3271464347
0.3269817249
0.3267481574
0.3264643167
0.3261526216
0.3258392598
0.3255537882
0.3253285768
0.3251981131
0.3266934637
0.3265264209
0.3262896469
0.3260020672
0.3256864576
0.3253693512
0.3250806223
0.3248529321
0.3247210579
0.3262297541
0.3260606301
0.3258209983
0.3255300893
0.3252109973
0.3248905619
0.3245989372
0.3243690412
0.3242359087
0.3257559691
0.3255850042
0.3253428465
0.3250489981
0.3247268348
0.324403465
0.3241092877
0.3238774448
0.3237431988
0.3252727669
0.3251001892
0.3248558207
0.3245594026
0.3242345571
0.3239086266
0.3236122214
0.3233786768
0.3232434542
0.324780797
0.3246068222
0.3243605407
0.3240619021
0.3237347419
0.3234066033
0.3231082765
0.3228732615
0.3227371918
0.3242806976
0.3241055288
0.3238576149
0.3235570846
0.3232279554
0.3228979403
0.3225979801
0.3223617125
0.3222249177
0.3237730925
0.3235969207
0.3233476377
0.323045524
0.32271475
0.3223831696
0.3220818464
0.3218445308
0.3217071256
0.3232585897
0.3230815934
0.3228311875
0.3225277789
0.3221956635
0.3218628086
0.3215603754
0.3213222034
0.3211842955
0.3227377787
0.3225601245
0.3223088254
0.3220043908
0.3216712168
0.3213373587
0.3210340519
0.3207952025
0.3206568928
0.3222112298
0.3220330725
0.3217810937
0.3214758832
0.3211419135
0.3208073047
0.3205033441
0.3202639843
0.3201253669
0.3216794926
0.3215009757
0.3212485151
0.3209427604
0.3206082387
0.3202731134
0.3199687032
0.3197289883
0.3195901509
0.3211430952
0.3209643512
0.3207115915
0.3204055067
0.3200706584
0.3197352333
0.3194305628
0.3191906368
0.3190516612
0.3206025433
0.3204236943
0.3201708039
0.3198645862
0.319529619
0.3191940941
0.318889338
0.3186493344
0.3185102964
0.3200583201
0.319879478
0.3196266116
0.3193204422
0.3189855472
0.3186501064
0.318345426
0.318105468
0.3179664376
0.3195108859
0.3193321533
0.3190794522
0.3187734972
0.3184388494
0.3181036616
0.3177992049
0.317559406
0.3174204482
0.3189606779
0.3187821483
0.3185297416
0.3182241525
0.3178899119
0.3175551317
0.3172510346
0.3170114992
0.3168726737
0.3184081106
0.3182298691
0.3179778742
0.3176727889
0.3173391011
0.3170048695
0.3167012562
0.3164620799
0.3163234416
0.3178535759
0.3176756993
0.3174242226
0.3171197661
0.3167867636
0.3164532089
0.3161501927
0.3159114629
0.3157730623
0.3172974431
0.3171200009
0.3168691386
0.316565424
0.3162332266
0.3159004651
0.3155981488
0.3153599454
0.3152218284
0.3167400599
0.3165631146
0.316312953
0.3160100821
0.3156787979
0.3153469348
0.3150454118
0.3148078071
0.3146700159
0.3161817527
0.3160053602
0.3157559767
0.3154540409
0.315123767
0.3147928969
0.3144922514
0.3142553112
0.314117884
0.315622827
0.3154470371
0.3151985008
0.3148975817
0.314568405
0.314238613
0.3139389208
0.3137027043
0.3135656758
0.3150635683
0.3148884252
0.3146407975
0.3143409675
0.3140129655
0.3136843275
0.3133856567
0.3131502173
0.3130136189
0.3145042428
0.3143297855
0.3140831206
0.313784444
0.3134576853
0.3131302688
0.31283268
0.3125980656
0.3124619256
0.3139450981
0.3137713608
0.3135257061
0.3132282394
0.3129027847
0.3125766495
0.3122801966
0.31204645
0.3119107936
0.3133863639
0.3132133764
0.3129687735
0.312672566
0.3123484684
0.3120236671
0.3117283977
0.3114955569
0.3113604068
0.3128282529
0.3126560409
0.3124125257
0.3121176204
0.3117949261
0.3114715047
0.3111774608
0.3109455592
0.3108109356
0.3122709617
0.3120995471
0.3118571505
0.3115635841
0.3112423332
0.3109203316
0.3106275498
0.3103966169
0.3102625376
0.3117146711
0.3115440728
0.3113028209
0.3110106249
0.3106908514
0.3103703041
0.310078816
0.3098488776
0.3097153582
0.3111595477
0.3109897812
0.3107496959
0.3104588968
0.3101406298
0.3098215659
0.3095313988
0.3093024771
0.3091695313
0.3106057441
0.3104368222
0.3101979216
0.3099085412
0.3095918048
0.309274249
0.3089854258
0.30875754
0.3086251797
0.3100533997
0.3098853327
0.3096476314
0.3093596876
0.3090445015
0.3087284741
0.3084410143
0.3082141805
0.3080824157
0.3095026417
0.3093354377
0.3090989471
0.3088124539
0.308498834
0.3081843516
0.307898271
0.3076725026
0.307541342
0.3089535859
0.3087872507
0.3085519794
0.3082669476
0.307954906
0.3076419816
0.307357293
0.3071326011
0.3070020519
0.3084063369
0.3082408748
0.3080068289
0.307723266
0.3074128119
0.3071014552
0.3068181684
0.3065945619
0.30646463
0.3078609897
0.307696403
0.3074635862
0.3071814972
0.3068726366
0.3065628546
0.306280977
0.3060584626
0.3059291527
0.3073176293
0.3071539191
0.306922333
0.3066417205
0.3063344567
0.3060262538
0.3057457904
0.3055243731
0.3053956887
0.3067763321
0.3066134981
0.3063831426
0.3061040068
0.305798341
0.3054917193
0.3052126729
0.304992356
0.3048642997
0.3062371662
0.3060752068
0.3058460801
0.3055684196
0.3052643508
0.30495931
0.3046816817
0.3044624669
0.3043350405
0.3057001919
0.3055391047
0.3053112036
0.3050350149
0.3047325402
0.3044290786
0.3041528677
0.3039347554
0.3038079598
0.3051654625
0.305005244
0.3047785642
0.3045038424
0.3042029573
0.3039010713
0.3036262754
0.3034092649
0.3032831002
0.3046330246
0.3044736708
0.3042482065
0.3039749455
0.3036756441
0.3033753285
0.3031019442
0.3028860333
0.302760499
0.304102919
0.3039444249
0.3037201696
0.303448362
0.3031506369
0.3028518854
0.3025799078
0.3023650938
0.3022401887
0.3035751806
0.3034175406
0.3031944869
0.3029241244
0.3026279671
0.3023307722
0.3020601953
0.3018464743
0.3017221969
0.303049839
0.3028930473
0.3026711871
0.3024022602
0.3021076613
0.3018120144
0.3015428314
0.3013301988
0.3012065469
0.3025269194
0.3023709695
0.3021502938
0.3018827925
0.3015897418
0.3012956333
0.3010278365
0.300816287
0.300693258
0.3020064422
0.3018513272
0.3016318269
0.3013657404
0.3010742267
0.3007816465
0.3005152273
0.300304755
0.3001823459
0.301488424
0.3013341367
0.3011158019
0.3008511189
0.3005611305
0.3002700676
0.3000050171
0.2997956154
0.299673823
0.3009728775
0.3008194106
0.3006022311
0.3003389397
0.3000504644
0.2997609073
0.2994972157
0.2992888778
0.2991676983
0.3004598121
0.3003071579
0.3000911233
0.2998292113
0.2995422364
0.2992541731
0.2989918301
0.2987845486
0.2986639783
0.2999492341
0.2997973849
0.2995824843
0.2993219392
0.2990364515
0.2987498696
0.2984888648
0.2982826318
0.2981626666
0.299441147
0.2992900947
0.2990763173
0.2988171262
0.2985331123
0.298247999
0.2979883214
0.297783129
0.2976637644
0.2989355516
0.2987852883
0.2985726228
0.2983147728
0.298032219
0.2977485612
0.2974901996
0.2972860394
0.2971672711
0.2984324464
0.2982829639
0.2980713993
0.297814877
0.2975337695
0.2972515539
0.2969944968
0.2967913603
0.2966731836
0.2979318278
0.297783118
0.2975726429
0.2973174352
0.2970377598
0.296756973
0.2965012087
0.2962990872
0.2961814972
0.2974336904
0.297285745
0.297076348
0.2968224415
0.2965441843
0.2962648125
0.2960103292
0.2958092138
0.2956922058
0.2969380267
0.2967908377
0.2965825075
0.2963298887
0.2960530353
0.295775065
0.2955218508
0.2953217325
0.2952053014
0.2964448281
0.2962983871
0.2960911124
0.295839768
0.2955643043
0.2952877216
0.2950357643
0.2948366341
0.2947207749
0.2959540841
0.2958083832
0.2956021526
0.2953520692
0.2950779809
0.2948027721
0.2945520597
0.2943539083
0.294238616
0.2954657835
0.2953208144
0.2951156167
0.2948667809
0.2945940538
0.2943202051
0.2940707255
0.2938735438
0.2937588132
0.2949799134
0.2948356682
0.2946314921
0.2943838908
0.2941125108
0.2938400084
0.2935917495
0.2933955282
0.2932813541
0.2944964603
0.294352931
0.2941497656
0.2939033855
0.2936333385
0.2933621686
0.2931151184
0.2929198483
0.2928062256
0.2940154098
0.2938725884
0.2936704226
0.2934252507
0.2931565227
0.2928866719
0.2926408182
0.2924464901
0.2923334136
0.2935367465
0.2933946253
0.2931934483
0.2929494715
0.2926820488
0.2924135034
0.2921688344
0.2919754391
0.2918629037
0.2930604545
0.2929190259
0.2927188268
0.2924760325
0.2922099013
0.2919426479
0.2916991517
0.2915066801
0.2913946806
0.2925865174
0.2924457737
0.2922465419
0.2920049175
0.2917400643
0.2914740897
0.2912317544
0.2910401976
0.2909287288
0.2921149182
0.2919748519
0.2917765771
0.2915361101
0.2912725214
0.2910078126
0.2907666267
0.2905759757
0.2904650326
0.2916456397
0.2915062434
0.2913089153
0.2910695934
0.2908072563
0.2905438003
0.2903037524
0.2901139983
0.2900035761
0.2911786642
0.2910399309
0.2908435394
0.2906053506
0.2903442521
0.2900820364
0.2898431153
0.2896542496
0.2895443433
0.2907139742
0.2905758967
0.290380432
0.2901433647
0.2898834924
0.2896225046
0.2893846994
0.2891967137
0.2890873186
0.2902515521
0.2901141236
0.2899195762
0.289683619
0.2894249606
0.289165189
0.2889284892
0.2887413755
0.288632487
0.2897913804
0.2896545944
0.289460955
0.2892260971
0.2889686411
0.2887100743
0.28847447
0.2882882207
0.2881798345
0.2893334423
0.2891972925
0.2890045525
0.2887707836
0.288514519
0.2882571464
0.2880226283
0.2878372364
0.2877293487
0.2888777217
0.2887422022
0.2885503535
0.288317664
0.2880625809
0.2878063929
0.2875729527
0.287388412
0.2872810194
0.2884242037
0.2882893092
0.2880983446
0.287866726
0.2876128154
0.2873578038
0.2871254345
0.28694174
0.2868348397
0.2879728754
0.2878386014
0.2876485144
0.2874179597
0.2871652145
0.2869113727
0.2866800691
0.2864972172
0.2863908074
0.2875237264
0.2873900691
0.287200855
0.2869713588
0.286719774
0.286467098
0.2862368573
0.2860548465
0.2859489268
0.2870767499
0.2869437069
0.2867553627
0.2865269223
0.2862764958
0.2860249847
0.2857958074
0.285614639
0.2855092107
0.2866319438
0.2864995144
0.2863120399
0.2860846556
0.2858353895
0.2855850469
0.2853569377
0.2851766167
0.2850716834
0.2861893128
0.2860574986
0.2858708966
0.2856445735
0.2853964748
0.2851473099
0.2849202793
0.2847408157
0.284636384
0.28574887
0.2856176756
0.2854319535
0.2852067022
0.2849597849
0.2847118143
0.2844858803
0.2843072904
0.2842033708
0.2853106398
0.2851800735
0.2849952445
0.2847710829
0.2845253698
0.2842786199
0.2840538099
0.2838761179
0.2837727262
0.2848746608
0.2847447359
0.2845608202
0.284337776
0.2840933009
0.2838478103
0.2836241636
0.2834474043
0.2833445623
0.2844409894
0.2843117253
0.2841287526
0.2839068651
0.2836636761
0.2834194984
0.2831970694
0.2830212901
0.2829190277
0.2840097043
0.2838811281
0.2836991396
0.2834784629
0.2832366252
0.2829938329
0.2827726943
0.2825979578
0.2824963142
0.2835809113
0.2834530596
0.2832721102
0.2830527166
0.2828123165
0.2825710046
0.2823512513
0.2821776389
0.2820766649
0.2831547489
0.2830276698
0.2828478314
0.2826298144
0.2823909634
0.2821512538
0.2819330068
0.2817606217
0.2816603813
0.2827313941
0.2826051492
0.2824265136
0.2822099923
0.2819728313
0.2817348775
0.281518288
0.281347259
0.2812478317
0.2823110689
0.2821857357
0.282008418
0.281793541
0.2815582448
0.2813222362
0.2811074903
0.2809379747
0.2808394575
0.2818940469
0.281769721
0.2815938629
0.2813808122
0.2811475943
0.280913761
0.2807010833
0.2805332705
0.2804357795
0.2814806592
0.2813574569
0.2811832297
0.2809722249
0.2807413415
0.2805099583
0.2802996162
0.2801337303
0.2800374025
0.2810713012
0.2809493611
0.2807769692
0.2805682709
0.2803400245
0.2801114145
0.2799037204
0.2797400224
0.2796450168
0.2806664368
0.2805459223
0.2803756053
0.2801695177
0.2799442602
0.279718797
0.2795141107
0.2793528998
0.2792593977
0.2802666034
0.2801477036
0.2799797379
0.279776611
0.2795547451
0.2793328541
0.2791315832
0.2789731964
0.2788814013
0.2798724135
0.279755344
0.2795900441
0.2793902739
0.2791722528
0.2789544107
0.278757009
0.2786018197
0.2785119563
0.279484555
0.2793695579
0.2792072755
0.279011303
0.2787976289
0.2785843604
0.2783913249
0.2782397397
0.2781520512
0.2791037892
0.2789911317
0.2788322536
0.2786405618
0.2784317816
0.2782236546
0.2780355196
0.2778879732
0.2778027182
0.2787309445
0.278620917
0.2784658617
0.2782789703
0.2780756688
0.2778732867
0.2776906159
0.2775475635
0.2774650114
0.2783669087
0.2782598206
0.2781090328
0.2779274907
0.2777302818
0.2775342727
0.2773576486
0.2772195571
0.2771399823
0.2780126159
0.2779087913
0.2777627343
0.2775871101
0.2773966244
0.2772076288
0.2770376396
0.2769049765
0.2768286515
0.2776690313
0.2775688026
0.2774279489
0.2772588186
0.2770756898
0.2768943447
0.2767315698
0.2766047906
0.2765319787
0.2773371321
0.2772408325
0.2771056533
0.2769435865
0.2767684349
0.2765953569
0.27644035
0.2763198848
0.2762508314
0.2770178855
0.2769258406
0.2767967932
0.2766423374
0.2764757525
0.2763115195
0.2761647915
0.2760510306
0.2759859554
0.2767122248
0.2766247435
0.276502258
0.2763559225
0.2761984443
0.2760435762
0.2759055778
0.2757988581
0.2757379465
0.2764210235
0.2763383884
0.2762228543
0.2760850932
0.2759371941
0.2757921348
0.2756632395
0.2755638315
0.2755072275
0.2761450697
0.2760675275
0.2759592803
0.2758304766
0.2756925439
0.2755576444
0.2754381341
0.2753462303
0.2752940303
0.275885041
0.2758127937
0.2757121021
0.2755925533
0.2754648741
0.2753403775
0.2752304301
0.2751461369
0.2750983846
0.2756414811
0.2755746782
0.2754817338
0.2753716393
0.2752543879
0.2751404192
0.2750400998
0.2749634312
0.2749201156
0.2754147808
0.2753535124
0.2752684211
0.2751678732
0.2750611027
0.2749576612
0.2748669181
0.2747977936
0.274758848
0.275205162
0.2751494549
0.2750722311
0.2749812093
0.2748848474
0.2747918048
0.2747104687
0.2746487153
0.2746140189
0.2750126683
0.2749624833
0.2748930479
0.2748114176
0.2747252667
0.2746423696
0.2745701585
0.2745155152
0.2744848974
0.2748371609
0.2747923931
0.2747305742
0.2746580895
0.2745818318
0.2745087088
0.2744452366
0.2743973629
0.2743706083
0.274678321
0.2746388023
0.2745843398
0.2745206504
0.2744538573
0.2743900305
0.2743348189
0.2742933057
0.2742701611
0.2745356587
0.2745011624
0.2744537158
0.2743983774
0.2743405231
0.274285423
0.2742379165
0.2742022977
0.2741824772
0.2744085273
0.2743787753
0.2743379341
0.2742904228
0.2742409005
0.2741938843
0.2741534675
0.2741232344
0.2741064345
0.2742961431
0.2742708145
0.2742361111
0.2741958396
0.2741539812
0.274114354
0.2740803733
0.2740550037
0.2740409223
0.2741976084
0.2741763493
0.2741472735
0.2741136095
0.2740787067
0.2740457436
0.2740175388
0.2739965178
0.2739848601
0.2741119373
0.2740943712
0.2740703847
0.2740426684
0.2740139918
0.2739869651
0.2739638816
0.2739466923
0.2739371446
0.2740380819
0.2740238198
0.2740043708
0.2739819325
0.2739587587
0.2739369544
0.2739183461
0.27390447
0.2738967442
0.2739749583
0.2739636087
0.2739481455
0.2739303323
0.2739119593
0.2738946816
0.2738799127
0.2738688707
0.273862695
0.27392147
0.2739126517
0.2739006492
0.2738868331
0.2738725843
0.2738591562
0.2738476419
0.2738389881
0.2738341123
0.2738765539
0.2738699074
0.2738608606
0.2738504423
0.2738396653
0.2738294689
0.2738206703
0.2738139981
0.2738101964
0.2738391893
0.2738343763
0.2738278055
0.2738202108
0.2738123155
0.2738047864
0.2737982163
0.2737931624
0.273790235
0.2738083981
0.2738050867
0.2738005505
0.2737952704
0.2737897238
0.2737843563
0.273779583
0.273775829
0.2737736025
0.2737832457
0.2737811503
0.2737782534
0.2737748309
0.2737711596
0.2737675094
0.2737641577
0.2737614294
0.2737597559
0.273762891
0.2737617563
0.2737601493
0.2737581826
0.2737559744
0.2737536583
0.2737514079
0.2737494736
0.2737482294
0.2737465715
0.2737461743
0.2737455544
0.2737446975
0.2737436001
0.273742294
0.2737408766
0.2737395444
0.2737386278
0.2737336071
0.2737337567
0.2737338663
0.2737338267
0.2737335453
0.2737329804
0.2737321757
0.2737312896
0.2737306185
0.2737234004
0.2737239369
0.2737245615
0.2737250976
0.2737253903
0.2737253484
0.2737249793
0.2737244148
0.2737239242
0.2737154336
0.2737162264
0.2737171913
0.2737181076
0.2737187808
0.2737190884
0.2737190157
0.2737186757
0.2737183154
0.2737092647
0.2737102094
0.273711376
0.2737125185
0.2737134206
0.2737139436
0.2737140604
0.273713871
0.2737136028
0.2737045217
0.2737055372
0.2737067985
0.2737080492
0.2737090653
0.2737097028
0.2737099293
0.2737098356
0.2737096311
0.2737008956
0.2737019211
0.2737031974
0.2737044691
0.2737055149
0.2737061936
0.2737064722
0.2737064347
0.2737062732
0.2736981334
0.2736991254
0.2737003597
0.2737015907
0.2737026073
0.2737032762
0.2737035671
0.2737035578
0.2737034238
0.2736960311
0.27369696
0.2736981143
0.2736992637
0.2737002123
0.2737008381
0.273701115
0.2737011154
0.2737009997
0.2736944265
0.2736952742
0.2736963251
0.2736973683
0.2736982259
0.273698789
0.2736990363
0.2736990352
0.273698932
0.2736931925
0.2736939497
0.2736948856
0.2736958106
0.273696566
0.2736970566
0.2736972659
0.2736972582
0.2736971639
0.2736922313
0.2736928954
0.2736937132
0.2736945171
0.2736951678
0.2736955832
0.2736957528
0.273695736
0.2736956484
0.2736914687
0.2736920417
0.2736927446
0.2736934309
0.2736939801
0.2736943232
0.2736944549
0.2736944287
0.2736943465
0.2736908494
0.2736913368
0.2736919319
0.2736925084
0.2736929633
0.2736932406
0.2736933378
0.273693303
0.2736932253
0.2736903331
0.2736907422
0.273691239
0.2736917157
0.2736920868
0.2736923061
0.2736923734
0.2736923315
0.2736922581
0.2736898907
0.2736902297
0.2736906389
0.2736910283
0.2736913266
0.2736914962
0.2736915385
0.2736914913
0.2736914225
0.2736895012
0.273689779
0.2736901128
0.2736904274
0.2736906639
0.2736907918
0.2736908139
0.2736907636
0.2736906995
0.2736891514