/*--------------------------------*- C++ -*----------------------------------*\
| =========                 |                                                 |
| \\      /  F ield         | OpenFOAM: The Open Source CFD Toolbox           |
|  \\    /   O peration     | Version:  2212                                  |
|   \\  /    A nd           | Website:  www.openfoam.com                      |
|    \\/     M anipulation  |                                                 |
\*---------------------------------------------------------------------------*/
FoamFile
{
    version     2.0;
    format      ascii;
    arch        "LSB;label=32;scalar=64";
    class       volScalarField;
    location    "20.00000000";
    object      C3H6_0;
}
// * * * * * * * * * * * * * * * * * * * * * * * * * * * * * * * * * * * * * //

dimensions      [0 0 0 0 0 0 0];

internalField   nonuniform List<scalar> 
3000
(
4.612636202e-29
5.718986046e-29
7.487062426e-29
1.00213643e-28
1.34289451e-28
1.774797858e-28
2.281097598e-28
2.801356587e-28
3.197902293e-28
1.943380277e-28
2.427140208e-28
3.20011639e-28
4.310143678e-28
5.814724034e-28
7.771417998e-28
1.02167612e-27
1.310896159e-27
1.594662661e-27
5.006226155e-28
6.3313283e-28
8.470786828e-28
1.160235841e-27
1.598079881e-27
2.193956668e-27
2.982261295e-27
3.967470586e-27
4.934672856e-27
1.093392502e-27
1.405294553e-27
1.918684735e-27
2.69280911e-27
3.817768345e-27
5.415975071e-27
7.614443168e-27
1.040370158e-26
1.30356238e-26
2.222423191e-27
2.91340214e-27
4.078454647e-27
5.891751017e-27
8.620884496e-27
1.262523259e-26
1.82333863e-26
2.525481742e-26
3.155516723e-26
4.374882546e-27
5.861076193e-27
8.429940677e-27
1.254721396e-26
1.892516035e-26
2.848390135e-26
4.193796695e-26
5.842635608e-26
7.254441679e-26
8.526256237e-27
1.16797422e-26
1.725647369e-26
2.64208379e-26
4.093229508e-26
6.296621101e-26
9.393758302e-26
1.310639863e-25
1.608306097e-25
1.663043039e-26
2.326953524e-26
3.524314635e-26
5.531863415e-26
8.762314541e-26
1.370779047e-25
2.065241878e-25
2.894507278e-25
3.590929177e-25
3.263360896e-26
4.6543867e-26
7.20320779e-26
1.154146329e-25
1.859578423e-25
2.942681625e-25
4.454569338e-25
6.232139386e-25
7.673655401e-25
6.452922701e-26
9.357321878e-26
1.47461953e-25
2.402139669e-25
3.920814868e-25
6.254543375e-25
9.494851772e-25
1.326674874e-24
1.629011612e-24
1.285713505e-25
1.890623841e-25
3.024030596e-25
4.991125901e-25
8.227116386e-25
1.320000697e-24
2.007528484e-24
2.802235666e-24
3.434491447e-24
2.5787842e-25
3.836116879e-25
6.210044e-25
1.035598662e-24
1.719866161e-24
2.771092265e-24
4.219523111e-24
5.884954101e-24
7.202650547e-24
5.200518511e-25
7.809518753e-25
1.276503191e-24
2.146066051e-24
3.584560697e-24
5.793517645e-24
8.828842136e-24
1.230487661e-23
1.504367919e-23
1.053248503e-24
1.593823055e-24
2.625421791e-24
4.442184634e-24
7.452645188e-24
1.207338626e-23
1.840890528e-23
2.564155984e-23
3.132178213e-23
2.140103481e-24
3.258711807e-24
5.401342607e-24
9.185387798e-24
1.546351692e-23
2.50956319e-23
3.827916452e-23
5.329230439e-23
6.505287102e-23
4.35926438e-24
6.671417257e-24
1.111336317e-23
1.897553657e-23
3.203202801e-23
5.205610176e-23
7.94244013e-23
1.105289738e-22
1.348445832e-22
8.896148953e-24
1.367079904e-23
2.286540849e-23
3.916837033e-23
6.626203983e-23
1.07800473e-22
1.645083526e-22
2.288537459e-22
2.790703793e-22
1.818038737e-23
2.803219647e-23
4.70406023e-23
8.079202517e-23
1.369151645e-22
2.229350514e-22
3.402561927e-22
4.732008022e-22
5.768121256e-22
3.719361215e-23
5.750755868e-23
9.676351238e-23
1.665459384e-22
2.826345126e-22
4.605168776e-22
7.029310396e-22
9.773194052e-22
1.190918746e-21
7.615278628e-23
1.180149331e-22
1.990154608e-22
3.431359374e-22
5.829726293e-22
9.503815415e-22
1.450721502e-21
2.016502819e-21
2.456489048e-21
1.560157494e-22
2.422407715e-22
4.092539869e-22
7.06629271e-22
1.201621765e-21
1.959709548e-21
2.991402013e-21
4.156999294e-21
5.062594446e-21
3.197755264e-22
4.972989641e-22
8.414404544e-22
1.454548078e-21
2.475235055e-21
4.037977848e-21
6.163381208e-21
8.56260935e-21
1.042498998e-20
6.556212491e-22
1.020965908e-21
1.729682628e-21
2.992830735e-21
5.095782482e-21
8.314443877e-21
1.268907802e-20
1.762306645e-20
2.144954072e-20
1.344407759e-21
2.095991347e-21
3.554702638e-21
6.155292597e-21
1.04845824e-20
1.710792248e-20
2.610349416e-20
3.623986857e-20
4.40931861e-20
2.756854915e-21
4.302343273e-21
7.303023739e-21
1.265339733e-20
2.15586061e-20
3.517511844e-20
5.365288196e-20
7.445204157e-20
9.054832979e-20
5.652286973e-21
8.828629941e-21
1.499721913e-20
2.599619251e-20
4.429694016e-20
7.226036465e-20
1.101680876e-19
1.52784492e-19
1.857205292e-19
1.158445073e-20
1.810837329e-20
3.077949736e-20
5.33696009e-20
9.093762333e-20
1.482906487e-19
2.25942092e-19
3.131051674e-19
3.803583433e-19
2.37283267e-20
3.711695536e-20
6.312050353e-20
1.094651949e-19
1.864834612e-19
3.039293304e-19
4.626957019e-19
6.405757652e-19
7.775474222e-19
4.856002503e-20
7.600766924e-20
1.293079715e-19
2.242544618e-19
3.818924296e-19
6.219298093e-19
9.457954711e-19
1.307814192e-18
1.585885194e-18
9.925916126e-20
1.554524377e-19
2.645384024e-19
4.587188297e-19
7.807149008e-19
1.270136182e-18
1.928912043e-18
2.663212471e-18
3.22552923e-18
2.025727192e-19
3.174179244e-19
5.4025166e-19
9.365257765e-19
1.592605971e-18
2.587585024e-18
3.922966869e-18
5.406326643e-18
6.538109508e-18
4.125996362e-19
6.468070874e-19
1.100921612e-18
1.907472597e-18
3.240187461e-18
5.255757981e-18
7.951378556e-18
1.093335803e-17
1.319867182e-17
8.383296487e-19
1.314683518e-18
2.237448626e-18
3.873748566e-18
6.570953504e-18
1.063656172e-17
1.605101319e-17
2.201140761e-17
2.651627874e-17
1.698337645e-18
2.664067375e-18
4.532592235e-18
7.839389788e-18
1.327411798e-17
2.143347987e-17
3.224589101e-17
4.40808025e-17
5.297326767e-17
3.428701029e-18
5.379044339e-18
9.146984708e-18
1.579906984e-17
2.669320684e-17
4.297212071e-17
6.441953975e-17
8.774200658e-17
1.051500512e-16
6.894404626e-18
1.081551823e-17
1.837689839e-17
3.168706581e-17
5.3394188e-17
8.565331124e-17
1.278731563e-16
1.734462518e-16
2.072128721e-16
1.380024766e-17
2.164264687e-17
3.67319183e-17
6.320098658e-17
1.061581938e-16
1.695963175e-16
2.520018744e-16
3.402267228e-16
4.050737008e-16
2.748283089e-17
4.307538323e-17
7.29961459e-17
1.252679149e-16
2.096244635e-16
3.333145611e-16
4.92652815e-16
6.617266736e-16
7.849393501e-16
5.442337476e-17
8.521944555e-17
1.441275592e-16
2.465534204e-16
4.107930591e-16
6.497039729e-16
9.546759112e-16
1.275200304e-15
1.506691931e-15
1.071099097e-16
1.674855167e-16
2.825483367e-16
4.815281475e-16
7.983036834e-16
1.25508206e-15
1.832465751e-15
2.43320846e-15
2.863076402e-15
2.093976506e-16
3.268046986e-16
5.49604214e-16
9.325316868e-16
1.537308668e-15
2.401132556e-15
3.481730647e-15
4.594365488e-15
5.383068358e-15
4.06440146e-16
6.327344928e-16
1.060081183e-15
1.789531729e-15
2.931586696e-15
4.546357374e-15
6.544529407e-15
8.580143575e-15
1.00096156e-14
7.828780503e-16
1.214877867e-15
2.026228569e-15
3.400670256e-15
5.532393871e-15
8.514437297e-15
1.216353962e-14
1.584144232e-14
1.840039989e-14
1.495743567e-15
2.311969108e-15
3.835611455e-15
6.395401223e-15
1.032598735e-14
1.576374071e-14
2.234296023e-14
2.890412632e-14
3.342830162e-14
2.83320233e-15
4.358456185e-15
7.186564373e-15
1.189571673e-14
1.905089891e-14
2.883768138e-14
4.054543068e-14
5.210039919e-14
5.999945455e-14
5.317930163e-15
8.13481277e-15
1.33197933e-14
2.187181286e-14
3.472450261e-14
5.210272523e-14
7.266018038e-14
9.274621889e-14
1.063647417e-13
9.886246743e-15
1.502406653e-14
2.440705399e-14
3.972918085e-14
6.249904972e-14
9.293242218e-14
1.28539891e-13
1.629961256e-13
1.861771238e-13
1.81933972e-14
2.744167004e-14
4.419057189e-14
7.12572917e-14
1.110225225e-13
1.63563305e-13
2.243822179e-13
2.826935159e-13
3.216382477e-13
3.312469721e-14
4.954207287e-14
7.901305436e-14
1.261282462e-13
1.945503701e-13
2.839300878e-13
3.863205289e-13
4.836247784e-13
5.481658959e-13
5.96358167e-14
8.835721103e-14
1.394411946e-13
2.202088513e-13
3.361392414e-13
4.858770411e-13
6.556735256e-13
8.156561005e-13
9.210614708e-13
1.061091908e-13
1.555951814e-13
2.42769942e-13
3.790433715e-13
5.723498117e-13
8.192278649e-13
1.096363647e-12
1.355259882e-12
1.524695391e-12
1.865069139e-13
2.704310424e-13
4.168089774e-13
6.429817555e-13
9.599886161e-13
1.360251897e-12
1.804978613e-12
2.216775141e-12
2.484465139e-12
3.23741128e-13
4.637755696e-13
7.055185529e-13
1.074592448e-12
1.585549978e-12
2.223096124e-12
2.923782174e-12
3.566520337e-12
3.981268313e-12
5.549051465e-13
7.847536316e-13
1.177330077e-12
1.769271971e-12
2.578279357e-12
3.574930426e-12
4.657186072e-12
5.639414634e-12
6.267737138e-12
9.393719467e-13
1.310543515e-12
1.937457987e-12
2.870398239e-12
4.127851975e-12
5.655468007e-12
7.291958374e-12
8.758175563e-12
9.685639297e-12
1.571176492e-12
2.160929985e-12
3.145466995e-12
4.59048022e-12
6.509179053e-12
8.804140956e-12
1.122384525e-11
1.335722426e-11
1.468645141e-11
2.597759698e-12
3.52033805e-12
5.041954411e-12
7.242817055e-12
1.011787173e-11
1.349753356e-11
1.699508914e-11
2.001938074e-11
2.187019397e-11
4.249191671e-12
5.671335097e-12
7.987600509e-12
1.128608959e-11
1.552064402e-11
2.040348985e-11
2.535185009e-11
2.954053239e-11
3.205991361e-11
6.88238562e-12
9.044310293e-12
1.251971143e-11
1.738963794e-11
2.352683572e-11
3.045888057e-11
3.733263703e-11
4.304050482e-11
4.64363324e-11
1.104679069e-11
1.428978039e-11
1.943429188e-11
2.65239648e-11
3.528776693e-11
4.498177885e-11
5.440823631e-11
6.214296548e-11
6.674496022e-11
1.757825013e-11
2.23814928e-11
2.989923191e-11
4.008467967e-11
5.243530293e-11
6.58396846e-11
7.870440154e-11
8.925471033e-11
9.55964583e-11
2.77331936e-11
3.475848241e-11
4.560676666e-11
6.006083757e-11
7.728199426e-11
9.571737972e-11
1.133632632e-10
1.279901392e-10
1.369143137e-10
4.33639977e-11
5.350943358e-11
6.897420709e-11
8.927002634e-11
1.131329044e-10
1.38557389e-10
1.63111505e-10
1.838118739e-10
1.96620126e-10
6.71364727e-11
8.160540894e-11
1.034130032e-10
1.317109886e-10
1.647972866e-10
2.002745134e-10
2.351245615e-10
2.65004794e-10
2.836864179e-10
1.027903772e-10
1.232000674e-10
1.537221507e-10
1.931436062e-10
2.39442968e-10
2.898665559e-10
3.403309988e-10
3.841646027e-10
4.117472666e-10
1.554757568e-10
1.840718318e-10
2.267444416e-10
2.820826371e-10
3.479661189e-10
4.210878834e-10
4.953896116e-10
5.604643505e-10
6.015467803e-10
2.323028927e-10
2.724063278e-10
3.325344803e-10
4.114452683e-10
5.070715504e-10
6.149526958e-10
7.256754662e-10
8.230732201e-10
8.846272197e-10
3.434272157e-10
4.002632328e-10
4.86353695e-10
6.010840277e-10
7.423360586e-10
9.034622013e-10
1.069732016e-09
1.216242727e-09
1.3088106e-09
5.041124059e-10
5.860969349e-10
7.117423044e-10
8.814542673e-10
1.092668453e-09
1.335069981e-09
1.58578359e-09
1.806733235e-09
1.946195832e-09
7.380669681e-10
8.585177482e-10
1.044854405e-09
1.298794817e-09
1.616699915e-09
1.982503123e-09
2.361025923e-09
2.694390028e-09
2.904537372e-09
1.082059304e-09
1.261375977e-09
1.5403649e-09
1.922331761e-09
2.401686714e-09
2.953605156e-09
3.524460288e-09
4.026721199e-09
4.342911062e-09
1.591876159e-09
1.860451094e-09
2.279417482e-09
2.854014144e-09
3.575457705e-09
4.405786204e-09
5.263911945e-09
6.018164851e-09
6.492382183e-09
2.350011947e-09
2.752202287e-09
3.38003513e-09
4.241135492e-09
5.321720003e-09
6.564356003e-09
7.847458894e-09
8.974221274e-09
9.681816044e-09
3.475510054e-09
4.074891216e-09
5.010157764e-09
6.29186436e-09
7.898588155e-09
9.744399904e-09
1.164869879e-08
1.331965827e-08
1.436789386e-08
5.136069353e-09
6.0220357e-09
7.403066606e-09
9.293190859e-09
1.165950127e-08
1.437493376e-08
1.717410999e-08
1.962859512e-08
2.116684459e-08
7.562123588e-09
8.857714858e-09
1.087443944e-08
1.363013666e-08
1.707483957e-08
2.102298667e-08
2.508942177e-08
2.865269528e-08
3.088367765e-08
1.106217256e-08
1.293279003e-08
1.58397479e-08
1.980442929e-08
2.475177329e-08
3.041433615e-08
3.624083595e-08
4.134249646e-08
4.453342224e-08
1.603830038e-08
1.870073338e-08
2.283031169e-08
2.845044329e-08
3.544950123e-08
4.344730221e-08
5.166671549e-08
5.885678558e-08
6.33488379e-08
2.300060813e-08
2.673159724e-08
3.250625856e-08
4.034629955e-08
5.008736759e-08
6.119667605e-08
7.259643669e-08
8.255642115e-08
8.877083918e-08
3.257935354e-08
3.772283778e-08
4.566502071e-08
5.641871023e-08
6.97444887e-08
8.490658648e-08
1.004355103e-07
1.139820754e-07
1.224213873e-07
4.553395529e-08
5.250623664e-08
6.324479882e-08
7.774135197e-08
9.565125037e-08
1.159735001e-07
1.367392107e-07
1.548191972e-07
1.660628808e-07
6.275861028e-08
7.205091705e-08
8.632343018e-08
1.055278991e-07
1.291748148e-07
1.559228251e-07
1.831797435e-07
2.068567473e-07
2.215516232e-07
8.52849058e-08
9.746318433e-08
1.161139675e-07
1.411218754e-07
1.718019577e-07
2.063838979e-07
2.415133698e-07
2.719476859e-07
2.907944445e-07
1.142822529e-07
1.299843576e-07
1.539586724e-07
1.859857804e-07
2.251226668e-07
2.690679573e-07
3.135533601e-07
3.519781273e-07
3.757147483e-07
1.510570294e-07
1.709876971e-07
2.013228419e-07
2.416913075e-07
2.908168183e-07
3.457521001e-07
4.011527664e-07
4.48850553e-07
4.782399303e-07
1.970509354e-07
2.219749298e-07
2.59788904e-07
3.099108959e-07
3.706438035e-07
4.382686758e-07
5.061967872e-07
5.644833408e-07
6.003073958e-07
2.53838364e-07
2.845719555e-07
3.310499137e-07
3.924088473e-07
4.664315663e-07
5.484930641e-07
6.305909216e-07
7.008075644e-07
7.438923011e-07
3.231218906e-07
3.605225793e-07
4.169008421e-07
4.910296526e-07
5.800613033e-07
6.78322767e-07
7.762271163e-07
8.596933496e-07
9.108154629e-07
4.067245874e-07
4.516789167e-07
5.192263954e-07
6.07682982e-07
7.134501857e-07
8.296597245e-07
9.449770954e-07
1.042984916e-06
1.102839692e-06
5.065777909e-07
5.599871445e-07
6.399840277e-07
7.443234118e-07
8.685268099e-07
1.004381615e-06
1.138644749e-06
1.252354015e-06
1.321575602e-06
6.247033372e-07
6.874679611e-07
7.811823888e-07
9.029275607e-07
1.047208758e-06
1.204319091e-06
1.358951597e-06
1.489361608e-06
1.568489406e-06
7.631898503e-07
8.361913783e-07
9.448543611e-07
1.085465012e-06
1.251374988e-06
1.431234935e-06
1.607442035e-06
1.755396142e-06
1.844868234e-06
9.241638514e-07
1.008246691e-06
1.133025005e-06
1.29386585e-06
1.482823758e-06
1.686726058e-06
1.885499344e-06
2.051659423e-06
2.151802219e-06
1.109756263e-06
1.205710246e-06
1.347683067e-06
1.529992617e-06
1.743249419e-06
1.972216886e-06
2.194314552e-06
2.379146455e-06
2.490168352e-06
1.322073769e-06
1.430617847e-06
1.590753562e-06
1.795619828e-06
2.034133664e-06
2.288931402e-06
2.5348632e-06
2.738628813e-06
2.860617776e-06
1.563168513e-06
1.684934168e-06
1.864058635e-06
2.09228637e-06
2.356751509e-06
2.637870216e-06
2.907888351e-06
3.130643235e-06
3.263567776e-06
1.835009269e-06
1.970491653e-06
2.169176687e-06
2.421315198e-06
2.712146304e-06
3.01979238e-06
3.313888936e-06
3.555485257e-06
3.699198423e-06
2.139330894e-06
2.288842157e-06
2.507444384e-06
2.783782855e-06
3.101108226e-06
3.435201903e-06
3.753113068e-06
4.013207461e-06
4.16745342e-06
2.477577997e-06
2.641276838e-06
2.87993429e-06
3.180497698e-06
3.524159103e-06
3.884339817e-06
4.225556251e-06
4.503621938e-06
4.668044672e-06
2.850913183e-06
3.02880251e-06
3.287433551e-06
3.611984271e-06
3.981543461e-06
4.36718176e-06
4.730964218e-06
5.026306529e-06
5.200460099e-06
3.260194684e-06
3.452122161e-06
3.730428742e-06
4.078474068e-06
4.473225602e-06
4.883440719e-06
5.268839937e-06
5.580614377e-06
5.763974235e-06
3.70595938e-06
3.911621562e-06
4.209097347e-06
4.579902687e-06
4.998892339e-06
5.432574461e-06
5.838454267e-06
6.165686295e-06
6.357661187e-06
4.188412905e-06
4.407362894e-06
4.723306017e-06
5.11591312e-06
5.557960947e-06
6.013797076e-06
6.43885973e-06
6.780465502e-06
6.980409548e-06
4.707427354e-06
4.939085597e-06
5.272615416e-06
5.685864743e-06
6.149591723e-06
6.626094055e-06
7.06890688e-06
7.423714287e-06
7.630938919e-06
5.262546447e-06
5.506214105e-06
5.856291143e-06
6.288847366e-06
6.772704523e-06
7.268240302e-06
7.727262756e-06
8.094032201e-06
8.307817686e-06
5.852997577e-06
6.107871844e-06
6.473320038e-06
6.923699632e-06
7.42599858e-06
7.93882048e-06
8.412430942e-06
8.789875392e-06
9.009481735e-06
6.477709912e-06
6.742900641e-06
7.122431029e-06
7.589030986e-06
8.107974925e-06
8.636251111e-06
9.122772772e-06
9.50957672e-06
9.734253792e-06
7.135337586e-06
7.409884611e-06
7.802119653e-06
8.283246395e-06
8.816960704e-06
9.358803877e-06
9.856529222e-06
1.025136628e-05
1.048036308e-05
7.824286942e-06
8.107177536e-06
8.510675323e-06
9.004573058e-06
9.551134741e-06
1.010462958e-05
1.06118431e-05
1.101339203e-05
1.124596498e-05
8.54274677e-06
8.832932762e-06
9.246210492e-06
9.751088323e-06
1.030855373e-05
1.087178229e-05
1.13867811e-05
1.179374016e-05
1.202916043e-05
9.288720528e-06
9.585134651e-06
1.000669085e-05
1.052074811e-05
1.108717849e-05
1.165824318e-05
1.217935545e-05
1.259045493e-05
1.282801481e-05
1.006005959e-05
1.036163073e-05
1.07899658e-05
1.131141524e-05
1.18848997e-05
1.246194374e-05
1.298754472e-05
1.340155775e-05
1.364057597e-05
1.085449661e-05
1.116016374e-05
1.159379854e-05
1.212088699e-05
1.269956284e-05
1.328078792e-05
1.38093136e-05
1.422506514e-05
1.446489135e-05
1.166967833e-05
1.197840286e-05
1.241589512e-05
1.29469216e-05
1.352899173e-05
1.411267297e-05
1.46426314e-05
1.505900559e-05
1.529902385e-05
1.250319703e-05
1.281397361e-05
1.325393202e-05
1.378726306e-05
1.437101054e-05
1.495550872e-05
1.548548905e-05
1.590143489e-05
1.614106636e-05
1.335262021e-05
1.366448577e-05
1.410558184e-05
1.463966411e-05
1.522346394e-05
1.580723513e-05
1.633591452e-05
1.675045005e-05
1.698915492e-05
1.421551798e-05
1.452755921e-05
1.496853675e-05
1.55019071e-05
1.608423527e-05
1.666583799e-05
1.719198647e-05
1.760420159e-05
1.784148027e-05
1.508948795e-05
1.540084707e-05
1.584052953e-05
1.637182249e-05
1.695126255e-05
1.752936268e-05
1.805184624e-05
1.846090424e-05
1.869629793e-05
1.597217733e-05
1.628205638e-05
1.671935212e-05
1.724730508e-05
1.782255235e-05
1.839592595e-05
1.891370797e-05
1.931884597e-05
1.955193668e-05
1.686130211e-05
1.716896583e-05
1.760287153e-05
1.81263278e-05
1.869619154e-05
1.926372581e-05
1.977586702e-05
2.017639542e-05
2.040680548e-05
1.77546634e-05
1.805944084e-05
1.848904313e-05
1.900695314e-05
1.957035685e-05
2.013104952e-05
2.063670675e-05
2.103200783e-05
2.125939901e-05
1.865016091e-05
1.895144585e-05
1.937592155e-05
1.988734237e-05
2.044332246e-05
2.099627976e-05
2.149470359e-05
2.188422948e-05
2.210830171e-05
1.954580365e-05
1.984305409e-05
2.026166903e-05
2.076576247e-05
2.131346565e-05
2.185789917e-05
2.234843072e-05
2.27317007e-05
2.295219058e-05
2.043971805e-05
2.073245485e-05
2.114456168e-05
2.164059123e-05
2.217927069e-05
2.271449325e-05
2.319656029e-05
2.357315768e-05
2.378983675e-05
2.133015371e-05
2.161795848e-05
2.202299356e-05
2.251032035e-05
2.303933114e-05
2.356475193e-05
2.40378644e-05
2.440743315e-05
2.462010595e-05
2.22154869e-05
2.249799941e-05
2.289547897e-05
2.337355698e-05
2.389235061e-05
2.440746982e-05
2.487121501e-05
2.523345597e-05
2.544195803e-05
2.309422216e-05
2.337113727e-05
2.376065304e-05
2.422902376e-05
2.473714238e-05
2.524154539e-05
2.569558278e-05
2.605024989e-05
2.625444563e-05
2.396499214e-05
2.423605645e-05
2.461727088e-05
2.507555755e-05
2.557262776e-05
2.60659791e-05
2.651003516e-05
2.685693149e-05
2.705671209e-05
2.482655599e-05
2.509156424e-05
2.54642055e-05
2.591210717e-05
2.639783363e-05
2.687987085e-05
2.731373369e-05
2.76527075e-05
2.784798881e-05
2.567779646e-05
2.593658785e-05
2.630044469e-05
2.673773009e-05
2.72118891e-05
2.768241661e-05
2.81059307e-05
2.843687161e-05
2.862759199e-05
2.651771602e-05
2.677017045e-05
2.712508698e-05
2.75515885e-05
2.801402162e-05
2.847290464e-05
2.888596565e-05
2.920880076e-05
2.939491909e-05
2.734543205e-05
2.759146643e-05
2.793733706e-05
2.835294472e-05
2.880355254e-05
2.925071116e-05
2.965326095e-05
2.996795121e-05
3.014944489e-05
2.816017151e-05
2.839973612e-05
2.873650054e-05
2.914115618e-05
2.957989226e-05
3.001529581e-05
3.040731759e-05
3.071385432e-05
3.089071739e-05
2.896126509e-05
2.919434006e-05
2.95219784e-05
2.991567013e-05
3.034253525e-05
3.076619684e-05
3.114771065e-05
3.144611216e-05
3.161835351e-05
2.974814095e-05
2.997473292e-05
3.02932612e-05
3.067601809e-05
3.109105476e-05
3.15030262e-05
3.187408456e-05
3.216439302e-05
3.233203469e-05
3.052031844e-05
3.074045739e-05
3.104992317e-05
3.142181024e-05
3.182509759e-05
3.222546456e-05
3.258614847e-05
3.286842699e-05
3.303150262e-05
3.127740161e-05
3.149113786e-05
3.17916162e-05
3.215272977e-05
3.254437873e-05
3.293325636e-05
3.328367153e-05
3.355800144e-05
3.371655475e-05
3.201907279e-05
3.222647426e-05
3.251806394e-05
3.286852731e-05
3.324867619e-05
3.362620492e-05
3.396647833e-05
3.423295665e-05
3.438704015e-05
3.274508628e-05
3.294623592e-05
3.322905598e-05
3.356901544e-05
3.393782587e-05
3.430416767e-05
3.463444441e-05
3.489318155e-05
3.504285522e-05
3.345526216e-05
3.365025563e-05
3.392444219e-05
3.425406339e-05
3.461171661e-05
3.496705153e-05
3.528749189e-05
3.553860955e-05
3.568393975e-05
3.414948038e-05
3.433842391e-05
3.460412731e-05
3.492359197e-05
3.527028544e-05
3.56148085e-05
3.592558535e-05
3.616921459e-05
3.631027299e-05
3.482767504e-05
3.50106835e-05
3.526806566e-05
3.557756858e-05
3.591351295e-05
3.624743132e-05
3.654872778e-05
3.678500733e-05
3.692186997e-05
3.548982897e-05
3.566702418e-05
3.591625628e-05
3.621600266e-05
3.654141903e-05
3.686494949e-05
3.715695679e-05
3.738603146e-05
3.751877795e-05
3.61359686e-05
3.630747775e-05
3.654873817e-05
3.683894129e-05
3.715405881e-05
3.746742549e-05
3.775034107e-05
3.79723604e-05
3.81010731e-05
3.676615942e-05
3.693211368e-05
3.716558606e-05
3.744646505e-05
3.775151875e-05
3.805495118e-05
3.832897702e-05
3.854409402e-05
3.866885739e-05
3.73805013e-05
3.754103467e-05
3.776690634e-05
3.803868439e-05
3.833391327e-05
3.862764455e-05
3.889298569e-05
3.910135573e-05
3.922225572e-05
3.797912445e-05
3.813437264e-05
3.835283318e-05
3.861573588e-05
3.890138123e-05
3.918564654e-05
3.944250977e-05
3.964428968e-05
3.97614132e-05
3.856218542e-05
3.871228499e-05
3.892352497e-05
3.917777891e-05
3.945408293e-05
3.972911818e-05
3.997771092e-05
4.017305812e-05
4.028649258e-05
3.912986368e-05
3.927495122e-05
3.947916118e-05
3.972499277e-05
3.999219727e-05
4.025823793e-05
4.049876727e-05
4.068783905e-05
4.079767193e-05
3.968235841e-05
3.982256986e-05
4.001993938e-05
4.025757374e-05
4.051591914e-05
4.077319927e-05
4.100587111e-05
4.118882397e-05
4.12951425e-05
4.021988552e-05
4.035535564e-05
4.054607251e-05
4.077573266e-05
4.102545702e-05
4.127420844e-05
4.149922676e-05
4.167621593e-05
4.177910676e-05
4.074267504e-05
4.087353686e-05
4.105778651e-05
4.127969255e-05
4.152103086e-05
4.176148239e-05
4.197904868e-05
4.215022762e-05
4.224977655e-05
4.125096863e-05
4.137735308e-05
4.1555318e-05
4.176968654e-05
4.200287005e-05
4.223524697e-05
4.244555969e-05
4.261107971e-05
4.270737149e-05
4.174501743e-05
4.186705304e-05
4.20389123e-05
4.224595596e-05
4.247121168e-05
4.269573521e-05
4.289898938e-05
4.305899933e-05
4.315211747e-05
4.222508012e-05
4.234289271e-05
4.250882166e-05
4.270874861e-05
4.29262989e-05
4.314318583e-05
4.333957268e-05
4.349421869e-05
4.35842453e-05
4.269142112e-05
4.280513362e-05
4.296530358e-05
4.315831727e-05
4.33683795e-05
4.357784184e-05
4.376754858e-05
4.391697383e-05
4.400398948e-05
4.314430905e-05
4.325404132e-05
4.34086194e-05
4.35949183e-05
4.379770459e-05
4.399994938e-05
4.418315892e-05
4.43275035e-05
4.441158714e-05
4.358401535e-05
4.36898841e-05
4.383903297e-05
4.401881039e-05
4.421452745e-05
4.440975655e-05
4.458664741e-05
4.472604816e-05
4.480727703e-05
4.401081302e-05
4.411293169e-05
4.425680957e-05
4.443025353e-05
4.461910251e-05
4.48075125e-05
4.497825866e-05
4.511284909e-05
4.519129866e-05
4.442497559e-05
4.452345432e-05
4.466221484e-05
4.482950802e-05
4.501168446e-05
4.519346653e-05
4.535823737e-05
4.548814762e-05
4.556389154e-05
4.482677609e-05
4.492172172e-05
4.505551393e-05
4.521683363e-05
4.53925274e-05
4.556786737e-05
4.572682763e-05
4.58521844e-05
4.592529448e-05
4.521648631e-05
4.530800236e-05
4.543697074e-05
4.559248887e-05
4.576188419e-05
4.593096246e-05
4.608427222e-05
4.620519877e-05
4.627574497e-05
4.559437604e-05
4.568256272e-05
4.580684719e-05
4.595673034e-05
4.612000582e-05
4.628299742e-05
4.643081215e-05
4.65474283e-05
4.66154787e-05
4.596071244e-05
4.604566673e-05
4.616540271e-05
4.630981218e-05
4.646714087e-05
4.662421551e-05
4.676668607e-05
4.687910823e-05
4.694472905e-05
4.631575955e-05
4.639757522e-05
4.651289371e-05
4.66519856e-05
4.680353506e-05
4.695485721e-05
4.709212994e-05
4.720047112e-05
4.726372675e-05
4.66597778e-05
4.673854549e-05
4.684957315e-05
4.698349845e-05
4.712943089e-05
4.727515985e-05
4.740737661e-05
4.75117465e-05
4.757269948e-05
4.69930237e-05
4.706883095e-05
4.717569019e-05
4.730459491e-05
4.744506726e-05
4.758535727e-05
4.771265555e-05
4.781316054e-05
4.787187161e-05
4.731574943e-05
4.738868082e-05
4.74914899e-05
4.761551518e-05
4.775067923e-05
4.78856796e-05
4.800819257e-05
4.810493583e-05
4.816146396e-05
4.762820267e-05
4.769833986e-05
4.779721301e-05
4.791649524e-05
4.804649776e-05
4.817635297e-05
4.829420962e-05
4.838729115e-05
4.844169355e-05
4.793062635e-05
4.799804816e-05
4.80930957e-05
4.820776666e-05
4.833274954e-05
4.845759936e-05
4.857092459e-05
4.866044131e-05
4.871277348e-05
4.822325849e-05
4.828804101e-05
4.837936944e-05
4.848955643e-05
4.860965683e-05
4.872963645e-05
4.883855114e-05
4.892459694e-05
4.89749127e-05
4.850633205e-05
4.85685487e-05
4.865626087e-05
4.876208682e-05
4.887743728e-05
4.899267745e-05
4.909729858e-05
4.91799644e-05
4.922831592e-05
4.878007486e-05
4.883979649e-05
4.892399164e-05
4.902557529e-05
4.913630387e-05
4.924693098e-05
4.934737175e-05
4.942674562e-05
4.947318346e-05
4.904470949e-05
4.910200446e-05
4.918277837e-05
4.928023434e-05
4.938646475e-05
4.949260095e-05
4.958897081e-05
4.966513796e-05
4.970971107e-05
4.930045318e-05
4.935538742e-05
4.943283251e-05
4.952627144e-05
4.962812311e-05
4.972988643e-05
4.982229119e-05
4.9895334e-05
4.993808978e-05
4.954751777e-05
4.960015484e-05
4.967436023e-05
4.976388884e-05
4.986147705e-05
4.995898141e-05
5.004752325e-05
5.011752137e-05
5.015850561e-05
4.978610953e-05
4.983651069e-05
4.990756228e-05
4.999328345e-05
5.008671934e-05
5.018007463e-05
5.026485212e-05
5.033188238e-05
5.03711393e-05
5.001642907e-05
5.006465329e-05
5.013263377e-05
5.021464655e-05
5.030403713e-05
5.039334914e-05
5.047445721e-05
5.053859359e-05
5.057616578e-05
5.023867105e-05
5.028477501e-05
5.034976387e-05
5.042816345e-05
5.051361153e-05
5.05989819e-05
5.067651168e-05
5.073782519e-05
5.077375352e-05
5.045302386e-05
5.049706192e-05
5.055913535e-05
5.063401295e-05
5.0715617e-05
5.079714297e-05
5.087118162e-05
5.092974011e-05
5.096406358e-05
5.065966911e-05
5.070169321e-05
5.076092397e-05
5.083236663e-05
5.091022049e-05
5.098799463e-05
5.105862495e-05
5.111449278e-05
5.114724834e-05
5.085878094e-05
5.089884043e-05
5.09552976e-05
5.102338782e-05
5.109758028e-05
5.117168995e-05
5.123898987e-05
5.129222744e-05
5.132344967e-05
5.1050525e-05
5.108866641e-05
5.114241499e-05
5.120723022e-05
5.127784436e-05
5.134837099e-05
5.141241282e-05
5.146307591e-05
5.149279663e-05
5.123505714e-05
5.12713238e-05
5.132242417e-05
5.138403606e-05
5.145114835e-05
5.151816639e-05
5.157901583e-05
5.162715471e-05
5.165540237e-05
5.141252164e-05
5.144695315e-05
5.149546027e-05
5.155393365e-05
5.16176127e-05
5.168118833e-05
5.173890302e-05
5.178456128e-05
5.181136027e-05
5.158304884e-05
5.161568041e-05
5.166164281e-05
5.171703432e-05
5.17773393e-05
5.183752859e-05
5.189215639e-05
5.193536941e-05
5.196073906e-05
5.174675224e-05
5.177761379e-05
5.182107219e-05
5.187342858e-05
5.193040712e-05
5.198725379e-05
5.203883058e-05
5.20796236e-05
5.210357706e-05
5.190372483e-05
5.193283983e-05
5.197382551e-05
5.202318144e-05
5.207686711e-05
5.213039977e-05
5.217894666e-05
5.221733251e-05
5.223987526e-05
5.205403466e-05
5.208141877e-05
5.211995151e-05
5.216632691e-05
5.22167361e-05
5.226696493e-05
5.231248505e-05
5.234846143e-05
5.236958967e-05
5.219771963e-05
5.222337905e-05
5.225946465e-05
5.230286164e-05
5.234998998e-05
5.239690287e-05
5.243937768e-05
5.247292404e-05
5.249262275e-05
5.23347815e-05
5.235871104e-05
5.239233856e-05
5.243273788e-05
5.247655614e-05
5.252011444e-05
5.255949959e-05
5.259057375e-05
5.26088147e-05
5.246517924e-05
5.248736017e-05
5.251849882e-05
5.255585595e-05
5.259630568e-05
5.263643953e-05
5.267266057e-05
5.270119517e-05
5.271793477e-05
5.258882188e-05
5.260921967e-05
5.263781552e-05
5.267205666e-05
5.270904557e-05
5.274564932e-05
5.277859736e-05
5.280449647e-05
5.281967377e-05
5.270556127e-05
5.272412328e-05
5.275009598e-05
5.2781114e-05
5.281451169e-05
5.284743953e-05
5.287696734e-05
5.290010339e-05
5.291363839e-05
5.281518519e-05
5.283183849e-05
5.285507825e-05
5.288272917e-05
5.291236331e-05
5.294142571e-05
5.296734477e-05
5.298755645e-05
5.299934891e-05
5.291741141e-05
5.293206097e-05
5.295242615e-05
5.297652643e-05
5.30021802e-05
5.302714181e-05
5.30492208e-05
5.306631225e-05
5.307624152e-05
5.301188348e-05
5.302441105e-05
5.30417268e-05
5.306205214e-05
5.308346352e-05
5.310404314e-05
5.312200876e-05
5.313575086e-05
5.31436769e-05
5.309816929e-05
5.310843332e-05
5.312249179e-05
5.313877802e-05
5.315564168e-05
5.31715153e-05
5.318505607e-05
5.319519032e-05
5.320095649e-05
5.317576341e-05
5.318360032e-05
5.319416304e-05
5.320610991e-05
5.321808259e-05
5.322889021e-05
5.323766419e-05
5.324391003e-05
5.324734788e-05
5.324409432e-05
5.324932164e-05
5.325612465e-05
5.326340315e-05
5.327011324e-05
5.32754704e-05
5.327911752e-05
5.32811834e-05
5.328211995e-05
5.330253769e-05
5.330495942e-05
5.330772161e-05
5.330998555e-05
5.33110477e-05
5.331056222e-05
5.330872159e-05
5.330632044e-05
5.330458794e-05
5.33504366e-05
5.334985105e-05
5.334828629e-05
5.334518847e-05
5.334022339e-05
5.333351767e-05
5.332585018e-05
5.33187189e-05
5.331416712e-05
5.338712923e-05
5.338333959e-05
5.337717262e-05
5.336838579e-05
5.33570453e-05
5.334378385e-05
5.332999948e-05
5.331792223e-05
5.331043274e-05
5.341198412e-05
5.340481162e-05
5.339379763e-05