/*--------------------------------*- C++ -*----------------------------------*\
| =========                 |                                                 |
| \\      /  F ield         | OpenFOAM: The Open Source CFD Toolbox           |
|  \\    /   O peration     | Version:  2212                                  |
|   \\  /    A nd           | Website:  www.openfoam.com                      |
|    \\/     M anipulation  |                                                 |
\*---------------------------------------------------------------------------*/
FoamFile
{
    version     2.0;
    format      ascii;
    arch        "LSB;label=32;scalar=64";
    class       volScalarField;
    location    "20.00000000";
    object      C4H6;
}
// * * * * * * * * * * * * * * * * * * * * * * * * * * * * * * * * * * * * * //

dimensions      [0 0 0 0 0 0 0];

internalField   nonuniform List<scalar> 
3000
(
2.770672943e-31
3.435995672e-31
4.499367548e-31
6.02374579e-31
8.073630398e-31
1.06720701e-30
1.371834248e-30
1.684879984e-30
1.923497713e-30
1.167551377e-30
1.458535218e-30
1.923536987e-30
2.5913862e-30
3.496731868e-30
4.67424971e-30
6.145940195e-30
7.886619274e-30
9.59444861e-30
3.008650407e-30
3.806005068e-30
5.093550032e-30
6.978434547e-30
9.614181712e-30
1.320170004e-29
1.794819309e-29
2.388063139e-29
2.970479374e-29
6.574089255e-30
8.451842138e-30
1.15430823e-29
1.620505558e-29
2.298098643e-29
3.260888672e-29
4.58546033e-29
6.266153526e-29
7.852154698e-29
1.337017147e-29
1.753265158e-29
2.4552179e-29
3.547958084e-29
5.192934426e-29
7.6069999e-29
1.098851958e-28
1.522278885e-28
1.902251187e-28
2.633755332e-29
3.529682148e-29
5.07858317e-29
7.561659683e-29
1.140901057e-28
1.717639824e-28
2.52957075e-28
3.524737964e-28
4.376823249e-28
5.136992426e-29
7.039530705e-29
1.040477648e-28
1.593633659e-28
2.469760702e-28
3.800377375e-28
5.671079706e-28
7.913694892e-28
9.717836485e-28
1.002837776e-28
1.403727854e-28
2.126901779e-28
3.339730166e-28
5.291881501e-28
8.281188818e-28
1.247993259e-27
1.74949719e-27
2.170141567e-27
1.969683086e-28
2.810393516e-28
4.351236765e-28
6.974588317e-28
1.124156581e-27
1.779476246e-27
2.694457844e-27
3.77047675e-27
4.643245765e-27
3.898631157e-28
5.655667353e-28
8.916550477e-28
1.453075951e-27
2.372593822e-27
3.786011698e-27
5.749021148e-27
8.034614569e-27
9.866992803e-27
7.775693232e-28
1.143874282e-27
1.830396436e-27
3.022260944e-27
4.983560353e-27
7.998480805e-27
1.216792395e-26
1.698853426e-26
2.082450115e-26
1.561204226e-27
2.323354764e-27
3.762744199e-27
6.277355377e-27
1.042892925e-26
1.680888088e-26
2.560201251e-26
3.571506972e-26
4.371820588e-26
3.151728213e-27
4.734843277e-27
7.742651687e-27
1.302226762e-26
2.175906396e-26
3.517956739e-26
5.362607118e-26
7.475635013e-26
9.140857748e-26
6.38992721e-27
9.673517289e-27
1.594152632e-26
2.698382411e-26
4.528754666e-26
7.339090548e-26
1.119350456e-25
1.559487369e-25
1.905225255e-25
1.29977146e-26
1.97996436e-26
3.283217404e-26
5.585625069e-26
9.406858263e-26
1.527144017e-25
2.330075466e-25
3.244680177e-25
3.961289811e-25
2.650427689e-26
4.057887357e-26
6.762602733e-26
1.155151763e-25
1.950706511e-25
3.171211868e-25
4.83987121e-25
6.736840952e-25
8.220091885e-25
5.414747062e-26
8.324326417e-26
1.392902254e-25
2.387008598e-25
4.039672657e-25
6.574286275e-25
1.003558222e-24
1.396411106e-24
1.703069013e-24
1.107784314e-25
1.708788139e-25
2.868734884e-25
4.92904715e-25
8.356207075e-25
1.361077633e-24
2.077961829e-24
2.89053279e-24
3.523954042e-24
2.268813896e-25
3.5094122e-25
5.907550749e-25
1.017201233e-24
1.72687677e-24
2.814678556e-24
4.297571815e-24
5.976514499e-24
7.283784509e-24
4.65047513e-25
7.209867929e-25
1.216363638e-24
2.098069064e-24
3.565866701e-24
5.815165759e-24
8.879231516e-24
1.234500382e-23
1.504079301e-23
9.538143046e-25
1.481566907e-24
2.504107769e-24
4.325422567e-24
7.358138858e-24
1.200435962e-23
1.832944111e-23
2.547741614e-23
3.103216097e-23
1.957166654e-24
3.044938444e-24
5.154305032e-24
8.913563426e-24
1.517409361e-23
2.476264948e-23
3.780760243e-23
5.253721288e-23
6.397346378e-23
4.01723167e-24
6.258397021e-24
1.060727005e-23
1.836096394e-23
3.127424386e-23
5.10452802e-23
7.792538944e-23
1.082507309e-22
1.317742201e-22
8.247100438e-24
1.286285222e-23
2.18240733e-23
3.78056527e-23
6.442006487e-23
1.051509263e-22
1.604871941e-22
2.228580208e-22
2.711913906e-22
1.693117996e-23
2.643353535e-23
4.48886832e-23
7.780651493e-23
1.326143728e-22
2.164464109e-22
3.30242456e-22
4.583694069e-22
5.575473248e-22
3.47543518e-23
5.430681857e-23
9.229002078e-23
1.600395475e-22
2.728043071e-22
4.451653186e-22
6.788921984e-22
9.417213416e-22
1.144892389e-21
7.131541821e-23
1.115224914e-22
1.896383851e-22
3.289507166e-22
5.607107414e-22
9.146419414e-22
1.393980644e-21
1.932175588e-21
2.347523954e-21
1.462557521e-22
2.288716391e-22
3.893769502e-22
6.75532474e-22
1.151242841e-21
1.876891778e-21
2.858131951e-21
3.957785662e-21
4.804721385e-21
2.996967688e-22
4.692808956e-22
7.986914301e-22
1.38568026e-21
2.36057055e-21
3.845516396e-21
5.849625541e-21
8.090390784e-21
9.81190232e-21
6.134179537e-22
9.610676558e-22
1.636142649e-21
2.838210214e-21
4.832161235e-21
7.863814616e-21
1.194564375e-20
1.649652784e-20
1.998221928e-20
1.253668169e-21
1.965176677e-21
3.346105445e-21
5.802639493e-21
9.871005713e-21
1.604270309e-20
2.432805562e-20
3.353364304e-20
4.05587013e-20
2.557343213e-21
4.01052442e-21
6.828936403e-21
1.183623242e-20
2.011258679e-20
3.26330588e-20
4.938206157e-20
6.791426893e-20
8.199505863e-20
5.20461592e-21
8.165048685e-21
1.390136336e-20
2.407629879e-20
4.085297762e-20
6.614769407e-20
9.984200698e-20
1.369408059e-19
1.649845219e-19
1.056288082e-20
1.657542194e-20
2.821167637e-20
4.881049233e-20
8.26736039e-20
1.335254125e-19
2.009251163e-19
2.747105002e-19
3.301584045e-19
2.136795524e-20
3.353488996e-20
5.704641579e-20
9.856541524e-20
1.665773547e-19
2.68226742e-19
4.021707012e-19
5.478424818e-19
6.565836542e-19
4.306459666e-20
6.75813753e-20
1.148699012e-19
1.981307578e-19
3.339461666e-19
5.358145732e-19
8.000431767e-19
1.085277715e-18
1.296628895e-18
8.642650169e-20
1.35589132e-19
2.302016289e-19
3.962024245e-19
6.656535782e-19
1.063614699e-18
1.580586441e-18
2.134067017e-18
2.540883756e-18
1.726404409e-19
2.706851278e-19
4.588620827e-19
7.876676107e-19
1.318359819e-18
2.096534182e-18
3.098948711e-18
4.1625222e-18
4.937537889e-18
3.430991161e-19
5.374387472e-19
9.092485748e-19
1.555823304e-18
2.592670464e-18
4.100861341e-18
6.025824518e-18
8.048566437e-18
9.509183426e-18
6.781209628e-19
1.060758125e-18
1.790104236e-18
3.051510615e-18
5.059664996e-18
7.954962835e-18
1.161379187e-17
1.541941392e-17
1.814175084e-17
1.332459761e-18
2.080380621e-18
3.499907726e-18
5.939835257e-18
9.793051936e-18
1.529539302e-17
2.217580699e-17
2.925680811e-17
3.427403184e-17
2.602142424e-18
4.05271597e-18
6.792475555e-18
1.146921876e-17
1.879018424e-17
2.91376058e-17
4.193470774e-17
5.496302247e-17
6.410639353e-17
5.049301357e-18
7.839496982e-18
1.308067832e-17
2.195939628e-17
3.572686224e-17
5.497632781e-17
7.851439948e-17
1.022179924e-16
1.186972969e-16
9.733524816e-18
1.505412633e-17
2.498791406e-17
4.167705046e-17
6.729559835e-17
1.027148442e-16
1.455296609e-16
1.881818993e-16
2.175640977e-16
1.863732309e-17
2.869194519e-17
4.733965228e-17
7.839066371e-17
1.255533029e-16
1.90012674e-16
2.670395854e-16
3.429661992e-16
3.948116536e-16
3.544259919e-17
5.426722704e-17
8.892924845e-17
1.461039353e-16
2.319987396e-16
3.480385808e-16
4.851360864e-16
6.188995434e-16
7.094770769e-16
6.693689379e-17
1.018468552e-16
1.656337581e-16
2.698156918e-16
4.245883837e-16
6.312695533e-16
8.727668146e-16
1.106097811e-15
1.262859551e-15
1.25540825e-16
1.896576565e-16
3.058635444e-16
4.937350956e-16
7.697043516e-16
1.134045712e-15
1.55523876e-15
1.958440705e-15
2.22735278e-15
2.338162193e-16
3.504335118e-16
5.600142401e-16
8.953431468e-16
1.382408326e-15
2.018332025e-15
2.746030527e-15
3.436629596e-15
3.894116192e-15
4.324466507e-16
6.424962461e-16
1.016731734e-15
1.609276815e-15
2.460470378e-15
3.559959736e-15
4.806060736e-15
5.979138068e-15
6.751447597e-15
7.942604813e-16
1.168957126e-15
1.830696097e-15
2.867612684e-15
4.341164913e-15
6.225177411e-15
8.341216998e-15
1.031849647e-14
1.161296468e-14
1.448694974e-15
2.11075782e-15
3.26976288e-15
5.067377823e-15
7.595502725e-15
1.079667498e-14
1.436200969e-14
1.767094836e-14
1.982626123e-14
2.624186939e-15
3.783163842e-15
5.794467835e-15
8.883049968e-15
1.318375172e-14
1.858000909e-14
2.454367394e-14
3.004436841e-14
3.361111334e-14
4.721172193e-15
6.73182952e-15
1.019143503e-14
1.545310003e-14
2.271099421e-14
3.174016343e-14
4.164796809e-14
5.073603173e-14
5.660556896e-14
8.437079201e-15
1.189548609e-14
1.779647539e-14
2.668780869e-14
3.884245123e-14
5.384606442e-14
7.020464259e-14
8.513577931e-14
9.474529587e-14
1.497742872e-14
2.087571556e-14
3.085844373e-14
4.576812792e-14
6.598162104e-14
9.075533649e-14
1.176104071e-13
1.420144063e-13
1.576723094e-13
2.640756746e-14
3.638555562e-14
5.314380041e-14
7.796807954e-14
1.113665315e-13
1.52033306e-13
1.958869561e-13
2.355823733e-13
2.609832581e-13
4.624438998e-14
6.299436235e-14
9.092463103e-14
1.319834131e-13
1.868358698e-13
2.532289528e-13
3.244884855e-13
3.887666664e-13
4.298009828e-13
8.043670061e-14
1.083514069e-13
1.545884107e-13
2.220803207e-13
3.116641277e-13
4.195082876e-13
5.347641756e-13
6.384006578e-13
7.044182975e-13
1.389827852e-13
1.851883079e-13
2.61249577e-13
3.715541341e-13
5.170953085e-13
6.914323628e-13
8.770200232e-13
1.043402967e-12
1.149171608e-12
2.385853647e-13
3.145809356e-13
4.389692147e-13
6.182760465e-13
8.535658134e-13
1.134106984e-12
1.431637425e-12
1.697598536e-12
1.866325783e-12
4.069883014e-13
5.312403469e-13
7.33546964e-13
1.023555216e-12
1.402163488e-12
1.851595679e-12
2.326472655e-12
2.749703652e-12
3.017682919e-12
6.900287009e-13
8.920597943e-13
1.219410015e-12
1.686236632e-12
2.292707761e-12
3.009467381e-12
3.763900758e-12
4.43428938e-12
4.858004672e-12
1.163053635e-12
1.489860914e-12
2.016986766e-12
2.764993061e-12
3.732052465e-12
4.869770717e-12
6.062551432e-12
7.119428221e-12
7.7863546e-12
1.949306524e-12
2.475373898e-12
3.320228598e-12
4.513244538e-12
6.04791259e-12
7.844783372e-12
9.721218789e-12
1.137945152e-11
1.242437303e-11
3.249308488e-12
4.092056522e-12
5.439693973e-12
7.333099471e-12
9.755871646e-12
1.257883154e-11
1.551584991e-11
1.810509184e-11
1.973461534e-11
5.387171905e-12
6.73037222e-12
8.868771961e-12
1.185725109e-11
1.566055871e-11
2.00715383e-11
2.464525262e-11
2.8668639e-11
3.119781712e-11
8.881921535e-12
1.101035909e-11
1.438319236e-11
1.907129072e-11
2.500658923e-11
3.18613057e-11
3.894758979e-11
4.51690422e-11
4.907580426e-11
1.455390098e-11
1.790379256e-11
2.318760178e-11
3.049397485e-11
3.9700878e-11
5.029507353e-11
6.121835335e-11
7.079175021e-11
7.679741977e-11
2.367912706e-11
2.891136956e-11
3.712873409e-11
4.843966585e-11
6.263577033e-11
7.892002332e-11
9.567205764e-11
1.103313839e-10
1.195192938e-10
3.821051578e-11
4.631752711e-11
5.900243538e-11
7.639566257e-11
9.815296839e-11
1.23045926e-10
1.486055895e-10
1.709435465e-10
1.849331751e-10
6.109416046e-11
7.355459987e-11
9.299129624e-11
1.19558812e-10
1.527028968e-10
1.905450343e-10
2.293431965e-10
2.632177292e-10
2.844196384e-10
9.671891327e-11
1.157188738e-10
1.452830766e-10
1.855928649e-10
2.357756857e-10
2.92982931e-10
3.515751069e-10
4.027004572e-10
4.346886897e-10
1.515509891e-10
1.802975361e-10
2.249407019e-10
2.856938362e-10
3.612118094e-10
4.472130347e-10
5.352489635e-10
6.120523261e-10
6.601072063e-10
2.350272754e-10
2.781911429e-10
3.451257247e-10
4.360888634e-10
5.490476408e-10
6.776249846e-10
8.092416414e-10
9.241008006e-10
9.959978228e-10
3.608136233e-10
4.251541026e-10
5.248222906e-10
6.601485759e-10
8.281176098e-10
1.019317073e-09
1.215132779e-09
1.386156485e-09
1.493307323e-09
5.485815678e-10
6.438277753e-10
7.912690093e-10
9.913653288e-10
1.239721107e-09
1.522564807e-09
1.812518363e-09
2.066090032e-09
2.225179345e-09
8.265150088e-10
9.666057833e-10
1.183381126e-09
1.477536562e-09
1.842762818e-09
2.259072033e-09
2.686429157e-09
3.060801807e-09
3.296105099e-09
1.234828639e-09
1.439646723e-09
1.756528325e-09
2.186584086e-09
2.720874771e-09
3.330596369e-09
3.95752582e-09
4.507821048e-09
4.854426333e-09
1.830654416e-09
2.128426443e-09
2.589112698e-09
3.214519314e-09
3.992103212e-09
4.880604576e-09
5.795788482e-09
6.600795295e-09
7.108971351e-09
2.694722262e-09
3.125288796e-09
3.791450905e-09
4.696109805e-09
5.821764601e-09
7.109598737e-09
8.438357718e-09
9.609521734e-09
1.035046089e-08
3.940314803e-09
4.55949639e-09
5.517487003e-09
6.818791985e-09
8.439015593e-09
1.029462896e-08
1.221198101e-08
1.390489308e-08
1.497798987e-08
5.725000946e-09
6.610287177e-09
7.979831491e-09
9.840290459e-09
1.2157523e-08
1.481325559e-08
1.756016154e-08
1.998867673e-08
2.153037434e-08
8.265636597e-09
9.523395651e-09
1.146852494e-08
1.411023484e-08
1.74003556e-08
2.117184789e-08
2.507461358e-08
2.852744938e-08
3.072148103e-08
1.185704976e-08
1.363138647e-08
1.637375114e-08
2.009580678e-08
2.472885856e-08
3.00376361e-08
3.55300626e-08
4.038938501e-08
4.347807651e-08
1.689468716e-08
1.937796184e-08
2.321246864e-08
2.841110472e-08
3.487482693e-08
4.227339729e-08
4.992083689e-08
5.668201573e-08
6.097810709e-08
2.390127794e-08
2.734613458e-08
3.265859294e-08
3.984949828e-08
4.877479594e-08
5.897306862e-08
6.949699822e-08
7.878836457e-08
8.468722956e-08
3.355725752e-08
3.82898067e-08
4.557596132e-08
5.541780377e-08
6.760481355e-08
8.149614283e-08
9.57972229e-08
1.083971434e-07
1.163844304e-07
4.673429342e-08
5.316786882e-08
6.305287303e-08
7.637069663e-08
9.281375752e-08
1.114987545e-07
1.306770214e-07
1.47528714e-07
1.581866573e-07
6.453077585e-08
7.317945418e-08
8.643652465e-08
1.042433129e-07
1.261527508e-07
1.509586033e-07
1.763278625e-07
1.98545537e-07
2.12557697e-07
8.830761695e-08
9.979849404e-08
1.173652566e-07
1.4087979e-07
1.696984437e-07
2.021915537e-07
2.352866821e-07
2.641572473e-07
2.823071857e-07
1.197221946e-07
1.348052568e-07
1.577960923e-07
1.884549931e-07
2.258674338e-07
2.678578004e-07
3.104293764e-07
3.474079349e-07
3.705741422e-07
1.607578682e-07
1.803122396e-07
2.100249146e-07
2.49487083e-07
2.974189769e-07
3.509511181e-07
4.049547732e-07
4.516505316e-07
4.807962811e-07
2.137461202e-07
2.387816626e-07
2.766970637e-07
3.26838756e-07
3.874455292e-07
4.54778015e-07
5.223520444e-07
5.805062705e-07
6.166648441e-07
2.813790358e-07
3.130323102e-07
3.608058225e-07
4.237058665e-07
4.993437201e-07
5.829213786e-07
6.66354088e-07
7.378104454e-07
7.820661917e-07
3.667089504e-07
4.062329174e-07
4.656764053e-07
5.435828272e-07
6.367771014e-07
7.391902362e-07
8.408779561e-07
9.275462061e-07
9.81012154e-07
4.731336529e-07
5.21878585e-07
5.949271177e-07
6.902233236e-07
8.036229635e-07
9.275568403e-07
1.049954203e-06
1.153768749e-06
1.217561727e-06
6.043567129e-07
6.637443352e-07
7.524245451e-07
8.675834897e-07
1.003906529e-06
1.152083144e-06
1.297647715e-06
1.420522787e-06
1.495737147e-06
7.643371984e-07
8.358345672e-07
9.422224015e-07
1.07975275e-06
1.241724836e-06
1.416839403e-06
1.587973076e-06
1.731756533e-06
1.819437616e-06
9.572282692e-07
1.042314646e-06
1.168487531e-06
1.330874426e-06
1.52116308e-06
1.725818026e-06
1.924807775e-06
2.091235518e-06
2.192354023e-06
1.187299533e-06
1.287430325e-06
1.435415966e-06
1.625059069e-06
1.846206638e-06
2.082846053e-06
2.311806595e-06
2.502459542e-06
2.617887805e-06
1.458848643e-06
1.575418082e-06
1.747142277e-06
1.96629391e-06
2.220652223e-06
2.491499614e-06
2.752320418e-06
2.968585732e-06
3.099076849e-06
1.776105701e-06
1.910409985e-06
2.107645872e-06
2.358352066e-06
2.648021654e-06
2.955023617e-06
3.249322324e-06
3.492360347e-06
3.63853083e-06
2.14313448e-06
2.29633708e-06
2.520658093e-06
2.804705106e-06
3.131481515e-06
3.476259515e-06
3.805343468e-06
4.076061408e-06
4.238377899e-06
2.563734675e-06
2.736835331e-06
2.989573891e-06
3.308442384e-06
3.673771629e-06
4.057583577e-06
4.422420621e-06
4.721453708e-06
4.900224014e-06
3.041349299e-06
3.235157981e-06
3.517371535e-06
3.872200094e-06
4.27714475e-06
4.700857475e-06
5.102056709e-06
5.429757102e-06
5.625125644e-06
3.578980973e-06
3.794097755e-06
4.106543341e-06
4.49810247e-06
4.943319262e-06
5.407392395e-06
5.845195047e-06
6.201628427e-06
6.413575965e-06
4.179120316e-06
4.41592176e-06
4.759039743e-06
5.187716854e-06
5.673446014e-06
6.177927236e-06
6.652207355e-06
7.037156821e-06
7.265504174e-06
4.843688878e-06
5.10232115e-06
5.476228309e-06
5.942023679e-06
6.468089762e-06
7.012620859e-06
7.522895134e-06
7.935871741e-06
8.180287077e-06
5.573998252e-06
5.854376851e-06
6.258868509e-06
6.761401669e-06
7.327225045e-06
7.911057795e-06
8.456503491e-06
8.896762567e-06
9.156771743e-06
6.37072614e-06
6.672541822e-06
7.107102343e-06
7.645627928e-06
8.250245753e-06
8.872266357e-06
9.451746133e-06
9.918308382e-06
1.019330776e-05
7.233909321e-06
7.556639552e-06
8.020460198e-06
8.59389199e-06
9.235987196e-06
9.894747743e-06
1.050683997e-05
1.099851629e-05
1.12877874e-05
8.162952742e-06
8.505877833e-06
8.997880773e-06
9.604822431e-06
1.028275911e-05
1.097651446e-05
1.161954762e-05
1.213496655e-05
1.243769208e-05
9.156653327e-06
9.518876307e-06
1.003774343e-05
1.067652432e-05
1.138838776e-05
1.21151362e-05
1.278722597e-05
1.332486273e-05
1.364014312e-05
1.021323662e-05
1.059370584e-05
1.113791099e-05
1.180662549e-05
1.255026526e-05
1.330779136e-05
1.400687897e-05
1.456508515e-05
1.489195548e-05
1.133040409e-05
1.172793757e-05
1.229578089e-05
1.299232962e-05
1.376540401e-05
1.455132225e-05
1.527521308e-05
1.585224605e-05
1.618969255e-05
1.25053887e-05
1.291869928e-05
1.350834234e-05
1.423047394e-05
1.503049444e-05
1.584229228e-05
1.658869344e-05
1.718274485e-05
1.752972079e-05
1.373501632e-05
1.416273685e-05
1.477223751e-05
1.551758963e-05
1.634196421e-05
1.717704351e-05
1.794359977e-05
1.855282239e-05
1.890826305e-05
1.501577075e-05
1.545647845e-05
1.608382451e-05
1.684996309e-05
1.769603716e-05
1.855175317e-05
1.933608029e-05
1.995861296e-05
2.03214493e-05
1.634386e-05
1.679609959e-05
1.743924041e-05
1.822369635e-05
1.908879077e-05
1.996248788e-05
2.076220313e-05
2.139619318e-05
2.176536423e-05
1.771528222e-05
1.81775872e-05
1.883446273e-05
1.963476532e-05
2.051621083e-05
2.140525471e-05
2.221800396e-05
2.286162724e-05
2.323609096e-05
1.912588922e-05
1.959680112e-05
2.026536801e-05
2.107907475e-05
2.197424239e-05
2.287604824e-05
2.369952965e-05
2.435100773e-05
2.472975043e-05
2.057144673e-05
2.104953199e-05
2.172778638e-05
2.255250897e-05
2.345883641e-05
2.437089314e-05
2.52028773e-05
2.586049207e-05
2.624253624e-05
2.204768994e-05
2.253155444e-05
2.321755149e-05
2.405097784e-05
2.496599151e-05
2.588588197e-05
2.67242285e-05
2.738633416e-05
2.777074494e-05
2.35503739e-05
2.403867506e-05
2.473054513e-05
2.55704575e-05
2.649179068e-05
2.741720794e-05
2.825987883e-05
2.892491131e-05
2.93108015e-05
2.50753181e-05
2.556677469e-05
2.626273632e-05
2.710702575e-05
2.803243275e-05
2.896119274e-05
2.980626252e-05
3.047274666e-05
3.085928052e-05
2.661844517e-05
2.711184488e-05
2.781021474e-05
2.865689196e-05
2.958425877e-05
3.051430957e-05
3.135997259e-05
3.202652712e-05
3.241292294e-05
2.81758136e-05
2.867001855e-05
2.936921865e-05
3.021642184e-05
3.114377338e-05
3.207320141e-05
3.291777653e-05
3.358311722e-05
3.396864888e-05
2.97436446e-05
3.023759503e-05
3.09361574e-05
3.178215707e-05
3.270766162e-05
3.363469508e-05
3.447662813e-05
3.513956918e-05
3.55235668e-05
3.131834344e-05
3.181105979e-05
3.250762893e-05
3.335083025e-05
3.427280125e-05
3.519581128e-05
3.603367543e-05
3.669312945e-05
3.707497924e-05
3.289651562e-05
3.338709914e-05
3.408043263e-05
3.491937561e-05
3.583627129e-05
3.675377099e-05
3.75862655e-05
3.824124231e-05
3.862038572e-05
3.447497832e-05
3.496261052e-05
3.565157789e-05
3.648493574e-05
3.739535689e-05
3.830599872e-05
3.913194629e-05
3.978155058e-05
4.015748297e-05
3.605076763e-05
3.653470866e-05
3.721828904e-05
3.804486499e-05
3.894755121e-05
3.985012296e-05
4.066846588e-05
4.131189414e-05
4.168416294e-05
3.762114195e-05
3.810072825e-05
3.877800684e-05
3.959672975e-05
4.049055447e-05
4.138397421e-05
4.219376966e-05
4.283030645e-05
4.319850897e-05
3.918358227e-05
3.965822351e-05
4.032838727e-05
4.113830632e-05
4.202227093e-05
4.290558099e-05
4.370599563e-05
4.433500933e-05
4.469879038e-05
4.07357896e-05
4.120496522e-05
4.186729785e-05
4.266757648e-05
4.354080374e-05
4.441316422e-05
4.520346831e-05
4.582440654e-05
4.618345576e-05
4.22756802e-05
4.273893548e-05
4.339281206e-05
4.418272147e-05
4.504444844e-05
4.590513022e-05
4.668469138e-05
4.729707619e-05
4.765112537e-05
4.380137885e-05
4.42583209e-05
4.49032021e-05
4.568211442e-05
4.653168513e-05
4.738006267e-05
4.81483395e-05
4.875176248e-05
4.910058272e-05
4.531121073e-05
4.576150425e-05
4.639693053e-05
4.716431184e-05
4.800116984e-05
4.883671386e-05
4.959324949e-05
5.018736678e-05
5.053076571e-05
4.680369216e-05
4.724705523e-05
4.78726409e-05
4.862804423e-05
4.945172509e-05
5.027399534e-05
5.1018411e-05
5.160293837e-05
5.194075737e-05
4.827752051e-05
4.871372036e-05
4.932914778e-05
5.007220622e-05
5.088233021e-05
5.169096829e-05
5.2422957e-05
5.299766505e-05
5.332977651e-05
4.973156352e-05
5.016041245e-05
5.076542628e-05
5.149584619e-05
5.229211111e-05
5.308683358e-05
5.38061541e-05
5.43708636e-05
5.469716828e-05
5.116484844e-05
5.158619985e-05
5.218060158e-05
5.289815612e-05
5.368033031e-05
5.446092188e-05
5.516739281e-05
5.572197026e-05
5.60423948e-05
5.257655088e-05
5.299029543e-05
5.357393808e-05
5.427846102e-05
5.504637692e-05
5.581268416e-05
5.650617827e-05
5.705053153e-05
5.736502601e-05
5.396598437e-05
5.437204627e-05
5.494482925e-05
5.563620893e-05
5.638975667e-05
5.714168194e-05
5.782212096e-05
5.835619526e-05
5.86647309e-05
5.533258926e-05
5.573092295e-05
5.629278742e-05
5.697096121e-05
5.771008274e-05
5.844757845e-05
5.911492796e-05
5.963870202e-05
5.994126901e-05
5.667592229e-05
5.706650916e-05
5.761743355e-05
5.82823826e-05
5.900706616e-05
5.973012942e-05
6.038439423e-05
6.089787678e-05
6.11944823e-05
5.799564628e-05
5.837849172e-05
5.891848764e-05
5.957023208e-05
6.028050708e-05
6.098917476e-05
6.163039458e-05
6.213362096e-05
6.242428728e-05
5.929152063e-05
5.966665128e-05
6.019575965e-05
6.08343541e-05
6.153028637e-05
6.222463051e-05
6.285287587e-05
6.334590501e-05
6.363066777e-05
6.05633922e-05
6.093085337e-05
6.144914093e-05
6.207467031e-05
6.275635768e-05
6.343648126e-05
6.405184981e-05
6.453476136e-05
6.481366794e-05
6.181118663e-05
6.217103994e-05
6.2678596e-05
6.329117172e-05
6.395874002e-05
6.462477302e-05
6.522738611e-05
6.570027782e-05
6.597338585e-05
6.303490022e-05
6.338722149e-05
6.388415493e-05
6.448391141e-05
6.513751076e-05
6.578960661e-05
6.637960616e-05
6.684259149e-05
6.710996752e-05
6.423459236e-05
6.457946963e-05
6.506590622e-05
6.56529977e-05
6.629279913e-05
6.693113146e-05
6.750867707e-05
6.796188302e-05
6.822360125e-05
6.541037846e-05
6.574791023e-05
6.622399017e-05
6.67985878e-05
6.742478021e-05
6.804953987e-05
6.861480625e-05
6.905837134e-05
6.931451253e-05
6.656242344e-05
6.689271703e-05
6.735859272e-05
6.792088198e-05
6.853366937e-05
6.914506176e-05
6.969823637e-05
7.013230885e-05
7.038295927e-05
6.769093564e-05
6.801410581e-05
6.846993984e-05
6.902011817e-05
6.961971712e-05
7.021795977e-05
7.075924067e-05
7.11839769e-05
7.14292274e-05
6.879616136e-05
6.911232894e-05
6.955829233e-05
7.009656698e-05
7.068320442e-05
7.126852483e-05
7.179811879e-05
7.221368176e-05
7.245362695e-05
6.987837974e-05
7.018767049e-05
7.062394103e-05
7.115052721e-05
7.172443842e-05
7.229707207e-05
7.281519284e-05
7.322175084e-05
7.345648834e-05
7.093789811e-05
7.12404417e-05
7.166720255e-05
7.21823217e-05
7.274374847e-05
7.330393711e-05
7.381080388e-05
7.420852936e-05
7.443815912e-05
7.197504784e-05
7.227097691e-05
7.268841528e-05
7.319229357e-05
7.374148264e-05
7.428947271e-05
7.478530875e-05
7.517437722e-05
7.539900091e-05
7.299018046e-05
7.32796298e-05
7.368793584e-05
7.418080284e-05
7.471800446e-05
7.525404571e-05
7.573907713e-05
7.611966624e-05
7.633938676e-05
7.398366422e-05
7.426677005e-05
7.466613585e-05
7.514822333e-05
7.567368999e-05
7.619803429e-05
7.667248897e-05
7.704477769e-05
7.725969863e-05
7.4955881e-05
7.523278032e-05
7.562339902e-05
7.609493991e-05
7.660892525e-05
7.712182547e-05
7.758593211e-05
7.795009999e-05
7.816032528e-05
7.590722347e-05
7.617805353e-05
7.656011853e-05
7.702134601e-05
7.752410384e-05
7.802581292e-05
7.847980021e-05
7.883602673e-05
7.904166021e-05
7.683809261e-05
7.710299039e-05
7.747669472e-05
7.79278414e-05
7.841962485e-05
7.891039497e-05
7.935449084e-05
7.970295484e-05
7.990409999e-05
7.774889548e-05
7.800799729e-05
7.837353293e-05
7.88148302e-05
7.929589097e-05
7.977597283e-05
8.021040383e-05
8.055128304e-05
8.074804266e-05
7.864004317e-05
7.889348427e-05
7.925104175e-05
7.968271912e-05
8.015330685e-05
8.062294905e-05
8.104793976e-05
8.138141035e-05
8.157388635e-05
7.951194909e-05
7.975986338e-05
8.010963128e-05
8.053191591e-05
8.099227761e-05
8.145172608e-05
8.186749868e-05
8.219373491e-05
8.238202807e-05
8.036502739e-05
8.060754713e-05
8.09497117e-05
8.136282792e-05
8.181320752e-05
8.22627051e-05
8.266947894e-05
8.298865281e-05
8.31728626e-05
8.119969154e-05
8.143694714e-05
8.1771692e-05
8.217586096e-05
8.261649889e-05
8.305628491e-05
8.345427613e-05
8.376655714e-05
8.394678159e-05
8.201635315e-05
8.224847296e-05
8.257597883e-05
8.297141817e-05
8.340255101e-05
8.383286095e-05
8.422228222e-05
8.452783713e-05
8.470417266e-05
8.281542091e-05
8.304253106e-05
8.336297553e-05
8.374989907e-05
8.417175928e-05
8.459282451e-05
8.497388474e-05
8.527287736e-05
8.544541869e-05
8.359729962e-05
8.381952388e-05
8.41330812e-05
8.451169878e-05
8.492451443e-05
8.533656192e-05
8.570946607e-05
8.600205709e-05
8.617089713e-05
8.436238937e-05
8.457984904e-05
8.488668998e-05
8.525720721e-05
8.566120178e-05
8.606445393e-05
8.642940279e-05
8.671574962e-05
8.688097937e-05
8.511108483e-05
8.532389864e-05
8.562419033e-05
8.598680843e-05
8.638220062e-05
8.677687501e-05
8.713406504e-05
8.741432168e-05
8.757603015e-05
8.584377456e-05
8.605205855e-05
8.634596438e-05
8.670088002e-05
8.708788354e-05
8.747419282e-05
8.782381594e-05
8.809813281e-05
8.825640696e-05
8.656084038e-05
8.676470788e-05
8.705238731e-05
8.739979247e-05
8.777861589e-05
8.815676751e-05
8.849901094e-05
8.876753475e-05
8.892245934e-05
8.726265682e-05
8.746221828e-05
8.774382678e-05
8.808390853e-05
8.845475506e-05
8.882495109e-05
8.915999714e-05
8.942287067e-05
8.95745282e-05
8.794959045e-05
8.814495339e-05
8.842064223e-05
8.875358257e-05
8.911664981e-05
8.947908664e-05
8.980711239e-05
9.006447432e-05
9.021294486e-05
8.862199927e-05
8.881326809e-05
8.908318415e-05
8.94091597e-05
8.976463932e-05
9.011950735e-05
9.044068438e-05
9.069266892e-05
9.083802991e-05
8.928023181e-05
8.946750769e-05
8.973179318e-05
9.005097487e-05
9.039905222e-05
9.074653538e-05
9.106102923e-05
9.130776575e-05
9.145009179e-05
8.992462632e-05
9.010800692e-05
9.036679907e-05
9.067935167e-05
9.102020519e-05
9.136048031e-05
9.166844989e-05
9.191006239e-05
9.204942483e-05
9.055550955e-05
9.073508872e-05
9.098851929e-05
9.129460076e-05
9.162840126e-05
9.196163724e-05
9.226323399e-05
9.249984033e-05
9.263630689e-05
9.117319533e-05
9.134906268e-05
9.15972573e-05
9.189701802e-05
9.222392764e-05
9.255028433e-05
9.28456511e-05
9.30773621e-05
9.321099625e-05
9.177798269e-05
9.195022307e-05
9.219330042e-05
9.2486882e-05
9.280705294e-05
9.312667974e-05
9.341594936e-05
9.364286755e-05
9.377372773e-05
9.237015357e-05
9.253884629e-05
9.277691702e-05
9.306445099e-05
9.33780238e-05
9.369105779e-05
9.397435129e-05
9.419656937e-05
9.432470804e-05
9.294996996e-05
9.311518789e-05
9.334835325e-05
9.36299592e-05
9.39370607e-05
9.424362439e-05
9.45210487e-05
9.473864758e-05
9.486411003e-05
9.351767033e-05
9.367947877e-05
9.390782889e-05
9.418361232e-05
9.448435303e-05
9.478455151e-05
9.50561967e-05
9.526924319e-05
9.539206607e-05
9.407346545e-05
9.42319207e-05
9.445553253e-05
9.472558218e-05
9.502005316e-05
9.53139708e-05
9.557990683e-05
9.578845086e-05
9.590866043e-05
9.461753341e-05
9.47726811e-05
9.499161595e-05
9.525600065e-05
9.55442699e-05
9.583196638e-05
9.609223929e-05
9.629631068e-05
9.641392092e-05
9.515001389e-05
9.530188705e-05
9.551618771e-05
9.577495277e-05
9.605706101e-05
9.633856696e-05
9.659319458e-05
9.679279951e-05
9.690780984e-05
9.567100175e-05
9.581961865e-05
9.602930621e-05
9.628246931e-05
9.655842533e-05
9.68337374e-05
9.708270475e-05
9.727782189e-05
9.739021485e-05
9.618053989e-05
9.632590156e-05
9.653097198e-05
9.677851897e-05
9.704829475e-05
9.731737042e-05
9.756062473e-05
9.775120127e-05
9.786094011e-05
9.667861186e-05
9.682069963e-05
9.702112e-05
9.72630003e-05
9.752652599e-05
9.778927851e-05
9.802672447e-05
9.821267208e-05
9.83196984e-05
9.716513443e-05
9.730390728e-05
9.749961224e-05
9.773573441e-05
9.799289338e-05
9.824918682e-05
9.848068212e-05
9.866187352e-05
9.876610516e-05
9.763995038e-05
9.777534255e-05
9.796623083e-05
9.819645848e-05
9.844708298e-05
9.869672798e-05
9.892207957e-05
9.90983457e-05
9.919967512e-05
9.810282222e-05
9.823474107e-05
9.84206726e-05
9.864482106e-05
9.888868883e-05
9.91314395e-05
9.935040112e-05
9.952152939e-05
9.961982282e-05
9.855342736e-05
9.868175181e-05
9.886254567e-05
9.908037981e-05
9.931721215e-05
9.955276468e-05
9.976503612e-05
9.993077029e-05
0.0001000258679
9.899135552e-05
9.911593529e-05
9.929136889e-05
9.950260264e-05
9.973206451e-05
9.996005808e-05
0.0001001652867
0.0001003253287
0.0001004170459
9.941610911e-05
9.953676501e-05
9.970657496e-05
9.991087293e-05
0.0001001325756
0.000100352596
0.0001005503813
0.0001007043956
0.000100792526
9.98271073e-05
9.994363296e-05
0.0001001075179
0.0001003044996
0.0001005180064
0.0001007295931
0.0001009194939
0.0001010671143
0.0001011514345
0.0001002236946
0.0001003358597
0.0001004934854
0.0001006827325
0.0001008875678
0.0001010902242
0.0001012717701
0.0001014126097
0.0001014928854
0.0001006051545
0.0001007127097
0.0001008637168
0.0001010447832
0.0001012404451
0.000101433653
0.0001016063581
0.0001017400219
0.000101816016
0.0001009707277
0.0001010734115
0.0001012174258