/*--------------------------------*- C++ -*----------------------------------*\
| =========                 |                                                 |
| \\      /  F ield         | OpenFOAM: The Open Source CFD Toolbox           |
|  \\    /   O peration     | Version:  2212                                  |
|   \\  /    A nd           | Website:  www.openfoam.com                      |
|    \\/     M anipulation  |                                                 |
\*---------------------------------------------------------------------------*/
FoamFile
{
    version     2.0;
    format      ascii;
    arch        "LSB;label=32;scalar=64";
    class       volScalarField;
    location    "20.00000000";
    object      C4H6_0;
}
// * * * * * * * * * * * * * * * * * * * * * * * * * * * * * * * * * * * * * //

dimensions      [0 0 0 0 0 0 0];

internalField   nonuniform List<scalar> 
3000
(
2.770685061e-31
3.436018458e-31
4.499411433e-31
6.023826594e-31
8.073769054e-31
1.067228942e-30
1.371866026e-30
1.684921851e-30
1.923547087e-30
1.167557338e-30
1.458546496e-30
1.92355868e-30
2.591425884e-30
3.496799391e-30
4.674355918e-30
6.146094755e-30
7.886828026e-30
9.594706774e-30
3.008668837e-30
3.806040114e-30
5.093617366e-30
6.978557185e-30
9.614389237e-30
1.32020243e-29
1.794865975e-29
2.388124988e-29
2.970553865e-29
6.574135107e-30
8.451929347e-30
1.154324921e-29
1.620535708e-29
2.298148724e-29
3.260963507e-29
4.58555786e-29
6.266261856e-29
7.852264298e-29
1.337026702e-29
1.753283241e-29
2.455252117e-29
3.548018231e-29
5.193027517e-29
7.607114616e-29
1.098860246e-28
1.522277473e-28
1.902248951e-28
2.633771932e-29
3.529713159e-29
5.07864034e-29
7.561753859e-29
1.140913067e-28
1.717645971e-28
2.529555695e-28
3.524733056e-28
4.376947471e-28
5.137016233e-29
7.039574335e-29
1.040485435e-28
1.593645601e-28
2.469773169e-28
3.800380001e-28
5.671108404e-28
7.914018668e-28
9.712494989e-28
1.002840548e-28
1.403732867e-28
2.126910805e-28
3.339745363e-28
5.291904972e-28
8.281218415e-28
1.247991675e-27
1.749467507e-27
2.170683172e-27
1.969685573e-28
2.810397839e-28
4.351244256e-28
6.974600892e-28
1.124158783e-27
1.779480598e-27
2.694465648e-27
3.770481146e-27
4.643233681e-27
3.89863266e-28
5.655669669e-28
8.916553798e-28
1.453076371e-27
2.372594386e-27
3.786012918e-27
5.749024244e-27
8.034619535e-27
9.866996404e-27
7.775693401e-28
1.143874261e-27
1.830396283e-27
3.022260465e-27
4.983559283e-27
7.998479004e-27
1.216792163e-26
1.698853157e-26
2.082449775e-26
1.561204121e-27
2.323354534e-27
3.762743686e-27
6.277354325e-27
1.042892734e-26
1.680887788e-26
2.56020085e-26
3.571506503e-26
4.371820082e-26
3.151728028e-27
4.734842932e-27
7.742651018e-27
1.30222664e-26
2.175906198e-26
3.517956456e-26
5.36260677e-26
7.47563464e-26
9.14085738e-26
6.38992699e-27
9.673516918e-27
1.594152567e-26
2.698382303e-26
4.528754505e-26
7.339090338e-26
1.119350432e-25
1.559487346e-25
1.905225234e-25
1.299771437e-26
1.979964326e-26
3.283217349e-26
5.585624985e-26
9.40685815e-26
1.527144003e-25
2.330075452e-25
3.244680165e-25
3.9612898e-25
2.650427667e-26
4.057887327e-26
6.76260269e-26
1.155151757e-25
1.950706503e-25
3.17121186e-25
4.839871204e-25
6.736840947e-25
8.22009188e-25
5.41474704e-26
8.324326389e-26
1.392902251e-25
2.387008593e-25
4.039672651e-25
6.574286271e-25
1.003558222e-24
1.396411106e-24
1.703069013e-24
1.107784311e-25
1.708788136e-25
2.868734881e-25
4.929047147e-25
8.356207074e-25
1.361077633e-24
2.077961829e-24
2.89053279e-24
3.523954042e-24
2.268813892e-25
3.509412197e-25
5.907550746e-25
1.017201233e-24
1.726876771e-24
2.814678556e-24
4.297571815e-24
5.976514499e-24
7.283784508e-24
4.650475125e-25
7.209867926e-25
1.216363638e-24
2.098069064e-24
3.565866701e-24
5.815165758e-24
8.879231515e-24
1.234500382e-23
1.504079301e-23
9.53814304e-25
1.481566907e-24
2.504107769e-24
4.325422566e-24
7.358138855e-24
1.200435962e-23
1.832944111e-23
2.547741614e-23
3.103216097e-23
1.957166653e-24
3.044938444e-24
5.154305031e-24
8.913563423e-24
1.517409361e-23
2.476264948e-23
3.780760243e-23
5.253721288e-23
6.397346377e-23
4.01723167e-24
6.258397019e-24
1.060727005e-23
1.836096394e-23
3.127424385e-23
5.10452802e-23
7.792538944e-23
1.082507309e-22
1.317742201e-22
8.247100435e-24
1.286285221e-23
2.182407329e-23
3.780565269e-23
6.442006485e-23
1.051509263e-22
1.604871941e-22
2.228580208e-22
2.711913905e-22
1.693117995e-23
2.643353533e-23
4.488868317e-23
7.78065149e-23
1.326143728e-22
2.164464109e-22
3.302424559e-22
4.583694068e-22
5.575473246e-22
3.475435177e-23
5.430681853e-23
9.229002073e-23
1.600395475e-22
2.72804307e-22
4.451653185e-22
6.788921983e-22
9.417213414e-22
1.144892389e-21
7.131541814e-23
1.115224914e-22
1.89638385e-22
3.289507166e-22
5.607107413e-22
9.146419411e-22
1.393980644e-21
1.932175588e-21
2.347523953e-21
1.46255752e-22
2.288716389e-22
3.893769501e-22
6.75532474e-22
1.151242841e-21
1.876891777e-21
2.85813195e-21
3.95778566e-21
4.804721383e-21
2.996967686e-22
4.692808953e-22
7.986914297e-22
1.385680259e-21
2.360570549e-21
3.845516394e-21
5.849625538e-21
8.09039078e-21
9.811902312e-21
6.134179532e-22
9.610676551e-22
1.636142648e-21
2.838210212e-21
4.832161233e-21
7.863814611e-21
1.194564374e-20
1.649652783e-20
1.998221927e-20
1.253668168e-21
1.965176675e-21
3.346105441e-21
5.802639488e-21
9.871005706e-21
1.604270308e-20
2.432805561e-20
3.353364301e-20
4.055870127e-20
2.55734321e-21
4.010524415e-21
6.828936395e-21
1.183623241e-20
2.011258677e-20
3.263305877e-20
4.938206153e-20
6.791426887e-20
8.199505856e-20
5.204615912e-21
8.165048672e-21
1.390136334e-20
2.407629877e-20
4.085297757e-20
6.614769399e-20
9.98420069e-20
1.369408058e-19
1.649845217e-19
1.05628808e-20
1.657542192e-20
2.821167634e-20
4.881049228e-20
8.267360379e-20
1.335254124e-19
2.009251161e-19
2.747104999e-19
3.301584041e-19
2.13679552e-20
3.353488991e-20
5.70464157e-20
9.856541512e-20
1.665773545e-19
2.682267417e-19
4.021707008e-19
5.478424813e-19
6.565836534e-19
4.306459658e-20
6.758137519e-20
1.14869901e-19
1.981307575e-19
3.339461663e-19
5.358145726e-19
8.000431758e-19
1.085277714e-18
1.296628893e-18
8.642650153e-20
1.355891317e-19
2.302016286e-19
3.96202424e-19
6.656535775e-19
1.063614697e-18
1.580586439e-18
2.134067014e-18
2.540883752e-18
1.726404406e-19
2.706851274e-19
4.588620821e-19
7.876676098e-19
1.318359817e-18
2.096534179e-18
3.098948707e-18
4.162522193e-18
4.93753788e-18
3.430991155e-19
5.374387464e-19
9.092485737e-19
1.555823302e-18
2.59267046e-18
4.100861334e-18
6.02582451e-18
8.048566423e-18
9.509183409e-18
6.781209615e-19
1.060758124e-18
1.790104234e-18
3.051510612e-18
5.059664989e-18
7.954962821e-18
1.161379185e-17
1.541941389e-17
1.81417508e-17
1.332459759e-18
2.080380618e-18
3.49990772e-18
5.939835249e-18
9.793051921e-18
1.529539299e-17
2.217580695e-17
2.925680805e-17
3.427403176e-17
2.602142419e-18
4.052715963e-18
6.792475541e-18
1.146921874e-17
1.87901842e-17
2.913760574e-17
4.193470766e-17
5.496302235e-17
6.410639337e-17
5.049301346e-18
7.839496966e-18
1.308067829e-17
2.195939624e-17
3.572686217e-17
5.497632769e-17
7.85143993e-17
1.022179921e-16
1.186972966e-16
9.733524794e-18
1.50541263e-17
2.4987914e-17
4.167705037e-17
6.72955982e-17
1.02714844e-16
1.455296606e-16
1.881818989e-16
2.175640972e-16
1.863732304e-17
2.869194512e-17
4.733965217e-17
7.839066352e-17
1.255533026e-16
1.900126735e-16
2.670395848e-16
3.429661984e-16
3.948116526e-16
3.544259909e-17
5.426722689e-17
8.892924822e-17
1.46103935e-16
2.31998739e-16
3.480385799e-16
4.851360852e-16
6.188995418e-16
7.094770751e-16
6.693689359e-17
1.018468549e-16
1.656337576e-16
2.698156911e-16
4.245883826e-16
6.312695516e-16
8.727668124e-16
1.106097808e-15
1.262859548e-15
1.255408246e-16
1.89657656e-16
3.058635435e-16
4.937350943e-16
7.697043498e-16
1.134045709e-15
1.555238756e-15
1.9584407e-15
2.227352774e-15
2.338162186e-16
3.504335107e-16
5.600142383e-16
8.953431443e-16
1.382408323e-15
2.01833202e-15
2.746030519e-15
3.436629586e-15
3.894116181e-15
4.324466493e-16
6.424962442e-16
1.016731731e-15
1.60927681e-15
2.460470371e-15
3.559959727e-15
4.806060722e-15
5.97913805e-15
6.751447576e-15
7.942604789e-16
1.168957123e-15
1.830696093e-15
2.867612676e-15
4.341164901e-15
6.225177393e-15
8.341216974e-15
1.031849643e-14
1.161296464e-14
1.44869497e-15
2.110757814e-15
3.269762871e-15
5.067377809e-15
7.595502703e-15
1.079667495e-14
1.436200965e-14
1.76709483e-14
1.982626116e-14
2.62418693e-15
3.783163831e-15
5.794467819e-15
8.883049942e-15
1.318375168e-14
1.858000903e-14
2.454367386e-14
3.004436831e-14
3.361111322e-14
4.721172178e-15
6.731829501e-15
1.0191435e-14
1.545309998e-14
2.271099413e-14
3.174016333e-14
4.164796795e-14
5.073603154e-14
5.660556875e-14
8.437079171e-15
1.189548605e-14
1.779647533e-14
2.66878086e-14
3.884245109e-14
5.384606422e-14
7.020464233e-14
8.513577897e-14
9.474529549e-14
1.497742867e-14
2.087571549e-14
3.085844361e-14
4.576812775e-14
6.598162078e-14
9.075533613e-14
1.176104066e-13
1.420144057e-13
1.576723087e-13
2.640756736e-14
3.638555547e-14
5.314380019e-14
7.796807922e-14
1.113665311e-13
1.520333054e-13
1.958869552e-13
2.355823722e-13
2.609832569e-13
4.624438979e-14
6.299436207e-14
9.092463063e-14
1.319834125e-13
1.86835869e-13
2.532289516e-13
3.244884839e-13
3.887666645e-13
4.298009808e-13
8.043670025e-14
1.083514064e-13
1.5458841e-13
2.220803196e-13
3.116641262e-13
4.195082855e-13
5.34764173e-13
6.384006546e-13
7.044182941e-13
1.389827845e-13
1.85188307e-13
2.612495757e-13
3.715541322e-13
5.170953059e-13
6.914323593e-13
8.770200188e-13
1.043402962e-12
1.149171602e-12
2.385853634e-13
3.145809339e-13
4.389692123e-13
6.182760432e-13
8.535658089e-13
1.134106979e-12
1.431637417e-12
1.697598527e-12
1.866325774e-12
4.069882992e-13
5.312403439e-13
7.335469599e-13
1.02355521e-12
1.40216348e-12
1.851595669e-12
2.326472642e-12
2.749703637e-12
3.017682904e-12
6.90028697e-13
8.920597892e-13
1.219410008e-12
1.686236623e-12
2.292707748e-12
3.009467364e-12
3.763900736e-12
4.434289354e-12
4.858004646e-12
1.163053628e-12
1.489860905e-12
2.016986754e-12
2.764993045e-12
3.732052445e-12
4.86977069e-12
6.062551396e-12
7.119428178e-12
7.786354558e-12
1.949306513e-12
2.475373883e-12
3.320228579e-12
4.513244512e-12
6.047912555e-12
7.844783327e-12
9.721218731e-12
1.137945145e-11
1.242437296e-11
3.249308469e-12
4.092056497e-12
5.439693941e-12
7.333099428e-12
9.755871588e-12
1.257883147e-11
1.551584982e-11
1.810509173e-11
1.973461523e-11
5.387171874e-12
6.73037218e-12
8.868771908e-12
1.185725102e-11
1.566055862e-11
2.007153818e-11
2.464525247e-11
2.866863882e-11
3.119781695e-11
8.881921484e-12
1.101035902e-11
1.438319227e-11
1.907129061e-11
2.500658908e-11
3.186130551e-11
3.894758955e-11
4.516904192e-11
4.9075804e-11
1.45539009e-11
1.790379246e-11
2.318760164e-11
3.049397466e-11
3.970087776e-11
5.029507324e-11
6.121835298e-11
7.079174978e-11
7.679741936e-11
2.367912693e-11
2.891136939e-11
3.712873386e-11
4.843966556e-11
6.263576996e-11
7.892002286e-11
9.567205708e-11
1.103313832e-10
1.195192932e-10
3.821051556e-11
4.631752683e-11
5.900243503e-11
7.639566212e-11
9.815296782e-11
1.230459253e-10
1.486055886e-10
1.709435455e-10
1.849331741e-10
6.10941601e-11
7.355459943e-11
9.299129569e-11
1.195588114e-10
1.527028959e-10
1.905450332e-10
2.293431952e-10
2.632177277e-10
2.844196369e-10
9.671891271e-11
1.157188731e-10
1.452830757e-10
1.855928638e-10
2.357756844e-10
2.929829293e-10
3.515751049e-10
4.027004548e-10
4.346886874e-10
1.515509883e-10
1.80297535e-10
2.249407006e-10
2.856938346e-10
3.612118074e-10
4.472130321e-10
5.352489604e-10
6.120523224e-10
6.601072028e-10
2.35027274e-10
2.781911413e-10
3.451257227e-10
4.360888609e-10
5.490476377e-10
6.776249807e-10
8.092416366e-10
9.241007949e-10
9.959978175e-10
3.608136213e-10
4.251541001e-10
5.248222876e-10
6.601485721e-10
8.28117605e-10
1.019317067e-09
1.215132771e-09
1.386156476e-09
1.493307315e-09
5.485815648e-10
6.438277716e-10
7.912690047e-10
9.91365323e-10
1.2397211e-09
1.522564798e-09
1.812518352e-09
2.066090019e-09
2.225179333e-09
8.265150043e-10
9.666057777e-10
1.183381119e-09
1.477536553e-09
1.842762807e-09
2.259072019e-09
2.68642914e-09
3.060801788e-09
3.296105081e-09
1.234828632e-09
1.439646715e-09
1.756528315e-09
2.186584073e-09
2.720874754e-09
3.330596349e-09
3.957525795e-09
4.50782102e-09
4.854426306e-09
1.830654406e-09
2.12842643e-09
2.589112682e-09
3.214519294e-09
3.992103187e-09
4.880604546e-09
5.795788445e-09
6.600795253e-09
7.108971311e-09
2.694722247e-09
3.125288777e-09
3.791450882e-09
4.696109776e-09
5.821764565e-09
7.109598693e-09
8.438357664e-09
9.609521671e-09
1.035046083e-08
3.940314781e-09
4.559496362e-09
5.517486968e-09
6.818791942e-09
8.43901554e-09
1.02946289e-08
1.221198093e-08
1.390489298e-08
1.497798978e-08
5.725000913e-09
6.610287135e-09
7.979831441e-09
9.840290396e-09
1.215752292e-08
1.48132555e-08
1.756016142e-08
1.99886766e-08
2.153037421e-08
8.265636549e-09
9.523395592e-09
1.146852487e-08
1.411023475e-08
1.740035549e-08
2.117184776e-08
2.507461342e-08
2.852744919e-08
3.072148085e-08
1.185704969e-08
1.363138639e-08
1.637375103e-08
2.009580666e-08
2.472885841e-08
3.003763591e-08
3.553006237e-08
4.038938475e-08
4.347807627e-08
1.689468707e-08
1.937796173e-08
2.321246849e-08
2.841110454e-08
3.487482671e-08
4.227339703e-08
4.992083659e-08
5.668201538e-08
6.097810676e-08
2.390127782e-08
2.734613442e-08
3.265859275e-08
3.984949804e-08
4.877479566e-08
5.897306827e-08
6.949699781e-08
7.87883641e-08
8.468722912e-08
3.355725735e-08
3.828980648e-08
4.557596106e-08
5.541780346e-08
6.760481318e-08
8.149614238e-08
9.579722235e-08
1.083971427e-07
1.163844298e-07
4.673429318e-08
5.316786853e-08
6.305287269e-08
7.637069622e-08
9.281375703e-08
1.114987539e-07
1.306770207e-07
1.475287132e-07
1.581866566e-07
6.453077555e-08
7.31794538e-08
8.64365242e-08
1.042433123e-07
1.261527502e-07
1.509586025e-07
1.763278616e-07
1.985455359e-07
2.12557696e-07
8.830761655e-08
9.979849355e-08
1.17365256e-07
1.408797894e-07
1.696984429e-07
2.021915527e-07
2.35286681e-07
2.64157246e-07
2.823071844e-07
1.197221941e-07
1.348052561e-07
1.577960916e-07
1.884549923e-07
2.258674327e-07
2.678577991e-07
3.104293749e-07
3.474079332e-07
3.705741407e-07
1.607578676e-07
1.803122388e-07
2.100249136e-07
2.494870819e-07
2.974189756e-07
3.509511165e-07
4.049547713e-07
4.516505294e-07
4.807962791e-07
2.137461194e-07
2.387816616e-07
2.766970625e-07
3.268387546e-07
3.874455276e-07
4.54778013e-07
5.22352042e-07
5.805062678e-07
6.166648416e-07
2.813790347e-07
3.130323089e-07
3.60805821e-07
4.237058647e-07
4.99343718e-07
5.829213761e-07
6.66354085e-07
7.378104421e-07
7.820661887e-07
3.667089491e-07
4.062329158e-07
4.656764034e-07
5.43582825e-07
6.367770988e-07
7.391902331e-07
8.408779525e-07
9.27546202e-07
9.810121504e-07
4.731336512e-07
5.218785829e-07
5.949271154e-07
6.902233209e-07
8.036229602e-07
9.275568365e-07
1.049954198e-06
1.153768744e-06
1.217561723e-06
6.043567108e-07
6.637443326e-07
7.524245422e-07
8.675834863e-07
1.003906525e-06
1.15208314e-06
1.297647709e-06
1.420522782e-06
1.495737141e-06
7.643371957e-07
8.35834564e-07
9.422223978e-07
1.079752746e-06
1.241724831e-06
1.416839397e-06
1.58797307e-06
1.731756526e-06
1.81943761e-06
9.57228266e-07
1.042314642e-06
1.168487526e-06
1.330874421e-06
1.521163074e-06
1.72581802e-06
1.924807768e-06
2.091235511e-06
2.192354016e-06
1.187299529e-06
1.287430321e-06
1.435415961e-06
1.625059063e-06
1.846206631e-06
2.082846046e-06
2.311806587e-06
2.502459533e-06
2.617887797e-06
1.458848638e-06
1.575418077e-06
1.747142271e-06
1.966293903e-06
2.220652216e-06
2.491499606e-06
2.752320409e-06
2.968585723e-06
3.09907684e-06
1.776105695e-06
1.910409979e-06
2.107645865e-06
2.358352058e-06
2.648021646e-06
2.955023608e-06
3.249322314e-06
3.492360335e-06
3.63853082e-06
2.143134473e-06
2.296337072e-06
2.520658085e-06
2.804705097e-06
3.131481505e-06
3.476259504e-06
3.805343457e-06
4.076061395e-06
4.238377888e-06
2.563734668e-06
2.736835323e-06
2.989573883e-06
3.308442374e-06
3.673771618e-06
4.057583566e-06
4.422420608e-06
4.721453694e-06
4.900224002e-06
3.041349291e-06
3.235157971e-06
3.517371526e-06
3.872200084e-06
4.277144739e-06
4.700857463e-06
5.102056695e-06
5.429757087e-06
5.625125631e-06
3.578980965e-06
3.794097745e-06
4.10654333e-06
4.498102459e-06
4.94331925e-06
5.407392382e-06
5.845195032e-06
6.201628411e-06
6.413575951e-06
4.179120307e-06
4.415921749e-06
4.759039732e-06
5.187716842e-06
5.673446001e-06
6.177927222e-06
6.652207339e-06
7.037156804e-06
7.265504159e-06
4.843688868e-06
5.102321139e-06
5.476228296e-06
5.942023666e-06
6.468089748e-06
7.012620844e-06
7.522895117e-06
7.935871723e-06
8.180287061e-06
5.573998241e-06
5.854376839e-06
6.258868496e-06
6.761401655e-06
7.32722503e-06
7.911057779e-06
8.456503474e-06
8.896762549e-06
9.156771726e-06
6.370726128e-06
6.672541809e-06
7.107102329e-06
7.645627913e-06
8.250245737e-06
8.87226634e-06
9.451746115e-06
9.918308362e-06
1.019330774e-05
7.233909309e-06
7.556639537e-06
8.020460183e-06
8.593891973e-06
9.23598718e-06
9.894747725e-06
1.050683995e-05
1.099851627e-05
1.128778738e-05
8.162952729e-06
8.505877818e-06
8.997880757e-06
9.604822413e-06
1.028275909e-05
1.097651444e-05
1.16195476e-05
1.213496653e-05
1.243769206e-05
9.156653313e-06
9.51887629e-06
1.003774341e-05
1.06765243e-05
1.138838774e-05
1.211513618e-05
1.278722594e-05
1.33248627e-05
1.36401431e-05
1.021323661e-05
1.059370582e-05
1.113791097e-05
1.180662547e-05
1.255026524e-05
1.330779134e-05
1.400687895e-05
1.456508513e-05
1.489195546e-05
1.133040408e-05
1.172793755e-05
1.229578087e-05
1.29923296e-05
1.376540399e-05
1.455132223e-05
1.527521305e-05
1.585224603e-05
1.618969252e-05
1.250538868e-05
1.291869926e-05
1.350834232e-05
1.423047391e-05
1.503049442e-05
1.584229225e-05
1.658869342e-05
1.718274482e-05
1.752972077e-05
1.373501631e-05
1.416273683e-05
1.477223749e-05
1.551758961e-05
1.634196419e-05
1.717704349e-05
1.794359974e-05
1.855282236e-05
1.890826303e-05
1.501577073e-05
1.545647843e-05
1.608382448e-05
1.684996307e-05
1.769603713e-05
1.855175314e-05
1.933608027e-05
1.995861293e-05
2.032144927e-05
1.634385998e-05
1.679609957e-05
1.743924038e-05
1.822369632e-05
1.908879074e-05
1.996248785e-05
2.07622031e-05
2.139619315e-05
2.17653642e-05
1.771528219e-05
1.817758718e-05
1.883446271e-05
1.963476529e-05
2.05162108e-05
2.140525468e-05
2.221800393e-05
2.286162721e-05
2.323609094e-05
1.91258892e-05
1.95968011e-05
2.026536798e-05
2.107907472e-05
2.197424236e-05
2.287604821e-05
2.369952963e-05
2.43510077e-05
2.47297504e-05
2.057144671e-05
2.104953196e-05
2.172778635e-05
2.255250894e-05
2.345883638e-05
2.437089312e-05
2.520287727e-05
2.586049204e-05
2.624253622e-05
2.204768992e-05
2.253155441e-05
2.321755146e-05
2.405097781e-05
2.496599148e-05
2.588588194e-05
2.672422847e-05
2.738633413e-05
2.777074491e-05
2.355037388e-05
2.403867503e-05
2.473054511e-05
2.557045748e-05
2.649179065e-05
2.741720791e-05
2.82598788e-05
2.892491128e-05
2.931080148e-05
2.507531807e-05
2.556677467e-05
2.62627363e-05
2.710702572e-05
2.803243273e-05
2.896119272e-05
2.98062625e-05
3.047274663e-05
3.085928049e-05
2.661844515e-05
2.711184486e-05
2.781021472e-05
2.865689193e-05
2.958425874e-05
3.051430954e-05
3.135997256e-05
3.202652709e-05
3.241292291e-05
2.817581358e-05
2.867001852e-05
2.936921862e-05
3.021642182e-05
3.114377336e-05
3.207320138e-05
3.29177765e-05
3.358311719e-05
3.396864885e-05
2.974364458e-05
3.0237595e-05
3.093615737e-05
3.178215704e-05
3.270766159e-05
3.363469506e-05
3.44766281e-05
3.513956914e-05
3.552356677e-05
3.131834342e-05
3.181105976e-05
3.250762891e-05
3.335083022e-05
3.427280122e-05
3.519581126e-05
3.60336754e-05
3.669312942e-05
3.707497921e-05
3.289651559e-05
3.338709911e-05
3.40804326e-05
3.491937558e-05
3.583627126e-05
3.675377096e-05
3.758626547e-05
3.824124228e-05
3.862038569e-05
3.44749783e-05
3.496261049e-05
3.565157786e-05
3.648493571e-05
3.739535687e-05
3.830599869e-05
3.913194626e-05
3.978155054e-05
4.015748294e-05
3.605076761e-05
3.653470863e-05
3.721828901e-05
3.804486496e-05
3.894755118e-05
3.985012293e-05
4.066846585e-05
4.131189411e-05
4.168416291e-05
3.762114193e-05
3.810072822e-05
3.877800681e-05
3.959672972e-05
4.049055445e-05
4.138397418e-05
4.219376963e-05
4.283030642e-05
4.319850894e-05
3.918358224e-05
3.965822348e-05
4.032838724e-05
4.113830629e-05
4.20222709e-05
4.290558096e-05
4.37059956e-05
4.43350093e-05
4.469879035e-05
4.073578958e-05
4.120496519e-05
4.186729782e-05
4.266757645e-05
4.354080371e-05
4.441316419e-05
4.520346828e-05
4.58244065e-05
4.618345573e-05
4.227568017e-05
4.273893545e-05
4.339281203e-05
4.418272144e-05
4.504444841e-05
4.590513019e-05
4.668469134e-05
4.729707616e-05
4.765112534e-05
4.380137882e-05
4.425832087e-05
4.490320207e-05
4.568211439e-05
4.653168511e-05
4.738006264e-05
4.814833947e-05
4.875176245e-05
4.910058269e-05
4.531121071e-05
4.576150422e-05
4.63969305e-05
4.716431181e-05
4.800116981e-05
4.883671383e-05
4.959324946e-05
5.018736675e-05
5.053076568e-05
4.680369214e-05
4.72470552e-05
4.787264087e-05
4.86280442e-05
4.945172506e-05
5.027399531e-05
5.101841097e-05
5.160293834e-05
5.194075734e-05
4.827752048e-05
4.871372033e-05
4.932914776e-05
5.007220619e-05
5.088233018e-05
5.169096826e-05
5.242295697e-05
5.299766502e-05
5.332977648e-05
4.97315635e-05
5.016041242e-05
5.076542625e-05
5.149584617e-05
5.229211109e-05
5.308683355e-05
5.380615407e-05
5.437086357e-05
5.469716825e-05
5.116484841e-05
5.158619982e-05
5.218060155e-05
5.289815609e-05
5.368033029e-05
5.446092186e-05
5.516739278e-05
5.572197023e-05
5.604239477e-05
5.257655086e-05
5.29902954e-05
5.357393805e-05
5.4278461e-05
5.504637689e-05
5.581268413e-05
5.650617824e-05
5.70505315e-05
5.736502598e-05
5.396598435e-05
5.437204625e-05
5.494482922e-05
5.563620891e-05
5.638975664e-05
5.714168192e-05
5.782212093e-05
5.835619523e-05
5.866473087e-05
5.533258924e-05
5.573092292e-05
5.62927874e-05
5.697096118e-05
5.771008272e-05
5.844757843e-05
5.911492793e-05
5.9638702e-05
5.994126899e-05
5.667592227e-05
5.706650914e-05
5.761743353e-05
5.828238258e-05
5.900706614e-05
5.97301294e-05
6.038439421e-05
6.089787675e-05
6.119448227e-05
5.799564625e-05
5.83784917e-05
5.891848761e-05
5.957023206e-05
6.028050706e-05
6.098917474e-05
6.163039455e-05
6.213362093e-05
6.242428726e-05
5.929152061e-05
5.966665126e-05
6.019575963e-05
6.083435408e-05
6.153028634e-05
6.222463049e-05
6.285287584e-05
6.334590498e-05
6.363066775e-05
6.056339218e-05
6.093085334e-05
6.144914091e-05
6.207467029e-05
6.275635766e-05
6.343648124e-05
6.405184978e-05
6.453476133e-05
6.481366791e-05
6.181118661e-05
6.217103991e-05
6.267859597e-05
6.32911717e-05
6.395874e-05
6.4624773e-05
6.522738609e-05
6.57002778e-05
6.597338583e-05
6.30349002e-05
6.338722146e-05
6.38841549e-05
6.448391139e-05
6.513751074e-05
6.578960659e-05
6.637960613e-05
6.684259147e-05
6.71099675e-05
6.423459234e-05
6.457946961e-05
6.50659062e-05
6.565299767e-05
6.629279911e-05
6.693113144e-05
6.750867704e-05
6.796188299e-05
6.822360123e-05
6.541037844e-05
6.57479102e-05
6.622399014e-05
6.679858777e-05
6.742478019e-05
6.804953985e-05
6.861480623e-05
6.905837132e-05
6.931451251e-05
6.656242342e-05
6.689271701e-05
6.73585927e-05
6.792088196e-05
6.853366935e-05
6.914506174e-05
6.969823634e-05
7.013230882e-05
7.038295924e-05
6.769093562e-05
6.801410579e-05
6.846993982e-05
6.902011814e-05
6.96197171e-05
7.021795975e-05
7.075924065e-05
7.118397688e-05
7.142922738e-05
6.879616134e-05
6.911232891e-05
6.955829231e-05
7.009656696e-05
7.06832044e-05
7.126852481e-05
7.179811877e-05
7.221368174e-05
7.245362693e-05
6.987837972e-05
7.018767047e-05
7.062394101e-05
7.115052719e-05
7.172443839e-05
7.229707205e-05
7.281519282e-05
7.322175082e-05
7.345648832e-05
7.093789809e-05
7.124044168e-05
7.166720253e-05
7.218232168e-05
7.274374845e-05
7.330393709e-05
7.381080386e-05
7.420852934e-05
7.44381591e-05
7.197504782e-05
7.227097689e-05
7.268841526e-05
7.319229355e-05
7.374148262e-05
7.428947269e-05
7.478530873e-05
7.517437719e-05
7.539900089e-05
7.299018044e-05
7.327962978e-05
7.368793582e-05
7.418080282e-05
7.471800444e-05
7.525404569e-05
7.573907711e-05
7.611966622e-05
7.633938674e-05
7.398366421e-05
7.426677003e-05
7.466613583e-05
7.514822331e-05
7.567368997e-05
7.619803427e-05
7.667248895e-05
7.704477767e-05
7.725969861e-05
7.495588098e-05
7.52327803e-05
7.5623399e-05
7.609493989e-05
7.660892523e-05
7.712182545e-05
7.758593209e-05
7.795009997e-05
7.816032526e-05
7.590722345e-05
7.617805351e-05
7.656011852e-05
7.702134599e-05
7.752410382e-05
7.80258129e-05
7.847980019e-05
7.883602671e-05
7.904166019e-05
7.68380926e-05
7.710299038e-05
7.74766947e-05
7.792784138e-05
7.841962483e-05
7.891039495e-05
7.935449082e-05
7.970295482e-05
7.990409997e-05
7.774889546e-05
7.800799727e-05
7.837353292e-05
7.881483018e-05
7.929589095e-05
7.977597281e-05
8.021040381e-05
8.055128302e-05
8.074804265e-05
7.864004315e-05
7.889348425e-05
7.925104174e-05
7.968271911e-05
8.015330684e-05
8.062294903e-05
8.104793974e-05
8.138141033e-05
8.157388634e-05
7.951194908e-05
7.975986336e-05
8.010963126e-05
8.053191589e-05
8.099227759e-05
8.145172606e-05
8.186749867e-05
8.219373489e-05
8.238202805e-05
8.036502737e-05
8.060754711e-05
8.094971168e-05
8.136282791e-05
8.181320751e-05
8.226270509e-05
8.266947892e-05
8.298865279e-05
8.317286259e-05
8.119969152e-05
8.143694712e-05
8.177169198e-05
8.217586095e-05
8.261649887e-05
8.30562849e-05
8.345427611e-05
8.376655712e-05
8.394678158e-05
8.201635314e-05
8.224847295e-05
8.257597882e-05
8.297141815e-05
8.340255099e-05
8.383286094e-05
8.42222822e-05
8.452783711e-05
8.470417264e-05
8.28154209e-05
8.304253104e-05
8.336297551e-05
8.374989905e-05
8.417175926e-05
8.459282449e-05
8.497388472e-05
8.527287734e-05
8.544541867e-05
8.359729961e-05
8.381952386e-05
8.413308118e-05
8.451169876e-05
8.492451442e-05
8.533656191e-05
8.570946605e-05
8.600205708e-05
8.617089711e-05
8.436238936e-05
8.457984903e-05
8.488668997e-05
8.52572072e-05
8.566120177e-05
8.606445391e-05
8.642940277e-05
8.671574961e-05
8.688097935e-05
8.511108482e-05
8.532389862e-05
8.562419032e-05
8.598680842e-05
8.63822006e-05
8.6776875e-05
8.713406502e-05
8.741432166e-05
8.757603014e-05
8.584377455e-05
8.605205854e-05
8.634596436e-05
8.670088001e-05
8.708788353e-05
8.74741928e-05
8.782381592e-05
8.80981328e-05
8.825640694e-05
8.656084037e-05
8.676470787e-05
8.70523873e-05
8.739979246e-05
8.777861587e-05
8.815676749e-05
8.849901093e-05
8.876753474e-05
8.892245933e-05
8.726265681e-05
8.746221826e-05
8.774382676e-05
8.808390852e-05
8.845475505e-05
8.882495108e-05
8.915999712e-05
8.942287066e-05
8.957452819e-05
8.794959044e-05
8.814495337e-05
8.842064221e-05
8.875358256e-05
8.91166498e-05
8.947908663e-05
8.980711238e-05
9.006447431e-05
9.021294485e-05
8.862199926e-05
8.881326808e-05
8.908318414e-05
8.940915969e-05
8.976463931e-05
9.011950734e-05
9.044068436e-05
9.06926689e-05
9.08380299e-05
8.92802318e-05
8.946750768e-05
8.973179317e-05
9.005097486e-05
9.039905221e-05
9.074653537e-05
9.106102921e-05
9.130776574e-05
9.145009178e-05
8.992462631e-05
9.01080069e-05
9.036679906e-05
9.067935165e-05
9.102020518e-05
9.13604803e-05
9.166844988e-05
9.191006238e-05
9.204942482e-05
9.055550954e-05
9.073508871e-05
9.098851927e-05
9.129460075e-05
9.162840125e-05
9.196163723e-05
9.226323397e-05
9.249984032e-05
9.263630688e-05
9.117319532e-05
9.134906267e-05
9.159725729e-05
9.189701801e-05
9.222392763e-05
9.255028432e-05
9.284565108e-05
9.307736209e-05
9.321099624e-05
9.177798268e-05
9.195022306e-05
9.21933004e-05
9.248688199e-05
9.280705293e-05
9.312667973e-05
9.341594935e-05
9.364286754e-05
9.377372772e-05
9.237015356e-05
9.253884628e-05
9.277691701e-05
9.306445098e-05
9.337802378e-05
9.369105778e-05
9.397435128e-05
9.419656935e-05
9.432470803e-05
9.294996995e-05
9.311518788e-05
9.334835324e-05
9.362995919e-05
9.393706069e-05
9.424362438e-05
9.452104869e-05
9.473864757e-05
9.486411002e-05
9.351767032e-05
9.367947876e-05
9.390782888e-05
9.418361231e-05
9.448435302e-05
9.47845515e-05
9.505619669e-05
9.526924318e-05
9.539206606e-05
9.407346544e-05
9.423192069e-05
9.445553252e-05
9.472558217e-05
9.502005315e-05
9.531397079e-05
9.557990682e-05
9.578845084e-05
9.590866042e-05
9.46175334e-05
9.477268109e-05
9.499161594e-05
9.525600064e-05
9.554426989e-05
9.583196637e-05
9.609223928e-05
9.629631067e-05
9.641392091e-05
9.515001388e-05
9.530188704e-05
9.55161877e-05
9.577495276e-05
9.6057061e-05
9.633856695e-05
9.659319457e-05
9.67927995e-05
9.690780983e-05
9.567100174e-05
9.581961864e-05
9.60293062e-05
9.62824693e-05
9.655842532e-05
9.683373739e-05
9.708270474e-05
9.727782188e-05
9.739021484e-05
9.618053988e-05
9.632590156e-05
9.653097197e-05
9.677851896e-05
9.704829474e-05
9.731737041e-05
9.756062472e-05
9.775120126e-05
9.78609401e-05
9.667861185e-05
9.682069962e-05
9.702111999e-05
9.726300029e-05
9.752652598e-05
9.77892785e-05
9.802672446e-05
9.821267207e-05
9.831969839e-05
9.716513442e-05
9.730390727e-05
9.749961223e-05
9.77357344e-05
9.799289337e-05
9.824918681e-05
9.848068211e-05
9.866187351e-05
9.876610515e-05
9.763995037e-05
9.777534254e-05
9.796623082e-05
9.819645847e-05
9.844708297e-05
9.869672797e-05
9.892207956e-05
9.909834569e-05
9.919967511e-05
9.810282221e-05
9.823474106e-05
9.842067259e-05
9.864482105e-05
9.888868882e-05
9.913143949e-05
9.935040111e-05
9.952152938e-05
9.961982281e-05
9.855342735e-05
9.86817518e-05
9.886254566e-05
9.90803798e-05
9.931721214e-05
9.955276468e-05
9.976503611e-05
9.993077028e-05
0.0001000258679
9.899135552e-05
9.911593528e-05
9.929136888e-05
9.950260263e-05
9.973206451e-05
9.996005807e-05
0.0001001652867
0.0001003253287
0.0001004170459
9.94161091e-05
9.953676501e-05
9.970657495e-05
9.991087292e-05
0.0001001325756
0.000100352596
0.0001005503813
0.0001007043956
0.000100792526
9.98271073e-05
9.994363295e-05
0.0001001075179
0.0001003044996
0.0001005180064
0.000100729593
0.0001009194939
0.0001010671143
0.0001011514345
0.0001002236946
0.0001003358597
0.0001004934854
0.0001006827325
0.0001008875678
0.0001010902242
0.00010127177
0.0001014126097
0.0001014928854
0.0001006051545
0.0001007127097
0.0001008637168
0.0001010447831
0.000101240445
0.000101433653
0.0001016063581
0.0001017400219
0.000101816016
0.0001009707277
0.0001010734115
0.0001012174257
0.000101389851
0.000101575827