/*--------------------------------*- C++ -*----------------------------------*\
| =========                 |                                                 |
| \\      /  F ield         | OpenFOAM: The Open Source CFD Toolbox           |
|  \\    /   O peration     | Version:  2212                                  |
|   \\  /    A nd           | Website:  www.openfoam.com                      |
|    \\/     M anipulation  |                                                 |
\*---------------------------------------------------------------------------*/
FoamFile
{
    version     2.0;
    format      ascii;
    arch        "LSB;label=32;scalar=64";
    class       volScalarField;
    location    "20.00000000";
    object      C4H61_0;
}
// * * * * * * * * * * * * * * * * * * * * * * * * * * * * * * * * * * * * * //

dimensions      [0 0 0 0 0 0 0];

internalField   nonuniform List<scalar> 
3000
(
2.224385395e-30
2.758534292e-30
3.612257006e-30
4.836101823e-30
6.481855391e-30
8.568023437e-30
1.101373902e-29
1.352704273e-29
1.54427959e-29
9.373485176e-30
1.170963042e-29
1.544288328e-29
2.080471573e-29
2.807331863e-29
3.752708686e-29
4.934263691e-29
6.331775273e-29
7.702910235e-29
2.415445687e-29
3.055598478e-29
4.089302949e-29
5.602587624e-29
7.71871066e-29
1.059896909e-28
1.440970691e-28
1.917256364e-28
2.384847264e-28
5.277904419e-29
6.785452136e-29
9.267253676e-29
1.301012985e-28
1.845020506e-28
2.61799633e-28
3.681419286e-28
5.030737295e-28
6.304025991e-28
1.073403424e-28
1.40758624e-28
1.97114724e-28
2.848451657e-28
4.169112948e-28
6.107212112e-28
8.821968167e-28
1.222128299e-27
1.527180202e-27
2.114467671e-28
2.833755177e-28
4.077278718e-28
6.070794082e-28
9.159579298e-28
1.378975682e-27
2.030799938e-27
2.829756297e-27
3.51393767e-27
4.124143826e-28
5.651572218e-28
8.353315877e-28
1.279424481e-27
1.982804843e-27
3.05105403e-27
4.552927819e-27
6.353599074e-27
7.797465906e-27
8.051090857e-28
1.126956933e-27
1.707544914e-27
2.681243255e-27
4.248492903e-27
6.648399324e-27
1.001923466e-26
1.404522675e-26
1.74268676e-26
1.581319872e-27
2.256267722e-27
3.493303284e-27
5.59940898e-27
9.025068033e-27
1.428617882e-26
2.163194039e-26
3.027050075e-26
3.727720805e-26
3.129933649e-27
4.540533145e-27
7.158464049e-27
1.166571207e-26
1.904786519e-26
3.039519264e-26
4.615480794e-26
6.450421948e-26
7.921506411e-26
6.24254868e-27
9.183349165e-27
1.469494394e-26
2.426356982e-26
4.000943655e-26
6.421407263e-26
9.768754811e-26
1.363887808e-25
1.671850123e-25
1.253379241e-26
1.86525535e-26
3.020838052e-26
5.039639255e-26
8.372640582e-26
1.3494647e-25
2.055402328e-25
2.867307376e-25
3.509821965e-25
2.53029724e-26
3.801267081e-26
6.216021278e-26
1.045464723e-25
1.746879613e-25
2.824315873e-25
4.305253806e-25
6.001652903e-25
7.338541257e-25
5.130015814e-26
7.766175549e-26
1.279831191e-25
2.166338347e-25
3.635813403e-25
5.892031237e-25
8.986464816e-25
1.252000961e-24
1.529569207e-24
1.043493616e-25
1.589571885e-25
2.635860616e-25
4.484299193e-25
7.552094261e-25
1.226034801e-24
1.870651088e-24
2.60492186e-24
3.180236531e-24
2.127838994e-25
3.257787787e-25
5.42921049e-25
9.273888055e-25
1.566082865e-24
2.545939405e-24
3.885586757e-24
5.408528214e-24
6.599324401e-24
4.347113495e-25
6.68300685e-25
1.118261688e-24
1.916358636e-24
3.243164515e-24
5.278024674e-24
8.056851857e-24
1.121078694e-23
1.367272414e-23
8.893608665e-25
1.371863892e-24
2.303102248e-24
3.957179742e-24
6.708601549e-24
1.092711973e-23
1.668247066e-23
2.320602224e-23
2.829130883e-23
1.821468553e-24
2.817456281e-24
4.742750355e-24
8.166381825e-24
1.386385959e-23
2.259704278e-23
3.450213307e-23
4.798116409e-23
5.84763008e-23
3.733534164e-24
5.788287751e-24
9.765314444e-24
1.684389724e-23
2.862779556e-23
4.66858103e-23
7.128500461e-23
9.910921374e-23
1.207517786e-22
7.657493455e-24
1.189444196e-23
2.010369182e-23
3.472572677e-23
5.907323858e-23
9.637442475e-23
1.471539839e-22
2.045399671e-22
2.491350437e-22
1.571269244e-23
2.444563479e-23
4.138023168e-23
7.156063078e-23
1.218219536e-22
1.988016162e-22
3.035302207e-22
4.217837362e-22
5.135972215e-22
3.225148223e-23
5.024419717e-23
8.515819079e-23
1.474070577e-22
2.510785534e-22
4.098060744e-22
6.256072608e-22
8.690677539e-22
1.057921037e-21
6.621007558e-23
1.032666478e-22
1.752098875e-22
3.035145667e-22
5.17182661e-22
8.441816374e-22
1.288436983e-21
1.789167773e-21
2.177201854e-21
1.359283436e-22
2.122159636e-22
3.603791558e-22
6.246529002e-22
1.06466602e-21
1.737693537e-21
2.65128065e-21
3.679920362e-21
4.476148978e-21
2.790178516e-22
4.359906328e-22
7.409306158e-22
1.284843144e-21
2.190150801e-21
3.573914168e-21
5.450340229e-21
7.56040756e-21
9.191522682e-21
5.725405218e-22
8.953343749e-22
1.522471052e-21
2.640910188e-21
4.501545773e-21
7.343006396e-21
1.119127422e-20
1.551205673e-20
1.884659187e-20
1.174182897e-21
1.837446802e-21
3.12602922e-21
5.423367382e-21
9.242505885e-21
1.50682225e-20
2.294589846e-20
3.177423205e-20
3.857367356e-20
2.406051139e-21
3.767520873e-21
6.41212259e-21
1.112463632e-20
1.895133358e-20
3.087290228e-20
4.696246199e-20
6.495196433e-20
7.87727498e-20
4.924694269e-21
7.715725214e-21
1.313541976e-20
2.278596094e-20
3.87939683e-20
6.313294606e-20
9.590303418e-20
1.324388292e-19
1.604229539e-19
1.006480554e-20
1.577699871e-20
2.686348858e-20
4.65852443e-20
7.924724823e-20
1.287953943e-19
1.953125665e-19
2.692176467e-19
3.256168171e-19
2.053108041e-20
3.219763341e-20
5.482464826e-20
9.502464813e-20
1.614695803e-19
2.619874987e-19
3.964532674e-19
5.452351106e-19
6.58279704e-19
4.178414013e-20
6.555133817e-20
1.116041074e-19
1.932913892e-19
3.279793484e-19
5.310525415e-19
8.015600892e-19
1.099399821e-18
1.324542765e-18
8.480181731e-20
1.330722109e-19
2.264913775e-19
3.918645421e-19
6.637272516e-19
1.071980063e-18
1.613084092e-18
2.205454182e-18
2.650605758e-18
1.715480321e-19
2.692276504e-19
4.579848781e-19
7.913112349e-19
1.337330463e-18
2.153400706e-18
3.228740976e-18
4.39823554e-18
5.271240656e-18
3.457348454e-19
5.425625268e-19
9.22208281e-19
1.590650153e-18
2.681014942e-18
4.301672015e-18
6.42297452e-18
8.71291866e-18
1.040970615e-17
6.938565534e-19
1.088548145e-18
1.848124205e-18
3.180825857e-18
5.344056448e-18
8.53900166e-18
1.268939806e-17
1.71328978e-17
2.039893849e-17
1.386006556e-18
2.173137195e-18
3.68387533e-18
6.32361968e-18
1.058416778e-17
1.683157311e-17
2.487924242e-17
3.341791334e-17
3.96399601e-17
2.754497165e-18
4.314710959e-18
7.299705954e-18
1.249059174e-17
2.081469568e-17
3.292288123e-17
4.837703367e-17
6.461618192e-17
7.63424313e-17
5.444147395e-18
8.516067138e-18
1.437146479e-17
2.44983935e-17
4.062042759e-17
6.386470201e-17
9.323882282e-17
1.237914406e-16
1.456471372e-16
1.069736391e-17
1.670188441e-17
2.809825025e-17
4.768668036e-17
7.862139743e-17
1.227957549e-16
1.780336754e-16
2.348819692e-16
2.751616719e-16
2.089073292e-17
3.253634689e-17
5.453191091e-17
9.207812811e-17
1.508529123e-16
2.339249479e-16
3.366637196e-16
4.41258741e-16
5.146643332e-16
4.053720749e-17
6.293768202e-17
1.050153601e-16
1.762962091e-16
2.868253121e-16
4.413654692e-16
6.303357901e-16
8.206349852e-16
9.529355504e-16
7.814344789e-17
1.208587215e-16
2.006099451e-16
3.345950054e-16
5.402679024e-16
8.246235934e-16
1.168353069e-15
1.510777385e-15
1.746666085e-15
1.496255702e-16
2.303468536e-16
3.800558057e-16
6.293419408e-16
1.007976748e-15
1.525474639e-15
2.14386842e-15
2.75342888e-15
3.169659065e-15
2.845428411e-16
4.356720782e-16
7.139482398e-16
1.172962273e-15
1.862549399e-15
2.794149433e-15
3.894806642e-15
4.968697649e-15
5.695880143e-15
5.373873533e-16
8.176538392e-16
1.329752141e-15
2.166152645e-15
3.408709606e-15
5.068002446e-15
7.006809374e-15
8.880056481e-15
1.013858488e-14
1.007874974e-15
1.522621565e-15
2.455552625e-15
3.963834365e-15
6.17938793e-15
9.104417214e-15
1.248586929e-14
1.572288689e-14
1.788179024e-14
1.877138082e-15
2.813371087e-15
4.495937674e-15
7.188041917e-15
1.109832337e-14
1.620368064e-14
2.20458343e-14
2.759015088e-14
3.126298286e-14
3.471797145e-15
5.15812661e-15
8.162578912e-15
1.291967078e-14
1.975325232e-14
2.858021293e-14
3.858421513e-14
4.800198003e-14
5.420229133e-14
6.376548828e-15
9.384703682e-15
1.469729679e-14
2.302189145e-14
3.485188091e-14
4.997712595e-14
6.696514148e-14
8.283918722e-14
9.323149795e-14
1.163059825e-14
1.694580376e-14
2.625056128e-14
4.068218228e-14
6.097842976e-14
8.667797031e-14
1.153010455e-13
1.418657606e-13
1.591690272e-13
2.106807678e-14
3.037267429e-14
4.651991829e-14
7.131566877e-14
1.05842339e-13
1.491640453e-13
1.970407644e-13
2.412006702e-13
2.698347827e-13
3.790439679e-14
5.404671486e-14
8.182149771e-14
1.240633029e-13
1.82330543e-13
2.548168657e-13
3.34355996e-13
4.073137566e-13
4.54433561e-13
6.77405964e-14
9.550668346e-14
1.428825564e-13
2.142649283e-13
3.118439104e-13
4.322917263e-13
5.636137554e-13
6.834740801e-13
7.60613953e-13
1.20260458e-13
1.676175688e-13
2.47766739e-13
3.674697148e-13
5.297482513e-13
7.28628228e-13
9.442062627e-13
1.140098877e-12
1.265781606e-12
2.120603258e-13
2.921799994e-13
4.267385313e-13
6.260534856e-13
8.941948977e-13
1.220666506e-12
1.57269227e-12
1.891310855e-12
2.095180135e-12
3.714139264e-13
5.059291828e-13
7.302219542e-13
1.059923108e-12
1.500351587e-12
2.0333886e-12
2.605426951e-12
3.121362389e-12
3.450708655e-12
6.461748284e-13
8.704007712e-13
1.241784599e-12
1.783854446e-12
2.503290097e-12
3.369269623e-12
4.294650318e-12
5.126679803e-12
5.656725237e-12
1.116828773e-12
1.488095598e-12
2.099231784e-12
2.985449553e-12
4.154670834e-12
5.555107556e-12
7.045879551e-12
8.382588413e-12
9.232660518e-12
1.917935756e-12
2.528839949e-12
3.528737275e-12
4.970058434e-12
6.861357434e-12
9.116529106e-12
1.150894291e-11
1.364894369e-11
1.50078595e-11
3.273174796e-12
4.27257961e-12
5.89985417e-12
8.232717534e-12
1.127879305e-11
1.489620991e-11
1.872201679e-11
2.213696131e-11
2.430279593e-11
5.552342372e-12
7.178555737e-12
9.813851544e-12
1.357298194e-11
1.845932956e-11
2.424097386e-11
3.033898346e-11
3.577210892e-11
3.921439263e-11
9.36362357e-12
1.199666348e-11
1.624505474e-11
2.227765012e-11
3.008719253e-11
3.929715557e-11
4.89874704e-11
5.760745698e-11
6.306429133e-11
1.570228003e-11
1.994598413e-11
2.676618371e-11
3.641060765e-11
4.884964234e-11
6.347568788e-11
7.883135938e-11
9.247215152e-11
1.011016071e-10
2.618915021e-11
3.299982934e-11
4.390629668e-11
5.927109804e-11
7.902157512e-11
1.021825078e-10
1.26452363e-10
1.479863744e-10
1.616021312e-10
4.345139832e-11
5.433887828e-11
7.17171742e-11
9.611577902e-11
1.273834133e-10
1.639623322e-10
2.022279339e-10
2.361458368e-10
2.575833241e-10
7.172726487e-11
8.906815379e-11
1.166656949e-10
1.552919772e-10
2.046571624e-10
2.622838353e-10
3.22478264e-10
3.757880496e-10
4.094722975e-10
1.178211581e-10
1.453454254e-10
1.890328993e-10
2.500081849e-10
3.277435992e-10
4.183148164e-10
5.127990369e-10
5.964171698e-10
6.492415992e-10
1.926021361e-10
2.361460028e-10
3.050944358e-10
4.010846374e-10
5.23189047e-10
6.652146577e-10
8.13209936e-10
9.441082837e-10
1.026791105e-09
3.133364667e-10
3.820017862e-10
4.904937834e-10
6.411961831e-10
8.325207865e-10
1.054729853e-09
1.286057529e-09
1.490565257e-09
1.61973591e-09
5.072836522e-10
6.152121361e-10
7.854120555e-10
1.021356996e-09
1.320384276e-09
1.667238736e-09
2.028041216e-09
2.346898819e-09
2.548292368e-09
8.171744422e-10
9.862404305e-10
1.252396712e-09
1.620713063e-09
2.086804853e-09
2.626866552e-09
3.188296433e-09
3.684338575e-09
3.997653408e-09
1.309432993e-09
1.573285688e-09
1.988036149e-09
2.561099799e-09
3.285371883e-09
4.123865039e-09
4.99514581e-09
5.764862571e-09
6.251073595e-09
2.08629425e-09
2.496338834e-09
3.140034465e-09
4.028251744e-09
5.149648889e-09
6.447042726e-09
7.79481068e-09
8.985489029e-09
9.73769436e-09
3.303268133e-09
3.937352887e-09
4.931586327e-09
6.301926165e-09
8.030516787e-09
1.002946014e-08
1.210582046e-08
1.394042772e-08
1.509959191e-08
5.193643965e-09
6.168385837e-09
7.695154044e-09
9.79735315e-09
1.244722388e-08
1.551054921e-08
1.869264959e-08
2.1504921e-08
2.328204695e-08
8.101798343e-09
9.589573808e-09
1.191762315e-08
1.512010311e-08
1.91543107e-08
2.381683324e-08
2.866068061e-08
3.294272633e-08
3.564884676e-08
1.25268182e-08
1.477838152e-08
1.829813307e-08
2.313537504e-08
2.922491842e-08
3.626102472e-08
4.357133537e-08
5.003510104e-08
5.411977408e-08
1.917722557e-08
2.255058094e-08
2.781843363e-08
3.50505958e-08
4.414795876e-08
5.465508604e-08
6.557070736e-08
7.522239203e-08
8.13198581e-08
2.903629525e-08
3.403172717e-08
4.18233014e-08
5.250697241e-08
6.593211245e-08
8.142675218e-08
9.7517196e-08
1.117398895e-07
1.207194919e-07
4.34356362e-08
5.073560845e-08
6.210548477e-08
7.76714409e-08
9.720388085e-08
1.197213372e-07
1.430838058e-07
1.637177729e-07
1.767314425e-07
6.413264681e-08
7.464362185e-08
9.098635279e-08
1.133160033e-07
1.412808043e-07
1.734622813e-07
2.0679962e-07
2.362009455e-07
2.547148004e-07
9.338575576e-08
1.082770769e-07
1.313810547e-07
1.62868382e-07
2.021966641e-07
2.473373268e-07
2.93984472e-07
3.350284793e-07
3.608138409e-07
1.34020895e-07
1.547543109e-07
1.868375417e-07
2.304194951e-07
2.846581684e-07
3.466798883e-07
4.105296591e-07
4.665002956e-07
5.015374808e-07
1.894841051e-07
2.178273278e-07
2.615443922e-07
3.206839223e-07
3.93931716e-07
4.772457911e-07
5.625171987e-07
6.367870195e-07
6.82949759e-07
2.638779048e-07
3.018974815e-07
3.60311722e-07
4.389286121e-07
5.356989374e-07
6.449692865e-07
7.558313601e-07
8.512848409e-07
9.094361101e-07
3.619800716e-07
4.12011132e-07
4.885314485e-07
5.908887927e-07
7.159330592e-07
8.558471849e-07
9.962148843e-07
1.115304415e-06
1.186395239e-06
4.892398714e-07
5.538291956e-07
6.521059641e-07
7.826411447e-07
9.406970574e-07
1.115612869e-06
1.288666051e-06
1.432710239e-06
1.518084298e-06
6.517412656e-07
7.335596708e-07
8.573363716e-07
1.020441666e-06
1.2159486e-06
1.429602449e-06
1.637643803e-06
1.808187548e-06
1.908894549e-06
8.561129968e-07
9.578293841e-07
1.110737045e-06
1.310466539e-06
1.547193922e-06
1.802308027e-06
2.046502959e-06
2.245453793e-06
2.36259093e-06
1.109356584e-06
1.233467146e-06
1.418753915e-06
1.658445929e-06
1.939023838e-06
2.23678858e-06
2.518956328e-06
2.747957278e-06
2.882497914e-06
1.418548719e-06
1.567162934e-06
1.787383115e-06
2.069316302e-06
2.395006955e-06
2.736207002e-06
3.058082685e-06
3.318572995e-06
3.471346432e-06
1.790328619e-06
1.964894805e-06
2.221529657e-06
2.546513937e-06
2.917006931e-06
3.303216794e-06
3.666337385e-06
3.95950401e-06
4.131167724e-06
2.230105559e-06
2.431073466e-06
2.724086192e-06
3.090993886e-06
3.507397367e-06
3.939965536e-06
4.345525646e-06
4.672224164e-06
4.863227754e-06
2.74096311e-06
2.967535499e-06
3.295448371e-06
3.704818785e-06
4.168097042e-06
4.647988592e-06
5.096730823e-06
5.457421086e-06
5.66797685e-06
3.322510773e-06
3.573810709e-06
3.937066313e-06
4.389593895e-06
4.900410665e-06
5.428099317e-06
5.920243918e-06
6.31495007e-06
6.54501526e-06
3.97484019e-06
4.251289003e-06
4.650343948e-06
5.146418466e-06
5.704945695e-06
6.280321257e-06
6.815520913e-06
7.243811423e-06
7.493081253e-06
4.699420323e-06
5.001243589e-06
5.436220826e-06
5.975729579e-06
6.581531399e-06
7.203845746e-06
7.781167082e-06
8.242153177e-06
8.510063551e-06
5.497333038e-06
5.824411782e-06
6.29494887e-06
6.877179773e-06
7.529162182e-06
8.197015387e-06
8.814946763e-06
9.307297888e-06
9.593036942e-06
6.368920145e-06
6.720745155e-06
7.225947055e-06
7.849563672e-06
8.545974491e-06
9.257334969e-06
9.913817297e-06
1.043579147e-05
1.073831876e-05
7.313610648e-06
7.689284424e-06
8.227731155e-06
8.890793669e-06
9.629258133e-06
1.0381509e-05
1.10739851e-05
1.162347143e-05
1.194154336e-05
8.329856169e-06
8.728118693e-06
9.297902869e-06
9.997917704e-06
1.077549843e-05
1.156550296e-05
1.229098088e-05
1.286555119e-05
1.319775118e-05
9.41513414e-06
9.834401662e-06
1.04331833e-05
1.116717078e-05
1.198044399e-05
1.280462423e-05
1.355975013e-05
1.415671692e-05
1.450148859e-05
1.056599602e-05
1.100440752e-05
1.162947927e-05
1.239405245e-05
1.323919449e-05
1.409361808e-05
1.487475492e-05
1.549123266e-05
1.584691476e-05
1.17781471e-05
1.223361531e-05
1.288197371e-05
1.36734237e-05
1.454630307e-05
1.542677407e-05
1.623008247e-05
1.686304993e-05
1.722791147e-05
1.304654907e-05
1.351681368e-05
1.418523328e-05
1.499961708e-05
1.589588819e-05
1.679803817e-05
1.761955662e-05
1.826591788e-05
1.863819231e-05
1.43655384e-05
1.484821975e-05
1.553332727e-05
1.636655495e-05
1.728175009e-05
1.82011266e-05
1.903684826e-05
1.969349058e-05
2.007140797e-05
1.572895485e-05
1.622160615e-05
1.691995239e-05
1.776787095e-05
1.869748778e-05
1.962963742e-05
2.047558142e-05
2.113942846e-05
2.1521245e-05
1.713027458e-05
1.763043142e-05
1.833855886e-05
1.919703028e-05
2.013661249e-05
2.107715657e-05
2.192943228e-05
2.25974916e-05
2.298151563e-05
1.856274325e-05
1.906796898e-05
1.978247341e-05
2.064744522e-05
2.159265458e-05
2.253735593e-05
2.339221897e-05
2.40616229e-05
2.444623727e-05
2.001950457e-05
2.052743072e-05
2.124501567e-05
2.211258269e-05
2.305926127e-05
2.40040812e-05
2.485798047e-05
2.552602013e-05
2.590970059e-05
2.149372092e-05
2.200208193e-05
2.271960509e-05
2.35860614e-05
2.453028338e-05
2.547142822e-05
2.632104382e-05
2.698519599e-05
2.736652559e-05
2.297868301e-05
2.348534489e-05
2.419985611e-05
2.506173708e-05
2.599984974e-05
2.693380705e-05
2.777607899e-05
2.843402618e-05
2.881170588e-05
2.44679065e-05
2.497088941e-05
2.567966018e-05
2.653377441e-05
2.746242872e-05
2.838599339e-05
2.921814169e-05
2.986778563e-05
3.024064125e-05
2.595521428e-05
2.64527091e-05
2.715325375e-05
2.799670556e-05
2.891287669e-05
2.982316764e-05
3.064270434e-05
3.128217348e-05
3.164915938e-05
2.743480367e-05
2.792518289e-05
2.861527217e-05
2.944547506e-05
3.034647378e-05
3.12409421e-05
3.204567601e-05
3.267332775e-05
3.303352758e-05
2.890129866e-05
2.938312209e-05
3.006078964e-05
3.08754718e-05
3.175894776e-05
3.263537723e-05
3.342341238e-05
3.403783059e-05
3.439045554e-05
3.034978754e-05
3.082180348e-05
3.148534617e-05
3.228254896e-05
3.314648677e-05
3.4002988e-05
3.477271668e-05
3.537270545e-05
3.571709034e-05
3.177584701e-05
3.22369894e-05
3.288496235e-05
3.366303288e-05
3.450574241e-05
3.53407415e-05
3.609083299e-05
3.667540713e-05
3.701100494e-05
3.31755539e-05
3.362493625e-05
3.425614354e-05
3.501372239e-05
3.583382416e-05
3.664604723e-05
3.7375433e-05
3.79438062e-05
3.827018118e-05
3.4545486e-05
3.49823927e-05
3.559587462e-05
3.633187974e-05
3.712828676e-05
3.791674113e-05
3.862459754e-05
3.917616871e-05
3.949298858e-05
3.58827136e-05
3.63065892e-05
3.69016069e-05
3.761521477e-05
3.838711161e-05
3.915106478e-05
3.9836794e-05
4.037113239e-05
4.067815997e-05
3.718478317e-05
3.759522033e-05
3.817123869e-05
3.886186355e-05
3.960868369e-05
4.034764083e-05
4.101085072e-05
4.152768043e-05
4.182476488e-05
3.8449695e-05
3.884642149e-05
3.940309084e-05
4.00703628e-05
4.079176504e-05
4.15054458e-05
4.21459293e-05
4.264511351e-05
4.293218148e-05
3.967587595e-05
4.005874123e-05
4.059587863e-05
4.123962134e-05
4.193546591e-05
4.262378115e-05
4.324149579e-05
4.372302111e-05
4.400006803e-05
4.086214895e-05
4.123111067e-05
4.174868115e-05
4.236888959e-05
4.303921459e-05
4.370224346e-05
4.429729133e-05
4.47612526e-05
4.502833415e-05
4.200770024e-05
4.236281102e-05
4.286090918e-05
4.345772808e-05
4.410272654e-05
4.47406945e-05
4.531330299e-05
4.575988875e-05
4.601711276e-05
4.31120455e-05
4.345344014e-05
4.393227259e-05
4.450597569e-05
4.512597386e-05
4.57392317e-05
4.628973531e-05
4.671921404e-05
4.696673287e-05
4.417499576e-05
4.450287918e-05
4.49627478e-05
4.551371841e-05
4.61091552e-05
4.669815948e-05
4.722698283e-05
4.76396902e-05
4.787769359e-05
4.519662374e-05
4.551125965e-05
4.595254613e-05
4.648125892e-05
4.705266702e-05
4.761796191e-05
4.812560411e-05
4.852193116e-05
4.875063974e-05
4.617723125e-05
4.647893177e-05
4.690208326e-05
4.740908771e-05
4.795707612e-05
4.849927689e-05
4.898629721e-05
4.936667968e-05
4.958633896e-05
4.711731817e-05
4.740643435e-05
4.781195046e-05
4.829785568e-05
4.882309402e-05
4.934287206e-05
4.980987707e-05
5.01747857e-05
5.038566072e-05
4.801755315e-05
4.829446639e-05
4.868288755e-05
4.914834873e-05
4.965155311e-05
5.014962253e-05
5.059725458e-05
5.09471865e-05
5.114955704e-05
4.887874646e-05
4.914386096e-05
4.951575793e-05
4.99614643e-05
5.044338479e-05
5.092049059e-05
5.134941759e-05
5.168488869e-05
5.187904502e-05
4.970182498e-05
4.995556097e-05
5.031152574e-05
5.073818995e-05
5.119959958e-05
5.165650722e-05
5.206741377e-05
5.2388952e-05
5.257519118e-05
5.048780942e-05
5.073059735e-05
5.107123513e-05
5.147958402e-05
5.192126925e-05
5.235875564e-05
5.275233522e-05
5.306047483e-05
5.323909746e-05
5.123779386e-05
5.147006933e-05
5.179599165e-05
5.218675829e-05
5.260951077e-05
5.302835649e-05
5.340530488e-05
5.370058143e-05
5.38718889e-05
5.195292736e-05
5.21751268e-05
5.248694567e-05
5.286086263e-05
5.32654722e-05
5.366645495e-05
5.402746455e-05
5.43104107e-05
5.447470285e-05
5.26343978e-05
5.284695488e-05
5.314527781e-05
5.350307143e-05
5.389032029e-05
5.427420933e-05
5.461996445e-05
5.489110644e-05
5.504867955e-05
5.328341766e-05
5.348676022e-05
5.377218615e-05
5.411457186e-05
5.448522967e-05
5.485278129e-05
5.518395426e-05
5.544380894e-05
5.559495414e-05
5.390121165e-05
5.409575926e-05
5.436887517e-05
5.469655361e-05
5.505137357e-05
5.540332737e-05
5.572057535e-05
5.596964787e-05
5.611464979e-05
5.448900611e-05
5.467516808e-05
5.493654634e-05
5.525020028e-05
5.558991592e-05
5.592699182e-05
5.623095428e-05
5.64697362e-05
5.660887191e-05
5.504801995e-05
5.522619376e-05
5.547639e-05
5.577668198e-05
5.610200474e-05
5.642490069e-05
5.671619748e-05
5.694516527e-05
5.707870346e-05
5.557945726e-05
5.575002736e-05
5.598957882e-05
5.627714922e-05
5.658876659e-05
5.689815689e-05
5.717738675e-05
5.73970007e-05
5.752520107e-05
5.60845009e-05
5.624783785e-05
5.647726226e-05
5.675272808e-05
5.705130224e-05
5.734783625e-05
5.761557577e-05
5.782627923e-05
5.794939202e-05
5.656430739e-05
5.672076726e-05
5.694056206e-05
5.720451596e-05
5.749068293e-05
5.777498428e-05
5.803178724e-05
5.823400612e-05
5.835227185e-05
5.702000269e-05
5.716992674e-05
5.738056859e-05
5.763357846e-05
5.790794757e-05
5.818061377e-05
5.842701078e-05
5.862115327e-05
5.873480257e-05
5.745267913e-05
5.759639361e-05
5.779833821e-05
5.804094694e-05
5.83041007e-05
5.856570296e-05
5.880220135e-05
5.898865785e-05
5.909791142e-05
5.786339292e-05
5.800120913e-05
5.819489125e-05
5.842761677e-05
5.868011096e-05
5.893119431e-05
5.915827826e-05
5.933742149e-05
5.944249011e-05
5.825316251e-05
5.838537687e-05
5.857121056e-05
5.879454615e-05
5.90369101e-05
5.927799371e-05
5.949612456e-05
5.966830975e-05
5.976939444e-05
5.86229674e-05
5.874986175e-05
5.892824068e-05
5.914265537e-05
5.937539246e-05
5.960697016e-05
5.98165868e-05
5.998215204e-05
6.007944421e-05
5.897374751e-05
5.909558942e-05
5.926688736e-05
5.947282654e-05
5.969641483e-05
5.99189557e-05
6.012047515e-05
6.02797418e-05
6.037342348e-05
5.930640298e-05
5.942344616e-05
5.958801757e-05
5.978590361e-05
6.000079659e-05
6.021474567e-05
6.040856372e-05
6.05618369e-05
6.065208101e-05
5.96217943e-05
5.973427907e-05
5.989245967e-05
6.008269276e-05
6.028932014e-05
6.049509927e-05
6.068159118e-05
6.08291603e-05
6.091613095e-05
5.992074274e-05
6.002889649e-05
6.018100404e-05
6.036396295e-05
6.056273154e-05
6.07607402e-05
6.094026145e-05
6.108240078e-05
6.116625357e-05
6.020403106e-05
6.030806878e-05
6.045440373e-05
6.06304467e-05
6.082174134e-05
6.101235753e-05
6.118524463e-05
6.13222139e-05
6.140309625e-05
6.047240434e-05
6.057252915e-05
6.071337542e-05
6.088284101e-05
6.106702552e-05
6.12506067e-05
6.141717796e-05
6.154922298e-05
6.16272745e-05
6.072657101e-05
6.082297471e-05
6.095860041e-05
6.112180844e-05
6.129922656e-05
6.147611057e-05
6.163666695e-05
6.176402022e-05
6.1839373e-05
6.096720401e-05
6.106006762e-05
6.119072583e-05
6.134797823e-05
6.151895458e-05
6.168946055e-05
6.184428647e-05
6.196716779e-05
6.203994679e-05
6.1194942e-05
6.128443628e-05
6.141036578e-05
6.15619475e-05
6.172678852e-05
6.189121783e-05
6.204058195e-05
6.215919905e-05
6.222952242e-05
6.141039064e-05
6.149667663e-05
6.161810266e-05
6.176428254e-05
6.19232774e-05
6.208191455e-05
6.22260706e-05
6.234061974e-05
6.240859916e-05
6.161412395e-05
6.169735348e-05
6.181448843e-05
6.195552002e-05
6.210894158e-05
6.226205506e-05
6.240124259e-05
6.251190915e-05
6.257765016e-05
6.18066856e-05
6.188700181e-05
6.200004593e-05
6.213616835e-05
6.228427398e-05
6.243211717e-05
6.256656232e-05
6.267352136e-05
6.273712367e-05
6.198859034e-05
6.206612812e-05
6.217527019e-05
6.230670893e-05
6.244974139e-05
6.259255335e-05
6.272246955e-05
6.282588638e-05
6.28874442e-05
6.216032528e-05
6.22352118e-05
6.234062976e-05
6.246759742e-05
6.260578566e-05
6.274379195e-05
6.286938066e-05
6.296941138e-05
6.302901371e-05
6.232235127e-05
6.239470636e-05
6.249656797e-05
6.261926501e-05
6.275282499e-05
6.28862384e-05
6.300768977e-05
6.310448177e-05
6.316221267e-05
6.247510417e-05
6.254504079e-05
6.26435042e-05
6.276211964e-05
6.289125505e-05
6.302027637e-05
6.313776987e-05
6.323146232e-05
6.328740123e-05
6.261899616e-05
6.268662079e-05
6.27818351e-05
6.28965472e-05
6.302145019e-05
6.31462689e-05
6.325997396e-05
6.33506983e-05
6.340492027e-05
6.275441696e-05
6.281982999e-05
6.29119358e-05
6.302291271e-05
6.314376457e-05
6.326455949e-05
6.337463608e-05
6.346251647e-05
6.351509241e-05
6.288173504e-05
6.294503114e-05
6.303416108e-05
6.314156141e-05
6.325853323e-05
6.337547321e-05
6.348207241e-05
6.356722615e-05
6.361822311e-05
6.300129879e-05
6.306256727e-05
6.314884645e-05
6.325281993e-05
6.336607323e-05
6.347931769e-05
6.358258222e-05
6.36651202e-05
6.371460156e-05
6.311343767e-05
6.317276279e-05
6.325630933e-05
6.335699729e-05
6.346668461e-05
6.357638418e-05
6.367644897e-05
6.375647602e-05
6.380450179e-05
6.321846328e-05
6.327592463e-05
6.335685005e-05
6.345438601e-05
6.35606515e-05
6.36669486e-05
6.376394125e-05
6.38415566e-05
6.388818356e-05
6.33166705e-05
6.337234326e-05
6.345075296e-05
6.354526315e-05
6.364824313e-05
6.375127253e-05
6.384531385e-05
6.39206115e-05
6.396589349e-05
6.340833855e-05
6.346229382e-05
6.353828751e-05
6.362989138e-05
6.372971495e-05
6.382960431e-05
6.392080885e-05
6.399387799e-05
6.403786613e-05
6.349373209e-05
6.354603718e-05
6.361970933e-05
6.370852011e-05
6.380530973e-05
6.390218024e-05
6.399065683e-05
6.406158226e-05
6.410432521e-05
6.357310237e-05
6.362382119e-05
6.369526147e-05
6.378138674e-05
6.387525883e-05
6.396922589e-05
6.405507825e-05
6.412394092e-05
6.416548517e-05
6.364668853e-05
6.369588188e-05
6.376517571e-05
6.384871802e-05
6.393978375e-05
6.403095765e-05
6.411428513e-05
6.418116267e-05
6.42215529e-05
6.371471898e-05
6.376244498e-05
6.382967408e-05
6.391073173e-05
6.39990978e-05
6.408758469e-05
6.416848308e-05
6.423345057e-05
6.427273005e-05
6.377741306e-05
6.382372762e-05
6.388897076e-05
6.396763864e-05
6.405340839e-05
6.413931133e-05
6.421787401e-05
6.428100485e-05
6.431921603e-05
6.383498305e-05
6.387994051e-05
6.394327434e-05
6.40196451e-05
6.410291977e-05
6.418634022e-05
6.426265951e-05
6.432402661e-05
6.436121183e-05
6.388763675e-05
6.393129056e-05
6.399279076e-05
6.406695625e-05
6.414783671e-05
6.422887636e-05
6.430304536e-05
6.436272273e-05
6.439892518e-05
6.393558058e-05
6.397798432e-05
6.403772702e-05
6.410978016e-05
6.418836915e-05
6.426713233e-05
6.433924737e-05
6.439731214e-05
6.443257718e-05
6.397902367e-05
6.402023232e-05
6.407829602e-05
6.414833322e-05
6.422473825e-05
6.430133515e-05
6.437149893e-05
6.442803413e-05
6.446241094e-05
6.401818307e-05
6.40582546e-05
6.411472258e-05
6.418284698e-05
6.425718411e-05
6.433173493e-05
6.440006065e-05
6.445515872e-05
6.448870254e-05
6.405329027e-05
6.409228777e-05
6.414725127e-05
6.421357679e-05
6.42859755e-05
6.435861577e-05
6.442523247e-05
6.447899979e-05
6.451177479e-05
6.408459944e-05
6.412259385e-05
6.417615605e-05
6.424081261e-05
6.431142197e-05
6.43823093e-05
6.44473685e-05
6.449993118e-05
6.4532014e-05
6.411239767e-05
6.41494711e-05
6.420175216e-05
6.426489219e-05
6.433388856e-05
6.440321102e-05
6.446689503e-05
6.451840597e-05
6.454989019e-05
6.413701739e-05
6.417326732e-05
6.422441057e-05
6.428621696e-05
6.435381338e-05
6.442179969e-05
6.448433166e-05
6.45349791e-05
6.456598061e-05
6.415885127e-05
6.419439558e-05
6.424457496e-05
6.430527069e-05
6.43717281e-05
6.443865973e-05
6.450031552e-05
6.455033318e-05
6.458099646e-05
6.417836969e-05
6.421335265e-05
6.426278153e-05
6.432264085e-05
6.43882812e-05
6.445450644e-05
6.451562832e-05
6.456530694e-05
6.459581225e-05
6.419614075e-05
6.423073989e-05
6.427968121e-05
6.433904258e-05
6.44042637e-05
6.447021344e-05
6.453122534e-05
6.45809255e-05
6.461149681e-05
6.42128526e-05
6.424728652e-05
6.429606407e-05
6.435534438e-05
6.442063632e-05
6.448684132e-05
6.454826533e-05
6.459843112e-05
6.46293445e-05
6.422933772e-05
6.426387448e-05
6.431288517e-05
6.437259503e-05
6.443855737e-05
6.450566619e-05
6.456813949e-05
6.461931241e-05
6.465090446e-05
6.424659821e-05
6.428156422e-05
6.433129073e-05
6.439205009e-05
6.445940936e-05
6.45282061e-05
6.459249736e-05
6.464532948e-05
6.46780052e-05
6.426583111e-05
6.430161989e-05
6.435264313e-05
6.441519635e-05
6.44848224e-05
6.455624295e-05
6.462326681e-05
6.467853199e-05
6.471277125e-05
6.428845207e-05
6.432553239e-05
6.437854283e-05
6.444377194e-05
6.451669178e-05
6.45918368e-05
6.466266471e-05
6.472126636e-05
6.475762801e-05
6.431611548e-05
6.43550381e-05
6.44108447e-05
6.447977934e-05
6.455718659e-05
6.46373292e-05
6.471319452e-05
6.477616804e-05
6.481529053e-05
6.435072868e-05
6.439213066e-05
6.445166613e-05
6.452548826e-05
6.460874603e-05
6.469533176e-05
6.477762679e-05
6.484613474e-05
6.488873195e-05
6.439445737e-05
6.443906298e-05
6.450338365e-05
6.458342501e-05
6.467405973e-05
6.476869635e-05
6.485895875e-05
6.493427662e-05
6.498112759e-05
6.444971945e-05
6.449833633e-05
6.456861489e-05
6.465634505e-05
6.475602885e-05
6.486046322e-05
6.496034947e-05
6.504384009e-05
6.509577152e-05
6.45191639e-05
6.457267339e-05
6.46501828e-05
6.474718556e-05
6.485770477e-05
6.497378454e-05
6.508502831e-05
6.517810335e-05
6.523596398e-05
6.460563198e-05
6.466497238e-05
6.475105929e-05
6.48589956e-05
6.498220349e-05