/*--------------------------------*- C++ -*----------------------------------*\
| =========                 |                                                 |
| \\      /  F ield         | OpenFOAM: The Open Source CFD Toolbox           |
|  \\    /   O peration     | Version:  2212                                  |
|   \\  /    A nd           | Website:  www.openfoam.com                      |
|    \\/     M anipulation  |                                                 |
\*---------------------------------------------------------------------------*/
FoamFile
{
    version     2.0;
    format      ascii;
    arch        "LSB;label=32;scalar=64";
    class       volScalarField;
    location    "20.00000000";
    object      C9H7;
}
// * * * * * * * * * * * * * * * * * * * * * * * * * * * * * * * * * * * * * //

dimensions      [0 0 0 0 0 0 0];

internalField   nonuniform List<scalar> 
3000
(
2.742625454e-37
3.401588281e-37
4.454851403e-37
5.964830512e-37
7.995473649e-37
1.056965931e-36
1.358763026e-36
1.668911362e-36
1.905327726e-36
1.155833932e-36
1.444066855e-36
1.904699802e-36
2.566319041e-36
3.463277904e-36
4.629951888e-36
6.088146462e-36
7.812893129e-36
9.505080342e-36
2.978909403e-36
3.768862401e-36
5.044539803e-36
6.912190849e-36
9.524027883e-36
1.307922014e-35
1.778316062e-35
2.366257822e-35
2.943475472e-35
6.510467454e-36
8.371212992e-36
1.143468322e-35
1.605516437e-35
2.277133848e-35
3.231501865e-35
4.544563688e-35
6.210725088e-35
7.783061353e-35
1.32442656e-35
1.737018217e-35
2.432863281e-35
3.516197995e-35
5.147167612e-35
7.540879545e-35
1.089413045e-34
1.509324842e-34
1.886160101e-34
2.609767043e-35
3.498105542e-35
5.03403075e-35
7.496564503e-35
1.131248496e-34
1.70333092e-34
2.508775206e-34
3.496062825e-34
4.341448372e-34
5.092009604e-35
6.979097986e-35
1.031735496e-34
1.580518319e-34
2.449818863e-34
3.770210473e-34
5.626718484e-34
7.852504306e-34
9.643205201e-34
9.944435954e-35
1.392229433e-34
2.109881584e-34
3.313597486e-34
5.251321637e-34
8.218886013e-34
1.238753918e-33
1.736710971e-33
2.15441257e-33
1.954010163e-34
2.788546963e-34
4.318250309e-34
6.922972829e-34
1.11602039e-33
1.766852922e-33
2.675673926e-33
3.744556488e-33
4.611608689e-33
3.869299059e-34
5.614167625e-34
8.852854561e-34
1.44296004e-33
2.35646685e-33
3.760828912e-33
5.711497291e-33
7.982964536e-33
9.80417594e-33
7.720672176e-34
1.135993969e-33
1.818142769e-33
3.002579566e-33
4.951931684e-33
7.948893742e-33
1.209402181e-32
1.688705003e-32
2.070140929e-32
1.550871409e-33
2.308411978e-33
3.739275304e-33
6.239348046e-33
1.036751808e-32
1.671238882e-32
2.545829695e-32
3.551818119e-32
4.347996163e-32
3.132331985e-33
4.706587452e-33
7.69794726e-33
1.29494545e-32
2.164102174e-32
3.499394879e-32
5.334997745e-32
7.437903828e-32
9.095302323e-32
6.353599953e-33
9.620320878e-33
1.585694098e-32
2.684556229e-32
4.506304508e-32
7.303802982e-32
1.11411207e-31
1.55234778e-31
1.896624195e-31
1.292996314e-32
1.9700104e-32
3.267343704e-32
5.559635076e-32
9.364655955e-32
1.52052082e-31
2.320269744e-31
3.231356308e-31
3.945276202e-31
2.637871584e-32
4.039412422e-32
6.733111335e-32
1.150323786e-31
1.942878546e-31
3.1589602e-31
4.821796456e-31
6.712369883e-31
8.19075881e-31
5.391680488e-32
8.290395725e-32
1.387491041e-31
2.378167567e-31
4.025382973e-31
6.552013548e-31
1.000287686e-30
1.392003014e-30
1.697801991e-30
1.103596463e-31
1.702641263e-31
2.858962092e-31
4.913145557e-31
8.330637881e-31
1.357116117e-30
2.072181478e-30
2.882787434e-30
3.514737391e-30
2.261330121e-31
3.498476458e-31
5.890263397e-31
1.014407642e-30
1.722420412e-30
2.807834436e-30
4.287674483e-30
5.963360048e-30
7.268219012e-30
4.637388664e-31
7.19088846e-31
1.213391452e-30
2.09331844e-30
3.55838146e-30
5.803822421e-30
8.863049002e-30
1.23237595e-29
1.501586908e-29
9.515956985e-31
1.478388267e-30
2.499205771e-30
4.317726256e-30
7.346255344e-30
1.198674588e-29
1.830488329e-29
2.544585724e-29
3.099569109e-29
1.953578264e-30
3.039901789e-30
5.146740882e-30
8.902060357e-30
1.515698708e-29
2.473836559e-29
3.777530997e-29
5.249761148e-29
6.392927316e-29
4.011870458e-30
6.251157672e-30
1.059696149e-29
1.834634072e-29
3.125439062e-29
5.102028957e-29
7.789699766e-29
1.082220385e-28
1.317475113e-28
8.240281601e-30
1.285447861e-29
2.181385417e-29
3.779450073e-29
6.441133945e-29
1.051517461e-28
1.605082528e-28
2.22909063e-28
2.712701724e-28
1.692598724e-29
2.643000697e-29
4.489076648e-29
7.782338489e-29
1.326639088e-28
2.165576748e-28
3.304521485e-28
4.58704353e-28
5.579883129e-28
3.476237423e-29
5.432857182e-29
9.234323883e-29
1.601584873e-28
2.730487561e-28
4.456250967e-28
6.796731115e-28
9.428920764e-28
1.146382612e-27
7.137196117e-29
1.116293155e-28
1.898524447e-28
3.293750836e-28
5.615168447e-28
9.160772135e-28
1.396325085e-27
1.935596943e-27
2.351812097e-27
1.464589541e-28
2.292259121e-28
3.900434567e-28
6.767928456e-28
1.153552216e-27
1.8808901e-27
2.864522987e-27
3.96696489e-27
4.816116467e-27
3.003064764e-28
4.703058118e-28
8.005587616e-28
1.389119349e-27
2.366735902e-27
3.855998644e-27
5.866132735e-27
8.113828044e-27
9.840789457e-27
6.151035758e-28
9.638403522e-28
1.641092329e-27
2.847164304e-27
4.847963084e-27
7.890311589e-27
1.198687489e-26
1.655450723e-26
2.005323967e-26
1.258128857e-27
1.972403894e-27
3.358815313e-27
5.825314916e-27
9.910510954e-27
1.610816173e-26
2.442882106e-26
3.367406431e-26
4.07296835e-26
2.568864574e-27
4.028972706e-27
6.860985932e-27
1.189273428e-26
2.020988807e-26
3.279247358e-26
4.962485925e-26
6.824950592e-26
8.240071786e-26
5.234004723e-27
8.211642286e-27
1.398144323e-26
2.421593026e-26
4.109074248e-26
6.653280746e-26
1.004220129e-25
1.377336531e-25
1.659373381e-25
1.063750605e-26
1.669269855e-26
2.8411242e-26
4.915476663e-26
8.325316709e-26
1.344528545e-25
2.023048697e-25
2.765754894e-25
3.323821621e-25
2.155765711e-26
3.38306352e-26
5.754493201e-26
9.941630979e-26
1.679928489e-25
2.704625015e-25
4.054517374e-25
5.52220963e-25
6.617572549e-25
4.354930316e-26
6.833149782e-26
1.161229056e-25
2.002467666e-25
3.374228274e-25
5.412290407e-25
8.078693417e-25
1.095570468e-24
1.308663885e-24
8.767456274e-26
1.375077322e-25
2.333789264e-25
4.015115468e-25
6.742656504e-25
1.076826836e-24
1.599368449e-24
2.158368167e-24
2.568960597e-24
1.75883148e-25
2.756403148e-25
4.670021975e-25
8.011295827e-25
1.339916103e-24
2.129091104e-24
3.144415887e-24
4.220309504e-24
5.003422616e-24
3.516016031e-25
5.503634534e-25
9.303240562e-25
1.590335499e-24
2.647233981e-24
4.181977788e-24
6.137049934e-24
8.187299664e-24
9.665123661e-24
7.005995388e-25
1.094772674e-24
1.845199108e-24
3.140901549e-24
5.199272818e-24
8.159330424e-24
1.18889714e-23
1.575622421e-23
1.851488686e-23
1.392283627e-24
2.170544386e-24
3.645065462e-24
6.173342383e-24
1.015356562e-23
1.581548495e-23
2.286412009e-23
3.008420916e-23
3.517798654e-23
2.762087768e-24
4.292896702e-24
7.176982236e-24
1.208283764e-23
1.972748891e-23
3.04717231e-23
4.367276999e-23
5.701852668e-23
6.632418776e-23
5.477952211e-24
8.480871024e-24
1.41019051e-23
2.357684877e-23
3.817313452e-23
5.841609313e-23
8.293416442e-23
1.073729859e-22
1.24201998e-22
1.088260355e-23
1.676693909e-23
2.770017732e-23
4.594120475e-23
7.368498977e-23
1.116013847e-22
1.56814376e-22
2.011981974e-22
2.313550713e-22
2.171265292e-23
3.325657224e-23
5.452569604e-23
8.960453296e-23
1.422069618e-22
2.129478958e-22
2.958794934e-22
3.759528064e-22
4.295777329e-22
4.364700097e-23
6.638517141e-23
1.078848248e-22
1.754570757e-22
2.752132198e-22
4.070217197e-22
5.587051463e-22
7.025444316e-22
7.973705543e-22
8.872761792e-23
1.338494159e-22
2.153413991e-22
3.461693439e-22
5.360345837e-22
7.821323944e-22
1.05968574e-21
1.317775168e-21
1.485031182e-21
1.831035196e-22
2.736490984e-22
4.353133393e-22
6.909002913e-22
1.055041964e-21
1.51737802e-21
2.027616788e-21
2.492140996e-21
2.787639317e-21
3.849337511e-22
5.693447594e-22
8.945930552e-22
1.40050551e-21
2.107402275e-21
2.985627321e-21
3.93297702e-21
4.776397688e-21
5.302413737e-21
8.264464155e-22
1.208807074e-21
1.874699133e-21
2.893350439e-21
4.288821477e-21
5.984908038e-21
7.772997911e-21
9.329512357e-21
1.02808435e-20
1.813774235e-21
2.622424903e-21
4.013198178e-21
6.106480286e-21
8.920378104e-21
1.22707757e-20
1.572900184e-20
1.867817841e-20
2.044719371e-20
4.065037315e-21
5.810180962e-21
8.776838084e-21
1.317695958e-20
1.899548192e-20
2.580696285e-20
3.272399233e-20
3.853586204e-20
4.197487073e-20
9.277880367e-21
1.311664401e-20
1.957753389e-20
2.904752121e-20
4.142103127e-20
5.575535366e-20
7.020391696e-20
8.229611293e-20
8.943421092e-20
2.147651931e-20
3.006301114e-20
4.440564923e-20
6.526523503e-20
9.236647196e-20
1.237226485e-19
1.554974689e-19
1.824183013e-19
1.985608619e-19
5.018724155e-20
6.965925225e-20
1.020351457e-19
1.489857292e-19
2.100949128e-19
2.814907979e-19
3.552997977e-19
4.19767052e-19
4.598422421e-19
1.17857702e-19
1.624795705e-19
2.365791879e-19
3.443125494e-19
4.859052576e-19
6.547004827e-19
8.349964569e-19
9.995994231e-19
1.107080956e-18
2.770433035e-19
3.801245868e-19
5.516960422e-19
8.031022829e-19
1.139053231e-18
1.550903723e-18
2.008701905e-18
2.447234174e-18
2.747430452e-18
6.501043808e-19
8.898153091e-19
1.291081395e-18
1.886397629e-18
2.699289786e-18
3.728134529e-18
4.918357329e-18
6.105740612e-18
6.943889783e-18
1.520681684e-18
2.081595164e-18
3.028841337e-18
4.4568078e-18
6.454972941e-18
9.065795083e-18
1.218967438e-17
1.538525478e-17
1.7658602e-17
3.5449209e-18
4.866099148e-18
7.122822138e-18
1.058811398e-17
1.556083022e-17
2.224530478e-17
3.043096544e-17
3.886297628e-17
4.479627893e-17
8.24183069e-18
1.137631688e-17
1.680229504e-17
2.529922164e-17
3.778648386e-17
5.49488529e-17
7.619118109e-17
9.789849007e-17
1.128885603e-16
1.91408315e-17
2.663467018e-17
3.97955586e-17
6.080779259e-17
9.232431898e-17
1.362484485e-16
1.905541496e-16
2.451998714e-16
2.823259672e-16
4.449470744e-17
6.25451836e-17
9.470714879e-17
1.469576001e-16
2.26511967e-16
3.379269086e-16
4.744327944e-16
6.098185222e-16
7.010049238e-16
1.037599767e-16
1.475117144e-16
2.264995651e-16
3.565947025e-16
5.562920444e-16
8.351566042e-16
1.173068903e-15
1.505405658e-15
1.729049735e-15
2.431926644e-16
3.496361152e-16
5.438221199e-16
8.663931843e-16
1.362184129e-15
2.0497097e-15
2.876310529e-15
3.688095971e-15
4.237082712e-15
5.733812098e-16
8.32240415e-16
1.307577812e-15
2.099473293e-15
3.312362069e-15
4.983357463e-15
6.987326776e-15
8.963034662e-15
1.031057778e-14
1.358454998e-15
1.984212038e-15
3.135900905e-15
5.051669811e-15
7.971897614e-15
1.198237749e-14
1.680245835e-14
2.158862954e-14
2.488712121e-14
3.222506045e-15
4.717100061e-15
7.465165713e-15
1.202140027e-14
1.894496353e-14
2.845896774e-14
3.995317299e-14
5.146734743e-14
5.949052048e-14
7.610392955e-15
1.112064302e-14
1.756032072e-14
2.820979296e-14
4.438545692e-14
6.668581227e-14
9.381039731e-14
1.212389993e-13
1.405598526e-13
1.778231222e-14
2.587008807e-14
4.068071427e-14
6.515303282e-14
1.023869768e-13
1.539608047e-13
2.171553431e-13
2.816602767e-13
3.275614009e-13
4.090690692e-14
5.917992e-14
9.261672545e-14
1.478998171e-13
2.322520629e-13
3.497066383e-13
4.946976223e-13
6.440255985e-13
7.512645009e-13
9.23675693e-14
1.328527665e-13
2.069371676e-13
3.295961064e-13
5.173691611e-13
7.802244052e-13
1.107027473e-12
1.446405226e-12
1.692100245e-12
2.043840606e-13
2.92309786e-13
4.532705714e-13
7.202022745e-13
1.130185809e-12
1.707033096e-12
2.428998552e-12
3.184372272e-12
3.73504803e-12
4.427359476e-13
6.29755492e-13
9.722655735e-13
1.54114498e-12
2.41757209e-12
3.656487034e-12
5.216432669e-12
6.859378568e-12
8.064207812e-12
9.381241565e-13
1.327264946e-12
2.040117452e-12
3.225597832e-12
5.056839794e-12
7.656179205e-12
1.09463868e-11
1.443144642e-11
1.699987467e-11
1.942907662e-12
2.734077782e-12
4.183323303e-12
6.595502775e-12
1.032963135e-11
1.564835467e-11
2.241075375e-11
2.960783535e-11
3.493375409e-11
3.930138624e-12
5.500219679e-12
8.375036042e-12
1.316170146e-11
2.058276669e-11
3.118133524e-11
4.470449879e-11
5.915188405e-11
6.987855193e-11
7.760245527e-12
1.07990075e-11
1.635816972e-11
2.561223373e-11
3.997043369e-11
6.051327915e-11
8.679170679e-11
1.149457573e-10
1.359028023e-10
1.495189008e-11
2.068430944e-11
3.115702336e-11
4.857479007e-11
7.559774778e-11
1.142920949e-10
1.638635377e-10
2.170701432e-10
2.567485105e-10
2.810796837e-11
3.864491435e-11
5.785837331e-11
8.97609479e-11
1.392077879e-10
2.099931804e-10
3.00708825e-10
3.981534119e-10
4.709034283e-10
5.156660952e-11
7.043892777e-11
1.047650272e-10
1.616212287e-10
2.495696337e-10
3.752966022e-10
5.36290339e-10
7.091786812e-10
8.383053731e-10
9.237243654e-11
1.253176129e-10
1.850510616e-10
2.836615795e-10
4.357328722e-10
6.525657083e-10
9.296566165e-10
1.226821251e-09
1.448697741e-09
1.616981226e-10
2.177829939e-10
3.190802216e-10
4.855947588e-10
7.413157014e-10
1.104553548e-09
1.56723109e-09
2.062243798e-09
2.431473438e-09
2.768924196e-10
3.700679858e-10
5.375871879e-10
8.115233829e-10
1.229989314e-09
1.821417573e-09
2.571423728e-09
3.371128591e-09
3.966595432e-09
4.643862072e-10
6.155778366e-10
8.859593611e-10
1.325367506e-09
1.99230656e-09
2.92907896e-09
4.110461352e-09
5.364710002e-09
6.296525305e-09
7.637418962e-10
1.003573453e-09
1.42987667e-09
2.117736776e-09
3.153974272e-09
4.598907318e-09
6.409402079e-09
8.322087944e-09
9.739931076e-09
1.233161426e-09
1.605385483e-09
2.262539247e-09
3.314367332e-09
4.885516108e-09
7.058442822e-09
9.76179541e-09
1.260413288e-08
1.471372778e-08
1.956743654e-09
2.52239407e-09
3.513616241e-09
5.086096482e-09
7.413063415e-09
1.060248794e-08
1.454000681e-08
1.866005028e-08
2.171820635e-08
3.053674293e-09
3.895872883e-09
5.359887639e-09
7.660215223e-09
1.103013794e-08
1.560497166e-08
2.120895979e-08
2.70505257e-08
3.136207766e-08
4.689325303e-09
5.918564758e-09
8.037285161e-09
1.133267067e-08
1.610935645e-08
2.253001381e-08
3.033499256e-08
3.842173435e-08
4.435257933e-08
7.087964481e-09
8.847600343e-09
1.185389907e-08
1.648093894e-08
2.311495234e-08
3.194386986e-08
4.259815593e-08
5.352881271e-08
6.149840047e-08
1.054648049e-08
1.301808602e-08
1.720321501e-08
2.357644247e-08
3.261627731e-08
4.453593955e-08
5.876514048e-08
7.322127589e-08
8.369948564e-08
1.544840507e-08
1.885660964e-08
2.457645031e-08
3.319650318e-08
4.529759415e-08
6.108918315e-08
7.970454815e-08
9.843728783e-08
1.119353274e-07
2.22769654e-08
2.689410444e-08
3.457641118e-08
4.603919639e-08
6.197674919e-08
8.248535045e-08
1.063745498e-07
1.301898538e-07
1.472484284e-07
3.162982031e-08
3.778176441e-08
4.793664251e-08
6.295807217e-08
8.354857682e-08
1.096991143e-07
1.398095531e-07
1.695493869e-07
1.907243808e-07
4.423744741e-08
5.231468798e-08
6.554991795e-08
8.487136111e-08
1.110080624e-07
1.437865615e-07
1.811033143e-07
2.17623327e-07
2.434696065e-07
6.10027477e-08
7.144612344e-08
8.837770895e-08
1.128042871e-07
1.454380857e-07
1.858685559e-07
2.313886343e-07
2.755335682e-07
3.065877441e-07
8.292966793e-08
9.618746925e-08
1.17485679e-07
1.478739821e-07
1.879919055e-07
2.37110135e-07
2.918145434e-07
3.443926631e-07
3.81155689e-07
1.11103657e-07
1.276612722e-07
1.540350405e-07
1.912721582e-07
2.398721373e-07
2.986972028e-07
3.635220629e-07
4.252798154e-07
4.682002419e-07
1.467192184e-07
1.670843553e-07
1.992630027e-07
2.442432269e-07
3.023067145e-07
3.718115175e-07
4.476195686e-07
5.19217597e-07
5.686762093e-07
1.910571437e-07
2.157457091e-07
2.544591378e-07
3.080591218e-07
3.765228522e-07
4.576050172e-07
5.451587232e-07
6.271502163e-07
6.83446657e-07
2.454589772e-07
2.749805754e-07
3.20938594e-07
3.839919832e-07
4.637201252e-07
5.571745102e-07
6.57111854e-07
7.499240282e-07
8.132658655e-07
3.112985575e-07
3.461417374e-07
4.000132728e-07
4.732858692e-07
5.650437539e-07
6.71537678e-07
7.843515266e-07
8.882708349e-07
9.587653799e-07
3.899513895e-07
4.305691266e-07
4.929621546e-07
5.771286454e-07
6.815591232e-07
8.016112248e-07
9.276329224e-07
1.042794366e-06
1.120443397e-06
4.827629663e-07
5.295589496e-07
6.010019607e-07
6.966251398e-07
8.142284442e-07
9.481918565e-07
1.087579468e-06
1.213960181e-06
1.298657592e-06
5.910172866e-07
6.443335616e-07
7.252592899e-07
8.327725369e-07
9.638903196e-07
1.111940612e-06
1.264672008e-06
1.402089087e-06
1.493621354e-06
7.159068082e-07
7.760132446e-07
8.667452457e-07
9.864388362e-07
1.131242802e-06
1.293370895e-06
1.459241638e-06
1.607354037e-06
1.705403301e-06
8.585049703e-07
9.255909135e-07
1.026333408e-06
1.15834501e-06
1.316830347e-06
1.492840375e-06
1.671466209e-06
1.829780349e-06
1.933929833e-06
1.019742244e-06
1.09391058e-06
1.204741802e-06
1.349051302e-06
1.521034878e-06
1.710546783e-06
1.901370327e-06
2.069249006e-06
2.178990423e-06
1.200386445e-06
1.281650183e-06
1.40251929e-06
1.558947889e-06
1.744070993e-06
1.946527458e-06
2.148828616e-06
2.325502698e-06
2.440245288e-06
1.401027809e-06
1.489309164e-06
1.620036608e-06
1.788249954e-06
1.985985192e-06
2.2006624e-06
2.413571897e-06
2.598154235e-06
2.717235037e-06
1.622069069e-06
1.717200914e-06
1.85748204e-06
2.036997027e-06
2.246658862e-06
2.472680463e-06
2.695195884e-06
2.886696898e-06
3.009391894e-06
1.863720551e-06
1.965450033e-06
2.114861556e-06
2.305056291e-06
2.525814635e-06
2.762168274e-06
2.993171943e-06
3.190516323e-06
3.316052063e-06
2.1260001e-06
2.233994134e-06
2.392003069e-06
2.592129475e-06
2.823025676e-06
3.068581399e-06
3.306859473e-06
3.508903451e-06
3.636468853e-06
2.408737463e-06
2.522589786e-06
2.68856436e-06
2.897762806e-06
3.137727386e-06
3.391257264e-06
3.635519434e-06
3.841068164e-06
3.969826174e-06
2.711582627e-06
2.830822069e-06
3.004044119e-06
3.221359493e-06
3.469230995e-06
3.729429335e-06
3.978328588e-06
4.186153202e-06
4.315252061e-06
3.03401753e-06
3.158117142e-06
3.337795525e-06
3.56219417e-06
3.816738498e-06
4.082242092e-06
4.334394047e-06
4.543248023e-06
4.671831928e-06
3.375370483e-06
3.503757198e-06
3.689041733e-06
3.919428721e-06
4.179358449e-06
4.448766339e-06
4.702767758e-06
4.91140231e-06
5.038621298e-06
3.734832651e-06
3.866897156e-06
4.056892687e-06
4.292128946e-06
4.556122113e-06
4.828014479e-06
5.082460611e-06
5.289638855e-06
5.41465779e-06
4.11147593e-06
4.246582474e-06
4.440362681e-06
4.679281575e-06
4.945999579e-06
5.218955389e-06
5.472455896e-06
5.67696565e-06
5.798972217e-06
4.504271618e-06
4.641767511e-06
4.838388156e-06
5.079811177e-06
5.347915444e-06
5.620528631e-06
5.871721911e-06
6.072386989e-06
6.19059866e-06
4.912109308e-06
5.051333923e-06
5.249845278e-06
5.492596582e-06
5.760763785e-06
6.031657749e-06
6.279223547e-06
6.474913521e-06
6.588583461e-06
5.333815531e-06
5.474108642e-06
5.673566908e-06
5.916486508e-06
6.183422166e-06
6.451262507e-06
6.69393275e-06
6.88357115e-06
6.991993088e-06
5.768171726e-06
5.908881083e-06
6.108358653e-06
6.350314142e-06
6.614764502e-06
6.878269926e-06
7.11483779e-06
7.29740878e-06
7.399920866e-06
6.213931214e-06
6.354419267e-06
6.553013768e-06
6.792910485e-06
7.05367266e-06
7.311624068e-06
7.540951309e-06
7.715504896e-06
7.811492609e-06
6.669834913e-06
6.809484654e-06
7.006326713e-06
7.24311636e-06
7.499046725e-06
7.750294525e-06
7.971317157e-06
8.136973024e-06
8.225871183e-06
7.134625626e-06
7.272845534e-06
7.467105273e-06
7.699792986e-06
7.949813894e-06
8.193283634e-06
8.405016051e-06
8.560966114e-06
8.642260081e-06
7.607060776e-06
7.743288881e-06
7.934181179e-06
8.161831118e-06
8.404936024e-06
8.639632441e-06
8.841170115e-06
8.986679916e-06
9.059906066e-06
8.085923538e-06
8.219630639e-06
8.406419213e-06
8.628158762e-06
8.863415859e-06
9.08842549e-06
9.278946369e-06
9.413355444e-06
9.478100979e-06
8.570032366e-06
8.700724453e-06
8.88272484e-06
9.097747516e-06
9.324302017e-06
9.5387945e-06
9.717559263e-06
9.840280591e-06
9.896182799e-06
9.058248948e-06
9.185468884e-06
9.362050414e-06
9.569617602e-06
9.78669281e-06
9.989921032e-06
1.015627233e-05
1.026679101e-05
1.031353604e-05
9.54948465e-06
9.672813192e-06
9.843400051e-06
1.00428417e-05
1.0249739e-05
1.044103824e-05
1.059439909e-05
1.069227032e-05
1.072959158e-05
1.004270556e-05
1.016176177e-05
1.032583326e-05
1.051654766e-05
1.071264557e-05
1.089143179e-05
1.103130322e-05
1.111614982e-05
1.114382597e-05
1.053693621e-05
1.065137739e-05
1.080846748e-05
1.098992025e-05
1.117467271e-05
1.134044009e-05
1.146639823e-05
1.153790761e-05
1.155576043e-05
1.103126216e-05
1.114078324e-05
1.129047955e-05
1.146220195e-05
1.163513594e-05
1.178745389e-05
1.189914655e-05
1.195706742e-05
1.196495938e-05
1.152483145e-05
1.162916413e-05
1.177110638e-05
1.193269309e-05
1.209340568e-05
1.223191537e-05
1.232905826e-05
1.237319708e-05
1.237102882e-05
1.201685523e-05
1.211576671e-05
1.224964474e-05
1.240075122e-05
1.254890628e-05
1.267331675e-05
1.27556895e-05
1.278590675e-05
1.277361446e-05
1.250660749e-05
1.259989898e-05
1.272545056e-05
1.286578998e-05
1.30011145e-05
1.311119865e-05
1.317864057e-05
1.319484694e-05
1.317239971e-05
1.299342417e-05
1.308092923e-05
1.319793748e-05
1.332727752e-05
1.344955777e-05
1.354514806e-05
1.359755389e-05
1.35997064e-05
1.356710358e-05
1.347670168e-05
1.355828439e-05
1.366657514e-05
1.378473452e-05
1.389381204e-05
1.397479621e-05
1.401211178e-05
1.400020996e-05
1.395747855e-05
1.395589495e-05
1.403144798e-05
1.413088698e-05
1.423773196e-05
1.433349948e-05
1.439981618e-05
1.442203416e-05
1.439611628e-05
1.434330834e-05
1.443051513e-05
1.44999578e-05
1.45904478e-05
1.468588861e-05
1.476828602e-05
1.481992053e-05
1.482707619e-05
1.478721558e-05
1.472440578e-05
1.490012698e-05
1.496340325e-05
1.504488122e-05
1.512886847e-05
1.519787874e-05
1.523485877e-05
1.522702595e-05
1.517332748e-05
1.510061067e-05
1.536434607e-05
1.542142256e-05
1.54938568e-05
1.556637803e-05
1.562202336e-05
1.564441492e-05
1.562170205e-05
1.555429868e-05
1.547178767e-05
1.582283602e-05
1.58737e-05
1.593708734e-05
1.599816353e-05
1.604050148e-05
1.604840501e-05
1.601095136e-05
1.593000094e-05
1.58378243e-05
1.627530534e-05
1.631996289e-05
1.637432597e-05
1.642400827e-05
1.64531281e-05
1.644667465e-05
1.639464676e-05
1.630032897e-05
1.619862903e-05
1.672150445e-05
1.675997856e-05
1.680536322e-05
1.684372977e-05
1.685974899e-05
1.683909669e-05
1.677268502e-05
1.666519853e-05
1.655412948e-05
1.716122258e-05
1.71935514e-05
1.723002423e-05
1.725717719e-05
1.726023821e-05
1.722556894e-05
1.714498473e-05
1.702454451e-05
1.690427062e-05
1.759428483e-05
1.762052002e-05
1.764816598e-05
1.766422866e-05
1.765449576e-05
1.760601201e-05
1.751148431e-05
1.737831916e-05
1.724901317e-05
1.802054931e-05
1.804075442e-05
1.805967463e-05
1.806478886e-05
1.804244526e-05
1.798036721e-05
1.787214017e-05
1.772649042e-05
1.758833202e-05
1.843990431e-05
1.845415332e-05
1.846446297e-05
1.84587866e-05
1.842403176e-05
1.834859456e-05
1.822692494e-05
1.806904037e-05
1.792221481e-05
1.885226562e-05
1.886064154e-05
1.886246798e-05
1.884617255e-05
1.87992197e-05
1.871067102e-05
1.857582586e-05
1.840596374e-05
1.825066061e-05
1.925757398e-05
1.926016756e-05
1.925364847e-05
1.922691712e-05
1.916799095e-05
1.906658867e-05
1.89188432e-05
1.873726659e-05
1.857367864e-05
1.965579262e-05
1.965270119e-05
1.963798296e-05
1.960100844e-05
1.953034301e-05
1.941635316e-05
1.925598891e-05
1.906296502e-05
1.889128719e-05
2.004690504e-05
2.003823137e-05
2.001546758e-05
1.996845048e-05
1.98862873e-05
1.975998217e-05
1.958728521e-05
1.938308406e-05
1.920351247e-05
2.043091281e-05
2.041676416e-05
2.038611418e-05
2.032926131e-05
2.023584762e-05
2.009750404e-05
1.991276346e-05
1.969765653e-05
1.951038776e-05
2.080783359e-05
2.078832077e-05
2.074994855e-05
2.068347143e-05
2.057905864e-05
2.042895646e-05
2.023246299e-05
2.000672214e-05
1.98119524e-05
2.117769929e-05
2.115293587e-05
2.110700876e-05
2.103112234e-05
2.091596461e-05
2.075438537e-05
2.054643011e-05
2.031032653e-05
2.010825112e-05
2.154055434e-05
2.151065587e-05
2.145734364e-05
2.13722651e-05
2.124661812e-05
2.107384377e-05
2.085471714e-05
2.060852052e-05
2.039933317e-05
2.189645412e-05
2.186153751e-05
2.180101143e-05
2.170695909e-05
2.157107894e-05
2.138739083e-05
2.115738161e-05
2.090135933e-05
2.068525177e-05
2.224546349e-05
2.220564639e-05
2.213807842e-05
2.203527087e-05
2.188941305e-05
2.169509096e-05
2.145448543e-05
2.118890192e-05
2.096606345e-05
2.258765549e-05
2.254305579e-05
2.246861788e-05
2.235727307e-05
2.220169166e-05
2.199701299e-05
2.174609423e-05
2.147121039e-05
2.124182749e-05
2.292311012e-05
2.287384548e-05
2.279270892e-05
2.267304352e-05
2.25079904e-05
2.229322945e-05
2.203227673e-05
2.174834943e-05
2.151260549e-05
2.325191326e-05
2.319810069e-05
2.311043557e-05
2.298266428e-05
2.280838853e-05
2.258381591e-05
2.231310415e-05
2.202038584e-05
2.177846089e-05
2.357415563e-05
2.351591117e-05
2.342188592e-05
2.328622097e-05
2.310296827e-05
2.286885038e-05
2.258864973e-05
2.228738809e-05
2.20394586e-05
2.388993196e-05
2.382737035e-05
2.372715132e-05
2.358380197e-05
2.339181417e-05
2.314841278e-05
2.285898823e-05
2.254942591e-05
2.229566464e-05
2.419934012e-05
2.413257456e-05
2.402632569e-05
2.387549787e-05
2.367501259e-05
2.342258446e-05
2.312419556e-05
2.280656996e-05
2.254714581e-05
2.450248046e-05
2.443162239e-05
2.431950488e-05
2.416140087e-05
2.395265115e-05
2.369144777e-05
2.338434843e-05
2.305889152e-05
2.279396945e-05
2.47994551e-05
2.4724614e-05
2.460678612e-05
2.444160424e-05
2.422481835e-05
2.39550857e-05
2.363952397e-05
2.33064622e-05
2.303620315e-05
2.50903674e-05
2.501165065e-05
2.488826749e-05
2.471620194e-05
2.449160309e-05
2.421358148e-05
2.388979945e-05
2.354935366e-05
2.327391454e-05
2.537532137e-05
2.529283413e-05
2.516404749e-05
2.498528814e-05
2.475309437e-05
2.446701831e-05
2.413525202e-05
2.378763741e-05
2.350717107e-05
2.565442123e-05
2.556826635e-05
2.543422454e-05
2.524895682e-05
2.50093809e-05
2.4715479e-05
2.43759584e-05
2.40213845e-05
2.373603977e-05
2.592777089e-05
2.583804879e-05
2.569889663e-05
2.550730138e-05
2.526055068e-05
2.495904563e-05
2.461199458e-05
2.425066529e-05
2.396058699e-05
2.61954735e-05
2.610228214e-05
2.595816077e-05
2.576041422e-05
2.550669066e-05
2.519779916e-05
2.484343542e-05
2.447554906e-05
2.418087807e-05
2.645763087e-05
2.636106565e-05
2.62121125e-05
2.600838613e-05
2.574788611e-05
2.543181888e-05
2.507035413e-05
2.46961035e-05
2.439697685e-05
2.671434281e-05
2.661449652e-05
2.646084519e-05
2.625130564e-05
2.598421996e-05
2.566118162e-05
2.529282146e-05
2.491239393e-05
2.460894486e-05
2.696570628e-05
2.686266895e-05
2.670444904e-05
2.648925792e-05
2.621577158e-05
2.588596059e-05
2.551090449e-05
2.512448199e-05
2.48168401e-05
2.72118141e-05
2.710567283e-05
2.694300971e-05
2.672232331e-05
2.64426152e-05
2.610622353e-05
2.572466465e-05
2.533242365e-05
2.502071494e-05
2.745275319e-05
2.734359187e-05
2.717660621e-05
2.695057495e-05
2.66648173e-05
2.632202991e-05
2.593415466e-05
2.553626594e-05
2.522061281e-05
2.768860197e-05
2.757650075e-05
2.740530787e-05
2.717407543e-05
2.688243279e-05
2.65334266e-05
2.613941376e-05
2.573604185e-05
2.541656293e-05
2.791942653e-05
2.780446111e-05
2.762916977e-05
2.739287164e-05
2.70954992e-05
2.674044137e-05
2.634046053e-05
2.593176257e-05
2.560857222e-05
2.814527522e-05
2.802751558e-05
2.784822621e-05
2.760698736e-05
2.730402826e-05
2.694307333e-05
2.653728224e-05
2.61234059e-05
2.579661316e-05
2.836617081e-05
2.824567937e-05
2.806248136e-05
2.781641269e-05
2.750799387e-05
2.714127928e-05
2.67298195e-05
2.631089947e-05
2.598060603e-05
2.858209971e-05
2.845892866e-05
2.827189624e-05
2.802108932e-05
2.770731525e-05
2.733495454e-05
2.691794471e-05
2.649409705e-05
2.616039387e-05
2.87929972e-05
2.866718454e-05
2.8476371e-05
2.822089044e-05
2.7901834e-05
2.752390673e-05
2.710143258e-05
2.667274604e-05
2.633570795e-05
2.899872768e-05
2.887029179e-05
2.86757212e-05
2.841559393e-05
2.809128353e-05
2.770782102e-05
2.727992084e-05
2.684644417e-05
2.650612158e-05
2.91990588e-05
2.906799092e-05
2.886964699e-05
2.860484749e-05
2.827524939e-05
2.788621496e-05
2.745285946e-05
2.701458335e-05
2.66709904e-05
2.939362827e-05
2.925988258e-05
2.905769363e-05
2.878812439e-05
2.845311903e-05
2.805838152e-05
2.761944662e-05
2.717627912e-05
2.6829377e-05
2.958190229e-05
2.944538293e-05
2.923920254e-05
2.896466857e-05
2.862401991e-05
2.822331924e-05
2.77785504e-05
2.733028445e-05
2.697995923e-05
2.976312454e-05
2.962366925e-05
2.941325172e-05
2.913342844e-05
2.878674519e-05
2.837964884e-05
2.792861597e-05
2.7474888e-05
2.712092194e-05
2.993625525e-05
2.979361516e-05
2.95785853e-05
2.929297904e-05
2.893966724e-05
2.852551696e-05
2.806755912e-05
2.760779806e-05
2.7249834e-05
3.009990003e-05
2.99537154e-05
2.973353239e-05
2.944143348e-05
2.908064005e-05
2.865848876e-05
2.819264861e-05
2.772601542e-05
2.736351422e-05
3.025222949e-05
3.010200151e-05
2.987591697e-05
2.957634516e-05
2.920689307e-05
2.877543272e-05
2.830038207e-05
2.782570075e-05
2.745789262e-05
3.039089067e-05
3.023594965e-05
3.000296068e-05
2.96946048e-05
2.931492143e-05
2.88724036e-05
2.838636186e-05
2.790204481e-05
2.752787627e-05
3.051291349e-05
3.03523844e-05
3.011118301e-05
2.979233639e-05
2.940037804e-05
2.894453156e-05
2.844518186e-05
2.794915293e-05
2.756723272e-05
3.061461646e-05
3.044738326e-05
3.019630454e-05
2.986479998e-05
2.945797689e-05
2.898592748e-05
2.847033659e-05
2.795995895e-05
2.756850723e-05
3.069151755e-05
3.051618859e-05
3.025316133e-05
2.990631017e-05
2.948141861e-05
2.89896185e-05
2.845416903e-05
2.792618607e-05
2.752299344e-05
3.073825826e-05
3.055313576e-05
3.027563994e-05
2.991018217e-05
2.946335169e-05
2.894752906e-05
2.838787517e-05
2.783837516e-05
2.742077972e-05
3.074855059e-05
3.055160807e-05
3.025664552e-05
2.986871864e-05
2.939538495e-05
2.885052534e-05
2.826158498e-05
2.768600263e-05
2.725089449e-05
3.071515856e-05
3.050403089e-05
3.018811605e-05
2.977325264e-05
2.926816782e-05
2.868854129e-05
2.806454002e-05
2.745770896e-05
2.70015728e-05
3.062992726e-05
3.04019188e-05
3.006109774e-05
2.961426208e-05
2.907155515e-05
2.845080373e-05
2.778538522e-05
2.714165598e-05
2.666066213e-05
3.048387328e-05
3.023598966e-05
2.98658958e-05
2.938157064e-05
2.879487111e-05
2.812617044e-05
2.741258779e-05
2.672602406e-05
2.621617708e-05
3.026734983e-05
2.999635909e-05
2.959231373e-05
2.906464696e-05
2.842728261e-05
2.770358909e-05
2.69349875e-05
2.619964907e-05
2.565699964e-05
2.997029816e-05
2.967282606e-05
2.922999021e-05