/*--------------------------------*- C++ -*----------------------------------*\
| =========                 |                                                 |
| \\      /  F ield         | OpenFOAM: The Open Source CFD Toolbox           |
|  \\    /   O peration     | Version:  2212                                  |
|   \\  /    A nd           | Website:  www.openfoam.com                      |
|    \\/     M anipulation  |                                                 |
\*---------------------------------------------------------------------------*/
FoamFile
{
    version     2.0;
    format      ascii;
    arch        "LSB;label=32;scalar=64";
    class       volScalarField;
    location    "20.00000000";
    object      CH3COCH3_0;
}
// * * * * * * * * * * * * * * * * * * * * * * * * * * * * * * * * * * * * * //

dimensions      [0 0 0 0 0 0 0];

internalField   nonuniform List<scalar> 
3000
(
0.01368422948
0.01368422948
0.01368422948
0.01368422948
0.01368422948
0.01368422948
0.01368422948
0.01368422948
0.01368422948
0.01368422948
0.01368422948
0.01368422948
0.01368422948
0.01368422948
0.01368422948
0.01368422948
0.01368422948
0.01368422948
0.01368422948
0.01368422948
0.01368422948
0.01368422948
0.01368422948
0.01368422948
0.01368422948
0.01368422948
0.01368422948
0.01368422948
0.01368422948
0.01368422948
0.01368422948
0.01368422948
0.01368422948
0.01368422948
0.01368422948
0.01368422948
0.01368422948
0.01368422948
0.01368422948
0.01368422948
0.01368422948
0.01368422948
0.01368422948
0.01368422948
0.01368422948
0.01368422948
0.01368422948
0.01368422948
0.01368422948
0.01368422948
0.01368422948
0.01368422948
0.01368422948
0.01368422948
0.01368422948
0.01368422948
0.01368422948
0.01368422948
0.01368422948
0.01368422948
0.01368422948
0.01368422948
0.01368422948
0.01368422948
0.01368422948
0.01368422948
0.01368422948
0.01368422948
0.01368422948
0.01368422948
0.01368422948
0.01368422948
0.01368422948
0.01368422948
0.01368422948
0.01368422948
0.01368422948
0.01368422948
0.01368422948
0.01368422948
0.01368422948
0.01368422948
0.01368422948
0.01368422948
0.01368422948
0.01368422948
0.01368422948
0.01368422948
0.01368422948
0.01368422948
0.01368422948
0.01368422948
0.01368422948
0.01368422948
0.01368422948
0.01368422948
0.01368422948
0.01368422948
0.01368422948
0.01368422948
0.01368422948
0.01368422948
0.01368422948
0.01368422948
0.01368422948
0.01368422948
0.01368422948
0.01368422948
0.01368422948
0.01368422948
0.01368422948
0.01368422948
0.01368422948
0.01368422948
0.01368422948
0.01368422948
0.01368422948
0.01368422948
0.01368422948
0.01368422948
0.01368422948
0.01368422948
0.01368422948
0.01368422948
0.01368422948
0.01368422948
0.01368422948
0.01368422948
0.01368422948
0.01368422948
0.01368422948
0.01368422948
0.01368422948
0.01368422948
0.01368422948
0.01368422948
0.01368422948
0.01368422948
0.01368422948
0.01368422948
0.01368422948
0.01368422948
0.01368422948
0.01368422948
0.01368422948
0.01368422948
0.01368422948
0.01368422948
0.01368422948
0.01368422948
0.01368422948
0.01368422948
0.01368422948
0.01368422948
0.01368422948
0.01368422948
0.01368422948
0.01368422948
0.01368422948
0.01368422948
0.01368422948
0.01368422948
0.01368422948
0.01368422948
0.01368422948
0.01368422948
0.01368422948
0.01368422948
0.01368422948
0.01368422948
0.01368422948
0.01368422948
0.01368422948
0.01368422948
0.01368422948
0.01368422948
0.01368422948
0.01368422948
0.01368422948
0.01368422948
0.01368422948
0.01368422948
0.01368422948
0.01368422948
0.01368422948
0.01368422948
0.01368422948
0.01368422948
0.01368422948
0.01368422948
0.01368422948
0.01368422948
0.01368422948
0.01368422948
0.01368422948
0.01368422948
0.01368422948
0.01368422948
0.01368422948
0.01368422948
0.01368422948
0.01368422948
0.01368422948
0.01368422948
0.01368422948
0.01368422948
0.01368422948
0.01368422948
0.01368422948
0.01368422948
0.01368422948
0.01368422948
0.01368422948
0.01368422948
0.01368422948
0.01368422948
0.01368422948
0.01368422948
0.01368422948
0.01368422948
0.01368422948
0.01368422948
0.01368422948
0.01368422948
0.01368422948
0.01368422948
0.01368422948
0.01368422948
0.01368422948
0.01368422948
0.01368422948
0.01368422948
0.01368422948
0.01368422948
0.01368422948
0.01368422948
0.01368422948
0.01368422948
0.01368422948
0.01368422948
0.01368422948
0.01368422948
0.01368422948
0.01368422948
0.01368422948
0.01368422948
0.01368422948
0.01368422948
0.01368422948
0.01368422948
0.01368422948
0.01368422948
0.01368422948
0.01368422948
0.01368422948
0.01368422948
0.01368422948
0.01368422948
0.01368422948
0.01368422948
0.01368422948
0.01368422948
0.01368422948
0.01368422948
0.01368422948
0.01368422948
0.01368422948
0.01368422948
0.01368422948
0.01368422948
0.01368422948
0.01368422948
0.01368422948
0.01368422948
0.01368422948
0.01368422948
0.01368422948
0.01368422948
0.01368422948
0.01368422948
0.01368422948
0.01368422948
0.01368422948
0.01368422948
0.01368422948
0.01368422948
0.01368422948
0.01368422948
0.01368422948
0.01368422948
0.01368422948
0.01368422948
0.01368422948
0.01368422948
0.01368422948
0.01368422948
0.01368422948
0.01368422948
0.01368422948
0.01368422948
0.01368422948
0.01368422948
0.01368422948
0.01368422948
0.01368422948
0.01368422948
0.01368422948
0.01368422948
0.01368422948
0.01368422948
0.01368422948
0.01368422948
0.01368422948
0.01368422948
0.01368422948
0.01368422948
0.01368422948
0.01368422948
0.01368422948
0.01368422948
0.01368422948
0.01368422948
0.01368422948
0.01368422948
0.01368422948
0.01368422948
0.01368422948
0.01368422948
0.01368422948
0.01368422948
0.01368422948
0.01368422948
0.01368422948
0.01368422948
0.01368422948
0.01368422948
0.01368422948
0.01368422948
0.01368422948
0.01368422948
0.01368422948
0.01368422948
0.01368422948
0.01368422948
0.01368422948
0.01368422948
0.01368422948
0.01368422948
0.01368422948
0.01368422948
0.01368422948
0.01368422948
0.01368422948
0.01368422948
0.01368422948
0.01368422948
0.01368422948
0.01368422948
0.01368422948
0.01368422948
0.01368422948
0.01368422948
0.01368422948
0.01368422948
0.01368422948
0.01368422948
0.01368422948
0.01368422948
0.01368422947
0.01368422948
0.01368422948
0.01368422948
0.01368422948
0.01368422948
0.01368422948
0.01368422947
0.01368422947
0.01368422947
0.01368422948
0.01368422948
0.01368422948
0.01368422948
0.01368422947
0.01368422947
0.01368422947
0.01368422947
0.01368422947
0.01368422948
0.01368422948
0.01368422948
0.01368422947
0.01368422947
0.01368422947
0.01368422947
0.01368422947
0.01368422947
0.01368422948
0.01368422948
0.01368422947
0.01368422947
0.01368422947
0.01368422947
0.01368422947
0.01368422946
0.01368422946
0.01368422947
0.01368422947
0.01368422947
0.01368422947
0.01368422947
0.01368422946
0.01368422946
0.01368422945
0.01368422945
0.01368422947
0.01368422947
0.01368422947
0.01368422947
0.01368422946
0.01368422945
0.01368422944
0.01368422944
0.01368422943
0.01368422947
0.01368422947
0.01368422946
0.01368422946
0.01368422945
0.01368422943
0.01368422942
0.0136842294
0.01368422939
0.01368422947
0.01368422946
0.01368422946
0.01368422944
0.01368422943
0.0136842294
0.01368422937
0.01368422935
0.01368422933
0.01368422946
0.01368422945
0.01368422944
0.01368422942
0.01368422939
0.01368422934
0.0136842293
0.01368422926
0.01368422923
0.01368422945
0.01368422943
0.01368422941
0.01368422937
0.01368422932
0.01368422925
0.01368422917
0.0136842291
0.01368422905
0.01368422942
0.0136842294
0.01368422936
0.01368422929
0.0136842292
0.01368422908
0.01368422895
0.01368422882
0.01368422874
0.01368422938
0.01368422934
0.01368422926
0.01368422915
0.01368422899
0.01368422879
0.01368422857
0.01368422837
0.01368422824
0.0136842293
0.01368422923
0.0136842291
0.01368422891
0.01368422864
0.01368422831
0.01368422794
0.01368422761
0.01368422739
0.01368422917
0.01368422904
0.01368422882
0.0136842285
0.01368422805
0.0136842275
0.01368422689
0.01368422634
0.01368422598
0.01368422893
0.01368422871
0.01368422835
0.0136842278
0.01368422706
0.01368422615
0.01368422515
0.01368422425
0.01368422367
0.01368422852
0.01368422815
0.01368422754
0.01368422663
0.01368422541
0.01368422392
0.0136842223
0.01368422083
0.01368421988
0.0136842278
0.0136842272
0.01368422618
0.01368422469
0.01368422269
0.01368422026
0.01368421764
0.01368421526
0.01368421374
0.01368422659
0.01368422559
0.01368422392
0.01368422148
0.01368421824
0.01368421432
0.0136842101
0.01368420628
0.01368420383
0.01368422454
0.0136842229
0.01368422019
0.01368421624
0.01368421102
0.01368420473
0.01368419799
0.01368419191
0.01368418801
0.01368422112
0.01368421845
0.01368421407
0.01368420774
0.0136841994
0.0136841894
0.01368417872
0.0136841691
0.01368416296
0.01368421546
0.01368421116
0.01368420416
0.01368419408
0.01368418087
0.01368416509
0.0136841483
0.01368413324
0.01368412365
0.01368420618
0.01368419933
0.01368418823
0.01368417233
0.01368415158
0.0136841269
0.01368410075
0.01368407737
0.01368406253
0.01368419113
0.01368418033
0.01368416287
0.01368413801
0.01368410571
0.01368406748
0.01368402713
0.01368399118
0.0136839684
0.01368416698
0.01368415009
0.0136841229
0.01368408438
0.01368403459
0.01368397593
0.01368391428
0.01368385951
0.01368382487
0.01368412864
0.01368410248
0.01368406057
0.01368400149
0.0136839255
0.01368383641
0.01368374315
0.0136836605
0.0136836083
0.01368406845
0.01368402837
0.01368396443
0.01368387477
0.01368376007
0.01368362619
0.01368348652
0.01368336303
0.01368328512
0.01368397508
0.01368391435
0.01368381794
0.01368368343
0.01368351221
0.01368331323
0.01368310628
0.01368292369
0.01368280861
0.0136838321
0.01368374123
0.0136835976
0.01368339824
0.01368314567
0.01368285329
0.01368255011
0.01368228311
0.01368211497
0.01368361624
0.01368348201
0.01368327078
0.01368297899
0.01368261099
0.01368218658
0.01368174771
0.0136813619
0.01368111916
0.01368329523
0.01368309963
0.0136827931
0.01368237161
0.01368184232
0.01368123413
0.01368060694
0.01368005657
0.01367971059
0.01368282533
0.01368254428
0.01368210559
0.01368150504
0.01368075411
0.01367989435
0.01367901019
0.01367823577
0.01367774944
0.01368214865
0.01368175064
0.0136811318
0.01368028833
0.01367923809
0.01367804004
0.01367681156
0.01367573771
0.01367506415
0.01368119041
0.01368063518
0.01367977517
0.01367860807
0.01367716103
0.01367551658
0.01367383549
0.01367236927
0.01367145095
0.01367985656
0.01367909388
0.013677917
0.01367632682
0.0136743638
0.01367214172
0.01366987751
0.01366790762
0.01366667601
0.01367803181
0.01367700062
0.01367541537
0.01367328282
0.013670662
0.01366770744
0.01366470738
0.01366210454
0.01366048059
0.01367557874
0.01367420669
0.01367210539
0.01366929123
0.01366584852
0.01366198406
0.01365807478
0.01365469354
0.01365258901
0.01367233782
0.01367054153
0.01366780087
0.01366414698
0.01365969798
0.01365472629
0.01364971704
0.01364539904
0.01364271874
0.01366812882
0.0136658147
0.01366229729
0.01365762916
0.0136519725
0.01364568067
0.01363936814
0.01363394657
0.01363059131
0.01366275327
0.01365981905
0.01365537592
0.01364950623
0.01364242833
0.01363459347
0.01362676771
0.01362007263
0.01361594254
0.01365599771
0.0136523346
0.0136468085
0.01363954163
0.01363082229
0.01362121793
0.01361166887
0.01360353278
0.01359853076
0.01364763755
0.01364313271
0.01363636193
0.01362749899
0.01361691746
0.01360532009
0.01359384391
0.01358410708
0.01357814194
0.01363744081
0.01363198009
0.01362380246
0.01361314641
0.01360048723
0.01358668248
0.01357308739
0.01356160232
0.01355459128
0.01362517156
0.01361864219
0.013608899
0.01359625947
0.01358131781
0.01356510573
0.01354921654
0.0135358514
0.01352772197
0.01361059279
0.01360288594
0.01359142552
0.01357662306
0.01355920915
0.01354040828
0.01352206958
0.01350671011
0.0134974006
0.0135934688
0.01358448188
0.01357116272
0.01355403237
0.01353397503
0.01351242516
0.0134915028
0.01347405219
0.01346351042
0.01357356731
0.013563206
0.01354789953
0.01352829383
0.01350544316
0.01348100734
0.01345738906
0.01343776585
0.0134259419
0.01355066166
0.01353884175
0.01352143471
0.01349922628
0.01347345617
0.01344602285
0.01341962075
0.01339776397
0.01338462699
0.01352453346
0.01351118247
0.01349157899
0.01346666273
0.0134378727
0.01340735705
0.01337810714
0.01335397259
0.0133395121
0.01349497575
0.01348003432
0.0134581577
0.01343045261
0.01339856946
0.01336491448
0.01333277877
0.01330635353
0.01329057081
0.0134617967
0.01344521967
0.01342101367
0.01339046392
0.01335544245
0.01331861947
0.01328358631
0.01325488667
0.01323779772
0.01342482349
0.01340658067
0.01338001026
0.01334658582
0.01330840833
0.01326841506
0.01323051265
0.01319957684
0.01318121022
0.01338390602
0.01336398252
0.01333503434
0.0132987309
0.01325740779
0.01321427773
0.01317356421
0.01314045181
0.01312084771
0.01333892006
0.01331731604
0.01328599756
0.01324683582
0.01320240507
0.0131562117
0.013112772
0.01307756191
0.01305677086
0.01328976816
0.01326649795
0.01323283618
0.01319085906
0.01314340323
0.01309424868
0.01304819136
0.01301097932
0.01298906072
0.01323637962
0.01321147063
0.0131755121
0.01313080516
0.01308043519
0.01302844688
0.01297990094
0.01294079692
0.01291781751
0.01317870878
0.0131522074
0.01311403544
0.01306671086
0.01301356258
0.01295888968
0.01290800124
0.01286712675
0.01284315906
0.01311675904
0.01308873482
0.0130484527
0.01299864416
0.01294287422
0.01288568386
0.01283261274
0.01279009826
0.01276521911
0.0130505815
0.01302111598
0.01297884317
0.01292670205
0.01286848398
0.01280895751
0.01275387394
0.0127098563
0.01268414542
0.01298026241
0.01294944704
0.01290531613
0.0128510079
0.01279052833
0.0127288576
0.01267193904
0.0126265591
0.01260009778
0.01290591978
0.01287385391
0.01282800768
0.01277170853
0.01270916354
0.01264554749
0.01258697564
0.0125403761
0.01251324605
0.01282769988
0.01279448885
0.01274707757
0.01268897109
0.01262456284
0.01255920424
0.01249916237
0.01245148584
0.01242376817
0.01274577367
0.0127115269
0.01266270568
0.01260297986
0.0125369134
0.01247001601
0.01240868657
0.01236007389
0.01233184821
0.01266033303
0.01262516226
0.01257508863
0.01251393307
0.01244641356
0.01237817951
0.01231574205
0.01226633085
0.01223767455
0.01257158703
0.01253560468
0.01248443641
0.01242203978
0.01235326996
0.01228389754
0.01222052697
0.01217045048
0.01214143813
0.01247975824
0.01244307597
0.01239096906
0.01232751694
0.01225769498
0.01218737676
0.01212324185
0.01207262791
0.0120433308
0.01238507922
0.0123478066
0.01229491359
0.01223058657
0.01215990425
0.01208882551
0.01202408775
0.01197305811
0.01194354385
0.01228778915
0.01225003259
0.01219650114
0.01213147325
0.01206011447
0.01198845196
0.01192326462
0.01187193431
0.01184226664
0.01218813084
0.01214999265
0.0120959643
0.01203040175
0.01195854136
0.01188646233
0.01182096981
0.01176944681
0.01173968537
0.01208634787
0.01204792554
0.01199353481
0.01192759498
0.01185539788
0.01178305941
0.01171739678
0.01166578173
0.01163598199
0.01198268213
0.01194406778
0.01188944142
0.01182327215
0.01175089269
0.01167844122
0.01161273393
0.01156112003
0.01153133327
0.0118773717
0.0118386516
0.01178390812
0.01171764723
0.01164522875
0.01157279986
0.01150716366
0.01145563667
0.01142591002
0.01177064889
0.01173190327
0.0116771526
0.01161092755
0.01153860228
0.01146632057
0.01140086154
0.01134949988
0.01131987637
0.01166273872
0.01162404158
0.01156938492
0.01150331277
0.01143120175
0.01135918096
0.01129399566
0.01124287057
0.01121338924
0.01155385763
0.01151527669
0.01146080649
0.01139499394
0.0113232072
0.01125155041
0.01118672613
0.01113590186
0.01110659794
0.01144421242
0.0114058092
0.01135160928
0.01128615283
0.0112147896
0.01114358957
0.01107920466
0.0110287388
0.01099964383
0.01133399946
0.01129582939
0.01124197516
0.0111769614
0.01110611054
0.01103545007
0.0109715743
0.01092151808
0.01089266011
0.01122340415
0.01118551676
0.01113207549
0.01106758152
0.0109973219
0.01092727429
0.01086396933
0.01081436794
0.01078577174
0.01111260052
0.01107503969
0.01102207087
0.01095816469
0.01088856571
0.01081919531
0.01075651514
0.01070740809
0.01067909533
0.01100175104
0.01096455528
0.010912111
0.01084885205
0.01077997417
0.0107113369
0.01064932831
0.01060074982
0.01057273926
0.01089100658
0.01085420932
0.01080233474
0.01073977437
0.01067166971
0.01060381357
0.01054251666
0.01049449603
0.01046680375
0.01078050647
0.01074413642
0.01069287019
0.01063105224
0.01056376512
0.01049673083
0.0104361795
0.01038874143
0.01036138103
0.01067037876
0.01063446018
0.01058383492
0.01052279626
0.01045636381
0.01039018533
0.01033040775
0.01028357277
0.01025655555
0.01056074041
0.01052529351
0.01047533629
0.01041510738
0.0103495601
0.0102842652
0.0102252843
0.01017906908
0.01015240425
0.01045169776
0.010416739
0.01036747177
0.01030807718
0.01024343954
0.01017905032
0.01012088427
0.01007530197
0.01004899682
0.01034334685
0.01030888927
0.01026032935
0.01020178831
0.01013807927
0.01007461271
0.01001727533
0.009972335925
0.009946396009
0.01023577397
0.01020182752
0.01015398801
0.01009631491
0.01003354846
0.009971016881
0.009914518079
0.00987022868
0.009844657983
0.0101290561
0.01009562794
0.01004851813
0.009991723
0.009929908676
0.009868320251
0.009812666418
0.009769031544
0.009743832633
0.01002326145
0.009990356249
0.009943982051
0.009888071015
0.009827214339
0.009766573512
0.0097117679
0.009668789764
0.009643963941
0.009918450018
0.009886070187
0.009840434477
0.009785410203
0.009725513152
0.009665821057
0.009611864127
0.009569542887
0.009545090323
0.009814674058
0.009782820055
0.009737923034
0.009683785116
0.009624846529
0.009566101379
0.009512991126
0.009471325123
0.009447244989
0.009711978672
0.009680649214
0.009636488728
0.009583234069
0.009525250027
0.009467447468
0.00941517972
0.009374165698
0.00935045628
0.009610402302
0.009579594591
0.009536166431
0.009483789582
0.009426753765
0.009369887206
0.009318455902
0.009278089206
0.009254748016
0.009509977248
0.00947968717
0.009436985346
0.009385478824
0.009329382831
0.009273443746
0.009222841186
0.00918311595
0.009160139825
0.009410730155
0.009380952466
0.00933896946
0.009288324034
0.009233157679
0.009178135878
0.009128352958
0.00908926227
0.009066647464
0.009312682486
0.009283410981
0.009242137972
0.009192342924
0.009138094506
0.009083978388
0.009035004803
0.008996540861
0.008974283126
0.009215850973
0.009187078635
0.009146505708
0.009097549072
0.009044205611
0.008990982386
0.008942806827
0.008904961074
0.008883055737
0.009120248042
0.009091967182
0.009052083511
0.009003952284
0.008951499745
0.008899155638
0.008851765954
0.008814529205
0.008792971237
0.009025882216
0.008998084593
0.00895887861
0.008911558942
0.008859982427
0.00880850286
0.008761886216
0.00872524877
0.008704032844
0.008932758495
0.008905435428
0.008866894968
0.008820372333
0.008769656256
0.008719026006
0.00867316902
0.008637120759
0.008616241309
0.008840878709
0.008814021169
0.008776133605
0.008730392951
0.008680521188
0.008630724537
0.0085856134
0.008550143881
0.008529595149
0.00875024185
0.008723840551
0.008686592909
0.008641618792
0.008592574823
0.008543595677
0.008499216257
0.008464314791
0.008444090871
0.008660844379
0.00863488985
0.008598268908
0.008554045609
0.008505812639
0.008457634651
0.008413972592
0.008379628308
0.008359723185
0.008572680518
0.008547163169
0.008511155549
0.008467667171
0.008420228229
0.008372834889
0.008329875697
0.008296077612
0.008276485195
0.008485742475
0.008460652661
0.008425244913
0.008382475484
0.008335813519
0.008289188241
0.008246917351
0.008213654422
0.008194368578
0.008400020711
0.008375348774
0.008340527438
0.00829846098
0.008252558944
0.008206685146
0.008165087991
0.008132349164
0.008113363743
0.008315504152
0.008291240471
0.008256992138
0.008215612738
0.008170453651
0.008125314817
0.008084376883
0.008052151132
0.008033459989
0.008232180407
0.008208315429
0.00817462679
0.008133918651
0.008089485663
0.008045065396
0.008004772266
0.007973048629
0.007954645646
0.008150035944
0.008126560215
0.008093418099
0.008053365594
0.008009642028
0.007965924099
0.007926261494
0.007895029103
0.007876908206
0.00806905625
0.008045960445
0.008013351856
0.007973939562
0.00793090896
0.007887877347
0.007848831161
0.00781807927
0.007800234443
0.007989225991
0.007966500928
0.007934413077
0.007895625813
0.00785327197
0.007810910888
0.007772467216
0.007742185221
0.00772461052
0.007910529139
0.007888165804
0.007856586128
0.007818408982
0.007776715974
0.007735009906
0.00769715507
0.007667332528
0.007650022091
0.007832949104
0.007810938662
0.007779854847
0.007742273196
0.007701225405
0.007660159123
0.007622879687
0.007593506333
0.00757645439
0.007756468841
0.007734802646
0.00770420264
0.007667202171
0.007626784301
0.007586342884
0.007549625674
0.007520691432
0.00750389231
0.00768107095
0.007659740555
0.007629612582
0.007593179304
0.007553376397
0.007513545244
0.007477377359
0.00744887235
0.007432320482
0.007606737766
0.00758573493
0.007556067497
0.00752018775
0.007480985197
0.007441750036
0.007406118858
0.00737803341
0.00736172334
0.00753345144
0.00751276813
0.007483550034
0.007448210497
0.007409594042
0.007370940943
0.007335834141
0.007308158797
0.007292085179
0.007461194009
0.007440822405
0.007412042733
0.007377230429
0.007339186177
0.007301101551
0.00726650709
0.007239232605
0.007223390213
0.007389947457
0.007369879951
0.007341528087
0.007307230382
0.007269744801
0.007232215403
0.007198121544
0.007171238896
0.007155622619
0.007319693773
0.007299922972
0.007271988592
0.007238193198
0.007201253116
0.00716426605
0.007130661351
0.007104161736
0.007088766584
0.007250415002
0.007230933721
0.007203406794
0.007170101766
0.007133694374
0.007097237086
0.007064110401
0.007037985237
0.007022806341
0.007182093282
0.007162894548
0.007135765333
0.007102939065
0.00706705191
0.007031112189
0.00699845267
0.006972693595
0.006957726203
0.007114710886
0.007095787932
0.007069046973
0.007036688195
0.007001309178
0.006965875153
0.006933672243
0.006908271112
0.006893510593
0.007048250253
0.007029596515
0.007003234637
0.00697133241
0.006936449781
0.006901509913
0.006869753345
0.00684470223
0.006830144072
0.006982694017
0.006964303131
0.006938311436
0.006906855143
0.006872457493
0.006838000573
0.006806680364
0.006781971551
0.00676761136
0.006918025031
0.006899890826
0.006874260685
0.00684324003
0.006809316285
0.006775331426
0.006744437874
0.00672006386
0.006705897356
0.006854226384
0.006836342883
0.006811065931
0.006780470926
0.006747010341
0.006713486973
0.00668301065
0.006658964138
0.006644987157
0.006791281425
0.006773642833
0.006748710963
0.006718531924
0.006685524076
0.006652451936
0.006622383686
0.006598657582
0.006584866072
0.006729173772
0.006711774478
0.006687179832
0.006657407371
0.006624842148
0.006592211278
0.006562542206
0.006539129616
0.006525519637
0.006667887326
0.006650721893
0.00662645686
0.006597081877
0.006564949472
0.006532750209
0.006503471679
0.006480365905
0.006466933623
0.006607406283
0.006590469445
0.00656652665
0.006537540325
0.006505831232
0.006474054199
0.006445157829
0.006422352363
0.006409094055
0.00654771514
0.0065310018
0.006507374098
0.006478767886
0.006447472887
0.006416108991
0.006387586645
0.00636507517
0.006351987215
0.006488798705
0.006472303925
0.0064489844
0.00642075002
0.006389860183
0.006358900608
0.006330744394
0.006308520776
0.00629559966
0.006430642105
0.006414361107
0.006391343059
0.006363472495
0.006332979164
0.006302415366
0.006274617632
0.006252675923
0.006239918235
0.006373230791
0.006357158952
0.006334435899
0.006306921389
0.006276816187
0.006246639888
0.006219193223
0.006197527658
0.006184930091
0.006316550552
0.0063006834
0.006278249073
0.006251083111
0.006221357932
0.006191561127
0.006164458357
0.006143063357
0.006130622711
0.006260587525
0.006244920741
0.006222769085
0.006195944418
0.006166591432
0.006137166387
0.006110400585
0.006089270763
0.006076983947
0.006205328215
0.006189857633
0.006167982805
0.006141492441
0.0061125041
0.006083443362
0.006057007857
0.006036138028
0.006024002066
0.00615075952
0.006135481129
0.006113877511
0.006087714724
0.006059083777
0.006030380194
0.006004268587
0.00598365378
0.005971665826
0.006096868767
0.006081778722
0.006060440929
0.006034599285
0.006006318797
0.00597796554
0.005952171731
0.00593180722
0.005919964569
0.00604364377
0.006028738405
0.006007661307
0.005982134684
0.005954198075
0.005926188676
0.00590070691
0.005880588246
0.005868888362
0.005991072904
0.00597634875
0.005955527503
0.005930310134
0.005902711225
0.005875039642
0.005849864565
0.005829987633
0.005818428179
0.0059391452
0.005924599016
0.005904029108
0.005879115643
0.005851848736
0.005824509429
0.005799636174
0.005779997263
0.00576857615
0.00588785049
0.005873479305
0.005853156618
0.005828542209
0.005801602183
0.005774590234
0.005750014532
0.005730610435
0.005719325881
0.005837179588
0.005822980759
0.005802901657
0.005778582068
0.005751964519
0.005725275778
0.005700994112
0.005681822257
0.00567067287
0.00578712453
0.005773095816
0.005753257258
0.00572922902
0.005702930439
0.005676561722
0.005652571526
0.00563363014
0.005622615025
0.005737678878
0.005723818544
0.005704218233
0.005680478834
0.005654496838
0.00562844618
0.005604746081
0.005586034412
0.005575153298
0.005688838106
0.005675145045
0.005655781619
0.005632329749
0.005606663367
0.005580930335
0.005557520469
0.005539039039
0.005528292449
0.005640600069
0.005627073962
0.005607947225
0.005584783076
0.005559433107
0.005534019181
0.005510901563
0.005492652492
0.005482041929
0.005592965566
0.005579607073
0.00556071828
0.00553784391
0.005512813342
0.005487722371
0.005464901341
0.005446888713
0.005436416896
0.005545939008
0.005532749996
0.005514102186
0.005491521943
0.00546681645
0.005442055179
0.005419537908
0.0054017682
0.005391439317
0.005499529175
0.005486512976
0.005468111356
0.005445832377
0.005421460882
0.005397039543
0.005374836601
0.00535731915
0.005347139142
0.005453750083
0.005440911795
0.005422764168
0.005400796901
0.005376772189
0.005352705158
0.005330831133
0.005313578633
0.005303555496
0.005408621909
0.005395968714
0.005378085948
0.005356444737
0.005332784111
0.005309090567
0.005287564692
0.00527059372
0.005260737805
0.00536417196
0.005351713463
0.005334109973
0.005312813661
0.0052895396
0.005266244211
0.005245090982
0.005228422475
0.005218746781
0.005320435651
0.005308184222
0.005290878453
0.005269950959
0.005247091761
0.005224225304
0.005203475043
0.005187134737
0.005177655148
0.005277457435
0.005265428526
0.005248443397
0.005227914245
0.005205504577
0.005183104477
0.005162793781
0.005146812533
0.005137547993
0.005235291611
0.00522350403
0.005206867307
0.005186772047
0.005164853365
0.005142964049
0.005123136062
0.005107550014
0.005098522597
0.005194002933
0.005182479042
0.005166223586
0.005146604046
0.005125224801
0.005103897825
0.005084602256
0.00506945278
0.005060687611
0.005153666924
0.005142432722
0.00512659657
0.00510750088
0.00508671644
0.005066010289
0.00504730311
0.005032636464
0.005024161468
0.005114369804
0.005103454861
0.005088081074
0.005069563388
0.005049435604
0.005029415093
0.005011357838
0.004997224487
0.004989069927
0.005076207913
0.00506564512
0.005050781351
0.005032901208
0.005013497544
0.004994232763
0.004976891373
0.004963344925
0.004955542702
0.00503928657
0.005029111656
0.005014809399
0.004997630661
0.004979022851
0.004960587588
0.004944030767
0.004931126506
0.004923709215
0.005003718258
0.004993969074
0.004980282541
0.00496387189
0.004946134072
0.004928603715
0.004912900788
0.004900693809
0.004893693567
0.004969620123
0.004960335656
0.004947320296
0.004931745264
0.004914951621
0.00489840055
0.004883618873
0.004872161866
0.004865608936
0.004937110774
0.004928329915
0.004916040564
0.004901367152
0.004885589098
0.004870087649
0.004856289651
0.004845630425
0.004839551705
0.004906306442
0.004898066524
0.004886555261
0.004872845198
0.004858148224
0.00484375936
0.00483099937
0.004821178251
0.004815595723
0.004877316618
0.004869651785
0.004858965562
0.004846273352
0.004832713684
0.004819489555
0.004807810609
0.004798857894
0.004793787133
0.004850239346
0.004843178836
0.00483335702
0.004821726929
0.004809348214
0.004797326841
0.004786757714
0.004778691381
0.004774140275
0.004825156433
0.00481872287
0.004809794849
0.004799258049
0.004788088315
0.004777290676
0.004767843387
0.00476066729
0.004756635079
0.004802128856
0.004796336687
0.00478831972
0.004778891816
0.004768940967
0.004759368746
0.004751036811
0.004744739551
0.004741216322
0.00478119271
0.004776046904
0.004768944412
0.004760623586
0.004751881683
0.004743515948
0.004736273577
0.004730828219
0.004727794935
0.004762356022
0.004757851173
0.004751651635
0.004744417608
0.004736854157
0.004729655135
0.004723457543
0.00471882226
0.004716251357
0.004745596743
0.00474171667
0.004736393273
0.004730207242
0.004723771615
0.004717679686
0.004712464542
0.004708584203
0.004706440738
0.00473086214
0.004727580063
0.004723091195
0.004717896821
0.004712519853
0.004707457733
0.004703147697
0.004699956273
0.004698199534
0.004718069743
0.004715349063
0.004711639648
0.004707365067
0.004702961757
0.004698837739
0.004695343885
0.004692767505
0.004691352947
0.004707109843
0.004704905489
0.004701909115
0.004698469848
0.004694942969
0.004691654967
0.004688880822
0.00468684118
0.004685722504
0.004697849425
0.004696109681
0.004693751362
0.004691053918
0.004688298244
0.004685738299
0.004683584121
0.004682001942
0.004681133124
0.004690137267
0.004688805954
0.004687005308
0.00468495118
0.004682857987
0.004680916839
0.00467928376
0.004678081995
0.004677419064
0.004683809856
0.004682828679
0.004681503283
0.004679993003
0.004678454456
0.004677025802
0.004675819471
0.004674925897
0.004674428244
0.004678697657
0.004678008549
0.004677077187
0.00467601414
0.004674927235
0.004673911341
0.00467304478
0.004672393754
0.004672024473
0.004674631295
0.004674178563
0.004673564142
0.004672857857
0.00467212767
0.004671434194
0.004670829899
0.004670363577
0.004670091588
0.004671447178
0.00467117932
0.004670811247
0.004670379972
0.004669922069
0.004669472042
0.004669063499
0.004668735235
0.004668537162
0.00466899222
0.004668863273
0.00466867916
0.004668451577
0.004668193449
0.00466792026
0.004667654467
0.004667428397
0.004667285406
0.004667127362
0.004667097747
0.004667044361
0.004666960376
0.004666841844
0.004666693079
0.00466652938
0.004666376816
0.004666273573
0.004665729796
0.004665766632
0.004665800142
0.004665810841