/*--------------------------------*- C++ -*----------------------------------*\
| =========                 |                                                 |
| \\      /  F ield         | OpenFOAM: The Open Source CFD Toolbox           |
|  \\    /   O peration     | Version:  2212                                  |
|   \\  /    A nd           | Website:  www.openfoam.com                      |
|    \\/     M anipulation  |                                                 |
\*---------------------------------------------------------------------------*/
FoamFile
{
    version     2.0;
    format      ascii;
    arch        "LSB;label=32;scalar=64";
    class       volScalarField;
    location    "20.00000000";
    object      CH3COCH3;
}
// * * * * * * * * * * * * * * * * * * * * * * * * * * * * * * * * * * * * * //

dimensions      [0 0 0 0 0 0 0];

internalField   nonuniform List<scalar> 
3000
(
0.01368422948
0.01368422948
0.01368422948
0.01368422948
0.01368422948
0.01368422948
0.01368422948
0.01368422948
0.01368422948
0.01368422948
0.01368422948
0.01368422948
0.01368422948
0.01368422948
0.01368422948
0.01368422948
0.01368422948
0.01368422948
0.01368422948
0.01368422948
0.01368422948
0.01368422948
0.01368422948
0.01368422948
0.01368422948
0.01368422948
0.01368422948
0.01368422948
0.01368422948
0.01368422948
0.01368422948
0.01368422948
0.01368422948
0.01368422948
0.01368422948
0.01368422948
0.01368422948
0.01368422948
0.01368422948
0.01368422948
0.01368422948
0.01368422948
0.01368422948
0.01368422948
0.01368422948
0.01368422948
0.01368422948
0.01368422948
0.01368422948
0.01368422948
0.01368422948
0.01368422948
0.01368422948
0.01368422948
0.01368422948
0.01368422948
0.01368422948
0.01368422948
0.01368422948
0.01368422948
0.01368422948
0.01368422948
0.01368422948
0.01368422948
0.01368422948
0.01368422948
0.01368422948
0.01368422948
0.01368422948
0.01368422948
0.01368422948
0.01368422948
0.01368422948
0.01368422948
0.01368422948
0.01368422948
0.01368422948
0.01368422948
0.01368422948
0.01368422948
0.01368422948
0.01368422948
0.01368422948
0.01368422948
0.01368422948
0.01368422948
0.01368422948
0.01368422948
0.01368422948
0.01368422948
0.01368422948
0.01368422948
0.01368422948
0.01368422948
0.01368422948
0.01368422948
0.01368422948
0.01368422948
0.01368422948
0.01368422948
0.01368422948
0.01368422948
0.01368422948
0.01368422948
0.01368422948
0.01368422948
0.01368422948
0.01368422948
0.01368422948
0.01368422948
0.01368422948
0.01368422948
0.01368422948
0.01368422948
0.01368422948
0.01368422948
0.01368422948
0.01368422948
0.01368422948
0.01368422948
0.01368422948
0.01368422948
0.01368422948
0.01368422948
0.01368422948
0.01368422948
0.01368422948
0.01368422948
0.01368422948
0.01368422948
0.01368422948
0.01368422948
0.01368422948
0.01368422948
0.01368422948
0.01368422948
0.01368422948
0.01368422948
0.01368422948
0.01368422948
0.01368422948
0.01368422948
0.01368422948
0.01368422948
0.01368422948
0.01368422948
0.01368422948
0.01368422948
0.01368422948
0.01368422948
0.01368422948
0.01368422948
0.01368422948
0.01368422948
0.01368422948
0.01368422948
0.01368422948
0.01368422948
0.01368422948
0.01368422948
0.01368422948
0.01368422948
0.01368422948
0.01368422948
0.01368422948
0.01368422948
0.01368422948
0.01368422948
0.01368422948
0.01368422948
0.01368422948
0.01368422948
0.01368422948
0.01368422948
0.01368422948
0.01368422948
0.01368422948
0.01368422948
0.01368422948
0.01368422948
0.01368422948
0.01368422948
0.01368422948
0.01368422948
0.01368422948
0.01368422948
0.01368422948
0.01368422948
0.01368422948
0.01368422948
0.01368422948
0.01368422948
0.01368422948
0.01368422948
0.01368422948
0.01368422948
0.01368422948
0.01368422948
0.01368422948
0.01368422948
0.01368422948
0.01368422948
0.01368422948
0.01368422948
0.01368422948
0.01368422948
0.01368422948
0.01368422948
0.01368422948
0.01368422948
0.01368422948
0.01368422948
0.01368422948
0.01368422948
0.01368422948
0.01368422948
0.01368422948
0.01368422948
0.01368422948
0.01368422948
0.01368422948
0.01368422948
0.01368422948
0.01368422948
0.01368422948
0.01368422948
0.01368422948
0.01368422948
0.01368422948
0.01368422948
0.01368422948
0.01368422948
0.01368422948
0.01368422948
0.01368422948
0.01368422948
0.01368422948
0.01368422948
0.01368422948
0.01368422948
0.01368422948
0.01368422948
0.01368422948
0.01368422948
0.01368422948
0.01368422948
0.01368422948
0.01368422948
0.01368422948
0.01368422948
0.01368422948
0.01368422948
0.01368422948
0.01368422948
0.01368422948
0.01368422948
0.01368422948
0.01368422948
0.01368422948
0.01368422948
0.01368422948
0.01368422948
0.01368422948
0.01368422948
0.01368422948
0.01368422948
0.01368422948
0.01368422948
0.01368422948
0.01368422948
0.01368422948
0.01368422948
0.01368422948
0.01368422948
0.01368422948
0.01368422948
0.01368422948
0.01368422948
0.01368422948
0.01368422948
0.01368422948
0.01368422948
0.01368422948
0.01368422948
0.01368422948
0.01368422948
0.01368422948
0.01368422948
0.01368422948
0.01368422948
0.01368422948
0.01368422948
0.01368422948
0.01368422948
0.01368422948
0.01368422948
0.01368422948
0.01368422948
0.01368422948
0.01368422948
0.01368422948
0.01368422948
0.01368422948
0.01368422948
0.01368422948
0.01368422948
0.01368422948
0.01368422948
0.01368422948
0.01368422948
0.01368422948
0.01368422948
0.01368422948
0.01368422948
0.01368422948
0.01368422948
0.01368422948
0.01368422948
0.01368422948
0.01368422948
0.01368422948
0.01368422948
0.01368422948
0.01368422948
0.01368422948
0.01368422948
0.01368422948
0.01368422948
0.01368422948
0.01368422948
0.01368422948
0.01368422948
0.01368422948
0.01368422948
0.01368422948
0.01368422948
0.01368422948
0.01368422948
0.01368422948
0.01368422948
0.01368422948
0.01368422948
0.01368422948
0.01368422948
0.01368422948
0.01368422948
0.01368422948
0.01368422948
0.01368422948
0.01368422948
0.01368422948
0.01368422948
0.01368422948
0.01368422948
0.01368422948
0.01368422948
0.01368422948
0.01368422948
0.01368422948
0.01368422948
0.01368422948
0.01368422948
0.01368422948
0.01368422948
0.01368422948
0.01368422948
0.01368422948
0.01368422948
0.01368422947
0.01368422948
0.01368422948
0.01368422948
0.01368422948
0.01368422948
0.01368422948
0.01368422947
0.01368422947
0.01368422947
0.01368422948
0.01368422948
0.01368422948
0.01368422948
0.01368422947
0.01368422947
0.01368422947
0.01368422947
0.01368422947
0.01368422948
0.01368422948
0.01368422948
0.01368422947
0.01368422947
0.01368422947
0.01368422947
0.01368422947
0.01368422947
0.01368422948
0.01368422948
0.01368422947
0.01368422947
0.01368422947
0.01368422947
0.01368422947
0.01368422946
0.01368422946
0.01368422947
0.01368422947
0.01368422947
0.01368422947
0.01368422947
0.01368422946
0.01368422946
0.01368422945
0.01368422945
0.01368422947
0.01368422947
0.01368422947
0.01368422947
0.01368422946
0.01368422945
0.01368422944
0.01368422944
0.01368422943
0.01368422947
0.01368422947
0.01368422946
0.01368422946
0.01368422945
0.01368422943
0.01368422942
0.0136842294
0.01368422939
0.01368422947
0.01368422946
0.01368422946
0.01368422944
0.01368422943
0.0136842294
0.01368422937
0.01368422935
0.01368422933
0.01368422946
0.01368422945
0.01368422944
0.01368422942
0.01368422939
0.01368422934
0.0136842293
0.01368422926
0.01368422923
0.01368422945
0.01368422943
0.01368422941
0.01368422937
0.01368422932
0.01368422925
0.01368422917
0.0136842291
0.01368422905
0.01368422942
0.0136842294
0.01368422936
0.01368422929
0.0136842292
0.01368422908
0.01368422895
0.01368422882
0.01368422874
0.01368422938
0.01368422934
0.01368422926
0.01368422915
0.01368422899
0.01368422879
0.01368422857
0.01368422837
0.01368422824
0.0136842293
0.01368422923
0.0136842291
0.01368422891
0.01368422864
0.01368422831
0.01368422794
0.01368422761
0.01368422739
0.01368422917
0.01368422904
0.01368422882
0.0136842285
0.01368422805
0.0136842275
0.01368422689
0.01368422634
0.01368422598
0.01368422893
0.01368422871
0.01368422835
0.0136842278
0.01368422706
0.01368422615
0.01368422515
0.01368422425
0.01368422367
0.01368422852
0.01368422815
0.01368422754
0.01368422663
0.01368422541
0.01368422392
0.0136842223
0.01368422083
0.01368421988
0.0136842278
0.0136842272
0.01368422618
0.01368422469
0.01368422269
0.01368422026
0.01368421764
0.01368421526
0.01368421374
0.01368422659
0.01368422559
0.01368422392
0.01368422148
0.01368421824
0.01368421432
0.0136842101
0.01368420628
0.01368420383
0.01368422454
0.0136842229
0.01368422019
0.01368421624
0.01368421102
0.01368420473
0.01368419799
0.01368419191
0.01368418801
0.01368422112
0.01368421845
0.01368421407
0.01368420774
0.0136841994
0.0136841894
0.01368417872
0.0136841691
0.01368416296
0.01368421546
0.01368421116
0.01368420416
0.01368419408
0.01368418087
0.01368416509
0.0136841483
0.01368413324
0.01368412365
0.01368420618
0.01368419933
0.01368418823
0.01368417233
0.01368415158
0.0136841269
0.01368410075
0.01368407737
0.01368406253
0.01368419113
0.01368418033
0.01368416287
0.01368413801
0.01368410571
0.01368406748
0.01368402713
0.01368399118
0.0136839684
0.01368416698
0.01368415009
0.0136841229
0.01368408438
0.01368403459
0.01368397593
0.01368391428
0.01368385951
0.01368382487
0.01368412864
0.01368410248
0.01368406057
0.01368400149
0.0136839255
0.01368383641
0.01368374315
0.0136836605
0.0136836083
0.01368406845
0.01368402837
0.01368396443
0.01368387477
0.01368376007
0.01368362619
0.01368348652
0.01368336303
0.01368328512
0.01368397508
0.01368391435
0.01368381794
0.01368368343
0.01368351221
0.01368331323
0.01368310628
0.01368292369
0.01368280861
0.0136838321
0.01368374123
0.0136835976
0.01368339824
0.01368314567
0.01368285329
0.01368255011
0.01368228311
0.01368211497
0.01368361624
0.01368348201
0.01368327078
0.01368297899
0.01368261099
0.01368218658
0.01368174771
0.0136813619
0.01368111916
0.01368329523
0.01368309963
0.0136827931
0.01368237161
0.01368184232
0.01368123413
0.01368060694
0.01368005657
0.01367971059
0.01368282533
0.01368254428
0.01368210559
0.01368150504
0.01368075411
0.01367989435
0.01367901019
0.01367823577
0.01367774944
0.01368214865
0.01368175064
0.0136811318
0.01368028833
0.01367923809
0.01367804004
0.01367681156
0.01367573771
0.01367506415
0.01368119041
0.01368063518
0.01367977517
0.01367860807
0.01367716103
0.01367551658
0.01367383549
0.01367236927
0.01367145095
0.01367985656
0.01367909388
0.013677917
0.01367632682
0.0136743638
0.01367214172
0.01366987751
0.01366790762
0.01366667601
0.01367803181
0.01367700062
0.01367541537
0.01367328282
0.013670662
0.01366770744
0.01366470738
0.01366210454
0.01366048059
0.01367557874
0.01367420669
0.01367210539
0.01366929123
0.01366584852
0.01366198406
0.01365807478
0.01365469354
0.01365258901
0.01367233782
0.01367054153
0.01366780087
0.01366414698
0.01365969798
0.01365472629
0.01364971704
0.01364539904
0.01364271874
0.01366812882
0.0136658147
0.01366229729
0.01365762916
0.0136519725
0.01364568067
0.01363936814
0.01363394657
0.01363059131
0.01366275327
0.01365981905
0.01365537592
0.01364950623
0.01364242833
0.01363459347
0.01362676771
0.01362007263
0.01361594254
0.01365599771
0.0136523346
0.0136468085
0.01363954163
0.01363082229
0.01362121793
0.01361166887
0.01360353278
0.01359853076
0.01364763755
0.01364313271
0.01363636193
0.01362749899
0.01361691746
0.01360532009
0.01359384391
0.01358410708
0.01357814194
0.01363744081
0.01363198009
0.01362380246
0.01361314641
0.01360048723
0.01358668248
0.01357308739
0.01356160232
0.01355459127
0.01362517156
0.01361864219
0.013608899
0.01359625947
0.0135813178
0.01356510572
0.01354921654
0.0135358514
0.01352772197
0.01361059279
0.01360288594
0.01359142551
0.01357662306
0.01355920915
0.01354040828
0.01352206958
0.01350671011
0.0134974006
0.0135934688
0.01358448188
0.01357116272
0.01355403237
0.01353397503
0.01351242516
0.0134915028
0.01347405219
0.01346351042
0.01357356731
0.013563206
0.01354789953
0.01352829383
0.01350544316
0.01348100734
0.01345738906
0.01343776585
0.0134259419
0.01355066166
0.01353884175
0.01352143471
0.01349922628
0.01347345617
0.01344602285
0.01341962075
0.01339776397
0.01338462699
0.01352453346
0.01351118247
0.01349157899
0.01346666273
0.01343787269
0.01340735705
0.01337810714
0.01335397259
0.0133395121
0.01349497575
0.01348003432
0.0134581577
0.01343045261
0.01339856945
0.01336491448
0.01333277877
0.01330635352
0.01329057081
0.0134617967
0.01344521967
0.01342101367
0.01339046392
0.01335544245
0.01331861947
0.01328358631
0.01325488667
0.01323779772
0.01342482349
0.01340658066
0.01338001026
0.01334658582
0.01330840833
0.01326841506
0.01323051265
0.01319957684
0.01318121022
0.01338390602
0.01336398252
0.01333503434
0.0132987309
0.01325740779
0.01321427773
0.01317356421
0.01314045181
0.01312084771
0.01333892006
0.01331731604
0.01328599756
0.01324683582
0.01320240507
0.0131562117
0.01311277199
0.01307756191
0.01305677086
0.01328976816
0.01326649795
0.01323283618
0.01319085906
0.01314340322
0.01309424867
0.01304819135
0.01301097932
0.01298906072
0.01323637961
0.01321147063
0.0131755121
0.01313080515
0.01308043519
0.01302844688
0.01297990094
0.01294079692
0.01291781751
0.01317870878
0.0131522074
0.01311403544
0.01306671086
0.01301356258
0.01295888968
0.01290800124
0.01286712675
0.01284315906
0.01311675904
0.01308873482
0.0130484527
0.01299864416
0.01294287422
0.01288568386
0.01283261274
0.01279009826
0.01276521911
0.0130505815
0.01302111598
0.01297884317
0.01292670205
0.01286848397
0.0128089575
0.01275387394
0.0127098563
0.01268414541
0.01298026241
0.01294944704
0.01290531612
0.0128510079
0.01279052832
0.0127288576
0.01267193904
0.0126265591
0.01260009778
0.01290591978
0.01287385391
0.01282800768
0.01277170853
0.01270916354
0.01264554749
0.01258697564
0.01254037609
0.01251324605
0.01282769988
0.01279448885
0.01274707757
0.01268897109
0.01262456284
0.01255920424
0.01249916237
0.01245148584
0.01242376817
0.01274577367
0.0127115269
0.01266270567
0.01260297986
0.0125369134
0.01247001601
0.01240868657
0.01236007389
0.01233184821
0.01266033303
0.01262516226
0.01257508863
0.01251393307
0.01244641356
0.0123781795
0.01231574205
0.01226633085
0.01223767455
0.01257158703
0.01253560468
0.01248443641
0.01242203978
0.01235326996
0.01228389754
0.01222052697
0.01217045047
0.01214143812
0.01247975824
0.01244307597
0.01239096906
0.01232751693
0.01225769498
0.01218737675
0.01212324185
0.01207262791
0.0120433308
0.01238507921
0.01234780659
0.01229491359
0.01223058657
0.01215990425
0.01208882551
0.01202408775
0.0119730581
0.01194354385
0.01228778915
0.01225003259
0.01219650114
0.01213147325
0.01206011447
0.01198845195
0.01192326462
0.01187193431
0.01184226664
0.01218813084
0.01214999265
0.0120959643
0.01203040175
0.01195854136
0.01188646233
0.01182096981
0.01176944681
0.01173968537
0.01208634787
0.01204792554
0.0119935348
0.01192759497
0.01185539788
0.01178305941
0.01171739678
0.01166578173
0.01163598198
0.01198268213
0.01194406777
0.01188944142
0.01182327215
0.01175089268
0.01167844122
0.01161273393
0.01156112003
0.01153133327
0.0118773717
0.0118386516
0.01178390812
0.01171764722
0.01164522875
0.01157279986
0.01150716365
0.01145563667
0.01142591002
0.01177064888
0.01173190327
0.0116771526
0.01161092755
0.01153860228
0.01146632057
0.01140086154
0.01134949988
0.01131987636
0.01166273872
0.01162404158
0.01156938492
0.01150331277
0.01143120175
0.01135918096
0.01129399566
0.01124287056
0.01121338923
0.01155385763
0.01151527669
0.01146080649
0.01139499394
0.01132320719
0.01125155041
0.01118672613
0.01113590186
0.01110659793
0.01144421241
0.0114058092
0.01135160928
0.01128615282
0.0112147896
0.01114358957
0.01107920466
0.0110287388
0.01099964382
0.01133399946
0.01129582938
0.01124197516
0.0111769614
0.01110611054
0.01103545006
0.0109715743
0.01092151808
0.01089266011
0.01122340415
0.01118551676
0.01113207549
0.01106758152
0.0109973219
0.01092727429
0.01086396933
0.01081436793
0.01078577173
0.01111260052
0.01107503969
0.01102207087
0.01095816469
0.01088856571
0.01081919531
0.01075651514
0.01070740809
0.01067909532
0.01100175104
0.01096455528
0.010912111
0.01084885205
0.01077997417
0.01071133689
0.0106493283
0.01060074982
0.01057273925
0.01089100657
0.01085420932
0.01080233474
0.01073977437
0.01067166971
0.01060381357
0.01054251666
0.01049449603
0.01046680374
0.01078050647
0.01074413642
0.01069287019
0.01063105224
0.01056376511
0.01049673083
0.01043617949
0.01038874143
0.01036138102
0.01067037876
0.01063446018
0.01058383492
0.01052279626
0.01045636381
0.01039018533
0.01033040775
0.01028357277
0.01025655555
0.01056074041
0.01052529351
0.01047533629
0.01041510738
0.0103495601
0.0102842652
0.0102252843
0.01017906908
0.01015240425
0.01045169776
0.01041673899
0.01036747177
0.01030807718
0.01024343953
0.01017905031
0.01012088427
0.01007530197
0.01004899682
0.01034334685
0.01030888927
0.01026032935
0.01020178831
0.01013807927
0.0100746127
0.01001727532
0.009972335923
0.009946396008
0.01023577397
0.01020182752
0.010153988
0.0100963149
0.01003354846
0.009971016879
0.009914518077
0.009870228678
0.009844657981
0.0101290561
0.01009562794
0.01004851813
0.009991722999
0.009929908674
0.009868320249
0.009812666416
0.009769031542
0.009743832632
0.01002326145
0.009990356247
0.009943982049
0.009888071013
0.009827214337
0.00976657351
0.009711767898
0.009668789762
0.009643963939
0.009918450016
0.009886070185
0.009840434475
0.009785410201
0.00972551315
0.009665821055
0.009611864125
0.009569542885
0.009545090322
0.009814674056
0.009782820053
0.009737923032
0.009683785115
0.009624846527
0.009566101377
0.009512991124
0.009471325121
0.009447244987
0.00971197867
0.009680649212
0.009636488726
0.009583234067
0.009525250025
0.009467447466
0.009415179718
0.009374165696
0.009350456278
0.009610402301
0.009579594589
0.009536166429
0.00948378958
0.009426753763
0.009369887204
0.0093184559
0.009278089204
0.009254748014
0.009509977247
0.009479687168
0.009436985344
0.009385478822
0.009329382829
0.009273443744
0.009222841184
0.009183115948
0.009160139824
0.009410730154
0.009380952464
0.009338969458
0.009288324032
0.009233157677
0.009178135877
0.009128352956
0.009089262268
0.009066647462
0.009312682485
0.009283410979
0.00924213797
0.009192342922
0.009138094504
0.009083978386
0.009035004801
0.008996540859
0.008974283124
0.009215850971
0.009187078633
0.009146505706
0.00909754907
0.009044205609
0.008990982385
0.008942806825
0.008904961072
0.008883055735
0.00912024804
0.00909196718
0.009052083509
0.009003952282
0.008951499743
0.008899155637
0.008851765952
0.008814529203
0.008792971235
0.009025882214
0.008998084591
0.008958878608
0.00891155894
0.008859982426
0.008808502858
0.008761886214
0.008725248768
0.008704032842
0.008932758494
0.008905435426
0.008866894966
0.008820372332
0.008769656254
0.008719026004
0.008673169018
0.008637120757
0.008616241307
0.008840878707
0.008814021167
0.008776133604
0.00873039295
0.008680521187
0.008630724535
0.008585613398
0.008550143879
0.008529595147
0.008750241848
0.008723840549
0.008686592908
0.00864161879
0.008592574821
0.008543595676
0.008499216256
0.008464314789
0.008444090869
0.008660844378
0.008634889848
0.008598268907
0.008554045607
0.008505812638
0.008457634649
0.008413972591
0.008379628306
0.008359723183
0.008572680516
0.008547163167
0.008511155547
0.00846766717
0.008420228228
0.008372834887
0.008329875695
0.00829607761
0.008276485193
0.008485742474
0.008460652659
0.008425244911
0.008382475482
0.008335813518
0.00828918824
0.008246917349
0.00821365442
0.008194368576
0.00840002071
0.008375348773
0.008340527437
0.008298460978
0.008252558942
0.008206685144
0.008165087989
0.008132349162
0.008113363742
0.00831550415
0.008291240469
0.008256992137
0.008215612736
0.00817045365
0.008125314815
0.008084376881
0.00805215113
0.008033459988
0.008232180406
0.008208315427
0.008174626788
0.00813391865
0.008089485662
0.008045065395
0.008004772264
0.007973048627
0.007954645645
0.008150035942
0.008126560214
0.008093418098
0.008053365592
0.008009642026
0.007965924098
0.007926261492
0.007895029101
0.007876908205
0.008069056249
0.008045960443
0.008013351855
0.007973939561
0.007930908959
0.007887877345
0.007848831159
0.007818079268
0.007800234441
0.00798922599
0.007966500927
0.007934413075
0.007895625811
0.007853271968
0.007810910886
0.007772467215
0.00774218522
0.007724610519
0.007910529138
0.007888165803
0.007856586127
0.00781840898
0.007776715973
0.007735009905
0.007697155068
0.007667332527
0.00765002209
0.007832949103
0.007810938661
0.007779854845
0.007742273194
0.007701225403
0.007660159121
0.007622879685
0.007593506332
0.007576454388
0.00775646884
0.007734802644
0.007704202638
0.00766720217
0.0076267843
0.007586342882
0.007549625672
0.00752069143
0.007503892308
0.007681070948
0.007659740553
0.007629612581
0.007593179303
0.007553376396
0.007513545242
0.007477377357
0.007448872348
0.00743232048
0.007606737765
0.007585734928
0.007556067496
0.007520187749
0.007480985195
0.007441750035
0.007406118856
0.007378033409
0.007361723338
0.007533451439
0.007512768129
0.007483550033
0.007448210496
0.007409594041
0.007370940942
0.00733583414
0.007308158795
0.007292085178
0.007461194007
0.007440822404
0.007412042732
0.007377230428
0.007339186176
0.007301101549
0.007266507088
0.007239232604
0.007223390212
0.007389947455
0.00736987995
0.007341528086
0.007307230381
0.007269744799
0.007232215402
0.007198121543
0.007171238894
0.007155622618
0.007319693772
0.007299922971
0.00727198859
0.007238193197
0.007201253115
0.007164266049
0.007130661349
0.007104161734
0.007088766583
0.007250415001
0.00723093372
0.007203406793
0.007170101765
0.007133694373
0.007097237085
0.0070641104
0.007037985236
0.00702280634
0.007182093281
0.007162894547
0.007135765331
0.007102939063
0.007067051909
0.007031112188
0.006998452669
0.006972693593
0.006957726201
0.007114710884
0.00709578793
0.007069046971
0.007036688193
0.007001309177
0.006965875152
0.006933672242
0.00690827111
0.006893510592
0.007048250252
0.007029596514
0.007003234636
0.006971332408
0.00693644978
0.006901509912
0.006869753343
0.006844702228
0.006830144071
0.006982694016
0.006964303129
0.006938311435
0.006906855142
0.006872457492
0.006838000572
0.006806680363
0.00678197155
0.006767611359
0.00691802503
0.006899890825
0.006874260684
0.006843240029
0.006809316284
0.006775331425
0.006744437873
0.006720063859
0.006705897355
0.006854226383
0.006836342881
0.00681106593
0.006780470924
0.00674701034
0.006713486971
0.006683010649
0.006658964137
0.006644987156
0.006791281424
0.006773642832
0.006748710962
0.006718531923
0.006685524075
0.006652451935
0.006622383685
0.006598657581
0.006584866071
0.006729173771
0.006711774476
0.006687179831
0.00665740737
0.006624842147
0.006592211277
0.006562542205
0.006539129615
0.006525519635
0.006667887325
0.006650721892
0.006626456859
0.006597081876
0.006564949471
0.006532750208
0.006503471678
0.006480365904
0.006466933622
0.006607406282
0.006590469444
0.006566526649
0.006537540324
0.006505831231
0.006474054198
0.006445157828
0.006422352362
0.006409094054
0.006547715139
0.006531001798
0.006507374097
0.006478767884
0.006447472886
0.00641610899
0.006387586644
0.006365075168
0.006351987214
0.006488798704
0.006472303924
0.006448984399
0.006420750019
0.006389860182
0.006358900607
0.006330744393
0.006308520775
0.006295599659
0.006430642104
0.006414361106
0.006391343058
0.006363472494
0.006332979163
0.006302415364
0.006274617631
0.006252675922
0.006239918234
0.00637323079
0.006357158951
0.006334435898
0.006306921388
0.006276816186
0.006246639887
0.006219193222
0.006197527657
0.00618493009
0.006316550551
0.006300683399
0.006278249072
0.00625108311
0.006221357931
0.006191561126
0.006164458356
0.006143063356
0.00613062271
0.006260587524
0.00624492074
0.006222769084
0.006195944417
0.006166591431
0.006137166386
0.006110400583
0.006089270762
0.006076983946
0.006205328214
0.006189857632
0.006167982804
0.00614149244
0.006112504099
0.006083443361
0.006057007856
0.006036138026
0.006024002065
0.006150759519
0.006135481128
0.006113877509
0.006087714723
0.006059083776
0.006030380193
0.006004268586
0.005983653779
0.005971665825
0.006096868766
0.006081778721
0.006060440928
0.006034599284
0.006006318796
0.005977965539
0.00595217173
0.005931807219
0.005919964568
0.00604364377
0.006028738404
0.006007661306
0.005982134683
0.005954198073
0.005926188675
0.005900706909
0.005880588245
0.005868888361
0.005991072903
0.005976348748
0.005955527502
0.005930310133
0.005902711224
0.005875039641
0.005849864563
0.005829987632
0.005818428178
0.005939145199
0.005924599015
0.005904029107
0.005879115642
0.005851848735
0.005824509428
0.005799636172
0.005779997262
0.005768576149
0.005887850489
0.005873479304
0.005853156618
0.005828542208
0.005801602182
0.005774590233
0.005750014531
0.005730610434
0.00571932588
0.005837179587
0.005822980758
0.005802901656
0.005778582067
0.005751964518
0.005725275777
0.005700994111
0.005681822256
0.005670672869
0.005787124529
0.005773095816
0.005753257257
0.005729229019
0.005702930438
0.005676561721
0.005652571525
0.005633630139
0.005622615024
0.005737678877
0.005723818543
0.005704218232
0.005680478833
0.005654496837
0.005628446179
0.00560474608
0.00558603441
0.005575153297
0.005688838105
0.005675145044
0.005655781618
0.005632329748
0.005606663366
0.005580930334
0.005557520468
0.005539039038
0.005528292448
0.005640600068
0.005627073961
0.005607947224
0.005584783075
0.005559433106
0.00553401918
0.005510901562
0.005492652491
0.005482041928
0.005592965566
0.005579607072
0.005560718279
0.005537843909
0.005512813341
0.00548772237
0.00546490134
0.005446888712
0.005436416895
0.005545939007
0.005532749995
0.005514102185
0.005491521943
0.005466816449
0.005442055178
0.005419537907
0.005401768199
0.005391439316
0.005499529174
0.005486512975
0.005468111355
0.005445832376
0.005421460881
0.005397039543
0.0053748366
0.005357319149
0.005347139141
0.005453750083
0.005440911794
0.005422764167
0.0054007969
0.005376772189
0.005352705157
0.005330831132
0.005313578632
0.005303555495
0.005408621909
0.005395968713
0.005378085947
0.005356444736
0.00533278411
0.005309090566
0.005287564691
0.005270593719
0.005260737804
0.005364171959
0.005351713462
0.005334109972
0.00531281366
0.0052895396
0.00526624421
0.005245090981
0.005228422474
0.00521874678
0.00532043565
0.005308184221
0.005290878452
0.005269950958
0.00524709176
0.005224225303
0.005203475042
0.005187134736
0.005177655147
0.005277457434
0.005265428525
0.005248443396
0.005227914244
0.005205504576
0.005183104476
0.00516279378
0.005146812532
0.005137547992
0.00523529161
0.005223504029
0.005206867306
0.005186772046
0.005164853364
0.005142964048
0.005123136061
0.005107550013
0.005098522596
0.005194002932
0.005182479041
0.005166223585
0.005146604045
0.0051252248
0.005103897824
0.005084602256
0.005069452779
0.00506068761
0.005153666924
0.005142432722
0.00512659657
0.00510750088
0.00508671644
0.005066010288
0.00504730311
0.005032636463
0.005024161468
0.005114369803
0.005103454861
0.005088081073
0.005069563387
0.005049435603
0.005029415092
0.005011357837
0.004997224486
0.004989069926
0.005076207913
0.005065645119
0.00505078135
0.005032901207
0.005013497543
0.004994232763
0.004976891373
0.004963344924
0.004955542701
0.00503928657
0.005029111655
0.005014809398
0.00499763066
0.00497902285
0.004960587588
0.004944030766
0.004931126505
0.004923709214
0.005003718257
0.004993969073
0.004980282541
0.004963871889
0.004946134071
0.004928603714
0.004912900787
0.004900693808
0.004893693566
0.004969620122
0.004960335656
0.004947320295
0.004931745264
0.004914951621
0.004898400549
0.004883618872
0.004872161865
0.004865608935
0.004937110773
0.004928329915
0.004916040563
0.004901367151
0.004885589097
0.004870087649
0.004856289651
0.004845630424
0.004839551705
0.004906306442
0.004898066524
0.00488655526
0.004872845197
0.004858148223
0.00484375936
0.00483099937
0.004821178251
0.004815595722
0.004877316617
0.004869651785
0.004858965561
0.004846273352
0.004832713683
0.004819489554
0.004807810609
0.004798857893
0.004793787133
0.004850239345
0.004843178836
0.004833357019
0.004821726929
0.004809348214
0.004797326841
0.004786757714
0.004778691381
0.004774140274
0.004825156432
0.00481872287
0.004809794848
0.004799258049
0.004788088315
0.004777290675
0.004767843387
0.00476066729
0.004756635078
0.004802128856
0.004796336686
0.00478831972
0.004778891816
0.004768940966
0.004759368746
0.00475103681
0.004744739551
0.004741216322
0.004781192709
0.004776046904
0.004768944412
0.004760623586
0.004751881683
0.004743515948
0.004736273577
0.004730828218
0.004727794934
0.004762356022
0.004757851173
0.004751651635
0.004744417607
0.004736854157
0.004729655135
0.004723457543
0.00471882226
0.004716251357
0.004745596742
0.004741716669
0.004736393273
0.004730207242
0.004723771615
0.004717679686
0.004712464542
0.004708584202
0.004706440738
0.004730862139
0.004727580063
0.004723091195
0.004717896821
0.004712519853
0.004707457733
0.004703147696
0.004699956273
0.004698199534
0.004718069743
0.004715349063
0.004711639648
0.004707365066
0.004702961757
0.004698837739
0.004695343885
0.004692767505
0.004691352947
0.004707109843
0.004704905489
0.004701909115
0.004698469848
0.004694942968
0.004691654967
0.004688880822
0.00468684118
0.004685722504
0.004697849425
0.004696109681
0.004693751361
0.004691053918
0.004688298244
0.004685738299
0.004683584121
0.004682001942
0.004681133125
0.004690137267
0.004688805954
0.004687005308
0.004684951179
0.004682857987
0.004680916839
0.00467928376
0.004678081995
0.004677419064
0.004683809856
0.004682828679
0.004681503283
0.004679993003
0.004678454456
0.004677025802
0.004675819471
0.004674925897
0.004674428244
0.004678697657
0.004678008549
0.004677077187
0.00467601414
0.004674927235
0.004673911341
0.00467304478
0.004672393754
0.004672024473
0.004674631295
0.004674178563
0.004673564142
0.004672857857
0.00467212767
0.004671434194
0.004670829899
0.004670363577
0.004670091588
0.004671447178
0.00467117932
0.004670811247
0.004670379972
0.004669922069
0.004669472043
0.004669063499
0.004668735235
0.004668537162
0.00466899222
0.004668863274
0.00466867916
0.004668451577
0.004668193449
0.00466792026
0.004667654467
0.004667428397
0.004667285406
0.004667127362
0.004667097747
0.004667044361
0.004666960376
0.004666841844
0.004666693079
0.00466652938
0.004666376816
0.004666273573
0.004665729797
0.004665766632
0.004665800142