/*--------------------------------*- C++ -*----------------------------------*\
| =========                 |                                                 |
| \\      /  F ield         | OpenFOAM: The Open Source CFD Toolbox           |
|  \\    /   O peration     | Version:  2212                                  |
|   \\  /    A nd           | Website:  www.openfoam.com                      |
|    \\/     M anipulation  |                                                 |
\*---------------------------------------------------------------------------*/
FoamFile
{
    version     2.0;
    format      ascii;
    arch        "LSB;label=32;scalar=64";
    class       volScalarField;
    location    "20.00000000";
    object      CH3CO;
}
// * * * * * * * * * * * * * * * * * * * * * * * * * * * * * * * * * * * * * //

dimensions      [0 0 0 0 0 0 0];

internalField   nonuniform List<scalar> 
3000
(
2.460814458e-51
2.453308791e-51
2.4395426e-51
2.415351359e-51
2.372281824e-51
2.293133453e-51
2.143557034e-51
1.862619805e-51
1.39538315e-51
2.665558566e-51
2.640849919e-51
2.597664155e-51
2.527540042e-51
2.417019874e-51
2.246750975e-51
1.993094904e-51
1.638638252e-51
1.220417732e-51
2.602946558e-51
2.559642723e-51
2.487742254e-51
2.379408749e-51
2.224945553e-51
2.015432476e-51
1.748582357e-51
1.438404956e-51
1.139916536e-51
2.509513195e-51
2.451054677e-51
2.358729726e-51
2.229062689e-51
2.060683673e-51
1.858918952e-51
1.641742426e-51
1.442169608e-51
1.293362702e-51
2.413446953e-51
2.346863408e-51
2.248281816e-51
2.124078128e-51
1.991628388e-51
1.8906943e-51
1.894877976e-51
2.088516966e-51
2.398595064e-51
2.330832045e-51
2.271668182e-51
2.201737367e-51
2.161395826e-51
2.24408504e-51
2.64965004e-51
3.727478519e-51
5.791887529e-51
8.178224572e-51
2.299856068e-51
2.298450047e-51
2.385888343e-51
2.756305713e-51
3.875608013e-51
6.757509141e-51
1.313632575e-50
2.430102342e-50
3.610283938e-50
2.458756744e-51
2.713485909e-51
3.500090494e-51
5.73707189e-51
1.17035681e-50
2.641744672e-50
5.835916156e-50
1.136717401e-49
1.746309539e-49
3.348135323e-51
4.681749497e-51
8.499617446e-51
1.907451162e-50
4.720720951e-50
1.166602494e-49
2.665048066e-49
5.212903587e-49
7.910735323e-49
7.131867042e-51
1.29986761e-50
2.989712682e-50
7.733514478e-50
2.051550263e-49
5.225897512e-49
1.205243912e-48
2.353008604e-48
3.548239037e-48
2.258944066e-50
4.755862138e-50
1.207747924e-49
3.299100804e-49
9.004430661e-49
2.32435484e-48
5.378583169e-48
1.047176238e-47
1.57136793e-47
8.569276788e-50
1.913487234e-49
5.065174488e-49
1.420312507e-48
3.937662949e-48
1.024198015e-47
2.373223101e-47
4.608352067e-47
6.887850673e-47
3.449292933e-49
7.919219424e-49
2.144399703e-48
6.112409845e-48
1.712398787e-47
4.476241964e-47
1.037731722e-46
2.010365113e-46
2.995208314e-46
1.416611863e-48
3.308737304e-48
9.099333336e-48
2.62450703e-47
7.408588723e-47
1.943312412e-46
4.505439619e-46
8.710335136e-46
1.29441362e-45
5.869185913e-48
1.388141168e-47
3.862395884e-47
1.124087913e-46
3.191208116e-46
8.391022001e-46
1.944980389e-45
3.75342256e-45
5.566694493e-45
2.443805584e-47
5.836726051e-47
1.638950849e-46
4.803299238e-46
1.369494719e-45
3.607042089e-45
8.357463048e-45
1.610206256e-44
2.384651317e-44
1.02089972e-46
2.457398003e-46
6.950585306e-46
2.04813836e-45
5.858491388e-45
1.544747251e-44
3.577080808e-44
6.881469702e-44
1.018270869e-43
4.274590695e-46
1.035412952e-45
2.945526827e-45
8.716439655e-45
2.499205675e-44
6.593874565e-44
1.5257119e-43
2.930715042e-43
4.335483371e-43
1.792667e-45
4.364306611e-45
1.247231825e-44
3.702795838e-44
1.063438324e-43
2.806155587e-43
6.486036751e-43
1.243703093e-42
1.837005816e-42
7.526043165e-45
1.83969436e-44
5.276270271e-44
1.570161375e-43
4.513912093e-43
1.190670063e-42
2.748039476e-42
5.258291661e-42
7.750884016e-42
3.16156103e-44
7.753207036e-44
2.229658663e-43
6.645854673e-43
1.911130334e-42
5.036246669e-42
1.160004753e-41
2.213750442e-41
3.254843308e-41
1.328386748e-43
3.265820233e-43
9.409927197e-43
2.807125165e-42
8.068804941e-42
2.122659405e-41
4.875457348e-41
9.272038398e-41
1.358740465e-40
5.580201498e-43
1.37443399e-42
3.964876177e-42
1.182823788e-41
3.395480672e-41
8.908681509e-41
2.038295607e-40
3.858451306e-40
5.629283544e-40
2.342443542e-42
5.776748867e-42
1.667131071e-41
4.969215147e-41
1.423146116e-40
3.719373863e-40
8.464953609e-40
1.592474349e-39
2.309592558e-39
9.820440735e-42
2.423370005e-41
6.9908455e-41
2.079829454e-40
5.934928747e-40
1.542640623e-39
3.485899962e-39
6.503828697e-39
9.358294482e-39
4.108840224e-41
1.013905244e-40
2.920959351e-40
8.663036141e-40
2.459257384e-39
6.345072868e-39
1.420259561e-38
2.621175515e-38
3.732559658e-38
1.714161685e-40
4.226718229e-40
1.214725961e-39
3.586138063e-39
1.010809223e-38
2.582478844e-38
5.709543566e-38
1.039016744e-37
1.459840268e-37
7.122960523e-40
1.753572889e-39
5.020993233e-39
1.472886926e-38
4.112472819e-38
1.037368456e-37
2.2575227e-37
4.035626083e-37
5.574864166e-37
2.944229643e-39
7.229723979e-39
2.059283472e-38
5.98965759e-38
1.652018976e-37
4.100211757e-37
8.747677132e-37
1.529517087e-36
2.069162316e-36
1.208639784e-38
2.956858424e-38
8.363121678e-38
2.40584381e-37
6.533421211e-37
1.589133523e-36
3.30869671e-36
5.631554163e-36
7.428956629e-36
4.918388137e-38
1.197137881e-37
3.355075432e-37
9.517922785e-37
2.535405369e-36
6.016540057e-36
1.216426346e-35
2.005224208e-35
2.568117039e-35
1.979731492e-37
4.786456072e-37
1.325927771e-36
3.69696037e-36
9.61955468e-36
2.216166964e-35
4.328022847e-35
6.874351114e-35
8.51114715e-35
7.862710211e-37
1.884731233e-36
5.146063543e-36
1.404918609e-35
3.554395522e-35
7.908632298e-35
1.483897179e-34
2.259701354e-34
2.694318657e-34
3.072675008e-36
7.286583965e-36
1.954735683e-35
5.203797072e-35
1.27381959e-34
2.722822373e-34
4.882887435e-34
7.097149533e-34
8.124115106e-34
1.177915418e-35
2.756696711e-35
7.240463861e-35
1.871244323e-34
4.409506556e-34
9.007603159e-34
1.536600353e-33
2.123914578e-33
2.329230858e-33
4.415014516e-35
1.016935955e-34
2.605175494e-34
6.506166647e-34
1.46847245e-33
2.852879214e-33
4.61108251e-33
6.045605341e-33
6.346276605e-33
1.61232048e-34
3.644290784e-34
9.069550038e-34
2.178559284e-33
4.687128853e-33
8.623735835e-33
1.316798611e-32
1.635667271e-32
1.644310176e-32
5.716026529e-34
1.263821165e-33
3.043036722e-33
6.998636366e-33
1.429150038e-32
2.482076677e-32
3.574792826e-32
4.208148545e-32
4.058690394e-32
1.960032972e-33
4.225325861e-33
9.803097128e-33
2.149625155e-32
4.151535345e-32
6.791821821e-32
9.225349883e-32
1.031030422e-31
9.570033917e-32
6.477285878e-33
1.356924346e-32
3.021705334e-32
6.294348552e-32
1.146724495e-31
1.765871978e-31
2.265310932e-31
2.411347559e-31
2.162928353e-31
2.055977052e-32
4.171926551e-32
8.885625567e-32
1.753130225e-31
3.00862698e-31
4.364101224e-31
5.302343878e-31
5.399399467e-31
4.703094635e-31
6.249831161e-32
1.224650949e-31
2.487130383e-31
4.638442752e-31
7.497127326e-31
1.026457317e-30
1.185941026e-30
1.161280525e-30
9.874381394e-31
1.815490644e-31
3.425837016e-31
6.61831757e-31
1.16552406e-30
1.776050002e-30
2.302488704e-30
2.541804357e-30
2.406547674e-30
2.007937876e-30
5.0342768e-31
9.127110835e-31
1.674559216e-30
2.784618285e-30
4.008605555e-30
4.939779268e-30
5.236117535e-30
4.817853835e-30
3.962347527e-30
1.333338562e-30
2.31856462e-30
4.036895228e-30
6.344794299e-30
8.652343253e-30
1.017520199e-29
1.040014875e-29
9.33444768e-30
7.589095782e-30
3.381982898e-30
5.635807978e-30
9.314912521e-30
1.386397418e-29
1.796727851e-29
2.023486573e-29
1.999433378e-29
1.752032604e-29
1.407568737e-29
8.257932011e-30
1.319136247e-29
2.073141545e-29
2.930992679e-29
3.623139245e-29
3.918519646e-29
3.743858522e-29
3.191093361e-29
2.517087023e-29
1.955564062e-29
2.999923465e-29
4.498405854e-29
6.069811971e-29
7.191326217e-29
7.491155183e-29
6.911093487e-29
5.682828661e-29
4.340461896e-29
4.530136193e-29
6.697160514e-29
9.634442152e-29
1.249295103e-28
1.428635103e-28
1.441200984e-28
1.285978173e-28
1.016289567e-28
7.492935009e-29
1.034574101e-28
1.481206987e-28
2.058970907e-28
2.588360827e-28
2.884223352e-28
2.845080033e-28
2.484535519e-28
1.944630401e-28
1.546469428e-28
2.34068012e-28
3.263593942e-28
4.41801146e-28
5.434900392e-28
5.961441861e-28
5.81704828e-28
5.083052928e-28
4.306702148e-28
4.168832233e-28
5.251810621e-28
7.170505558e-28
9.524584693e-28
1.156796659e-27
1.261603815e-27
1.235257638e-27
1.12539011e-27
1.183150351e-27
1.408714242e-27
1.165878485e-27
1.566356172e-27
2.055031064e-27
2.484360563e-27
2.726632239e-27
2.767290336e-27
2.98464011e-27
3.811813924e-27
5.64240844e-27
2.549626306e-27
3.383724325e-27
4.406542326e-27
5.333937715e-27
5.964558391e-27
6.639700155e-27
8.793422962e-27
1.376219076e-26
2.500306347e-26
5.465984117e-27
7.190817352e-27
9.338909513e-27
1.140650707e-26
1.333056031e-26
1.790769753e-26
2.812448802e-26
5.350610327e-26
1.141008051e-25
1.142832384e-26
1.496080503e-26
1.952435217e-26
2.461252662e-26
3.280605098e-26
5.145621754e-26
9.483621426e-26
2.142652226e-25
5.083841285e-25
2.316605527e-26
3.030998688e-26
4.018015488e-26
5.44917355e-26
8.606700813e-26
1.539534065e-25
3.293554043e-25
8.508972695e-25
2.145864824e-24
4.543793375e-26
6.013768255e-26
8.354934306e-26
1.331675683e-25
2.355051216e-25
4.732059231e-25
1.151931707e-24
3.262840658e-24
8.460120249e-24
8.711495066e-26
1.211053479e-25
1.930414764e-25
3.423765137e-25
6.62013121e-25
1.475432584e-24
3.972319267e-24
1.188568457e-23
3.098679492e-23
1.703280624e-25
2.686934572e-25
4.767064679e-25
9.08212164e-25
1.892740628e-24
4.597681141e-24
1.32696855e-23
4.076832188e-23
1.053244055e-22
3.883063231e-25
6.540478468e-25
1.225015159e-24
2.457517286e-24
5.443759759e-24
1.409470651e-23
4.241642662e-23
1.311514307e-22
3.325698986e-22
9.620980319e-25
1.668319136e-24
3.224728228e-24
6.715646422e-24
1.554951029e-23
4.194482295e-23
1.288331076e-22
3.953481674e-22
9.777250349e-22
2.494028804e-24
4.374735011e-24
8.603662163e-24
1.833089973e-23
4.355796791e-23
1.200971522e-22
3.707245583e-22
1.117737271e-21
2.68437481e-21
6.649710351e-24
1.165883764e-23
2.301692764e-23
4.938228939e-23
1.184746251e-22
3.293399396e-22
1.010150413e-21
2.969744241e-21
6.906739287e-21
1.801055718e-23
3.119969386e-23
6.096507877e-23
1.298412179e-22
3.11015373e-22
8.637643992e-22
2.60847858e-21
7.434708472e-21
1.671526146e-20
4.877422024e-23
8.257117422e-23
1.57793733e-22
3.305477204e-22
7.863111928e-22
2.167075846e-21
6.393360625e-21
1.759061953e-20
3.819409283e-20
1.29520475e-22
2.127022793e-22
3.94973487e-22
8.118942912e-22
1.915147645e-21
5.20521204e-21
1.490337771e-20
3.946000486e-20
8.270611731e-20
3.312916915e-22
5.268911051e-22
9.51319943e-22
1.924784076e-21
4.498778555e-21
1.198246412e-20
3.31172869e-20
8.419852582e-20
1.703378146e-19
8.074777166e-22
1.24883384e-21
2.205916369e-21
4.414201401e-21
1.020171333e-20
2.646816889e-20
7.03258196e-20
1.714458981e-19
3.348382511e-19
1.872708795e-21
2.837861995e-21
4.942468598e-21
9.81272072e-21
2.234436185e-20
5.617745711e-20
1.430777448e-19
3.341933698e-19
6.303277765e-19
4.155587613e-21
6.217589976e-21
1.074072294e-20
2.11652387e-20
4.728374706e-20
1.147363307e-19
2.795967664e-19
6.255227467e-19
1.139978248e-18
8.891454617e-21
1.320633106e-20
2.26914484e-20
4.429881791e-20
9.669960972e-20
2.258445573e-19
5.261052284e-19
1.127537022e-18
1.986771741e-18
1.846020839e-20
2.72900882e-20
4.664015245e-20
8.993636449e-20
1.911885119e-19
4.291054594e-19
9.554817957e-19
1.962723884e-18
3.346339001e-18
3.733030487e-20
5.494707809e-20
9.324435656e-20
1.770324596e-19
3.656233889e-19
7.881856279e-19
1.678592939e-18
3.307852411e-18
5.461752757e-18
7.364269269e-20
1.078101993e-19
1.812025955e-19
3.377574927e-19
6.767231838e-19
1.401660509e-18
2.858437298e-18
5.410268794e-18
8.659967107e-18
1.417465496e-19
2.060221035e-19
3.420546012e-19
6.245395896e-19
1.213161148e-18
2.416661642e-18
4.726901322e-18
8.606097351e-18
1.336930196e-17
2.660574662e-19
3.831731377e-19
6.26936436e-19
1.119465047e-18
2.108301831e-18
4.045064111e-18
7.603451344e-18
1.333937008e-17
2.013695138e-17
4.8663545e-19
6.931959526e-19
1.115580349e-18
1.946130902e-18
3.555313187e-18
6.58148552e-18
1.191455159e-17
2.018057721e-17
2.964501133e-17
8.668486219e-19
1.219505909e-18
1.927680125e-18
3.283766078e-18
5.824017316e-18
1.042191772e-17
1.82121418e-17
2.984271616e-17
4.272314558e-17
1.503398385e-18
2.086533891e-18
3.236528867e-18
5.383154557e-18
9.278526139e-18
1.608152486e-17
2.718931061e-17
4.319281834e-17
6.035595236e-17
2.538846684e-18
3.473627145e-18
5.284631367e-18
8.583687272e-18
1.439456524e-17
2.42101434e-17
3.969149978e-17
6.125729482e-17
8.368348862e-17
4.176637108e-18
5.631137102e-18
8.400853056e-18
1.333080202e-17
2.177547918e-17
3.560435785e-17
5.672221836e-17
8.52203611e-17
1.139943746e-16
6.698470416e-18
8.898402709e-18
1.301861657e-17
2.019314346e-17
3.216618941e-17
5.121559815e-17
7.944327328e-17
1.164168945e-16
1.527161408e-16
1.048378895e-17
1.372326807e-17
1.969466198e-17
2.987890184e-17
4.646464344e-17
7.215397932e-17
1.091690625e-16
1.563171064e-16
2.013864783e-16
1.603100783e-17
2.068268954e-17
2.912786775e-17
4.325088667e-17
6.573062411e-17
9.968853128e-17
1.473571816e-16
2.065076274e-16
2.616436863e-16
2.397992531e-17
3.050379129e-17
4.21774515e-17
6.133974711e-17
9.119173824e-17
1.352448926e-16
1.956008596e-16
2.686858306e-16
3.352189973e-16
3.513436886e-17
4.408433579e-17
5.987943598e-17
8.535417153e-17
1.242452067e-16
1.803975161e-16
2.556112107e-16
3.446565969e-16
4.240118463e-16
5.048357798e-17
6.25110289e-17
8.345976018e-17
1.166865498e-16
1.664544257e-16
2.368573581e-16
3.291936323e-16
4.362603457e-16
5.297929124e-16
7.122019536e-17
8.707353784e-17
1.143420797e-16
1.56912741e-16
2.195407833e-16
3.064529129e-16
4.182491991e-16
5.454696814e-16
6.543788787e-16
9.875223282e-17
1.192717158e-16
1.541479544e-16
2.077832422e-16
2.853623809e-16
3.911152262e-16
5.247409707e-16
6.740748273e-16
7.994799615e-16
1.347063809e-16
1.608139905e-16
2.046891823e-16
2.712120544e-16
3.659051952e-16
4.928630658e-16
6.50695321e-16
8.238581829e-16
9.667127419e-16
1.809206837e-16
2.136052824e-16
2.679506444e-16
3.492481257e-16
4.632716292e-16
6.138616399e-16
7.979507165e-16
9.964640144e-16
1.157539213e-15
2.394276043e-16
2.797254166e-16
3.460573458e-16
4.440581337e-16
5.796508817e-16
7.561287779e-16
9.682703382e-16
1.193382664e-15
1.373233977e-15
3.124157211e-16
3.613936556e-16
4.412645397e-16
5.579223146e-16
7.17353079e-16
9.215719185e-16
1.163268206e-15
1.415908723e-15
1.614850548e-15
4.022206693e-16
4.609715953e-16
5.559760165e-16
6.933612454e-16
8.784017598e-16
1.111955142e-15
1.384364885e-15
1.665105975e-15
1.883193392e-15
5.113280022e-16
5.810024529e-16
6.928195941e-16
8.525022703e-16
1.064701424e-15
1.328858853e-15
1.632750948e-15
1.941779885e-15
2.178797488e-15
6.425071822e-16
7.241912413e-16
8.540314975e-16
1.037370572e-15
1.277984895e-15
1.573638084e-15
1.909355885e-15
2.246457387e-15
2.501915568e-15
7.982894282e-16
8.927714462e-16
1.041702707e-15
1.249816648e-15
1.519761272e-15
1.847384824e-15
2.214823701e-15
2.579374189e-15
2.852512883e-15
9.808799437e-16
1.08885551e-15
1.257750384e-15
1.491464924e-15
1.791273069e-15
2.150898135e-15
2.549496401e-15
2.940469674e-15
3.230269111e-15
1.192345418e-15
1.314365835e-15
1.503857871e-15
1.763666818e-15
2.093461496e-15
2.484662854e-15
2.913405627e-15
3.329389042e-15
3.634586736e-15
1.434530306e-15
1.570971483e-15
1.781423373e-15
2.067461947e-15
2.42694072e-15
2.848837089e-15
3.306272166e-15
3.745492093e-15
4.064605095e-15
1.708993152e-15
1.860035614e-15
2.091518594e-15
2.403549022e-15
2.791981604e-15
3.243248382e-15
3.727512773e-15
4.187867805e-15
4.519219155e-15
2.016957477e-15
2.182574656e-15
2.434858215e-15
2.772266985e-15
3.18850489e-15
3.667398047e-15
4.176253532e-15
4.65535384e-15
4.997102105e-15
2.359275643e-15
2.539229335e-15
2.811780441e-15
3.173586364e-15
3.61608339e-15
4.120472928e-15
4.651348863e-15
5.146560023e-15
5.496730835e-15
2.736405058e-15
2.930247384e-15
3.222238394e-15
3.607110359e-15
4.073952463e-15
4.601363682e-15
5.151405185e-15
5.659894869e-15
6.016413428e-15
3.148396292e-15
3.355477499e-15
3.665801794e-15
4.072084907e-15
4.561027802e-15
5.108688522e-15
5.674808246e-15
6.193594252e-15
6.554317863e-15
3.594892452e-15
3.814373855e-15
4.141668103e-15
4.567416736e-15
5.075929474e-15
5.640821372e-15
6.219753116e-15
6.745751366e-15
7.108501196e-15
4.075139e-15
4.306010225e-15
4.648682047e-15
5.091698248e-15
5.61701103e-15
6.195923294e-15
6.784275892e-15
7.3143472e-15
7.676938549e-15
4.588002895e-15
4.82910256e-15
5.185362317e-15
5.643237988e-15
6.182392467e-15
6.771976142e-15
7.366286225e-15
7.897280821e-15
8.257551353e-15
5.131999766e-15
5.382038672e-15
5.749934071e-15
6.220095391e-15
6.769995885e-15
7.366817414e-15
7.963599859e-15
8.492398842e-15
8.848234352e-15
5.705327665e-15
5.962913593e-15
6.34036588e-15
6.82011851e-15
7.377582666e-15
7.978175368e-15
8.573970456e-15
9.09752356e-15
9.446880956e-15
6.305905884e-15
6.569569135e-15
6.954409693e-15
7.4409835e-15
8.002791156e-15
8.603703573e-15
9.195120101e-15
9.71047932e-15
1.005140662e-14
6.931417296e-15
7.1996362e-15
7.589642534e-15
8.080234673e-15
8.643173876e-15
9.241014164e-15
9.824767962e-15
1.032911676e-14
1.065977004e-14
7.579352767e-15
7.850578463e-15
8.243508669e-15
8.735324114e-15
9.296233461e-15
9.887709211e-15
1.046065671e-14
1.095133466e-14
1.126999191e-14
8.247056266e-15
8.51973618e-15
8.913361179e-15
9.403649954e-15
9.959456633e-15
1.05414097e-14
1.110057637e-14
1.157509928e-14
1.188017122e-14
8.931769446e-15
9.204368998e-15
9.596501961e-15
1.008259252e-14
1.063034565e-14
1.119978181e-14
1.174238541e-14
1.219846096e-14
1.248849904e-14
9.630674652e-15
9.901696846e-15
1.02902194e-14
1.076954782e-14
1.130644684e-14
1.186056011e-14
1.238402897e-14
1.281956816e-14
1.309326977e-14
1.034093546e-14
1.060893811e-14
1.099182307e-14
1.146195779e-14
1.198537587e-14
1.252156777e-14
1.302355413e-14
1.343667868e-14
1.369288995e-14
1.105973406e-14
1.132334455e-14
1.169867502e-14
1.215733721e-14
1.266483965e-14
1.31807334e-14
1.365912229e-14
1.404816847e-14
1.428588477e-14
1.178430498e-14
1.204223244e-14
1.240821736e-14
1.285329681e-14
1.334265481e-14
1.383610489e-14
1.42890188e-14
1.465253791e-14
1.487090232e-14
1.251196481e-14
1.276300978e-14
1.311799586e-14
1.354756278e-14
1.401676266e-14
1.448586008e-14
1.491165988e-14
1.524841583e-14
1.544671593e-14
1.32401377e-14
1.348319938e-14
1.382567976e-14
1.423799256e-14
1.468524091e-14
1.512831458e-14
1.552559708e-14
1.58345615e-14
1.601222462e-14
1.396637662e-14
1.420045787e-14
1.452907758e-14
1.492258708e-14
1.534631221e-14
1.576192687e-14
1.612951955e-14
1.640986465e-14
1.656645196e-14
1.468838044e-14
1.491259063e-14
1.522614924e-14
1.559949966e-14
1.599834975e-14
1.638530092e-14
1.67222542e-14
1.697334401e-14
1.710854351e-14
1.540400703e-14
1.561756301e-14
1.591501476e-14
1.626704178e-14
1.663988023e-14
1.699718666e-14
1.730276411e-14
1.752414423e-14
1.763776312e-14
1.611128254e-14
1.631350793e-14
1.659395959e-14
1.692368604e-14
1.726958441e-14
1.759647842e-14
1.787014548e-14
1.806153177e-14
1.815348815e-14
1.680840721e-14
1.699873027e-14
1.726143713e-14
1.756806654e-14
1.788629552e-14
1.818221179e-14
1.842362315e-14
1.858488972e-14
1.865520401e-14
1.749375808e-14
1.767170836e-14
1.791606863e-14
1.819897716e-14
1.848899602e-14
1.875355896e-14
1.896254522e-14
1.909371187e-14
1.914249799e-14
1.81658889e-14
1.833109288e-14
1.855664084e-14
1.881536783e-14
1.907681265e-14
1.930982308e-14
1.948637673e-14
1.958759617e-14
1.961505272e-14
1.882352763e-14
1.89757036e-14
1.918210174e-14
1.94163393e-14
1.964901043e-14
1.985043153e-14
1.999469277e-14
2.006623787e-14
2.007263933e-14
1.946557193e-14
1.960452423e-14
1.979155473e-14
2.000113666e-14
2.020498556e-14
2.037492865e-14
2.048717113e-14
2.052942223e-14
2.051511045e-14
2.009108295e-14
2.021669587e-14
2.03842515e-14
2.056914174e-14
2.07442577e-14
2.088296794e-14
2.096358468e-14
2.09770173e-14
2.094239317e-14
2.069927777e-14
2.081150913e-14
2.095958395e-14
2.111986493e-14
2.126646165e-14
2.137430392e-14
2.142379361e-14
2.140896659e-14
2.135448212e-14
2.128952084e-14
2.138839544e-14
2.151707544e-14
2.165293632e-14
2.177133877e-14
2.184878397e-14
2.186773775e-14
2.182528182e-14
2.175143262e-14
2.186131461e-14
2.194691774e-14
2.205637143e-14
2.216809669e-14
2.225872825e-14
2.230634002e-14
2.229542888e-14
2.222603596e-14
2.213335416e-14
2.241428971e-14
2.248676072e-14
2.257723005e-14
2.266518828e-14
2.272855839e-14
2.274698048e-14
2.270694332e-14
2.261135643e-14
2.250040407e-14
2.294819488e-14
2.30077209e-14
2.307951237e-14
2.314414557e-14
2.318083797e-14
2.317078232e-14
2.310241475e-14
2.298141865e-14
2.285278155e-14
2.346288673e-14
2.350969669e-14
2.356317289e-14
2.360498628e-14
2.36156479e-14
2.357788344e-14
2.348202743e-14
2.333643987e-14
2.319072205e-14
2.395831967e-14
2.399267855e-14
2.402825019e-14
2.404780261e-14
2.403313315e-14
2.396847541e-14
2.384600965e-14
2.367667351e-14
2.3514492e-14
2.443453599e-14
2.445673945e-14
2.447485778e-14
2.447275273e-14
2.443349503e-14
2.434279656e-14
2.41946277e-14
2.400240371e-14
2.382438396e-14
2.489165631e-14
2.490202563e-14
2.490317548e-14
2.488005279e-14
2.481698394e-14
2.470112554e-14
2.45281802e-14
2.43139404e-14
2.412071211e-14
2.532987039e-14
2.53287478e-14
2.531344108e-14
2.526996934e-14
2.518389255e-14
2.504377531e-14
2.484699286e-14
2.461161479e-14
2.440380814e-14
2.574942841e-14
2.573717285e-14
2.570594265e-14
2.564281218e-14
2.553454942e-14
2.537108754e-14
2.51514137e-14
2.489577513e-14
2.467401755e-14
2.615063285e-14
2.612761602e-14
2.608101122e-14
2.599892784e-14
2.586931319e-14
2.568342754e-14
2.544180859e-14
2.516678298e-14
2.493169621e-14
2.653383091e-14
2.65004337e-14
2.643901409e-14
2.633869338e-14
2.618856713e-14
2.598117958e-14
2.571855731e-14
2.542500972e-14
2.517720735e-14
2.68994074e-14
2.685601671e-14
2.67803486e-14
2.666251088e-14
2.649271419e-14
2.626474253e-14
2.598204985e-14
2.567083353e-14
2.541091885e-14
2.724777816e-14
2.719478407e-14
2.710543643e-14
2.697080224e-14
2.678217258e-14
2.65345262e-14
2.623268333e-14
2.590463675e-14
2.56332009e-14
2.757938415e-14
2.751717737e-14
2.741471842e-14
2.726400467e-14
2.705737179e-14
2.679094785e-14
2.647085907e-14
2.612680338e-14
2.584442384e-14
2.789468606e-14
2.782365576e-14
2.770864998e-14
2.75425665e-14
2.731874894e-14
2.703442918e-14
2.669698008e-14
2.6337717e-14
2.604495635e-14
2.819415945e-14
2.811469132e-14
2.798769687e-14
2.780694349e-14
2.756674563e-14
2.726539362e-14
2.691144879e-14
2.653775893e-14
2.623516383e-14
2.847829039e-14
2.8390765e-14
2.825233149e-14
2.805759555e-14
2.780180509e-14
2.748426398e-14
2.711466515e-14
2.672730663e-14
2.641540706e-14
2.874757159e-14
2.865236294e-14
2.850302956e-14
2.82949838e-14
2.802436971e-14
2.769146039e-14
2.730702497e-14
2.690673237e-14
2.6586041e-14
2.900249895e-14
2.889997332e-14
2.874026727e-14
2.85195681e-14
2.823487894e-14
2.788739853e-14
2.748891844e-14
2.707640203e-14
2.674741388e-14
2.924356855e-14
2.913408353e-14
2.89645187e-14
2.873180481e-14
2.843376737e-14
2.807248814e-14
2.766072899e-14
2.72366742e-14
2.689986634e-14
2.947127405e-14
2.935517769e-14
2.917625368e-14
2.893214492e-14
2.862146321e-14
2.824713172e-14
2.782283223e-14
2.738789934e-14
2.704373081e-14
2.968610439e-14
2.956373461e-14
2.93759359e-14
2.912103242e-14
2.879838693e-14
2.841172348e-14
2.797559515e-14
2.753041918e-14
2.717933098e-14
2.988854187e-14
2.976022598e-14
2.956402129e-14
2.9298903e-14
2.896495015e-14
2.856664847e-14
2.811937545e-14
2.766456618e-14
2.730698143e-14
3.007906053e-14
2.994511485e-14
2.974095678e-14
2.946618286e-14
2.912155478e-14
2.871228187e-14
2.825452104e-14
2.779066322e-14
2.74269873e-14
3.025812475e-14
3.01188544e-14
2.99071791e-14
2.962328786e-14
2.926859224e-14
2.884898844e-14
2.83813696e-14
2.790902326e-14
2.753964412e-14
3.042618816e-14
3.028188691e-14
3.006311399e-14
2.977062274e-14
2.940644291e-14
2.897712214e-14
2.850024834e-14
2.801994919e-14
2.76452377e-14
3.058369269e-14
3.043464294e-14
3.020917545e-14
2.990858063e-14
2.953547572e-14
2.909702578e-14
2.861147381e-14
2.812373374e-14
2.774404408e-14
3.073106792e-14
3.057754069e-14
3.03457652e-14
3.003754255e-14
2.965604788e-14
2.92090309e-14
2.871535179e-14
2.822065947e-14
2.783632954e-14
3.08687305e-14
3.071098554e-14
3.047327235e-14
3.015787718e-14
2.976850462e-14
2.93134576e-14
2.881217731e-14
2.831099876e-14
2.792235067e-14
3.099708375e-14
3.083536973e-14
3.059207307e-14
3.026994068e-14
2.987317915e-14
2.94106146e-14
2.890223463e-14
2.839501395e-14
2.800235452e-14
3.111651746e-14
3.095107211e-14
3.070253053e-14
3.037407659e-14
2.997039267e-14
2.950079923e-14
2.89857974e-14
2.847295742e-14
2.80765787e-14
3.122740772e-14
3.105845811e-14
3.080499476e-14
3.047061588e-14
3.006045436e-14
2.958429757e-14
2.906312876e-14
2.854507182e-14
2.814525159e-14
3.133011688e-14
3.115787964e-14
3.089980275e-14
3.055987695e-14
3.014366156e-14
2.966138458e-14
2.913448155e-14
2.861159021e-14
2.820859254e-14
3.142499358e-14
3.124967526e-14
3.098727853e-14
3.064216586e-14
3.022029993e-14
2.973232433e-14
2.920009852e-14
2.867273632e-14
2.82668121e-14
3.151237293e-14
3.133417024e-14
3.106773332e-14
3.071777645e-14
3.029064363e-14
2.979737018e-14
2.926021252e-14
2.872872477e-14
2.832011225e-14
3.159257659e-14
3.141167678e-14
3.114146576e-14
3.078699058e-14
3.035495556e-14
2.985676505e-14
2.931504681e-14
2.877976132e-14
2.836868666e-14
3.166591306e-14
3.14824942e-14
3.12087621e-14
3.085007836e-14
3.041348763e-14
2.991074165e-14
2.936481525e-14
2.882604309e-14
2.841272089e-14
3.173267784e-14
3.15469092e-14
3.126989644e-14
3.090729839e-14
3.046648095e-14
2.995952274e-14
2.940972256e-14
2.886775884e-14
2.845239266e-14
3.17931537e-14
3.160519609e-14
3.132513099e-14
3.095889799e-14
3.051416609e-14
3.000332128e-14
2.94499645e-14
2.890508907e-14
2.848787199e-14
3.184761084e-14
3.165761691e-14
3.137471618e-14
3.100511331e-14
3.055676316e-14
3.004234059e-14
2.948572794e-14
2.893820617e-14
2.851932129e-14
3.189630703e-14
3.170442158e-14
3.141889078e-14
3.104616942e-14
3.059448184e-14
3.007677426e-14
2.951719085e-14
2.896727433e-14
2.854689532e-14
3.193948752e-14
3.174584782e-14
3.145788174e-14
3.108228007e-14
3.062752115e-14
3.010680593e-14
2.954452191e-14
2.899244916e-14
2.857074079e-14
3.197738478e-14
3.178212076e-14
3.149190381e-14
3.111364726e-14
3.065606882e-14
3.013260854e-14
2.956787977e-14
2.90138769e-14
2.859099558e-14
3.201021784e-14
3.181345228e-14
3.152115864e-14
3.114046018e-14
3.068030015e-14
3.015434298e-14
2.958741156e-14
2.903169283e-14
2.860778707e-14
3.203819105e-14
3.184003957e-14
3.154583327e-14
3.116289345e-14
3.070037594e-14
3.017215586e-14
2.960325032e-14
2.90460185e-14
2.862122936e-14
3.206149198e-14
3.18620629e-14
3.156609761e-14
3.118110424e-14
3.07164392e-14
3.018617561e-14
2.961551077e-14
2.905695722e-14
2.863141856e-14
3.20802883e-14
3.187968219e-14
3.158210047e-14
3.119522776e-14
3.072860995e-14
3.019650666e-14
2.962428278e-14
2.906458695e-14
2.863842536e-14
3.209472283e-14
3.189303161e-14
3.159396362e-14
3.120537048e-14
3.073697753e-14
3.020322074e-14
2.96296216e-14
2.906894965e-14
2.864228385e-14
3.210490653e-14
3.1902212e-14
3.160177333e-14
3.121160049e-14
3.074158952e-14
3.020634418e-14
2.963153367e-14
2.907003567e-14
2.864297501e-14
3.21109086e-14
3.190728016e-14
3.160556836e-14
3.121393394e-14
3.074243625e-14
3.020584028e-14
2.962995666e-14
2.906776185e-14
2.864040342e-14
3.211274295e-14
3.19082342e-14
3.160532371e-14
3.121231657e-14
3.073942972e-14
3.020158522e-14
2.962473233e-14
2.906194147e-14
2.863436534e-14
3.211035019e-14
3.190499411e-14
3.160092903e-14
3.120659929e-14
3.07323757e-14
3.019333631e-14
2.961557068e-14
2.905224464e-14
2.862450637e-14
3.210357417e-14
3.189737647e-14
3.159216062e-14
3.119650662e-14
3.072093786e-14
3.018069115e-14
2.960200392e-14
2.903814731e-14
2.861026698e-14
3.209213216e-14
3.188506249e-14
3.157864616e-14
3.118159709e-14
3.070459287e-14
3.016303672e-14
2.958332913e-14
2.901886796e-14
2.859081478e-14
3.207557797e-14
3.186755846e-14
3.15598213e-14
3.11612147e-14
3.068257572e-14
3.013948766e-14
2.955853912e-14
2.899329126e-14
2.856496303e-14
3.205325725e-14
3.184414821e-14
3.15348777e-14
3.113443129e-14
3.065381511e-14
3.010881382e-14
2.952624161e-14
2.895987934e-14
2.853107597e-14
3.202425493e-14
3.181383724e-14
3.150270248e-14
3.109997979e-14
3.061685941e-14
3.006935793e-14
2.948456814e-14
2.891657225e-14
2.848696313e-14
3.198733486e-14
3.177528911e-14
3.146180969e-14
3.105617964e-14
3.056979482e-14
3.001894562e-14
2.943107557e-14
2.886068139e-14
2.842976663e-14
3.1940873e-14
3.172675555e-14
3.141026593e-14
3.100085635e-14
3.051015805e-14
2.995479108e-14
2.936264457e-14
2.878878105e-14
2.835584759e-14
3.188278535e-14
3.16660017e-14
3.134561185e-14
3.09312588e-14
3.043484891e-14
2.987340407e-14
2.927538141e-14
2.869660612e-14
2.826068053e-14
3.181045379e-14
3.159023021e-14
3.126478393e-14
3.084397846e-14
3.034004717e-14
2.977050559e-14
2.91645327e-14
2.857896564e-14
2.813876679e-14
3.172065389e-14
3.149600859e-14
3.116404171e-14
3.073487719e-14
3.022114215e-14
2.964096052e-14
2.902442277e-14
2.842968585e-14
2.79835813e-14
3.160948967e-14
3.137920561e-14
3.103890709e-14
3.059903136e-14
3.007268421e-14
2.947873904e-14
2.884842715e-14
2.824159632e-14
2.778756861e-14
3.147234219e-14
3.123494396e-14
3.088412391e-14
3.043070179e-14
2.988836878e-14
2.927691901e-14
2.862899639e-14
2.800657585e-14
2.754220574e-14
3.130383975e-14
3.105757773e-14
3.069364716e-14
3.022333983e-14
2.966106513e-14
2.902774278e-14
2.835774538e-14
2.771567473e-14
2.723814961e-14
3.109785859e-14
3.084070417e-14
3.04606722e-14
2.996964111e-14
2.938290205e-14
2.872274216e-14
2.802562264e-14
2.73593287e-14
2.686548515e-14
3.084756401e-14
3.057721984e-14
3.017771455e-14
2.966165797e-14
2.90454223e-14
2.835294329e-14
2.762317173e-14
2.69276767e-14
2.641408565e-14
3.054550155e-14
3.025943127e-14
2.983675046e-14
2.929098092e-14
2.863981559e-14
2.79091607e-14
2.714089245e-14
2.641098818e-14
2.58740901e-14
3.018374739e-14
2.987922877e-14
2.942942663e-14
2.884899638e-14
2.815723592e-14
2.738238394e-14
2.656970236e-14
2.580019723e-14
2.523649128e-14
2.975412524e-14
2.942833025e-14
2.894734438e-14