/*--------------------------------*- C++ -*----------------------------------*\
| =========                 |                                                 |
| \\      /  F ield         | OpenFOAM: The Open Source CFD Toolbox           |
|  \\    /   O peration     | Version:  2212                                  |
|   \\  /    A nd           | Website:  www.openfoam.com                      |
|    \\/     M anipulation  |                                                 |
\*---------------------------------------------------------------------------*/
FoamFile
{
    version     2.0;
    format      ascii;
    arch        "LSB;label=32;scalar=64";
    class       volScalarField;
    location    "20.00000000";
    object      CH3COCH2_0;
}
// * * * * * * * * * * * * * * * * * * * * * * * * * * * * * * * * * * * * * //

dimensions      [0 0 0 0 0 0 0];

internalField   nonuniform List<scalar> 
3000
(
5.411440793e-30
6.710734396e-30
8.787358257e-30
1.176424901e-29
1.576735304e-29
2.084166389e-29
2.67904679e-29
3.290361534e-29
3.756329266e-29
2.28031303e-29
2.848556049e-29
3.756621794e-29
5.060803531e-29
6.828756678e-29
9.128185891e-29
1.200204256e-28
1.540114448e-28
1.873609075e-28
5.875895623e-29
7.432936415e-29
9.947182254e-29
1.362784615e-28
1.877468302e-28
2.577995663e-28
3.5048201e-28
4.663202413e-28
5.800431785e-28
1.283852758e-28
1.650511981e-28
2.254116581e-28
3.164414932e-28
4.487462447e-28
6.367335341e-28
8.953527382e-28
1.223494818e-27
1.533143176e-27
2.610881533e-28
3.423607104e-28
4.794151531e-28
6.927654733e-28
1.013927524e-27
1.485227865e-27
2.14537516e-27
2.971964672e-27
3.71372504e-27
5.142682283e-28
6.891820902e-28
9.915712654e-28
1.476324072e-27
2.22738571e-27
3.35321167e-27
4.9380636e-27
6.880593735e-27
8.544060998e-27
1.002955363e-27
1.374353413e-27
2.031272278e-27
3.111034472e-27
4.82116798e-27
7.418318146e-27
1.106958444e-26
1.544721349e-26
1.895761068e-26
1.957751755e-27
2.740250322e-27
4.151775639e-27
6.518953445e-27
1.032899843e-26
1.616307834e-26
2.43572074e-26
3.414364378e-26
4.236338598e-26
3.844810098e-27
5.48561071e-27
8.49275786e-27
1.361237823e-26
2.193934152e-26
3.47274321e-26
5.25821187e-26
7.357854409e-26
9.06082651e-26
7.609229833e-27
1.103802082e-26
1.740131294e-26
2.835649807e-26
4.629869855e-26
7.387724371e-26
1.121782102e-25
1.567719862e-25
1.925222996e-25
1.517457836e-26
2.232206977e-26
3.571733721e-26
5.897188381e-26
9.723751202e-26
1.560575746e-25
2.37399341e-25
3.314420572e-25
4.062741567e-25
3.046389254e-26
4.533356621e-26
7.341535117e-26
1.224723633e-25
2.034614761e-25
3.279173927e-25
4.994423297e-25
6.967088846e-25
8.528153984e-25
6.149247457e-26
9.237566731e-26
1.510496232e-25
2.540363168e-25
4.244538679e-25
6.862208705e-25
1.046007818e-24
1.458127774e-24
1.782901157e-24
1.246568596e-25
1.887050659e-25
3.109618446e-25
5.263323128e-25
8.83316688e-25
1.431406544e-24
2.183093366e-24
3.041421374e-24
3.715642021e-24
2.535326987e-25
3.861920595e-25
6.40359375e-25
1.089369742e-24
1.834548728e-24
2.978158079e-24
4.543841695e-24
6.327229441e-24
7.724512826e-24
5.169272118e-25
7.913935616e-25
1.318817401e-24
2.25262709e-24
3.803849668e-24
6.183577038e-24
9.436996034e-24
1.313544341e-23
1.602720915e-23
1.055936615e-24
1.623259575e-24
2.716050777e-24
4.654261339e-24
7.876334546e-24
1.281768872e-23
1.956541861e-23
2.722377497e-23
3.320168192e-23
2.160035694e-24
3.331756422e-24
5.59311718e-24
9.609617448e-24
1.62904686e-23
2.653325015e-23
4.050704952e-23
5.634552705e-23
6.869174789e-23
4.42334092e-24
6.84172075e-24
1.151640751e-23
1.982878768e-23
3.36613839e-23
5.486339229e-23
8.376498939e-23
1.164865846e-22
1.419638708e-22
9.065555342e-24
1.405412949e-23
2.370930403e-23
4.089356735e-23
6.949951247e-23
1.133344842e-22
1.730457629e-22
2.405832664e-22
2.931148141e-22
1.859114301e-23
2.887641242e-23
4.880382693e-23
8.429647062e-23
1.433938073e-22
2.339294238e-22
3.571747868e-22
4.964501319e-22
6.046793862e-22
3.81429879e-23
5.933969526e-23
1.004421504e-22
1.736910405e-22
2.956722419e-22
4.824902021e-22
7.366418374e-22
1.023606561e-21
1.246404069e-21
7.828123324e-23
1.219478127e-22
2.066778188e-22
3.57738871e-22
6.09311585e-22
9.94470747e-22
1.518103719e-21
2.108833237e-21
2.567053424e-21
1.606848158e-22
2.506058816e-22
4.251766947e-22
7.364972093e-22
1.254925049e-21
2.048301211e-21
3.126132644e-21
4.340946475e-21
5.282326444e-21
3.298389658e-22
5.149330993e-22
8.744047563e-22
1.515558682e-21
2.583033661e-21
4.215745049e-21
6.431962571e-21
8.927208092e-21
1.08586322e-20
6.76959676e-22
1.057765345e-21
1.797506164e-21
3.116913049e-21
5.312902409e-21
8.669358499e-21
1.322067434e-20
1.833855189e-20
2.229466209e-20
1.388905132e-21
2.171869525e-21
3.69299737e-21
6.40569304e-21
1.091837994e-20
1.780968477e-20
2.714249205e-20
3.762096931e-20
4.570749071e-20
2.847953114e-21
4.456511602e-21
7.581513744e-21
1.315272085e-20
2.241410963e-20
3.654102105e-20
5.564326381e-20
7.705021371e-20
9.353717845e-20
5.834796457e-21
9.13610801e-21
1.554861248e-20
2.697497068e-20
4.595171872e-20
7.48562298e-20
1.138653849e-19
1.574800893e-19
1.90987361e-19
1.194026082e-20
1.870674312e-20
3.18457896e-20
5.524120656e-20
9.404793253e-20
1.53049526e-19
2.324881816e-19
3.210541121e-19
3.888891746e-19
2.439714149e-20
3.82426525e-20
6.511426084e-20
1.129154457e-19
1.920799274e-19
3.121710096e-19
4.73389246e-19
6.525126653e-19
7.892062375e-19
4.975342741e-20
7.802428545e-20
1.328546701e-19
2.302680687e-19
3.912787978e-19
6.348570916e-19
9.607015747e-19
1.321240657e-18
1.595179912e-18
1.012206434e-19
1.587963244e-19
2.703594267e-19
4.682502342e-19
7.945443142e-19
1.286521519e-18
1.941889955e-18
2.663499547e-18
3.20899094e-18
2.053352728e-19
3.22222951e-19
5.484459497e-19
9.489286935e-19
1.607330986e-18
2.596107407e-18
3.90673586e-18
5.341634419e-18
6.419982246e-18
4.151243527e-19
6.515325422e-19
1.108398243e-18
1.915243299e-18
3.23706308e-18
5.212862394e-18
7.816716927e-18
1.064891563e-17
1.276331376e-17
8.359349556e-19
1.311962502e-18
2.230233035e-18
3.8472604e-18
6.48542046e-18
1.040742681e-17
1.554213631e-17
2.108627517e-17
2.519509509e-17
1.675695103e-18
2.629297872e-18
4.46480284e-18
7.685999476e-18
1.291610645e-17
2.064319437e-17
3.068477736e-17
4.143952788e-17
4.934698918e-17
3.341828309e-18
5.240883108e-18
8.886697441e-18
1.525938517e-17
2.554951224e-17
4.064636206e-17
6.010521326e-17
8.076410203e-17
9.58263342e-17
6.626245401e-18
1.038278582e-17
1.757258328e-17
3.00823111e-17
5.015667062e-17
7.938101389e-17
1.167168744e-16
1.559889474e-16
1.843734648e-16
1.305452065e-17
2.042913798e-17
3.44936865e-17
5.8837363e-17
9.763203161e-17
1.536362023e-16
2.245154354e-16
2.983581308e-16
3.512620263e-16
2.553690092e-17
3.989122417e-17
6.715564374e-17
1.140698625e-16
1.88267949e-16
2.94422613e-16
4.27468276e-16
5.647426029e-16
6.622493374e-16
4.956615861e-17
7.724055013e-17
1.295607063e-16
2.190016544e-16
3.5930086e-16
5.581415276e-16
8.048957961e-16
1.057092378e-15
1.234780623e-15
9.539248235e-17
1.481837608e-16
2.474620637e-16
4.159533448e-16
6.779320406e-16
1.045611835e-15
1.49740514e-15
1.955007426e-15
2.275045816e-15
1.81926004e-16
2.814604748e-16
4.675194987e-16
7.807702127e-16
1.26324285e-15
1.933567262e-15
2.749209766e-15
3.568310826e-15
4.137411044e-15
3.436883642e-16
5.290041008e-16
8.73035268e-16
1.447085317e-15
2.322206312e-15
3.525170803e-15
4.974353832e-15
6.417418643e-15
7.413668675e-15
6.432146313e-16
9.837433067e-16
1.610914398e-15
2.646815641e-15
4.207953913e-15
6.328704596e-15
8.855093483e-15
1.134605504e-14
1.305147937e-14
1.193505989e-15
1.811278129e-15
2.938598565e-15
4.778738827e-15
7.514801973e-15
1.117885891e-14
1.54802813e-14
1.965775786e-14
2.247194712e-14
2.199842392e-15
3.308140669e-15
5.309041494e-15
8.530029498e-15
1.324091766e-14
1.94308347e-14
2.653581708e-14
3.32414646e-14
3.758791131e-14
4.040347068e-15
6.013469676e-15
9.532721013e-15
1.510627201e-14
2.30910344e-14
3.330459367e-14
4.459251864e-14
5.463574765e-14
6.053771057e-14
7.42519129e-15
1.092957788e-14
1.709826323e-14
2.668857127e-14
4.007997416e-14
5.656630404e-14
7.364837607e-14
8.707375743e-14
9.304184188e-14
1.371233971e-14
1.995818821e-14
3.080606404e-14
4.733830132e-14
6.973084687e-14
9.5889579e-14
1.202624681e-13
1.348769082e-13
1.360186469e-13
2.552037849e-14
3.673651061e-14
5.596415793e-14
8.467161033e-14
1.222298761e-13
1.632032619e-13
1.95501199e-13
2.048443042e-13
1.914934423e-13
4.78692556e-14
6.81502452e-14
1.024664753e-13
1.525966624e-13
2.155943999e-13
2.785005399e-13
3.166006015e-13
3.0819117e-13
2.680776012e-13
9.019086989e-14
1.268758964e-13
1.880266295e-13
2.750305807e-13
3.78838319e-13
4.705448887e-13
5.049195551e-13
4.608319576e-13
3.858561428e-13
1.696504577e-13
2.352897953e-13
3.425281656e-13
4.895658681e-13
6.522732349e-13
7.713305259e-13
7.787121899e-13
6.826025101e-13
5.750219795e-13
3.161525713e-13
4.306977786e-13
6.124577711e-13
8.482759965e-13
1.080619155e-12
1.202909737e-12
1.14852228e-12
9.987700476e-13
8.6859161e-13
5.787878674e-13
7.708058846e-13
1.062722214e-12
1.411053235e-12
1.696428808e-12
1.767609906e-12
1.627975426e-12
1.440308916e-12
1.290995909e-12
1.03166704e-12
1.335725819e-12
1.770106232e-12
2.227423408e-12
2.503808414e-12
2.464948628e-12
2.253479514e-12
2.040082952e-12
1.848480007e-12
1.772262353e-12
2.21814435e-12
2.801451541e-12
3.312180925e-12
3.490599062e-12
3.335137441e-12
3.090251266e-12
2.828310916e-12
2.534462704e-12
2.899124876e-12
3.491295395e-12
4.178825449e-12
4.645157768e-12
4.686673679e-12
4.481404731e-12
4.219145872e-12
3.828729944e-12
3.350631787e-12
4.459770236e-12
5.161000542e-12
5.868347337e-12
6.2345237e-12
6.219125399e-12
6.047452883e-12
5.711818643e-12
5.062246123e-12
4.325025071e-12
6.399856228e-12
7.160938548e-12
7.856615953e-12
8.214400811e-12
8.298811574e-12
8.174873187e-12
7.613711953e-12
6.563875272e-12
5.516130399e-12
8.62477479e-12
9.480634887e-12
1.029613911e-11
1.08633284e-11
1.115912194e-11
1.096069887e-11
9.959207483e-12
8.401577643e-12
7.010914931e-12
1.123194393e-11
1.236049545e-11
1.355088497e-11
1.452064091e-11
1.498182566e-11
1.444698446e-11
1.281025808e-11
1.068487826e-11
8.926129482e-12
1.467536494e-11
1.63002482e-11
1.807326612e-11
1.946886336e-11
1.983789816e-11
1.866562362e-11
1.628426732e-11
1.356669802e-11
1.141443886e-11
1.960639317e-11
2.185036336e-11
2.422685425e-11
2.581634218e-11
2.570759612e-11
2.370046149e-11
2.055896612e-11
1.724565688e-11
1.467300081e-11
2.656833899e-11
2.937194674e-11
3.211283856e-11
3.34699235e-11
3.258029613e-11
2.971416203e-11
2.586663032e-11
2.196978062e-11
1.895194153e-11
3.572919941e-11
3.883070996e-11
4.151111855e-11
4.226551975e-11
4.053677433e-11
3.693788092e-11
3.248745154e-11
2.803957372e-11
2.456053343e-11
4.672923976e-11
4.978480556e-11
5.206242032e-11
5.213514884e-11
4.975488686e-11
4.56485939e-11
4.074179215e-11
3.58068174e-11
3.186845228e-11
5.887149215e-11
6.168838332e-11
6.353286894e-11
6.315688071e-11
6.04685093e-11
5.61450856e-11
5.097861475e-11
4.566625433e-11
4.129914198e-11
7.157073801e-11
7.422343391e-11
7.590452178e-11
7.549803748e-11
7.292205673e-11
6.872413323e-11
6.35564566e-11
5.803733548e-11
5.331224687e-11
8.460222257e-11
8.735514684e-11
8.929156368e-11
8.933848107e-11
8.732943918e-11
8.36531903e-11
7.881549056e-11
7.333428058e-11
6.837291337e-11
9.801271771e-11
1.011906978e-10
1.038264023e-10
1.048108846e-10
1.038432203e-10
1.01139216e-10
9.70410271e-11
9.192456661e-11
8.690768729e-11
1.119297293e-10
1.158406726e-10
1.195845127e-10
1.219660813e-10
1.225266986e-10
1.212951406e-10
1.184212649e-10
1.140787856e-10
1.092497942e-10
1.264427662e-10
1.313428622e-10
1.365483631e-10
1.407541847e-10
1.43331688e-10
1.44108486e-10
1.43004998e-10
1.39918245e-10
1.355803933e-10
1.41545141e-10
1.476375511e-10
1.546016001e-10
1.610174554e-10
1.660851063e-10
1.694183752e-10
1.706673589e-10
1.693697695e-10
1.658759582e-10
1.571407572e-10
1.645768958e-10
1.735367994e-10
1.824954526e-10
1.904887376e-10
1.969077115e-10
2.01092568e-10
2.021386005e-10
1.998738051e-10
1.730634136e-10
1.8194507e-10
1.930754123e-10
2.048435873e-10
2.161355415e-10
2.261157971e-10
2.337810694e-10
2.37708809e-10
2.370665229e-10
1.891064267e-10
1.994880105e-10
2.128980931e-10
2.276647938e-10
2.425430665e-10
2.564729765e-10
2.680840248e-10
2.753757283e-10
2.767309993e-10
2.050574625e-10
2.169490663e-10
2.326825118e-10
2.505512565e-10
2.692005499e-10
2.873537167e-10
3.032617315e-10
3.143074678e-10
3.1798978e-10
2.207345402e-10
2.341063383e-10
2.521437579e-10
2.731301799e-10
2.956223691e-10
3.181394319e-10
3.385560843e-10
3.536249239e-10
3.598941697e-10
2.360184932e-10
2.508063142e-10
2.710708425e-10
2.951056258e-10
3.213980508e-10
3.482791837e-10
3.73263136e-10
3.924847954e-10
4.015131337e-10
2.508766453e-10
2.669879464e-10
2.893525207e-10
3.162883815e-10
3.462291481e-10
3.773365225e-10
4.067917799e-10
4.301496262e-10
4.420111463e-10
2.653729985e-10
2.826922244e-10
3.069871019e-10
3.366079459e-10
3.699462339e-10
4.050146561e-10
4.386996775e-10
4.6603534e-10
4.806984149e-10
2.796620684e-10
2.980545757e-10
3.240738422e-10
3.561044859e-10
3.925041011e-10
4.31158415e-10
4.687057282e-10
4.997354588e-10
5.170835142e-10
2.939663752e-10
3.132806316e-10
3.40787134e-10
3.749026911e-10
4.139578856e-10
4.557376613e-10
4.966923603e-10
5.31064595e-10
5.509746858e-10
3.08540916e-10
3.286093228e-10
3.573381944e-10
3.931726051e-10
4.344241866e-10
4.788112285e-10
5.226814252e-10
5.601316801e-10
5.830256153e-10
3.236309306e-10
3.442702856e-10
3.73932142e-10
4.110862578e-10
4.540358192e-10
5.004723012e-10
5.46727278e-10
5.86942279e-10
6.126017897e-10
3.394309294e-10
3.604440607e-10
3.907301837e-10
4.287834902e-10
4.72916862e-10
5.208442837e-10
5.69039964e-10
6.120531338e-10
6.396941325e-10
3.560524021e-10
3.772319789e-10
4.078222641e-10
4.463466211e-10
4.911527124e-10
5.400616187e-10
5.898976165e-10
6.35033238e-10
6.641433222e-10
3.735058377e-10
3.946412534e-10
4.252173247e-10
4.638012257e-10
5.08811276e-10
5.582887498e-10
6.096283367e-10
6.558767528e-10
6.859198089e-10
3.916994557e-10
4.125864458e-10
4.428499914e-10
4.811257782e-10
5.260111867e-10
5.760428391e-10
6.279171298e-10
6.745170752e-10
7.050185422e-10
4.104558333e-10
4.309066383e-10
4.605912265e-10
4.982805343e-10
5.429019987e-10
5.930988213e-10
6.446398283e-10
6.909362707e-10
7.214700211e-10
4.295299971e-10
4.493946494e-10
4.783170732e-10
5.152952247e-10
5.597923988e-10
6.091966278e-10
6.597073255e-10
7.051437113e-10
7.353324779e-10
4.486884366e-10
4.679001143e-10
4.96063805e-10
5.327166915e-10
5.76176805e-10
6.241221138e-10
6.730562417e-10
7.171693604e-10
7.46686357e-10
4.678293738e-10
4.865374682e-10
5.142940318e-10
5.498636615e-10
5.917081979e-10
6.377170491e-10
6.846496928e-10
7.270619534e-10
7.55630864e-10
4.873840917e-10
5.056176206e-10
5.32317145e-10
5.663076125e-10
6.061453022e-10
6.498699559e-10
6.94475533e-10
7.348872654e-10
7.622808645e-10
5.06970563e-10
5.243260941e-10
5.496296483e-10
5.817472731e-10
6.193149082e-10
6.605064724e-10
7.025436914e-10
7.407259481e-10
7.667636789e-10
5.258800018e-10
5.421805404e-10
5.659047277e-10
5.959707998e-10
6.310951287e-10
6.695835771e-10
7.08883724e-10
7.446711404e-10
7.692158339e-10
5.437181442e-10
5.588777502e-10
5.809217786e-10
6.088306138e-10
6.414054837e-10
6.770854836e-10
7.135423784e-10
7.468259416e-10
7.697799002e-10
5.602406631e-10
5.742182011e-10
5.945311092e-10
6.202283499e-10
6.502001552e-10
6.830201003e-10
7.165810356e-10
7.473008522e-10
7.686015485e-10
5.75289219e-10
5.880703795e-10
6.066352711e-10
6.301053413e-10
6.574627412e-10
6.874156452e-10
7.180730657e-10
7.462113027e-10
7.658269285e-10
5.887636872e-10
6.003526954e-10
6.171780081e-10
6.384357884e-10
6.632017078e-10
6.903173292e-10
7.181012035e-10
7.436753756e-10
7.616004354e-10
6.006078577e-10
6.110227986e-10
6.261366102e-10
6.452212153e-10
6.674462265e-10
6.917841532e-10
7.167550568e-10
7.398117936e-10
7.560628877e-10
6.108003995e-10
6.200700667e-10
6.335158734e-10
6.504856396e-10
6.702423266e-10
6.918859002e-10
7.141288292e-10
7.347382104e-10
7.493501055e-10
6.193481212e-10
6.275096268e-10
6.393429672e-10
6.542712651e-10
6.7164938e-10
6.907003941e-10
7.103193113e-10
7.285698092e-10
7.415918585e-10
6.262804576e-10
6.333773044e-10
6.436629609e-10
6.566346469e-10
6.717369523e-10
6.883110675e-10
7.054241575e-10
7.21418196e-10
7.329111359e-10
6.316447943e-10
6.377252746e-10
6.465349185e-10
6.576433198e-10
6.705820375e-10
6.848048551e-10
6.995404488e-10
7.133905569e-10
7.234236884e-10
6.35502467e-10
6.406183164e-10
6.480285175e-10
6.573728764e-10
6.68266674e-10
6.802704074e-10
6.927635218e-10
7.045890479e-10
7.132377918e-10
6.37925347e-10
6.42130609e-10
6.482211537e-10
6.559044695e-10
6.648759246e-10
6.747966051e-10
6.851860397e-10
6.951103793e-10
7.024541863e-10
6.38992947e-10
6.423430137e-10
6.471954889e-10
6.53322708e-10
6.604961906e-10
6.684713454e-10
6.768972749e-10
6.850455626e-10
6.91166149e-10
6.387899842e-10
6.413407898e-10
6.450373964e-10
6.49713904e-10
6.552138253e-10
6.613805705e-10
6.679825731e-10
6.744797863e-10
6.794596668e-10
6.374043464e-10
6.392116915e-10
6.418342562e-10
6.451646319e-10
6.491140121e-10
6.536075049e-10
6.585229712e-10
6.634923956e-10
6.674136805e-10
6.349254059e-10
6.360443968e-10
6.376735577e-10
6.397605585e-10
6.422798694e-10
6.452320724e-10
6.485949419e-10
6.521569516e-10
6.551003773e-10
6.314426358e-10
6.319272226e-10
6.326417653e-10
6.335855067e-10
6.347917527e-10
6.363304639e-10
6.382702446e-10
6.405413526e-10
6.425855149e-10
6.270444839e-10
6.26947086e-10
6.268234108e-10
6.267207189e-10
6.267267216e-10
6.269748338e-10
6.276158597e-10
6.287079999e-10
6.299287634e-10
6.218174674e-10
6.211886756e-10
6.203003785e-10
6.192442896e-10
6.181581473e-10
6.172331e-10
6.166939937e-10
6.167139987e-10
6.171840551e-10
6.158454559e-10
6.147338012e-10
6.131513539e-10
6.11230741e-10
6.091554371e-10
6.071688338e-10
6.055621378e-10
6.046113811e-10
6.043999354e-10
6.092091152e-10
6.076608955e-10
6.054514114e-10
6.027507191e-10
5.997838575e-10
5.968412195e-10
5.942731715e-10
5.924473469e-10
5.916199091e-10
6.019854862e-10
6.000446439e-10
5.972717177e-10
5.938707914e-10
5.901044376e-10
5.863050737e-10
5.828754996e-10
5.802645141e-10
5.788827792e-10
5.942476799e-10
5.919557241e-10
5.886793351e-10
5.846533278e-10
5.801739409e-10
5.756109121e-10
5.714132154e-10
5.681011746e-10
5.66222976e-10
5.860646705e-10
5.83460636e-10
5.79737106e-10
5.751564526e-10
5.700448912e-10
5.648050545e-10
5.599262848e-10
5.559915532e-10
5.536708738e-10
5.775011709e-10
5.746216107e-10
5.705036073e-10
5.654340546e-10
5.59765644e-10
5.539297591e-10
5.484507436e-10
5.43966064e-10
5.412530953e-10
5.686175785e-10
5.654965829e-10
5.610331616e-10
5.55535844e-10
5.493804942e-10
5.430233812e-10
5.370189058e-10
5.320515656e-10
5.289928032e-10
5.594699786e-10
5.561392177e-10
5.513758959e-10
5.455074487e-10
5.389298117e-10
5.321205487e-10
5.25659577e-10
5.202716097e-10
5.169099775e-10
5.501101972e-10
5.465989822e-10
5.415778386e-10
5.353905417e-10
5.284502003e-10
5.212523512e-10
5.143982716e-10
5.086466842e-10
5.050216792e-10
5.405858934e-10
5.369212526e-10
5.316810475e-10
5.252229919e-10
5.17974672e-10
5.104465367e-10
5.032574298e-10
4.971944482e-10
4.933423011e-10
5.309406833e-10
5.271474507e-10
5.217237622e-10
5.15039034e-10
5.075328341e-10
4.997277136e-10
4.922566329e-10
4.859299586e-10
4.818838034e-10
5.212142904e-10
5.173152028e-10
5.117405742e-10
5.048694514e-10
4.971510835e-10
4.891175547e-10
4.814128136e-10
4.748658873e-10
4.706559375e-10
5.114427149e-10
5.074585156e-10
5.017626112e-10
4.947417684e-10
4.86852806e-10
4.786350006e-10
4.707404625e-10
4.640127281e-10
4.596664545e-10
5.016584177e-10
4.976079642e-10
4.918177302e-10
4.846804475e-10
4.766585753e-10
4.682964596e-10
4.602518263e-10
4.533789937e-10
4.489213021e-10
4.91890514e-10
4.877908884e-10
4.819307155e-10
4.747070891e-10
4.66586353e-10
4.581160037e-10
4.499570991e-10
4.429714016e-10
4.384248078e-10
4.821649734e-10
4.780315927e-10
4.721234794e-10
4.648406299e-10
4.566516828e-10
4.481055585e-10
4.398646046e-10
4.327950496e-10
4.281798496e-10
4.725048217e-10
4.683515483e-10
4.624152616e-10
4.550975397e-10
4.468678819e-10
4.382750855e-10
4.299809693e-10
4.228535797e-10
4.181880148e-10
4.629303435e-10
4.587695928e-10
4.528228262e-10
4.454920124e-10
4.372462243e-10
4.286327563e-10
4.203112867e-10
4.13149332e-10
4.084497468e-10
4.534592818e-10
4.493021277e-10
4.433606538e-10
4.360361514e-10
4.277961175e-10
4.191851188e-10
4.108592706e-10
4.036834874e-10
3.989644804e-10
4.441070325e-10
4.39963309e-10
4.340411274e-10
4.267401481e-10
4.185252709e-10
4.099372536e-10
4.016273994e-10
3.944562e-10
3.897307665e-10
4.34886834e-10
4.307652326e-10
4.248747107e-10
4.176124514e-10
4.094398548e-10
4.008929211e-10
3.926170504e-10
3.854667195e-10
3.807463863e-10
4.258099483e-10
4.217181114e-10
4.158701187e-10
4.086599293e-10
4.005446511e-10
3.920546988e-10
3.838286245e-10
3.767135036e-10
3.720084554e-10
4.168858345e-10
4.128304435e-10
4.070344788e-10
3.998880205e-10
3.918431934e-10
3.834241104e-10
3.752616609e-10
3.68194321e-10
3.635135191e-10
4.081223136e-10
4.041091722e-10
3.983734831e-10
3.913008772e-10
3.833378986e-10
3.750017432e-10
3.66914943e-10
3.599063459e-10
3.552576383e-10
3.995257241e-10
3.955598366e-10
3.898915319e-10
3.829014999e-10
3.750301904e-10
3.6678736e-10
3.587865965e-10
3.518462437e-10
3.472364678e-10
3.911010674e-10
3.871867115e-10
3.815918663e-10
3.746918596e-10
3.669206114e-10
3.587800002e-10
3.508741792e-10
3.440102502e-10
3.394453272e-10
3.828521447e-10
3.78992941e-10
3.734766943e-10
3.666730145e-10
3.590089275e-10
3.509780703e-10
3.431747597e-10
3.363942403e-10
3.318792637e-10
3.747816809e-10
3.709806557e-10
3.655473021e-10
3.588452146e-10
3.512942239e-10
3.433794308e-10
3.356849924e-10
3.289937921e-10
3.245331078e-10
3.668914434e-10
3.631510875e-10
3.578041602e-10
3.512079966e-10
3.43774989e-10
3.359814689e-10
3.28401181e-10
3.21804242e-10
3.174015237e-10
3.5918235e-10
3.555046731e-10
3.502470218e-10
3.437602761e-10
3.364491982e-10
3.287811728e-10
3.213193415e-10
3.148207375e-10
3.104790541e-10
3.516545701e-10
3.480411507e-10
3.428750126e-10
3.365004284e-10
3.293143855e-10
3.217751926e-10
3.144352542e-10
3.080382815e-10
3.0376016e-10
3.443076148e-10
3.407596462e-10
3.356867115e-10
3.294263624e-10
3.223677086e-10
3.149598976e-10
3.077445123e-10
3.014517728e-10
2.97239255e-10
3.371404201e-10
3.336587524e-10
3.286802242e-10
3.225355877e-10
3.156060087e-10
3.083314273e-10
3.012425644e-10
2.950560413e-10
2.909107363e-10
3.301514225e-10
3.267366012e-10
3.218532503e-10
3.158252747e-10
3.090258631e-10
3.018857369e-10
2.949247524e-10
2.888458792e-10
2.847690104e-10
3.233386281e-10
3.199909288e-10
3.152031436e-10
3.092923093e-10
3.026236336e-10
2.956186377e-10
2.887863452e-10
2.828160682e-10
2.788085167e-10
3.166996742e-10
3.134191352e-10
3.08726967e-10
3.02933342e-10
2.963955088e-10
2.895258334e-10
2.828225679e-10
2.769614034e-10
2.730237469e-10
3.102318861e-10
3.070183369e-10
3.024215409e-10
2.967448315e-10
2.903375422e-10
2.836029517e-10
2.770286278e-10
2.712767132e-10
2.674092616e-10
3.039323271e-10
3.007854146e-10
2.962834877e-10
2.907230842e-10
2.844456858e-10
2.778455726e-10
2.713997371e-10
2.657568773e-10
2.619597048e-10
2.977978437e-10
2.947170564e-10
2.903092708e-10
2.848642884e-10
2.787158202e-10
2.722492528e-10
2.659311317e-10
2.603968416e-10
2.566698155e-10
2.918251063e-10
2.888097957e-10
2.844952289e-10
2.791645455e-10
2.731437805e-10
2.668095474e-10
2.606180887e-10
2.551916307e-10
2.515344376e-10
2.860106454e-10
2.830600448e-10
2.788376077e-10
2.736198971e-10
2.677253795e-10
2.615220281e-10
2.554559406e-10
2.501363585e-10
2.465485281e-10
2.803508829e-10
2.774641255e-10
2.733325867e-10
2.682263486e-10
2.624564279e-10
2.563822999e-10
2.504400869e-10
2.452262369e-10
2.417071627e-10
2.748421611e-10
2.720182952e-10
2.679763031e-10
2.629798907e-10
2.573327512e-10
2.513860142e-10
2.45566005e-10
2.404565831e-10
2.370055416e-10
2.694807675e-10
2.667187706e-10
2.627648733e-10
2.578765169e-10
2.523502053e-10
2.465288809e-10
2.408292583e-10
2.358228244e-10
2.324389925e-10
2.642629566e-10
2.615617479e-10
2.576944109e-10
2.529122399e-10
2.475046891e-10
2.418066783e-10
2.362255032e-10
2.313205035e-10
2.280029733e-10
2.591849694e-10
2.565434207e-10
2.527610427e-10
2.480831046e-10
2.427921556e-10
2.372152611e-10
2.317504944e-10
2.26945281e-10
2.236930735e-10
2.5424305e-10
2.516599959e-10
2.479609226e-10
2.433852003e-10
2.382086209e-10
2.327505672e-10
2.274000897e-10
2.226929378e-10
2.195050151e-10
2.494334598e-10
2.469077065e-10
2.432902433e-10
2.388146701e-10
2.337501722e-10
2.284086232e-10
2.231702528e-10
2.185593763e-10
2.154346527e-10
2.447524906e-10
2.422828233e-10
2.387452464e-10
2.343677196e-10
2.294129739e-10
2.241855487e-10
2.190570558e-10
2.14540621e-10
2.114779723e-10
2.401964748e-10
2.37781665e-10
2.343222308e-10
2.300406235e-10
2.251932729e-10
2.200775597e-10
2.150566806e-10
2.106328187e-10
2.076310907e-10
2.357617949e-10
2.334006062e-10
2.300175598e-10
2.258297314e-10
2.210874026e-10
2.160809708e-10
2.111654202e-10
2.068322373e-10
2.038902538e-10
2.314448906e-10
2.29136084e-10
2.258276672e-10
2.217314725e-10
2.170917863e-10
2.12192197e-10
2.073796779e-10
2.031352655e-10
2.002518343e-10
2.272422657e-10
2.249846042e-10
2.217490617e-10
2.177423586e-10
2.132029388e-10
2.084077547e-10
2.036959681e-10
1.995384104e-10
1.967123298e-10
2.231504928e-10
2.209427457e-10
2.177783306e-10
2.138589876e-10
2.094174688e-10
2.047242616e-10
2.001109144e-10
1.960382963e-10
1.932683602e-10
2.191662178e-10
2.170071637e-10
2.139121428e-10
2.100780448e-10
2.057320789e-10
2.011384372e-10
1.966212493e-10
1.926316625e-10
1.899166646e-10
2.152861626e-10
2.131745928e-10
2.101472506e-10
2.063963038e-10
2.021435664e-10
1.976471012e-10
1.932238116e-10
1.893153602e-10
1.866540986e-10
2.115071274e-10
2.094418484e-10
2.064804909e-10
2.028106275e-10
1.986488222e-10
1.942471728e-10
1.899155449e-10
1.860863505e-10
1.834776308e-10
2.078259919e-10
2.058058273e-10
2.029087848e-10
1.993179669e-10
1.952448299e-10
1.909356679e-10
1.866934941e-10
1.829417e-10
1.803843388e-10
2.042397153e-10
2.022635074e-10
1.994291373e-10
1.959153593e-10
1.919286629e-10
1.877096962e-10
1.835548018e-10
1.798785768e-10
1.773714045e-10
2.007453346e-10
1.988119463e-10
1.960386344e-10
1.92599926e-10
1.88697481e-10
1.845664566e-10
1.80496703e-10
1.768942444e-10
1.744361079e-10
1.973399622e-10
1.954482773e-10
1.927344394e-10
1.893688666e-10
1.855485242e-10
1.815032303e-10
1.775165173e-10
1.739860538e-10
1.715758181e-10
1.940207809e-10
1.921697043e-10
1.895137863e-10
1.86219452e-10
1.824791044e-10
1.785173714e-10
1.746116384e-10
1.711514309e-10
1.687879815e-10
1.907850355e-10
1.889734932e-10
1.863739707e-10
1.831490139e-10
1.794865932e-10
1.756062923e-10
1.717795174e-10
1.683878602e-10
1.660701032e-10
1.876300227e-10
1.858569598e-10
1.833123358e-10
1.801549283e-10
1.765684032e-10
1.727674433e-10
1.690176411e-10
1.656928594e-10
1.634197218e-10
1.84553074e-10
1.828174523e-10
1.803262525e-10
1.772345941e-10
1.737219635e-10
1.699982847e-10
1.663234995e-10
1.630639448e-10
1.608343717e-10
1.815515335e-10
1.798523266e-10
1.774130931e-10
1.743854022e-10
1.709446848e-10
1.672962465e-10
1.636945413e-10
1.604985824e-10
1.583115314e-10
1.786227278e-10
1.769589142e-10
1.745701948e-10
1.716046948e-10
1.682339125e-10
1.64658676e-10
1.611281143e-10
1.579941209e-10
1.558485526e-10
1.757639259e-10
1.741344789e-10
1.71794812e-10
1.688897116e-10
1.655868662e-10
1.620827672e-10
1.586213859e-10
1.555477047e-10
1.534425663e-10
1.729722886e-10
1.713761623e-10
1.690840557e-10
1.662375213e-10
1.630005603e-10
1.595654718e-10
1.561712415e-10
1.531561603e-10
1.51090362e-10
1.702448034e-10
1.686809138e-10
1.664348166e-10
1.636449346e-10
1.604717063e-10
1.571033867e-10
1.537741584e-10
1.508158567e-10
1.487882366e-10
1.675782056e-10
1.66045406e-10
1.638436716e-10
1.611084001e-10
1.579965938e-10
1.546926196e-10
1.514260533e-10
1.485225352e-10
1.465318131e-10
1.649688824e-10
1.634659327e-10
1.613067719e-10
1.586238787e-10
1.5557095e-10
1.523286299e-10
1.491221032e-10
1.462711122e-10
1.443158285e-10
1.624127618e-10
1.609382899e-10
1.588197139e-10
1.56186701e-10
1.53189779e-10
1.500060479e-10
1.468565443e-10
1.44055457e-10
1.421338964e-10
1.599051847e-10
1.584576411e-10
1.563773926e-10
1.537914059e-10
1.508471837e-10
1.477184775e-10
1.446224524e-10
1.418681512e-10
1.399782511e-10
1.574407639e-10
1.560183681e-10
1.539738422e-10
1.514315679e-10
1.485361761e-10
1.454582871e-10
1.424115143e-10
1.397002415e-10
1.378394854e-10
1.550132339e-10
1.536139155e-10
1.516020699e-10
1.490996166e-10
1.462484818e-10
1.432163998e-10
1.402138027e-10
1.375409987e-10
1.357062992e-10
1.526152946e-10
1.512366278e-10
1.492538869e-10
1.467866606e-10
1.43974355e-10
1.409820957e-10
1.380175676e-10
1.353777029e-10
1.335652775e-10
1.502384561e-10
1.488775923e-10
1.469197469e-10
1.444823224e-10
1.4170241e-10
1.38742844e-10
1.358090686e-10
1.331954735e-10
1.314007233e-10
1.478728962e-10
1.46526496e-10
1.445886046e-10
1.42174599e-10
1.394194882e-10
1.364841793e-10
1.335724649e-10
1.309771757e-10
1.291945739e-10
1.455073379e-10
1.441715084e-10
1.422478055e-10
1.39849765e-10
1.371105788e-10
1.341896455e-10
1.312897875e-10
1.287034233e-10
1.269264281e-10
1.431289612e-10
1.41799202e-10
1.398830236e-10
1.374923324e-10
1.347588101e-10
1.318408278e-10
1.289410191e-10
1.263527076e-10
1.245737149e-10
1.407233619e-10
1.393945276e-10
1.3747826e-10
1.350850855e-10
1.323455317e-10
1.294174944e-10
1.265043052e-10
1.239016811e-10
1.221120322e-10
1.38274572e-10
1.369408559e-10
1.350159206e-10
1.326092079e-10
1.298505069e-10
1.268978688e-10
1.239563184e-10
1.213256154e-10
1.195156785e-10
1.35765155e-10
1.344201031e-10
1.324769876e-10
1.300445177e-10
1.272522304e-10
1.242590494e-10
1.212727934e-10
1.185990542e-10
1.16758397e-10
1.331763916e-10
1.318129526e-10
1.298412986e-10
1.27369826e-10
1.245283877e-10
1.2147759e-10
1.184292448e-10
1.156966691e-10
1.138143375e-10
1.304885659e-10
1.290991864e-10
1.270879453e-10
1.245634274e-10
1.21656463e-10
1.185302477e-10
1.154018699e-10
1.125943167e-10
1.106592313e-10
1.276813649e-10
1.262581339e-10
1.241958001e-10
1.21603731e-10