/*--------------------------------*- C++ -*----------------------------------*\
| =========                 |                                                 |
| \\      /  F ield         | OpenFOAM: The Open Source CFD Toolbox           |
|  \\    /   O peration     | Version:  2212                                  |
|   \\  /    A nd           | Website:  www.openfoam.com                      |
|    \\/     M anipulation  |                                                 |
\*---------------------------------------------------------------------------*/
FoamFile
{
    version     2.0;
    format      ascii;
    arch        "LSB;label=32;scalar=64";
    class       volScalarField;
    location    "20.00000000";
    object      CH3CO_0;
}
// * * * * * * * * * * * * * * * * * * * * * * * * * * * * * * * * * * * * * //

dimensions      [0 0 0 0 0 0 0];

internalField   nonuniform List<scalar> 
3000
(
2.460814458e-51
2.453308791e-51
2.4395426e-51
2.41535136e-51
2.372281825e-51
2.293133456e-51
2.143557039e-51
1.862619812e-51
1.39538316e-51
2.665558567e-51
2.64084992e-51
2.597664158e-51
2.527540049e-51
2.417019891e-51
2.246751012e-51
1.993094977e-51
1.638638382e-51
1.220417932e-51
2.602946561e-51
2.559642732e-51
2.487742278e-51
2.379408809e-51
2.224945695e-51
2.015432782e-51
1.748582958e-51
1.43840602e-51
1.139918151e-51
2.509513215e-51
2.451054727e-51
2.358729858e-51
2.229063025e-51
2.060684465e-51
1.858920617e-51
1.641745418e-51
1.442174094e-51
1.293368728e-51
2.413447038e-51
2.34686362e-51
2.248282383e-51
2.124079565e-51
1.991631596e-51
1.890699852e-51
1.894883174e-51
2.088516187e-51
2.398601018e-51
2.330832332e-51
2.271668909e-51
2.201739298e-51
2.16140051e-51
2.244093739e-51
2.649655779e-51
3.727456587e-51
5.791913961e-51
8.178329184e-51
2.299856862e-51
2.298452064e-51
2.385893668e-51
2.756318134e-51
3.875628129e-51
6.757520887e-51
1.31364642e-50
2.430207723e-50
3.603279784e-50
2.458758526e-51
2.713490479e-51
3.500103064e-51
5.737105531e-51
1.170365186e-50
2.641760747e-50
5.835893519e-50
1.136676406e-49
1.746864604e-49
3.348138386e-51
4.68175716e-51
8.499638109e-51
1.9074568e-50
4.720737348e-50
1.166607759e-49
2.665062626e-49
5.212917745e-49
7.910693299e-49
7.131870475e-51
1.299868364e-50
2.989714315e-50
7.73351762e-50
2.051550927e-49
5.225900053e-49
1.205244982e-48
2.353011174e-48
3.548241577e-48
2.258944066e-50
4.755861738e-50
1.207747666e-49
3.29909964e-49
9.004426595e-49
2.324353755e-48
5.378580997e-48
1.047175885e-47
1.571367404e-47
8.56927557e-50
1.913486841e-49
5.065173095e-49
1.42031204e-48
3.93766156e-48
1.024197667e-47
2.373222393e-47
4.608350906e-47
6.887849147e-47
3.449292531e-49
7.919218297e-49
2.144399348e-48
6.112408777e-48
1.712398498e-47
4.4762413e-47
1.037731598e-46
2.010364927e-46
2.995208087e-46
1.416611769e-48
3.308737064e-48
9.099332644e-48
2.624506839e-47
7.408588249e-47
1.943312312e-46
4.505439447e-46
8.710334901e-46
1.294413593e-45
5.869185723e-48
1.388141124e-47
3.862395768e-47
1.124087883e-46
3.191208048e-46
8.391021871e-46
1.944980369e-45
3.753422536e-45
5.566694467e-45
2.443805546e-47
5.836725972e-47
1.638950831e-46
4.803299194e-46
1.369494709e-45
3.607042074e-45
8.357463031e-45
1.610206255e-44
2.384651316e-44
1.020899712e-46
2.457397988e-46
6.950585279e-46
2.048138354e-45
5.858491377e-45
1.544747251e-44
3.577080808e-44
6.881469703e-44
1.018270869e-43
4.274590676e-46
1.035412949e-45
2.945526823e-45
8.716439653e-45
2.499205675e-44
6.593874567e-44
1.525711901e-43
2.930715043e-43
4.335483372e-43
1.792666995e-45
4.364306605e-45
1.247231824e-44
3.70279584e-44
1.063438325e-43
2.806155588e-43
6.486036753e-43
1.243703093e-42
1.837005816e-42
7.52604315e-45
1.839694359e-44
5.276270272e-44
1.570161375e-43
4.513912094e-43
1.190670063e-42
2.748039477e-42
5.258291662e-42
7.750884017e-42
3.161561027e-44
7.753207034e-44
2.229658663e-43
6.645854671e-43
1.911130334e-42
5.036246669e-42
1.160004753e-41
2.213750443e-41
3.254843309e-41
1.328386748e-43
3.265820232e-43
9.409927195e-43
2.807125163e-42
8.068804937e-42
2.122659405e-41
4.87545735e-41
9.272038401e-41
1.358740465e-40
5.580201497e-43
1.374433989e-42
3.964876176e-42
1.182823787e-41
3.395480672e-41
8.908681511e-41
2.038295607e-40
3.858451307e-40
5.629283544e-40
2.342443541e-42
5.776748862e-42
1.66713107e-41
4.969215146e-41
1.423146116e-40
3.719373863e-40
8.464953609e-40
1.592474349e-39
2.309592557e-39
9.820440726e-42
2.423370003e-41
6.990845495e-41
2.079829453e-40
5.934928749e-40
1.542640623e-39
3.485899961e-39
6.503828697e-39
9.35829448e-39
4.108840218e-41
1.013905243e-40
2.920959349e-40
8.663036141e-40
2.459257384e-39
6.345072868e-39
1.420259561e-38
2.621175515e-38
3.732559658e-38
1.714161683e-40
4.226718223e-40
1.214725961e-39
3.586138065e-39
1.010809223e-38
2.582478843e-38
5.709543566e-38
1.039016744e-37
1.459840268e-37
7.122960515e-40
1.753572887e-39
5.020993234e-39
1.472886927e-38
4.112472819e-38
1.037368455e-37
2.2575227e-37
4.035626083e-37
5.574864163e-37
2.944229641e-39
7.229723972e-39
2.059283471e-38
5.989657593e-38
1.652018976e-37
4.100211754e-37
8.747677127e-37
1.529517087e-36
2.069162314e-36
1.208639783e-38
2.956858421e-38
8.363121669e-38
2.405843809e-37
6.533421209e-37
1.589133523e-36
3.308696708e-36
5.631554161e-36
7.428956623e-36
4.918388129e-38
1.197137879e-37
3.355075426e-37
9.517922775e-37
2.535405367e-36
6.016540055e-36
1.216426346e-35
2.005224206e-35
2.568117037e-35
1.979731488e-37
4.786456062e-37
1.325927769e-36
3.696960366e-36
9.619554669e-36
2.216166963e-35
4.328022845e-35
6.874351109e-35
8.511147142e-35
7.86271019e-37
1.884731228e-36
5.146063535e-36
1.404918608e-35
3.554395516e-35
7.908632288e-35
1.483897178e-34
2.259701352e-34
2.694318654e-34
3.072674999e-36
7.286583948e-36
1.95473568e-35
5.203797066e-35
1.273819588e-34
2.722822369e-34
4.882887431e-34
7.097149527e-34
8.124115096e-34
1.177915415e-35
2.756696705e-35
7.240463845e-35
1.87124432e-34
4.409506552e-34
9.007603148e-34
1.536600352e-33
2.123914576e-33
2.329230855e-33
4.415014503e-35
1.016935952e-34
2.605175489e-34
6.506166636e-34
1.468472449e-33
2.852879211e-33
4.611082506e-33
6.045605336e-33
6.346276596e-33
1.612320476e-34
3.644290777e-34
9.069550022e-34
2.178559281e-33
4.687128848e-33
8.623735827e-33
1.31679861e-32
1.635667269e-32
1.644310173e-32
5.716026514e-34
1.263821163e-33
3.043036719e-33
6.998636359e-33
1.429150036e-32
2.482076674e-32
3.574792822e-32
4.208148539e-32
4.058690387e-32
1.960032967e-33
4.225325854e-33
9.803097117e-33
2.149625153e-32
4.15153534e-32
6.791821812e-32
9.225349872e-32
1.03103042e-31
9.570033901e-32
6.477285861e-33
1.356924344e-32
3.02170533e-32
6.294348546e-32
1.146724493e-31
1.765871975e-31
2.265310929e-31
2.411347556e-31
2.162928349e-31
2.055977047e-32
4.171926545e-32
8.885625551e-32
1.753130223e-31
3.008626976e-31
4.364101216e-31
5.30234387e-31
5.399399458e-31
4.703094626e-31
6.249831146e-32
1.224650947e-31
2.487130378e-31
4.638442745e-31
7.497127315e-31
1.026457315e-30
1.185941024e-30
1.161280524e-30
9.874381372e-31
1.815490639e-31
3.425837009e-31
6.618317554e-31
1.165524058e-30
1.776049999e-30
2.302488699e-30
2.541804353e-30
2.40654767e-30
2.007937872e-30
5.034276787e-31
9.127110812e-31
1.674559212e-30
2.784618279e-30
4.008605548e-30
4.939779259e-30
5.236117526e-30
4.817853827e-30
3.962347518e-30
1.333338558e-30
2.318564614e-30
4.036895219e-30
6.344794285e-30
8.652343235e-30
1.017520197e-29
1.040014873e-29
9.334447661e-30
7.589095765e-30
3.381982887e-30
5.635807962e-30
9.314912497e-30
1.386397415e-29
1.796727847e-29
2.023486569e-29
1.999433375e-29
1.7520326e-29
1.407568734e-29
8.257931983e-30
1.319136243e-29
2.073141539e-29
2.930992673e-29
3.623139238e-29
3.918519638e-29
3.743858515e-29
3.191093355e-29
2.517087017e-29
1.955564055e-29
2.999923455e-29
4.49840584e-29
6.069811956e-29
7.191326201e-29
7.491155166e-29
6.911093474e-29
5.68282865e-29
4.340461885e-29
4.530136177e-29
6.697160493e-29
9.634442123e-29
1.2492951e-28
1.4286351e-28
1.44120098e-28
1.285978171e-28
1.016289565e-28
7.49293499e-29
1.034574098e-28
1.481206982e-28
2.058970901e-28
2.58836082e-28
2.884223345e-28
2.845080026e-28
2.484535512e-28
1.944630396e-28
1.546469422e-28
2.340680112e-28
3.263593932e-28
4.418011447e-28
5.434900378e-28
5.961441845e-28
5.817048265e-28
5.083052912e-28
4.306702131e-28
4.168832212e-28
5.251810603e-28
7.170505535e-28
9.524584665e-28
1.156796656e-27
1.261603811e-27
1.235257634e-27
1.125390106e-27
1.183150345e-27
1.408714233e-27
1.165878481e-27
1.566356167e-27
2.055031058e-27
2.484360555e-27
2.72663223e-27
2.767290325e-27
2.984640095e-27
3.811813899e-27
5.642408398e-27
2.549626296e-27
3.383724314e-27
4.406542311e-27
5.333937696e-27
5.964558367e-27
6.639700125e-27
8.793422909e-27
1.376219065e-26
2.500306327e-26
5.465984096e-27
7.190817325e-27
9.338909478e-27
1.140650702e-26
1.333056025e-26
1.790769743e-26
2.812448781e-26
5.350610276e-26
1.141008041e-25
1.14283238e-26
1.496080498e-26
1.952435209e-26
2.461252651e-26
3.28060508e-26
5.145621718e-26
9.48362134e-26
2.142652203e-25
5.083841239e-25
2.316605517e-26
3.030998676e-26
4.01801547e-26
5.449173522e-26
8.606700757e-26
1.539534052e-25
3.293554009e-25
8.508972597e-25
2.145864804e-24
4.543793356e-26
6.013768227e-26
8.354934263e-26
1.331675675e-25
2.355051198e-25
4.732059188e-25
1.151931694e-24
3.262840619e-24
8.460120171e-24
8.711495025e-26
1.211053472e-25
1.930414752e-25
3.423765111e-25
6.620131154e-25
1.475432569e-24
3.97231922e-24
1.188568442e-23
3.098679463e-23
1.703280615e-25
2.686934554e-25
4.767064644e-25
9.082121566e-25
1.89274061e-24
4.597681092e-24
1.326968534e-23
4.076832139e-23
1.053244046e-22
3.883063205e-25
6.540478419e-25
1.225015149e-24
2.457517264e-24
5.443759705e-24
1.409470635e-23
4.241642609e-23
1.311514292e-22
3.325698956e-22
9.620980244e-25
1.668319122e-24
3.2247282e-24
6.71564636e-24
1.554951013e-23
4.194482246e-23
1.288331059e-22
3.953481627e-22
9.777250264e-22
2.494028783e-24
4.374734972e-24
8.603662083e-24
1.833089955e-23
4.355796745e-23
1.200971507e-22
3.707245535e-22
1.117737258e-21
2.684374788e-21
6.649710291e-24
1.165883753e-23
2.301692742e-23
4.93822889e-23
1.184746239e-22
3.293399357e-22
1.0101504e-21
2.969744207e-21
6.90673923e-21
1.801055701e-23
3.119969355e-23
6.096507819e-23
1.298412166e-22
3.110153697e-22
8.637643889e-22
2.608478547e-21
7.434708388e-21
1.671526133e-20
4.877421978e-23
8.257117342e-23
1.577937314e-22
3.30547717e-22
7.863111841e-22
2.16707582e-21
6.393360548e-21
1.759061934e-20
3.819409253e-20
1.295204738e-22
2.127022773e-22
3.949734832e-22
8.118942829e-22
1.915147624e-21
5.20521198e-21
1.490337754e-20
3.946000445e-20
8.270611669e-20
3.312916885e-22
5.268911002e-22
9.51319934e-22
1.924784057e-21
4.498778507e-21
1.198246399e-20
3.311728654e-20
8.419852501e-20
1.703378134e-19
8.074777096e-22
1.248833828e-21
2.205916348e-21
4.414201357e-21
1.020171323e-20
2.646816861e-20
7.032581887e-20
1.714458965e-19
3.348382489e-19
1.872708779e-21
2.837861969e-21
4.942468553e-21
9.812720625e-21
2.234436163e-20
5.617745654e-20
1.430777434e-19
3.341933669e-19
6.303277725e-19
4.155587579e-21
6.217589921e-21
1.074072284e-20
2.11652385e-20
4.72837466e-20
1.147363296e-19
2.795967637e-19
6.255227413e-19
1.139978241e-18
8.891454545e-21
1.320633095e-20
2.26914482e-20
4.42988175e-20
9.669960882e-20
2.258445552e-19
5.261052237e-19
1.127537013e-18
1.986771729e-18
1.846020824e-20
2.729008797e-20
4.664015205e-20
8.993636369e-20
1.911885102e-19
4.291054556e-19
9.554817875e-19
1.962723869e-18
3.346338982e-18
3.733030458e-20
5.494707762e-20
9.324435576e-20
1.770324581e-19
3.656233857e-19
7.881856211e-19
1.678592925e-18
3.307852386e-18
5.461752728e-18
7.364269212e-20
1.078101984e-19
1.81202594e-19
3.377574899e-19
6.767231781e-19
1.401660497e-18
2.858437274e-18
5.410268754e-18
8.659967062e-18
1.417465485e-19
2.060221018e-19
3.420545984e-19
6.245395844e-19
1.213161138e-18
2.416661623e-18
4.726901285e-18
8.606097289e-18
1.336930189e-17
2.660574642e-19
3.831731347e-19
6.269364309e-19
1.119465037e-18
2.108301814e-18
4.04506408e-18
7.603451286e-18
1.333936998e-17
2.013695128e-17
4.866354464e-19
6.931959471e-19
1.11558034e-18
1.946130886e-18
3.555313158e-18
6.581485468e-18
1.19145515e-17
2.018057708e-17
2.964501117e-17
8.668486155e-19
1.219505899e-18
1.927680109e-18
3.283766051e-18
5.824017269e-18
1.042191764e-17
1.821214167e-17
2.984271597e-17
4.272314536e-17
1.503398374e-18
2.086533874e-18
3.236528841e-18
5.383154513e-18
9.278526066e-18
1.608152474e-17
2.718931042e-17
4.319281806e-17
6.035595205e-17
2.538846665e-18
3.473627117e-18
5.284631323e-18
8.583687204e-18
1.439456513e-17
2.421014322e-17
3.96914995e-17
6.125729442e-17
8.36834882e-17
4.176637078e-18
5.631137057e-18
8.400852989e-18
1.333080192e-17
2.177547902e-17
3.560435759e-17
5.672221797e-17
8.522036056e-17
1.13994374e-16
6.698470368e-18
8.898402639e-18
1.301861647e-17
2.019314331e-17
3.216618918e-17
5.121559779e-17
7.944327275e-17
1.164168938e-16
1.527161401e-16
1.048378888e-17
1.372326796e-17
1.969466184e-17
2.987890162e-17
4.646464312e-17
7.215397884e-17
1.091690618e-16
1.563171055e-16
2.013864774e-16
1.603100772e-17
2.068268939e-17
2.912786754e-17
4.325088637e-17
6.573062368e-17
9.968853065e-17
1.473571807e-16
2.065076263e-16
2.616436852e-16
2.397992515e-17
3.050379108e-17
4.217745121e-17
6.133974671e-17
9.119173768e-17
1.352448918e-16
1.956008585e-16
2.686858293e-16
3.352189959e-16
3.513436864e-17
4.40843355e-17
5.98794356e-17
8.535417101e-17
1.24245206e-16
1.803975151e-16
2.556112094e-16
3.446565953e-16
4.240118447e-16
5.048357769e-17
6.251102851e-17
8.345975968e-17
1.166865491e-16
1.664544248e-16
2.368573569e-16
3.291936307e-16
4.362603437e-16
5.297929105e-16
7.122019498e-17
8.707353734e-17
1.14342079e-16
1.569127401e-16
2.195407823e-16
3.064529115e-16
4.182491972e-16
5.454696791e-16
6.543788765e-16
9.875223232e-17
1.192717152e-16
1.541479536e-16
2.077832412e-16
2.853623796e-16
3.911152245e-16
5.247409685e-16
6.740748247e-16
7.99479959e-16
1.347063802e-16
1.608139897e-16
2.046891814e-16
2.712120531e-16
3.659051936e-16
4.928630638e-16
6.506953184e-16
8.238581799e-16
9.667127391e-16
1.809206829e-16
2.136052814e-16
2.679506432e-16
3.492481242e-16
4.632716272e-16
6.138616375e-16
7.979507135e-16
9.964640109e-16
1.157539209e-15
2.394276033e-16
2.797254153e-16
3.460573443e-16
4.440581319e-16
5.796508794e-16
7.561287751e-16
9.682703347e-16
1.19338266e-15
1.373233974e-15
3.124157198e-16
3.61393654e-16
4.412645378e-16
5.579223123e-16
7.173530763e-16
9.215719151e-16
1.163268202e-15
1.415908718e-15
1.614850544e-15
4.022206678e-16
4.609715934e-16
5.559760143e-16
6.933612427e-16
8.784017566e-16
1.111955138e-15
1.384364881e-15
1.66510597e-15
1.883193387e-15
5.113280003e-16
5.810024506e-16
6.928195914e-16
8.525022672e-16
1.064701421e-15
1.328858848e-15
1.632750943e-15
1.941779879e-15
2.178797483e-15
6.425071799e-16
7.241912385e-16
8.540314943e-16
1.037370568e-15
1.277984891e-15
1.573638079e-15
1.909355879e-15
2.24645738e-15
2.501915562e-15
7.982894254e-16
8.927714428e-16
1.041702703e-15
1.249816643e-15
1.519761267e-15
1.847384818e-15
2.214823694e-15
2.579374182e-15
2.852512877e-15
9.808799404e-16
1.088855506e-15
1.257750379e-15
1.491464919e-15
1.791273063e-15
2.150898128e-15
2.549496393e-15
2.940469666e-15
3.230269104e-15
1.192345414e-15
1.314365831e-15
1.503857866e-15
1.763666812e-15
2.093461489e-15
2.484662847e-15
2.913405619e-15
3.329389034e-15
3.634586729e-15
1.434530302e-15
1.570971478e-15
1.781423367e-15
2.067461941e-15
2.426940713e-15
2.848837081e-15
3.306272158e-15
3.745492084e-15
4.064605087e-15
1.708993146e-15
1.860035608e-15
2.091518587e-15
2.403549014e-15
2.791981596e-15
3.243248374e-15
3.727512764e-15
4.187867796e-15
4.519219146e-15
2.016957472e-15
2.18257465e-15
2.434858208e-15
2.772266977e-15
3.188504881e-15
3.667398038e-15
4.176253523e-15
4.65535383e-15
4.997102096e-15
2.359275636e-15
2.539229328e-15
2.811780434e-15
3.173586356e-15
3.616083382e-15
4.120472919e-15
4.651348853e-15
5.146560013e-15
5.496730825e-15
2.736405051e-15
2.930247376e-15
3.222238386e-15
3.60711035e-15
4.073952454e-15
4.601363672e-15
5.151405174e-15
5.659894858e-15
6.016413418e-15
3.148396284e-15
3.355477491e-15
3.665801786e-15
4.072084898e-15
4.561027792e-15
5.108688512e-15
5.674808235e-15
6.19359424e-15
6.554317853e-15
3.594892444e-15
3.814373846e-15
4.141668094e-15
4.567416727e-15
5.075929464e-15
5.640821362e-15
6.219753104e-15
6.745751354e-15
7.108501186e-15
4.075138992e-15
4.306010216e-15
4.648682038e-15
5.091698238e-15
5.617011019e-15
6.195923283e-15
6.78427588e-15
7.314347189e-15
7.676938538e-15
4.588002887e-15
4.829102551e-15
5.185362307e-15
5.643237978e-15
6.182392456e-15
6.771976131e-15
7.366286214e-15
7.89728081e-15
8.257551343e-15
5.131999757e-15
5.382038662e-15
5.749934061e-15
6.22009538e-15
6.769995874e-15
7.366817402e-15
7.963599848e-15
8.49239883e-15
8.848234342e-15
5.705327656e-15
5.962913583e-15
6.340365869e-15
6.820118499e-15
7.377582655e-15
7.978175356e-15
8.573970444e-15
9.097523548e-15
9.446880946e-15
6.305905875e-15
6.569569124e-15
6.954409682e-15
7.440983489e-15
8.002791145e-15
8.603703561e-15
9.195120089e-15
9.710479308e-15
1.005140661e-14
6.931417286e-15
7.199636188e-15
7.589642522e-15
8.080234661e-15
8.643173864e-15
9.241014153e-15
9.82476795e-15
1.032911674e-14
1.065977003e-14
7.579352757e-15
7.850578452e-15
8.243508657e-15
8.735324102e-15
9.296233449e-15
9.887709199e-15
1.04606567e-14
1.095133465e-14
1.12699919e-14
8.247056255e-15
8.519736168e-15
8.913361167e-15
9.403649941e-15
9.959456621e-15
1.054140969e-14
1.110057635e-14
1.157509926e-14
1.188017121e-14
8.931769435e-15
9.204368986e-15
9.596501948e-15
1.008259251e-14
1.063034564e-14
1.119978179e-14
1.17423854e-14
1.219846095e-14
1.248849902e-14
9.630674641e-15
9.901696833e-15
1.029021939e-14
1.07695478e-14
1.130644683e-14
1.18605601e-14
1.238402896e-14
1.281956815e-14
1.309326976e-14
1.034093545e-14
1.06089381e-14
1.099182306e-14
1.146195778e-14
1.198537585e-14
1.252156775e-14
1.302355412e-14
1.343667867e-14
1.369288994e-14
1.105973404e-14
1.132334454e-14
1.169867501e-14
1.21573372e-14
1.266483964e-14
1.318073339e-14
1.365912228e-14
1.404816846e-14
1.428588476e-14
1.178430497e-14
1.204223242e-14
1.240821734e-14
1.28532968e-14
1.33426548e-14
1.383610488e-14
1.428901879e-14
1.46525379e-14
1.487090231e-14
1.25119648e-14
1.276300976e-14
1.311799585e-14
1.354756277e-14
1.401676265e-14
1.448586007e-14
1.491165987e-14
1.524841582e-14
1.544671592e-14
1.324013769e-14
1.348319937e-14
1.382567975e-14
1.423799255e-14
1.46852409e-14
1.512831457e-14
1.552559707e-14
1.583456148e-14
1.601222461e-14
1.396637661e-14
1.420045786e-14
1.452907756e-14
1.492258707e-14
1.534631219e-14
1.576192685e-14
1.612951954e-14
1.640986464e-14
1.656645195e-14
1.468838043e-14
1.491259062e-14
1.522614923e-14
1.559949965e-14
1.599834974e-14
1.638530091e-14
1.672225419e-14
1.6973344e-14
1.71085435e-14
1.540400702e-14
1.5617563e-14
1.591501475e-14
1.626704177e-14
1.663988022e-14
1.699718665e-14
1.73027641e-14
1.752414422e-14
1.763776311e-14
1.611128253e-14
1.631350791e-14
1.659395958e-14
1.692368603e-14
1.726958439e-14
1.759647841e-14
1.787014547e-14
1.806153176e-14
1.815348814e-14
1.68084072e-14
1.699873026e-14
1.726143712e-14
1.756806653e-14
1.788629551e-14
1.818221178e-14
1.842362314e-14
1.858488971e-14
1.8655204e-14
1.749375807e-14
1.767170835e-14
1.791606862e-14
1.819897715e-14
1.848899601e-14
1.875355895e-14
1.896254521e-14
1.909371186e-14
1.914249798e-14
1.816588889e-14
1.833109287e-14
1.855664083e-14
1.881536781e-14
1.907681264e-14
1.930982307e-14
1.948637672e-14
1.958759616e-14
1.961505271e-14
1.882352761e-14
1.897570359e-14
1.918210173e-14
1.941633929e-14
1.964901042e-14
1.985043152e-14
1.999469276e-14
2.006623786e-14
2.007263932e-14
1.946557192e-14
1.960452422e-14
1.979155472e-14
2.000113665e-14
2.020498555e-14
2.037492864e-14
2.048717112e-14
2.052942222e-14
2.051511044e-14
2.009108294e-14
2.021669586e-14
2.038425148e-14
2.056914173e-14
2.074425769e-14
2.088296793e-14
2.096358467e-14
2.09770173e-14
2.094239316e-14
2.069927776e-14
2.081150912e-14
2.095958394e-14
2.111986492e-14
2.126646164e-14
2.137430391e-14
2.14237936e-14
2.140896658e-14
2.135448211e-14
2.128952083e-14
2.138839543e-14
2.151707542e-14
2.165293631e-14
2.177133876e-14
2.184878396e-14
2.186773775e-14
2.182528181e-14
2.175143261e-14
2.18613146e-14
2.194691773e-14
2.205637142e-14
2.216809668e-14
2.225872824e-14
2.230634001e-14
2.229542887e-14
2.222603595e-14
2.213335416e-14
2.24142897e-14
2.248676071e-14
2.257723004e-14
2.266518827e-14
2.272855838e-14
2.274698047e-14
2.270694331e-14
2.261135642e-14
2.250040407e-14
2.294819487e-14
2.300772089e-14
2.307951236e-14
2.314414556e-14
2.318083796e-14
2.317078231e-14
2.310241474e-14
2.298141864e-14
2.285278155e-14
2.346288672e-14
2.350969668e-14
2.356317289e-14
2.360498627e-14
2.361564789e-14
2.357788344e-14
2.348202742e-14
2.333643987e-14
2.319072204e-14
2.395831966e-14
2.399267854e-14
2.402825018e-14
2.40478026e-14
2.403313314e-14
2.39684754e-14
2.384600964e-14
2.36766735e-14
2.351449199e-14
2.443453598e-14
2.445673944e-14
2.447485777e-14
2.447275272e-14
2.443349502e-14
2.434279655e-14
2.419462769e-14
2.40024037e-14
2.382438395e-14
2.489165631e-14
2.490202562e-14
2.490317547e-14
2.488005279e-14
2.481698393e-14
2.470112553e-14
2.452818019e-14
2.43139404e-14
2.41207121e-14
2.532987038e-14
2.532874779e-14
2.531344107e-14
2.526996933e-14
2.518389254e-14
2.50437753e-14
2.484699286e-14
2.461161478e-14
2.440380814e-14
2.57494284e-14
2.573717285e-14
2.570594264e-14
2.564281217e-14
2.553454941e-14
2.537108753e-14
2.51514137e-14
2.489577513e-14
2.467401755e-14
2.615063284e-14
2.612761601e-14
2.608101121e-14
2.599892783e-14
2.586931318e-14
2.568342754e-14
2.544180859e-14
2.516678297e-14
2.493169621e-14
2.653383091e-14
2.65004337e-14
2.643901408e-14
2.633869338e-14
2.618856712e-14
2.598117958e-14
2.571855731e-14
2.542500971e-14
2.517720735e-14
2.689940739e-14
2.685601671e-14
2.67803486e-14
2.666251088e-14
2.649271418e-14
2.626474253e-14
2.598204984e-14
2.567083353e-14
2.541091885e-14
2.724777815e-14
2.719478406e-14
2.710543642e-14
2.697080223e-14
2.678217258e-14
2.653452619e-14
2.623268332e-14
2.590463675e-14
2.56332009e-14
2.757938414e-14
2.751717737e-14
2.741471841e-14
2.726400466e-14
2.705737179e-14
2.679094784e-14
2.647085907e-14
2.612680338e-14
2.584442384e-14
2.789468605e-14
2.782365576e-14
2.770864998e-14
2.75425665e-14
2.731874894e-14
2.703442918e-14
2.669698007e-14
2.633771699e-14
2.604495635e-14
2.819415944e-14
2.811469132e-14
2.798769687e-14
2.780694349e-14
2.756674563e-14
2.726539362e-14
2.691144878e-14
2.653775892e-14
2.623516383e-14
2.847829039e-14
2.839076499e-14
2.825233148e-14
2.805759554e-14
2.780180508e-14
2.748426398e-14
2.711466515e-14
2.672730663e-14
2.641540705e-14
2.874757159e-14
2.865236293e-14
2.850302956e-14
2.829498379e-14
2.802436971e-14
2.769146039e-14
2.730702496e-14
2.690673236e-14
2.6586041e-14
2.900249895e-14
2.889997332e-14
2.874026726e-14
2.85195681e-14
2.823487894e-14
2.788739853e-14
2.748891844e-14
2.707640203e-14
2.674741387e-14
2.924356855e-14
2.913408352e-14
2.89645187e-14
2.873180481e-14
2.843376737e-14
2.807248814e-14
2.766072898e-14
2.72366742e-14
2.689986633e-14
2.947127405e-14
2.935517768e-14
2.917625368e-14
2.893214491e-14
2.862146321e-14
2.824713172e-14
2.782283222e-14
2.738789934e-14
2.70437308e-14
2.968610439e-14
2.95637346e-14
2.937593589e-14
2.912103242e-14
2.879838692e-14
2.841172348e-14
2.797559514e-14
2.753041917e-14
2.717933098e-14
2.988854187e-14
2.976022597e-14
2.956402129e-14
2.9298903e-14
2.896495015e-14
2.856664847e-14
2.811937545e-14
2.766456618e-14
2.730698143e-14
3.007906053e-14
2.994511485e-14
2.974095677e-14
2.946618286e-14
2.912155478e-14
2.871228187e-14
2.825452104e-14
2.779066322e-14
2.74269873e-14
3.025812475e-14
3.01188544e-14
2.99071791e-14
2.962328785e-14
2.926859223e-14
2.884898844e-14
2.83813696e-14
2.790902325e-14
2.753964412e-14
3.042618816e-14
3.028188691e-14
3.006311399e-14
2.977062274e-14
2.94064429e-14
2.897712214e-14
2.850024834e-14
2.801994918e-14
2.76452377e-14
3.058369269e-14
3.043464294e-14
3.020917545e-14
2.990858063e-14
2.953547572e-14
2.909702578e-14
2.86114738e-14
2.812373374e-14
2.774404408e-14
3.073106792e-14
3.057754069e-14
3.03457652e-14
3.003754254e-14
2.965604788e-14
2.92090309e-14
2.871535179e-14
2.822065947e-14
2.783632953e-14
3.086873049e-14
3.071098554e-14
3.047327234e-14
3.015787718e-14
2.976850461e-14
2.93134576e-14
2.881217731e-14
2.831099876e-14
2.792235067e-14
3.099708375e-14
3.083536973e-14
3.059207307e-14
3.026994068e-14
2.987317915e-14
2.94106146e-14
2.890223463e-14
2.839501395e-14
2.800235452e-14
3.111651746e-14
3.095107211e-14
3.070253052e-14
3.037407659e-14
2.997039267e-14
2.950079923e-14
2.898579739e-14
2.847295742e-14
2.80765787e-14
3.122740772e-14
3.10584581e-14
3.080499475e-14
3.047061587e-14
3.006045436e-14
2.958429757e-14
2.906312876e-14
2.854507182e-14
2.814525158e-14
3.133011687e-14
3.115787964e-14
3.089980274e-14
3.055987695e-14
3.014366156e-14
2.966138458e-14
2.913448155e-14
2.861159021e-14
2.820859254e-14
3.142499358e-14
3.124967526e-14
3.098727852e-14
3.064216586e-14
3.022029993e-14
2.973232433e-14
2.920009852e-14
2.867273632e-14
2.82668121e-14
3.151237293e-14
3.133417024e-14
3.106773332e-14
3.071777645e-14
3.029064363e-14
2.979737018e-14
2.926021252e-14
2.872872477e-14
2.832011225e-14
3.159257659e-14
3.141167677e-14
3.114146576e-14
3.078699058e-14
3.035495556e-14
2.985676505e-14
2.931504681e-14
2.877976132e-14
2.836868666e-14
3.166591306e-14
3.14824942e-14
3.12087621e-14
3.085007836e-14
3.041348763e-14
2.991074165e-14
2.936481525e-14
2.882604309e-14
2.841272089e-14
3.173267784e-14
3.15469092e-14
3.126989644e-14
3.090729839e-14
3.046648095e-14
2.995952274e-14
2.940972256e-14
2.886775884e-14
2.845239266e-14
3.17931537e-14
3.160519609e-14
3.132513099e-14
3.095889799e-14
3.051416609e-14
3.000332128e-14
2.94499645e-14
2.890508907e-14
2.848787199e-14
3.184761084e-14
3.165761691e-14
3.137471618e-14
3.100511331e-14
3.055676316e-14
3.004234059e-14
2.948572794e-14
2.893820617e-14
2.851932129e-14
3.189630703e-14
3.170442158e-14
3.141889078e-14
3.104616941e-14
3.059448184e-14
3.007677426e-14
2.951719085e-14
2.896727433e-14
2.854689532e-14
3.193948752e-14
3.174584782e-14
3.145788174e-14
3.108228007e-14
3.062752115e-14
3.010680593e-14
2.954452191e-14
2.899244916e-14
2.857074079e-14
3.197738478e-14
3.178212076e-14
3.149190381e-14
3.111364726e-14
3.065606882e-14
3.013260854e-14
2.956787977e-14
2.90138769e-14
2.859099558e-14
3.201021784e-14
3.181345228e-14
3.152115864e-14
3.114046018e-14
3.068030015e-14
3.015434298e-14
2.958741156e-14
2.903169283e-14
2.860778707e-14
3.203819105e-14
3.184003957e-14
3.154583327e-14
3.116289345e-14
3.070037594e-14
3.017215586e-14
2.960325032e-14
2.90460185e-14
2.862122936e-14
3.206149198e-14
3.18620629e-14
3.156609761e-14
3.118110425e-14
3.07164392e-14
3.018617561e-14
2.961551077e-14
2.905695722e-14
2.863141856e-14
3.20802883e-14
3.187968219e-14
3.158210047e-14
3.119522776e-14
3.072860995e-14
3.019650666e-14
2.962428278e-14
2.906458695e-14
2.863842536e-14
3.209472283e-14
3.189303161e-14
3.159396362e-14
3.120537048e-14
3.073697753e-14
3.020322074e-14
2.96296216e-14
2.906894965e-14
2.864228385e-14
3.210490653e-14
3.1902212e-14
3.160177333e-14
3.121160049e-14
3.074158952e-14
3.020634418e-14
2.963153367e-14
2.907003567e-14
2.864297501e-14
3.21109086e-14
3.190728016e-14
3.160556836e-14
3.121393394e-14
3.074243625e-14
3.020584028e-14
2.962995666e-14
2.906776185e-14
2.864040342e-14
3.211274295e-14
3.19082342e-14
3.160532371e-14
3.121231657e-14
3.073942972e-14
3.020158522e-14
2.962473233e-14
2.906194147e-14
2.863436534e-14
3.211035019e-14
3.190499411e-14
3.160092903e-14
3.120659929e-14
3.07323757e-14
3.019333632e-14
2.961557068e-14
2.905224464e-14
2.862450637e-14
3.210357417e-14
3.189737647e-14
3.159216062e-14
3.119650662e-14
3.072093786e-14
3.018069115e-14
2.960200392e-14
2.903814731e-14
2.861026698e-14
3.209213216e-14
3.188506249e-14
3.157864616e-14
3.118159709e-14
3.070459287e-14
3.016303672e-14
2.958332913e-14
2.901886796e-14
2.859081478e-14
3.207557797e-14
3.186755846e-14
3.15598213e-14
3.11612147e-14
3.068257572e-14
3.013948766e-14
2.955853912e-14
2.899329126e-14
2.856496303e-14
3.205325725e-14
3.184414821e-14
3.15348777e-14
3.113443129e-14
3.065381511e-14
3.010881382e-14
2.952624161e-14
2.895987934e-14
2.853107597e-14
3.202425493e-14
3.181383724e-14
3.150270248e-14
3.109997979e-14
3.061685941e-14
3.006935793e-14
2.948456815e-14
2.891657225e-14
2.848696314e-14
3.198733486e-14
3.177528911e-14
3.146180969e-14
3.105617964e-14
3.056979482e-14
3.001894563e-14
2.943107557e-14
2.886068139e-14
2.842976663e-14
3.194087301e-14
3.172675555e-14
3.141026593e-14
3.100085635e-14
3.051015806e-14
2.995479108e-14
2.936264457e-14
2.878878106e-14
2.83558476e-14
3.188278535e-14
3.16660017e-14
3.134561185e-14
3.09312588e-14
3.043484892e-14
2.987340408e-14
2.927538141e-14
2.869660612e-14
2.826068053e-14
3.181045379e-14
3.159023021e-14
3.126478393e-14
3.084397847e-14
3.034004717e-14
2.977050559e-14
2.91645327e-14
2.857896564e-14
2.813876679e-14
3.172065389e-14
3.149600859e-14
3.116404172e-14
3.073487719e-14
3.022114215e-14
2.964096052e-14
2.902442278e-14
2.842968586e-14
2.798358131e-14
3.160948967e-14
3.137920561e-14
3.10389071e-14
3.059903136e-14
3.007268421e-14
2.947873905e-14
2.884842716e-14
2.824159633e-14
2.778756862e-14
3.14723422e-14
3.123494396e-14
3.088412391e-14
3.043070179e-14
2.988836878e-14
2.927691901e-14
2.862899639e-14
2.800657586e-14
2.754220574e-14
3.130383975e-14
3.105757774e-14
3.069364717e-14
3.022333984e-14
2.966106514e-14
2.902774279e-14
2.835774539e-14
2.771567473e-14
2.723814962e-14
3.109785859e-14
3.084070417e-14
3.046067221e-14
2.996964111e-14
2.938290205e-14
2.872274216e-14
2.802562265e-14
2.735932871e-14
2.686548516e-14
3.084756402e-14
3.057721985e-14
3.017771456e-14
2.966165797e-14
2.904542231e-14
2.83529433e-14
2.762317174e-14
2.692767671e-14
2.641408566e-14
3.054550156e-14
3.025943127e-14
2.983675047e-14
2.929098093e-14
2.86398156e-14
2.790916072e-14
2.714089246e-14
2.64109882e-14
2.587409011e-14
3.01837474e-14
2.987922878e-14
2.942942664e-14
2.884899639e-14
2.815723594e-14
2.738238395e-14
2.656970238e-14
2.580019725e-14
2.52364913e-14
2.975412525e-14
2.942833026e-14