/*--------------------------------*- C++ -*----------------------------------*\
| =========                 |                                                 |
| \\      /  F ield         | OpenFOAM: The Open Source CFD Toolbox           |
|  \\    /   O peration     | Version:  2212                                  |
|   \\  /    A nd           | Website:  www.openfoam.com                      |
|    \\/     M anipulation  |                                                 |
\*---------------------------------------------------------------------------*/
FoamFile
{
    version     2.0;
    format      ascii;
    arch        "LSB;label=32;scalar=64";
    class       volScalarField;
    location    "20.00000000";
    object      CH3COCH2;
}
// * * * * * * * * * * * * * * * * * * * * * * * * * * * * * * * * * * * * * //

dimensions      [0 0 0 0 0 0 0];

internalField   nonuniform List<scalar> 
3000
(
5.411417956e-30
6.710691237e-30
8.787274773e-30
1.176409471e-29
1.576708744e-29
2.084124267e-29
2.678985631e-29
3.290280832e-29
3.756234003e-29
2.280301762e-29
2.848534623e-29
3.756580403e-29
5.060727525e-29
6.828626933e-29
9.127981255e-29
1.20017441e-28
1.540074067e-28
1.873559081e-28
5.875860656e-29
7.432869584e-29
9.947053274e-29
1.362761032e-28
1.877428258e-28
2.577932897e-28
3.504729513e-28
4.663082051e-28
5.800286567e-28
1.283844027e-28
1.650495289e-28
2.254084484e-28
3.164356713e-28
4.48736535e-28
6.367189621e-28
8.953336468e-28
1.223473472e-27
1.533121464e-27
2.610863284e-28
3.423572384e-28
4.794085515e-28
6.92753813e-28
1.013909376e-27
1.485205299e-27
2.145358426e-27
2.971966549e-27
3.713728727e-27
5.142650521e-28
6.891761247e-28
9.915602102e-28
1.476305755e-27
2.227362128e-27
3.353199051e-27
4.938092059e-27
6.880604294e-27
8.543823126e-27
1.002950808e-27
1.37434502e-27
2.031257217e-27
3.111011234e-27
4.821143462e-27
7.418312667e-27
1.106953027e-26
1.544659019e-26
1.896796237e-26
1.957746464e-27
2.740240704e-27
4.151758241e-27
6.518924025e-27
1.032895277e-26
1.616302017e-26
2.435723532e-26
3.414421472e-26
4.235288993e-26
3.84480538e-27
5.485602471e-27
8.49274353e-27
1.361235412e-26
2.193929926e-26
3.472734835e-26
5.258196742e-26
7.357845597e-26
9.060849477e-26
7.609227029e-27
1.103801649e-26
1.740130674e-26
2.835649033e-26
4.629868836e-26
7.387722141e-26
1.121781522e-25
1.567718921e-25
1.925222316e-25
1.517457813e-26
2.23220703e-26
3.571734039e-26
5.897189345e-26
9.72375334e-26
1.560576107e-25
2.373993877e-25
3.314421113e-25
4.062742245e-25
3.046389463e-26
4.533357075e-26
7.341536123e-26
1.224723839e-25
2.034615135e-25
3.279174513e-25
4.99442408e-25
6.967089763e-25
8.528154969e-25
6.149247818e-26
9.237567403e-26
1.510496362e-25
2.540363403e-25
4.244539062e-25
6.862209253e-25
1.046007886e-24
1.458127846e-24
1.782901228e-24
1.246568639e-25
1.887050731e-25
3.109618572e-25
5.263323336e-25
8.83316719e-25
1.431406584e-24
2.183093411e-24
3.041421418e-24
3.715642062e-24
2.535327031e-25
3.861920662e-25
6.403593856e-25
1.089369758e-24
1.83454875e-24
2.978158105e-24
4.543841722e-24
6.327229465e-24
7.724512846e-24
5.169272161e-25
7.913935675e-25
1.31881741e-24
2.252627102e-24
3.803849684e-24
6.183577053e-24
9.436996047e-24
1.313544342e-23
1.602720916e-23
1.055936619e-24
1.623259581e-24
2.716050784e-24
4.654261347e-24
7.876334556e-24
1.281768873e-23
1.956541861e-23
2.722377497e-23
3.320168193e-23
2.1600357e-24
3.331756428e-24
5.593117186e-24
9.609617452e-24
1.62904686e-23
2.653325015e-23
4.050704952e-23
5.634552706e-23
6.869174791e-23
4.423340927e-24
6.841720757e-24
1.151640751e-23
1.982878768e-23
3.36613839e-23
5.48633923e-23
8.37649894e-23
1.164865846e-22
1.419638709e-22
9.065555352e-24
1.40541295e-23
2.370930404e-23
4.089356735e-23
6.949951248e-23
1.133344843e-22
1.73045763e-22
2.405832664e-22
2.931148141e-22
1.859114302e-23
2.887641244e-23
4.880382694e-23
8.429647065e-23
1.433938073e-22
2.339294238e-22
3.571747868e-22
4.96450132e-22
6.046793863e-22
3.814298792e-23
5.933969528e-23
1.004421505e-22
1.736910406e-22
2.95672242e-22
4.824902022e-22
7.366418374e-22
1.023606561e-21
1.246404069e-21
7.828123326e-23
1.219478128e-22
2.066778189e-22
3.577388712e-22
6.093115852e-22
9.944707472e-22
1.518103719e-21
2.108833238e-21
2.567053425e-21
1.606848159e-22
2.506058818e-22
4.25176695e-22
7.364972096e-22
1.25492505e-21
2.048301211e-21
3.126132645e-21
4.340946477e-21
5.282326447e-21
3.298389661e-22
5.149330997e-22
8.744047569e-22
1.515558683e-21
2.583033662e-21
4.21574505e-21
6.431962573e-21
8.927208096e-21
1.08586322e-20
6.769596767e-22
1.057765346e-21
1.797506165e-21
3.11691305e-21
5.31290241e-21
8.669358502e-21
1.322067435e-20
1.83385519e-20
2.22946621e-20
1.388905134e-21
2.171869527e-21
3.692997371e-21
6.405693042e-21
1.091837994e-20
1.780968478e-20
2.714249206e-20
3.762096932e-20
4.570749073e-20
2.847953116e-21
4.456511606e-21
7.581513746e-21
1.315272085e-20
2.241410964e-20
3.654102107e-20
5.564326384e-20
7.705021375e-20
9.353717852e-20
5.834796462e-21
9.136108017e-21
1.554861249e-20
2.697497069e-20
4.595171874e-20
7.485622986e-20
1.13865385e-19
1.574800894e-19
1.909873612e-19
1.194026083e-20
1.870674314e-20
3.184578963e-20
5.524120659e-20
9.404793259e-20
1.530495261e-19
2.324881818e-19
3.210541124e-19
3.88889175e-19
2.439714151e-20
3.824265254e-20
6.511426092e-20
1.129154458e-19
1.920799275e-19
3.121710098e-19
4.733892464e-19
6.525126659e-19
7.892062382e-19
4.975342748e-20
7.802428556e-20
1.328546703e-19
2.30268069e-19
3.912787982e-19
6.348570921e-19
9.607015755e-19
1.321240658e-18
1.595179913e-18
1.012206435e-19
1.587963246e-19
2.703594271e-19
4.682502346e-19
7.945443152e-19
1.28652152e-18
1.941889957e-18
2.66349955e-18
3.208990943e-18
2.053352732e-19
3.222229515e-19
5.484459505e-19
9.489286946e-19
1.607330988e-18
2.596107411e-18
3.906735864e-18
5.341634425e-18
6.419982255e-18
4.151243535e-19
6.515325433e-19
1.108398245e-18
1.915243302e-18
3.237063084e-18
5.212862401e-18
7.816716937e-18
1.064891564e-17
1.276331378e-17
8.359349573e-19
1.311962504e-18
2.230233039e-18
3.847260405e-18
6.485420467e-18
1.040742682e-17
1.554213633e-17
2.108627519e-17
2.519509512e-17
1.675695107e-18
2.629297876e-18
4.464802846e-18
7.685999487e-18
1.291610646e-17
2.064319439e-17
3.06847774e-17
4.143952794e-17
4.934698926e-17
3.341828316e-18
5.240883117e-18
8.886697453e-18
1.525938519e-17
2.554951227e-17
4.064636212e-17
6.010521335e-17
8.076410215e-17
9.582633437e-17
6.626245414e-18
1.038278584e-17
1.75725833e-17
3.008231113e-17
5.01566707e-17
7.938101402e-17
1.167168745e-16
1.559889476e-16
1.843734651e-16
1.305452068e-17
2.042913801e-17
3.449368655e-17
5.883736307e-17
9.763203177e-17
1.536362026e-16
2.245154358e-16
2.983581313e-16
3.51262027e-16
2.553690097e-17
3.989122423e-17
6.715564385e-17
1.140698627e-16
1.882679493e-16
2.944226136e-16
4.274682768e-16
5.64742604e-16
6.622493388e-16
4.956615871e-17
7.724055026e-17
1.295607066e-16
2.190016548e-16
3.593008606e-16
5.581415288e-16
8.048957978e-16
1.05709238e-15
1.234780626e-15
9.539248255e-17
1.481837611e-16
2.474620643e-16
4.159533456e-16
6.779320419e-16
1.045611837e-15
1.497405143e-15
1.955007431e-15
2.275045822e-15
1.819260044e-16
2.814604755e-16
4.675194998e-16
7.807702145e-16
1.263242853e-15
1.933567266e-15
2.749209772e-15
3.568310835e-15
4.137411054e-15
3.43688365e-16
5.290041021e-16
8.730352701e-16
1.44708532e-15
2.322206318e-15
3.525170812e-15
4.974353844e-15
6.417418659e-15
7.413668694e-15
6.432146331e-16
9.837433094e-16
1.610914403e-15
2.646815648e-15
4.207953924e-15
6.328704612e-15
8.855093505e-15
1.134605506e-14
1.305147941e-14
1.193505993e-15
1.811278134e-15
2.938598573e-15
4.778738839e-15
7.514801992e-15
1.117885894e-14
1.548028134e-14
1.965775792e-14
2.247194719e-14
2.199842399e-15
3.30814068e-15
5.309041511e-15
8.530029521e-15
1.324091769e-14
1.943083475e-14
2.653581715e-14
3.324146469e-14
3.758791142e-14
4.040347081e-15
6.013469695e-15
9.532721043e-15
1.510627205e-14
2.309103446e-14
3.330459376e-14
4.459251876e-14
5.463574781e-14
6.053771073e-14
7.425191314e-15
1.092957792e-14
1.709826328e-14
2.668857135e-14
4.007997427e-14
5.65663042e-14
7.364837628e-14
8.707375767e-14
9.304184212e-14
1.371233975e-14
1.995818827e-14
3.080606413e-14
4.733830146e-14
6.973084708e-14
9.588957929e-14
1.202624685e-13
1.348769086e-13
1.360186473e-13
2.552037858e-14
3.673651073e-14
5.596415809e-14
8.467161059e-14
1.222298765e-13
1.632032624e-13
1.955011996e-13
2.048443047e-13
1.914934427e-13
4.786925578e-14
6.815024542e-14
1.024664756e-13
1.525966629e-13
2.155944007e-13
2.785005408e-13
3.166006025e-13
3.081911708e-13
2.680776018e-13
9.019087024e-14
1.268758968e-13
1.880266302e-13
2.750305817e-13
3.788383204e-13
4.705448904e-13
5.049195568e-13
4.60831959e-13
3.858561439e-13
1.696504584e-13
2.352897962e-13
3.42528167e-13
4.8956587e-13
6.522732374e-13
7.713305287e-13
7.787121925e-13
6.826025123e-13
5.750219814e-13
3.161525726e-13
4.306977804e-13
6.124577737e-13
8.482759999e-13
1.080619159e-12
1.202909741e-12
1.148522284e-12
9.987700511e-13
8.685916133e-13
5.7878787e-13
7.70805888e-13
1.062722219e-12
1.411053241e-12
1.696428815e-12
1.767609912e-12
1.627975431e-12
1.440308921e-12
1.290995914e-12
1.031667045e-12
1.335725825e-12
1.77010624e-12
2.227423417e-12
2.503808423e-12
2.464948635e-12
2.253479521e-12
2.04008296e-12
1.848480014e-12
1.772262361e-12
2.218144361e-12
2.801451553e-12
3.312180938e-12
3.490599073e-12
3.335137451e-12
3.090251276e-12
2.828310927e-12
2.534462712e-12
2.89912489e-12
3.491295411e-12
4.178825466e-12
4.645157783e-12
4.686673693e-12
4.481404745e-12
4.219145886e-12
3.828729957e-12
3.350631798e-12
4.459770256e-12
5.161000563e-12
5.868347358e-12
6.234523719e-12
6.219125417e-12
6.047452903e-12
5.711818662e-12
5.06224614e-12
4.325025084e-12
6.399856254e-12
7.160938574e-12
7.856615979e-12
8.214400835e-12
8.298811601e-12
8.174873215e-12
7.613711978e-12
6.563875293e-12
5.516130415e-12
8.624774819e-12
9.480634917e-12
1.029613914e-11
1.086332843e-11
1.115912198e-11
1.096069891e-11
9.959207515e-12
8.401577669e-12
7.010914952e-12
1.123194396e-11
1.236049549e-11
1.355088501e-11
1.452064096e-11
1.498182571e-11
1.444698451e-11
1.281025812e-11
1.068487829e-11
8.92612951e-12
1.467536499e-11
1.630024825e-11
1.807326619e-11
1.946886343e-11
1.983789823e-11
1.866562367e-11
1.628426737e-11
1.356669807e-11
1.141443889e-11
1.960639324e-11
2.185036344e-11
2.422685434e-11
2.581634227e-11
2.570759621e-11
2.370046156e-11
2.055896619e-11
1.724565694e-11
1.467300085e-11
2.656833909e-11
2.937194685e-11
3.211283867e-11
3.346992361e-11
3.258029623e-11
2.971416212e-11
2.58666304e-11
2.196978069e-11
1.895194159e-11
3.572919954e-11
3.88307101e-11
4.151111868e-11
4.226551987e-11
4.053677444e-11
3.693788102e-11
3.248745164e-11
2.803957382e-11
2.456053351e-11
4.672923991e-11
4.978480571e-11
5.206242046e-11
5.213514897e-11
4.975488698e-11
4.564859401e-11
4.074179227e-11
3.580681753e-11
3.186845238e-11
5.887149231e-11
6.168838348e-11
6.353286909e-11
6.315688085e-11
6.046850944e-11
5.614508574e-11
5.09786149e-11
4.566625448e-11
4.129914211e-11
7.157073817e-11
7.422343407e-11
7.590452194e-11
7.549803764e-11
7.292205689e-11
6.87241334e-11
6.355645678e-11
5.803733567e-11
5.331224705e-11
8.460222273e-11
8.7355147e-11
8.929156385e-11
8.933848125e-11
8.732943937e-11
8.36531905e-11
7.881549077e-11
7.333428081e-11
6.837291358e-11
9.801271787e-11
1.01190698e-10
1.038264025e-10
1.048108848e-10
1.038432205e-10
1.011392162e-10
9.704102737e-11
9.19245669e-11
8.690768755e-11
1.119297294e-10
1.158406728e-10
1.195845129e-10
1.219660815e-10
1.225266988e-10
1.212951409e-10
1.184212652e-10
1.14078786e-10
1.092497945e-10
1.264427664e-10
1.313428624e-10
1.365483633e-10
1.40754185e-10
1.433316883e-10
1.441084863e-10
1.430049984e-10
1.399182454e-10
1.355803937e-10
1.415451412e-10
1.476375513e-10
1.546016003e-10
1.610174557e-10
1.660851066e-10
1.694183756e-10
1.706673594e-10
1.6936977e-10
1.658759586e-10
1.571407574e-10
1.64576896e-10
1.735367996e-10
1.824954529e-10
1.904887379e-10
1.969077119e-10
2.010925685e-10
2.021386011e-10
1.998738056e-10
1.730634137e-10
1.819450702e-10
1.930754125e-10
2.048435876e-10
2.161355419e-10
2.261157976e-10
2.337810699e-10
2.377088096e-10
2.370665235e-10
1.891064268e-10
1.994880107e-10
2.128980933e-10
2.276647941e-10
2.425430669e-10
2.56472977e-10
2.680840254e-10
2.75375729e-10
2.76731e-10
2.050574627e-10
2.169490665e-10
2.32682512e-10
2.505512568e-10
2.692005503e-10
2.873537172e-10
3.032617321e-10
3.143074686e-10
3.179897807e-10
2.207345404e-10
2.341063385e-10
2.521437582e-10
2.731301802e-10
2.956223695e-10
3.181394324e-10
3.38556085e-10
3.536249247e-10
3.598941704e-10
2.360184934e-10
2.508063144e-10
2.710708428e-10
2.951056261e-10
3.213980513e-10
3.482791842e-10
3.732631367e-10
3.924847962e-10
4.015131345e-10
2.508766454e-10
2.669879466e-10
2.89352521e-10
3.162883818e-10
3.462291485e-10
3.77336523e-10
4.067917806e-10
4.301496269e-10
4.420111471e-10
2.653729987e-10
2.826922246e-10
3.069871022e-10
3.366079462e-10
3.699462343e-10
4.050146566e-10
4.386996782e-10
4.660353408e-10
4.806984157e-10
2.796620685e-10
2.980545759e-10
3.240738424e-10
3.561044862e-10
3.925041015e-10
4.311584155e-10
4.687057288e-10
4.997354595e-10
5.170835149e-10
2.939663753e-10
3.132806317e-10
3.407871342e-10
3.749026914e-10
4.139578859e-10
4.557376618e-10
4.966923609e-10
5.310645957e-10
5.509746865e-10
3.085409162e-10
3.28609323e-10
3.573381946e-10
3.931726054e-10
4.344241869e-10
4.788112289e-10
5.226814257e-10
5.601316807e-10
5.830256158e-10
3.236309308e-10
3.442702858e-10
3.739321423e-10
4.110862581e-10
4.540358196e-10
5.004723016e-10
5.467272785e-10
5.869422796e-10
6.126017902e-10
3.394309296e-10
3.604440609e-10
3.907301839e-10
4.287834904e-10
4.729168623e-10
5.208442841e-10
5.690399644e-10
6.120531343e-10
6.39694133e-10
3.560524023e-10
3.772319792e-10
4.078222644e-10
4.463466213e-10
4.911527128e-10
5.40061619e-10
5.898976169e-10
6.350332384e-10
6.641433226e-10
3.735058379e-10
3.946412537e-10
4.25217325e-10
4.63801226e-10
5.088112763e-10
5.582887501e-10
6.096283371e-10
6.558767533e-10
6.859198093e-10
3.916994559e-10
4.125864461e-10
4.428499917e-10
4.811257785e-10
5.26011187e-10
5.760428394e-10
6.279171301e-10
6.745170756e-10
7.050185425e-10
4.104558335e-10
4.309066386e-10
4.605912268e-10
4.982805346e-10
5.42901999e-10
5.930988217e-10
6.446398286e-10
6.90936271e-10
7.214700214e-10
4.295299974e-10
4.493946497e-10
4.783170735e-10
5.152952251e-10
5.597923991e-10
6.091966281e-10
6.597073258e-10
7.051437116e-10
7.353324782e-10
4.486884369e-10
4.679001146e-10
4.960638053e-10
5.327166918e-10
5.761768053e-10
6.241221142e-10
6.730562421e-10
7.171693607e-10
7.466863573e-10
4.678293741e-10
4.865374685e-10
5.142940322e-10
5.498636619e-10
5.917081983e-10
6.377170495e-10
6.846496931e-10
7.270619537e-10
7.556308643e-10
4.87384092e-10
5.05617621e-10
5.323171453e-10
5.663076129e-10
6.061453026e-10
6.498699563e-10
6.944755333e-10
7.348872656e-10
7.622808646e-10
5.069705634e-10
5.243260944e-10
5.496296487e-10
5.817472735e-10
6.193149086e-10
6.605064727e-10
7.025436916e-10
7.407259483e-10
7.66763679e-10
5.258800021e-10
5.421805408e-10
5.65904728e-10
5.959708002e-10
6.31095129e-10
6.695835774e-10
7.088837242e-10
7.446711406e-10
7.69215834e-10
5.437181445e-10
5.588777506e-10
5.80921779e-10
6.088306142e-10
6.41405484e-10
6.770854838e-10
7.135423785e-10
7.468259417e-10
7.697799003e-10
5.602406635e-10
5.742182015e-10
5.945311095e-10
6.202283503e-10
6.502001555e-10
6.830201005e-10
7.165810357e-10
7.473008522e-10
7.686015485e-10
5.752892193e-10
5.880703798e-10
6.066352714e-10
6.301053416e-10
6.574627414e-10
6.874156453e-10
7.180730657e-10
7.462113027e-10
7.658269284e-10
5.887636875e-10
6.003526957e-10
6.171780084e-10
6.384357887e-10
6.63201708e-10
6.903173293e-10
7.181012035e-10
7.436753756e-10
7.616004354e-10
6.006078579e-10
6.110227989e-10
6.261366105e-10
6.452212155e-10
6.674462266e-10
6.917841532e-10
7.167550568e-10
7.398117936e-10
7.560628876e-10
6.108003998e-10
6.20070067e-10
6.335158736e-10
6.504856398e-10
6.702423267e-10
6.918859002e-10
7.141288292e-10
7.347382103e-10
7.493501054e-10
6.193481214e-10
6.27509627e-10
6.393429673e-10
6.542712652e-10
6.7164938e-10
6.907003941e-10
7.103193113e-10
7.285698091e-10
7.415918584e-10
6.262804578e-10
6.333773046e-10
6.436629611e-10
6.56634647e-10
6.717369524e-10
6.883110675e-10
7.054241575e-10
7.214181959e-10
7.329111358e-10
6.316447945e-10
6.377252747e-10
6.465349186e-10
6.576433199e-10
6.705820375e-10
6.84804855e-10
6.995404487e-10
7.133905568e-10
7.234236882e-10
6.355024671e-10
6.406183165e-10
6.480285176e-10
6.573728764e-10
6.68266674e-10
6.802704074e-10
6.927635217e-10
7.045890477e-10
7.132377916e-10
6.379253471e-10
6.421306091e-10
6.482211537e-10
6.559044695e-10
6.648759246e-10
6.74796605e-10
6.851860396e-10
6.951103791e-10
7.024541861e-10
6.389929471e-10
6.423430137e-10
6.47195489e-10
6.53322708e-10
6.604961905e-10
6.684713453e-10
6.768972748e-10
6.850455624e-10
6.911661488e-10
6.387899843e-10
6.413407898e-10
6.450373964e-10
6.49713904e-10
6.552138253e-10
6.613805704e-10
6.67982573e-10
6.744797861e-10
6.794596666e-10
6.374043464e-10
6.392116915e-10
6.418342562e-10
6.451646319e-10
6.49114012e-10
6.536075048e-10
6.58522971e-10
6.634923953e-10
6.674136803e-10
6.349254059e-10
6.360443968e-10
6.376735577e-10
6.397605584e-10
6.422798693e-10
6.452320722e-10
6.485949418e-10
6.521569514e-10
6.551003771e-10
6.314426358e-10
6.319272226e-10
6.326417652e-10
6.335855066e-10
6.347917526e-10
6.363304638e-10
6.382702444e-10
6.405413523e-10
6.425855146e-10
6.270444839e-10
6.269470859e-10
6.268234107e-10
6.267207189e-10
6.267267215e-10
6.269748336e-10
6.276158595e-10
6.287079997e-10
6.299287632e-10
6.218174673e-10
6.211886755e-10
6.203003784e-10
6.192442895e-10
6.181581471e-10
6.172330999e-10
6.166939935e-10
6.167139985e-10
6.171840549e-10
6.158454558e-10
6.147338011e-10
6.131513538e-10
6.112307409e-10
6.09155437e-10
6.071688337e-10
6.055621376e-10
6.046113808e-10
6.043999352e-10
6.092091152e-10
6.076608954e-10
6.054514113e-10
6.02750719e-10
5.997838573e-10
5.968412193e-10
5.942731713e-10
5.924473467e-10
5.916199089e-10
6.019854861e-10
6.000446438e-10
5.972717176e-10
5.938707913e-10
5.901044375e-10
5.863050735e-10
5.828754994e-10
5.802645138e-10
5.78882779e-10
5.942476798e-10
5.91955724e-10
5.88679335e-10
5.846533276e-10
5.801739407e-10
5.75610912e-10
5.714132152e-10
5.681011744e-10
5.662229758e-10
5.860646704e-10
5.834606359e-10
5.797371059e-10
5.751564525e-10
5.70044891e-10
5.648050544e-10
5.599262846e-10
5.559915529e-10
5.536708735e-10
5.775011708e-10
5.746216106e-10
5.705036072e-10
5.654340545e-10
5.597656438e-10
5.539297589e-10
5.484507434e-10
5.439660638e-10
5.412530951e-10
5.686175784e-10
5.654965827e-10
5.610331615e-10
5.555358438e-10
5.49380494e-10
5.43023381e-10
5.370189056e-10
5.320515654e-10
5.28992803e-10
5.594699784e-10
5.561392175e-10
5.513758957e-10
5.455074485e-10
5.389298116e-10
5.321205485e-10
5.256595768e-10
5.202716095e-10
5.169099772e-10
5.501101971e-10
5.46598982e-10
5.415778384e-10
5.353905416e-10
5.284502002e-10
5.21252351e-10
5.143982714e-10
5.08646684e-10
5.05021679e-10
5.405858933e-10
5.369212524e-10
5.316810474e-10
5.252229918e-10
5.179746718e-10
5.104465365e-10
5.032574296e-10
4.97194448e-10
4.933423008e-10
5.309406832e-10
5.271474505e-10
5.217237621e-10
5.150390338e-10
5.075328339e-10
4.997277134e-10
4.922566326e-10
4.859299584e-10
4.818838032e-10
5.212142903e-10
5.173152026e-10
5.11740574e-10
5.048694512e-10
4.971510834e-10
4.891175546e-10
4.814128134e-10
4.748658871e-10
4.706559373e-10
5.114427148e-10
5.074585154e-10
5.017626111e-10
4.947417682e-10
4.868528058e-10
4.786350004e-10
4.707404623e-10
4.640127279e-10
4.596664543e-10
5.016584175e-10
4.97607964e-10
4.918177301e-10
4.846804474e-10
4.766585752e-10
4.682964594e-10
4.602518261e-10
4.533789935e-10
4.489213019e-10
4.918905139e-10
4.877908882e-10
4.819307154e-10
4.747070889e-10
4.665863528e-10
4.581160035e-10
4.499570989e-10
4.429714014e-10
4.384248076e-10
4.821649732e-10
4.780315926e-10
4.721234792e-10
4.648406298e-10
4.566516826e-10
4.481055583e-10
4.398646044e-10
4.327950494e-10
4.281798494e-10
4.725048215e-10
4.683515481e-10
4.624152614e-10
4.550975395e-10
4.468678817e-10
4.382750853e-10
4.299809691e-10
4.228535795e-10
4.181880146e-10
4.629303434e-10
4.587695927e-10
4.52822826e-10
4.454920122e-10
4.372462241e-10
4.286327561e-10
4.203112865e-10
4.131493318e-10
4.084497466e-10
4.534592816e-10
4.493021275e-10
4.433606536e-10
4.360361512e-10
4.277961173e-10
4.191851186e-10
4.108592704e-10
4.036834872e-10
3.989644802e-10
4.441070324e-10
4.399633088e-10
4.340411272e-10
4.267401479e-10
4.185252707e-10
4.099372535e-10
4.016273992e-10
3.944561998e-10
3.897307663e-10
4.348868339e-10
4.307652324e-10
4.248747106e-10
4.176124513e-10
4.094398547e-10
4.008929209e-10
3.926170502e-10
3.854667193e-10
3.807463861e-10
4.258099481e-10
4.217181112e-10
4.158701185e-10
4.086599291e-10
4.005446509e-10
3.920546986e-10
3.838286243e-10
3.767135034e-10
3.720084552e-10
4.168858343e-10
4.128304433e-10
4.070344786e-10
3.998880203e-10
3.918431932e-10
3.834241102e-10
3.752616607e-10
3.681943208e-10
3.635135189e-10
4.081223135e-10
4.041091721e-10
3.983734829e-10
3.913008771e-10
3.833378984e-10
3.75001743e-10
3.669149428e-10
3.599063457e-10
3.552576382e-10
3.99525724e-10
3.955598364e-10
3.898915317e-10
3.829014998e-10
3.750301902e-10
3.667873599e-10
3.587865963e-10
3.518462436e-10
3.472364677e-10
3.911010672e-10
3.871867114e-10
3.815918662e-10
3.746918594e-10
3.669206113e-10
3.5878e-10
3.50874179e-10
3.4401025e-10
3.394453271e-10
3.828521445e-10
3.789929408e-10
3.734766941e-10
3.666730143e-10
3.590089274e-10
3.509780702e-10
3.431747596e-10
3.363942402e-10
3.318792635e-10
3.747816808e-10
3.709806556e-10
3.65547302e-10
3.588452144e-10
3.512942237e-10
3.433794306e-10
3.356849922e-10
3.289937919e-10
3.245331077e-10
3.668914433e-10
3.631510874e-10
3.578041601e-10
3.512079965e-10
3.437749888e-10
3.359814688e-10
3.284011809e-10
3.218042418e-10
3.174015236e-10
3.591823499e-10
3.555046729e-10
3.502470216e-10
3.437602759e-10
3.364491981e-10
3.287811727e-10
3.213193413e-10
3.148207373e-10
3.10479054e-10
3.5165457e-10
3.480411506e-10
3.428750124e-10
3.365004282e-10
3.293143854e-10
3.217751924e-10
3.144352541e-10
3.080382813e-10
3.037601599e-10
3.443076147e-10
3.407596461e-10
3.356867113e-10
3.294263623e-10
3.223677085e-10
3.149598974e-10
3.077445122e-10
3.014517726e-10
2.972392549e-10
3.3714042e-10
3.336587523e-10
3.286802241e-10
3.225355876e-10
3.156060085e-10
3.083314272e-10
3.012425643e-10
2.950560411e-10
2.909107361e-10
3.301514224e-10
3.26736601e-10
3.218532502e-10
3.158252746e-10
3.09025863e-10
3.018857368e-10
2.949247523e-10
2.88845879e-10
2.847690103e-10
3.23338628e-10
3.199909287e-10
3.152031435e-10
3.092923092e-10
3.026236335e-10
2.956186376e-10
2.88786345e-10
2.828160681e-10
2.788085166e-10
3.166996741e-10
3.134191351e-10
3.087269668e-10
3.029333419e-10
2.963955087e-10
2.895258333e-10
2.828225677e-10
2.769614033e-10
2.730237468e-10
3.10231886e-10
3.070183367e-10
3.024215408e-10
2.967448314e-10
2.903375421e-10
2.836029516e-10
2.770286277e-10
2.712767131e-10
2.674092615e-10
3.039323269e-10
3.007854144e-10
2.962834876e-10
2.907230841e-10
2.844456857e-10
2.778455725e-10
2.713997369e-10
2.657568772e-10
2.619597047e-10
2.977978435e-10
2.947170563e-10
2.903092706e-10
2.848642883e-10
2.787158201e-10
2.722492527e-10
2.659311316e-10
2.603968415e-10
2.566698154e-10
2.918251062e-10
2.888097955e-10
2.844952288e-10
2.791645454e-10
2.731437804e-10
2.668095473e-10
2.606180886e-10
2.551916306e-10
2.515344375e-10
2.860106453e-10
2.830600447e-10
2.788376076e-10
2.736198969e-10
2.677253794e-10
2.61522028e-10
2.554559404e-10
2.501363584e-10
2.46548528e-10
2.803508828e-10
2.774641254e-10
2.733325866e-10
2.682263485e-10
2.624564278e-10
2.563822998e-10
2.504400868e-10
2.452262368e-10
2.417071626e-10
2.74842161e-10
2.720182951e-10
2.67976303e-10
2.629798906e-10
2.573327511e-10
2.51386014e-10
2.455660049e-10
2.404565829e-10
2.370055415e-10
2.694807674e-10
2.667187705e-10
2.627648732e-10
2.578765168e-10
2.523502052e-10
2.465288808e-10
2.408292582e-10
2.358228243e-10
2.324389924e-10
2.642629565e-10
2.615617478e-10
2.576944108e-10
2.529122398e-10
2.47504689e-10
2.418066782e-10
2.362255031e-10
2.313205034e-10
2.280029732e-10
2.591849694e-10
2.565434206e-10
2.527610426e-10
2.480831045e-10
2.427921555e-10
2.37215261e-10
2.317504943e-10
2.269452809e-10
2.236930734e-10
2.542430499e-10
2.516599958e-10
2.479609225e-10
2.433852002e-10
2.382086208e-10
2.327505671e-10
2.274000896e-10
2.226929377e-10
2.19505015e-10
2.494334597e-10
2.469077064e-10
2.432902432e-10
2.3881467e-10
2.337501721e-10
2.284086231e-10
2.231702527e-10
2.185593762e-10
2.154346526e-10
2.447524905e-10
2.422828232e-10
2.387452463e-10
2.343677195e-10
2.294129738e-10
2.241855486e-10
2.190570557e-10
2.145406209e-10
2.114779722e-10
2.401964748e-10
2.37781665e-10
2.343222307e-10
2.300406234e-10
2.251932728e-10
2.200775596e-10
2.150566806e-10
2.106328186e-10
2.076310906e-10
2.357617948e-10
2.334006061e-10
2.300175598e-10
2.258297314e-10
2.210874025e-10
2.160809707e-10
2.111654201e-10
2.068322372e-10
2.038902537e-10
2.314448906e-10
2.291360839e-10
2.258276672e-10
2.217314724e-10
2.170917862e-10
2.12192197e-10
2.073796778e-10
2.031352654e-10
2.002518342e-10
2.272422656e-10
2.249846042e-10
2.217490616e-10
2.177423586e-10
2.132029388e-10
2.084077546e-10
2.03695968e-10
1.995384103e-10
1.967123298e-10
2.231504928e-10
2.209427456e-10
2.177783305e-10
2.138589876e-10
2.094174687e-10
2.047242615e-10
2.001109144e-10
1.960382962e-10
1.932683601e-10
2.191662177e-10
2.170071637e-10
2.139121427e-10
2.100780447e-10
2.057320788e-10
2.011384371e-10
1.966212492e-10
1.926316624e-10
1.899166645e-10
2.152861625e-10
2.131745928e-10
2.101472506e-10
2.063963038e-10
2.021435663e-10
1.976471012e-10
1.932238116e-10
1.893153602e-10
1.866540986e-10
2.115071273e-10
2.094418483e-10
2.064804908e-10
2.028106275e-10
1.986488221e-10
1.942471728e-10
1.899155448e-10
1.860863504e-10
1.834776307e-10
2.078259919e-10
2.058058272e-10
2.029087847e-10
1.993179668e-10
1.952448298e-10
1.909356678e-10
1.86693494e-10
1.829416999e-10
1.803843387e-10
2.042397152e-10
2.022635074e-10
1.994291372e-10
1.959153593e-10
1.919286628e-10
1.877096961e-10
1.835548017e-10
1.798785767e-10
1.773714045e-10
2.007453345e-10
1.988119462e-10
1.960386343e-10
1.925999259e-10
1.886974809e-10
1.845664565e-10
1.804967029e-10
1.768942443e-10
1.744361078e-10
1.973399622e-10
1.954482772e-10
1.927344393e-10
1.893688666e-10
1.855485242e-10
1.815032302e-10
1.775165173e-10
1.739860537e-10
1.71575818e-10
1.940207808e-10
1.921697042e-10
1.895137863e-10
1.862194519e-10
1.824791044e-10
1.785173713e-10
1.746116383e-10
1.711514309e-10
1.687879814e-10
1.907850355e-10
1.889734931e-10
1.863739707e-10
1.831490138e-10
1.794865931e-10
1.756062922e-10
1.717795174e-10
1.683878601e-10
1.660701032e-10
1.876300227e-10
1.858569598e-10
1.833123357e-10
1.801549283e-10
1.765684032e-10
1.727674433e-10
1.690176411e-10
1.656928593e-10
1.634197218e-10
1.84553074e-10
1.828174523e-10
1.803262525e-10
1.772345941e-10
1.737219635e-10
1.699982846e-10
1.663234994e-10
1.630639448e-10
1.608343716e-10
1.815515335e-10
1.798523266e-10
1.774130931e-10
1.743854022e-10
1.709446847e-10
1.672962464e-10
1.636945412e-10
1.604985823e-10
1.583115313e-10
1.786227277e-10
1.769589141e-10
1.745701947e-10
1.716046947e-10
1.682339125e-10
1.646586759e-10
1.611281142e-10
1.579941208e-10
1.558485525e-10
1.757639258e-10
1.741344789e-10
1.717948119e-10
1.688897116e-10
1.655868662e-10
1.620827672e-10
1.586213858e-10
1.555477046e-10
1.534425663e-10
1.729722885e-10
1.713761622e-10
1.690840556e-10
1.662375212e-10
1.630005602e-10
1.595654717e-10
1.561712414e-10
1.531561603e-10
1.51090362e-10
1.702448034e-10
1.686809138e-10
1.664348166e-10
1.636449346e-10
1.604717062e-10
1.571033866e-10
1.537741584e-10
1.508158567e-10
1.487882366e-10
1.675782055e-10
1.66045406e-10
1.638436715e-10
1.611084e-10
1.579965937e-10
1.546926196e-10
1.514260532e-10
1.485225351e-10
1.46531813e-10
1.649688824e-10
1.634659326e-10
1.613067719e-10
1.586238787e-10
1.5557095e-10
1.523286298e-10
1.491221031e-10
1.462711122e-10
1.443158285e-10
1.624127618e-10
1.609382899e-10
1.588197138e-10
1.56186701e-10
1.53189779e-10
1.500060479e-10
1.468565443e-10
1.440554569e-10
1.421338964e-10
1.599051847e-10
1.58457641e-10
1.563773926e-10
1.537914059e-10
1.508471836e-10
1.477184774e-10
1.446224524e-10
1.418681511e-10
1.39978251e-10
1.574407638e-10
1.560183681e-10
1.539738421e-10
1.514315679e-10
1.48536176e-10
1.454582871e-10
1.424115142e-10
1.397002414e-10
1.378394854e-10
1.550132339e-10
1.536139155e-10
1.516020699e-10
1.490996165e-10
1.462484817e-10
1.432163998e-10
1.402138027e-10
1.375409987e-10
1.357062992e-10
1.526152945e-10
1.512366278e-10
1.492538869e-10
1.467866606e-10
1.43974355e-10
1.409820956e-10
1.380175675e-10
1.353777028e-10
1.335652774e-10
1.502384561e-10
1.488775922e-10
1.469197469e-10
1.444823223e-10
1.417024099e-10
1.387428439e-10
1.358090685e-10
1.331954734e-10
1.314007232e-10
1.478728962e-10
1.46526496e-10
1.445886045e-10
1.42174599e-10
1.394194882e-10
1.364841792e-10
1.335724649e-10
1.309771757e-10
1.291945739e-10
1.455073379e-10
1.441715083e-10
1.422478055e-10
1.39849765e-10
1.371105788e-10
1.341896454e-10
1.312897875e-10
1.287034232e-10
1.269264281e-10
1.431289611e-10
1.41799202e-10
1.398830236e-10
1.374923324e-10
1.347588101e-10
1.318408277e-10
1.289410191e-10
1.263527075e-10
1.245737149e-10
1.407233618e-10
1.393945276e-10
1.374782599e-10
1.350850855e-10
1.323455317e-10
1.294174943e-10
1.265043052e-10
1.23901681e-10
1.221120321e-10
1.382745719e-10
1.369408559e-10
1.350159206e-10
1.326092078e-10
1.298505068e-10
1.268978687e-10
1.239563183e-10
1.213256153e-10
1.195156784e-10
1.35765155e-10
1.34420103e-10
1.324769876e-10
1.300445177e-10
1.272522303e-10
1.242590493e-10
1.212727933e-10
1.185990542e-10
1.167583969e-10
1.331763915e-10
1.318129526e-10
1.298412986e-10
1.27369826e-10
1.245283876e-10
1.214775899e-10
1.184292447e-10
1.15696669e-10
1.138143374e-10
1.304885658e-10
1.290991863e-10
1.270879452e-10
1.245634273e-10
1.216564629e-10
1.185302476e-10
1.154018698e-10
1.125943166e-10
1.106592312e-10
1.276813648e-10
1.262581339e-10
1.241958e-10