/*--------------------------------*- C++ -*----------------------------------*\
| =========                 |                                                 |
| \\      /  F ield         | OpenFOAM: The Open Source CFD Toolbox           |
|  \\    /   O peration     | Version:  2212                                  |
|   \\  /    A nd           | Website:  www.openfoam.com                      |
|    \\/     M anipulation  |                                                 |
\*---------------------------------------------------------------------------*/
FoamFile
{
    version     2.0;
    format      ascii;
    arch        "LSB;label=32;scalar=64";
    class       volScalarField;
    location    "20.00000000";
    object      CH4_0;
}
// * * * * * * * * * * * * * * * * * * * * * * * * * * * * * * * * * * * * * //

dimensions      [0 0 0 0 0 0 0];

internalField   nonuniform List<scalar> 
3000
(
0.0004199879352
0.0004199879352
0.0004199879352
0.0004199879352
0.0004199879352
0.0004199879352
0.0004199879352
0.0004199879352
0.0004199879352
0.0004199879352
0.0004199879352
0.0004199879352
0.0004199879352
0.0004199879352
0.0004199879352
0.0004199879352
0.0004199879352
0.0004199879352
0.0004199879352
0.0004199879352
0.0004199879352
0.0004199879352
0.0004199879352
0.0004199879352
0.0004199879352
0.0004199879352
0.0004199879352
0.0004199879352
0.0004199879352
0.0004199879352
0.0004199879352
0.0004199879352
0.0004199879352
0.0004199879352
0.0004199879352
0.0004199879352
0.0004199879352
0.0004199879352
0.0004199879352
0.0004199879352
0.0004199879352
0.0004199879352
0.0004199879352
0.0004199879352
0.0004199879352
0.0004199879352
0.0004199879352
0.0004199879352
0.0004199879352
0.0004199879352
0.0004199879352
0.0004199879352
0.0004199879352
0.0004199879352
0.0004199879352
0.0004199879352
0.0004199879352
0.0004199879352
0.0004199879352
0.0004199879352
0.0004199879352
0.0004199879352
0.0004199879352
0.0004199879352
0.0004199879352
0.0004199879352
0.0004199879352
0.0004199879352
0.0004199879352
0.0004199879352
0.0004199879352
0.0004199879352
0.0004199879352
0.0004199879352
0.0004199879352
0.0004199879352
0.0004199879352
0.0004199879352
0.0004199879352
0.0004199879352
0.0004199879352
0.0004199879352
0.0004199879352
0.0004199879352
0.0004199879352
0.0004199879352
0.0004199879352
0.0004199879352
0.0004199879352
0.0004199879352
0.0004199879352
0.0004199879352
0.0004199879352
0.0004199879352
0.0004199879352
0.0004199879352
0.0004199879352
0.0004199879352
0.0004199879352
0.0004199879352
0.0004199879352
0.0004199879352
0.0004199879352
0.0004199879352
0.0004199879352
0.0004199879352
0.0004199879352
0.0004199879352
0.0004199879352
0.0004199879352
0.0004199879352
0.0004199879352
0.0004199879352
0.0004199879352
0.0004199879352
0.0004199879352
0.0004199879352
0.0004199879352
0.0004199879352
0.0004199879352
0.0004199879352
0.0004199879352
0.0004199879352
0.0004199879352
0.0004199879352
0.0004199879352
0.0004199879352
0.0004199879352
0.0004199879352
0.0004199879352
0.0004199879352
0.0004199879352
0.0004199879352
0.0004199879352
0.0004199879352
0.0004199879352
0.0004199879352
0.0004199879352
0.0004199879352
0.0004199879352
0.0004199879352
0.0004199879352
0.0004199879352
0.0004199879352
0.0004199879352
0.0004199879352
0.0004199879352
0.0004199879352
0.0004199879352
0.0004199879352
0.0004199879352
0.0004199879352
0.0004199879352
0.0004199879352
0.0004199879352
0.0004199879352
0.0004199879352
0.0004199879352
0.0004199879352
0.0004199879352
0.0004199879352
0.0004199879352
0.0004199879352
0.0004199879352
0.0004199879352
0.0004199879352
0.0004199879352
0.0004199879352
0.0004199879352
0.0004199879352
0.0004199879352
0.0004199879352
0.0004199879352
0.0004199879352
0.0004199879352
0.0004199879352
0.0004199879352
0.0004199879352
0.0004199879352
0.0004199879352
0.0004199879352
0.0004199879352
0.0004199879352
0.0004199879352
0.0004199879352
0.0004199879352
0.0004199879352
0.0004199879352
0.0004199879352
0.0004199879352
0.0004199879352
0.0004199879352
0.0004199879352
0.0004199879352
0.0004199879352
0.0004199879352
0.0004199879352
0.0004199879352
0.0004199879352
0.0004199879352
0.0004199879352
0.0004199879352
0.0004199879352
0.0004199879352
0.0004199879352
0.0004199879352
0.0004199879352
0.0004199879352
0.0004199879352
0.0004199879352
0.0004199879352
0.0004199879352
0.0004199879352
0.0004199879352
0.0004199879352
0.0004199879352
0.0004199879352
0.0004199879352
0.0004199879352
0.0004199879352
0.0004199879352
0.0004199879352
0.0004199879352
0.0004199879352
0.0004199879352
0.0004199879352
0.0004199879352
0.0004199879352
0.0004199879352
0.0004199879352
0.0004199879352
0.0004199879352
0.0004199879352
0.0004199879352
0.0004199879352
0.0004199879352
0.0004199879352
0.0004199879352
0.0004199879352
0.0004199879352
0.0004199879352
0.0004199879352
0.0004199879352
0.0004199879352
0.0004199879352
0.0004199879352
0.0004199879352
0.0004199879352
0.0004199879352
0.0004199879352
0.0004199879352
0.0004199879352
0.0004199879352
0.0004199879352
0.0004199879352
0.0004199879352
0.0004199879352
0.0004199879352
0.0004199879352
0.0004199879352
0.0004199879352
0.0004199879352
0.0004199879352
0.0004199879352
0.0004199879352
0.0004199879352
0.0004199879352
0.0004199879352
0.0004199879352
0.0004199879352
0.0004199879352
0.0004199879352
0.0004199879352
0.0004199879352
0.0004199879352
0.0004199879352
0.0004199879352
0.0004199879352
0.0004199879352
0.0004199879352
0.0004199879352
0.0004199879352
0.0004199879352
0.0004199879352
0.0004199879352
0.0004199879352
0.0004199879352
0.0004199879352
0.0004199879352
0.0004199879352
0.0004199879352
0.0004199879352
0.0004199879352
0.0004199879352
0.0004199879352
0.0004199879352
0.0004199879352
0.0004199879352
0.0004199879352
0.0004199879352
0.0004199879352
0.0004199879352
0.0004199879352
0.0004199879352
0.0004199879352
0.0004199879352
0.0004199879352
0.0004199879352
0.0004199879352
0.0004199879352
0.0004199879352
0.0004199879352
0.0004199879352
0.0004199879352
0.0004199879352
0.0004199879352
0.0004199879352
0.0004199879352
0.0004199879352
0.0004199879352
0.0004199879352
0.0004199879352
0.0004199879352
0.0004199879352
0.0004199879352
0.0004199879352
0.0004199879352
0.0004199879352
0.0004199879352
0.0004199879352
0.0004199879352
0.0004199879352
0.0004199879352
0.0004199879352
0.0004199879352
0.0004199879352
0.0004199879352
0.0004199879352
0.0004199879352
0.0004199879352
0.0004199879352
0.0004199879352
0.0004199879352
0.0004199879352
0.0004199879352
0.0004199879352
0.0004199879352
0.0004199879352
0.0004199879352
0.0004199879352
0.0004199879352
0.0004199879352
0.0004199879352
0.0004199879352
0.0004199879352
0.0004199879352
0.0004199879352
0.0004199879352
0.0004199879352
0.0004199879352
0.0004199879352
0.0004199879352
0.0004199879352
0.0004199879352
0.0004199879352
0.0004199879352
0.0004199879352
0.0004199879352
0.0004199879352
0.0004199879352
0.0004199879352
0.0004199879352
0.0004199879352
0.0004199879352
0.0004199879352
0.0004199879352
0.0004199879352
0.0004199879352
0.0004199879352
0.0004199879352
0.0004199879352
0.0004199879352
0.0004199879352
0.0004199879352
0.0004199879352
0.0004199879352
0.0004199879352
0.0004199879352
0.0004199879352
0.0004199879352
0.0004199879352
0.0004199879352
0.0004199879352
0.0004199879352
0.0004199879352
0.0004199879352
0.0004199879352
0.0004199879352
0.0004199879352
0.0004199879352
0.0004199879352
0.0004199879352
0.0004199879352
0.0004199879352
0.0004199879352
0.0004199879352
0.0004199879352
0.0004199879352
0.0004199879352
0.0004199879352
0.0004199879352
0.0004199879352
0.0004199879353
0.0004199879353
0.0004199879352
0.0004199879352
0.0004199879352
0.0004199879352
0.0004199879352
0.0004199879353
0.0004199879353
0.0004199879353
0.0004199879353
0.0004199879352
0.0004199879352
0.0004199879352
0.0004199879352
0.0004199879353
0.0004199879353
0.0004199879354
0.0004199879354
0.0004199879354
0.0004199879352
0.0004199879352
0.0004199879353
0.0004199879353
0.0004199879353
0.0004199879354
0.0004199879355
0.0004199879356
0.0004199879356
0.0004199879352
0.0004199879353
0.0004199879353
0.0004199879354
0.0004199879355
0.0004199879356
0.0004199879357
0.0004199879358
0.0004199879359
0.0004199879353
0.0004199879353
0.0004199879354
0.0004199879355
0.0004199879357
0.0004199879359
0.0004199879361
0.0004199879363
0.0004199879364
0.0004199879354
0.0004199879354
0.0004199879356
0.0004199879357
0.000419987936
0.0004199879364
0.0004199879368
0.0004199879371
0.0004199879374
0.0004199879355
0.0004199879356
0.0004199879358
0.0004199879362
0.0004199879367
0.0004199879373
0.0004199879379
0.0004199879386
0.000419987939
0.0004199879357
0.000419987936
0.0004199879363
0.0004199879369
0.0004199879378
0.0004199879388
0.00041998794
0.000419987941
0.0004199879417
0.0004199879362
0.0004199879366
0.0004199879372
0.0004199879383
0.0004199879397
0.0004199879415
0.0004199879434
0.0004199879452
0.0004199879464
0.0004199879369
0.0004199879376
0.0004199879388
0.0004199879406
0.0004199879431
0.0004199879461
0.0004199879494
0.0004199879524
0.0004199879544
0.0004199879383
0.0004199879395
0.0004199879416
0.0004199879446
0.0004199879488
0.0004199879539
0.0004199879594
0.0004199879645
0.0004199879678
0.0004199879408
0.0004199879428
0.0004199879463
0.0004199879515
0.0004199879584
0.000419987967
0.0004199879763
0.0004199879848
0.0004199879904
0.000419987945
0.0004199879485
0.0004199879544
0.000419987963
0.0004199879746
0.0004199879889
0.0004199880043
0.0004199880185
0.0004199880276
0.0004199879523
0.0004199879582
0.000419987968
0.0004199879824
0.0004199880016
0.000419988025
0.0004199880505
0.0004199880737
0.0004199880886
0.0004199879648
0.0004199879746
0.0004199879908
0.0004199880145
0.000419988046
0.0004199880843
0.0004199881257
0.0004199881633
0.0004199881874
0.0004199879859
0.0004199880021
0.0004199880286
0.0004199880672
0.0004199881184
0.0004199881803
0.0004199882468
0.000419988307
0.0004199883455
0.0004199880212
0.0004199880475
0.0004199880906
0.0004199881529
0.0004199882352
0.0004199883342
0.0004199884401
0.0004199885353
0.0004199885959
0.0004199880795
0.000419988122
0.0004199881912
0.0004199882909
0.0004199884219
0.0004199885784
0.0004199887448
0.0004199888939
0.0004199889886
0.000419988175
0.0004199882429
0.0004199883532
0.0004199885109
0.0004199887169
0.0004199889616
0.0004199892204
0.0004199894514
0.0004199895979
0.0004199883298
0.0004199884372
0.0004199886108
0.0004199888576
0.0004199891778
0.0004199895559
0.0004199899541
0.0004199903086
0.0004199905331
0.0004199885779
0.0004199887459
0.0004199890158
0.0004199893974
0.0004199898892
0.000419990467
0.0004199910734
0.0004199916119
0.0004199919527
0.0004199889707
0.0004199892302
0.0004199896448
0.0004199902272
0.0004199909738
0.000419991847
0.0004199927604
0.0004199935702
0.0004199940822
0.0004199895843
0.0004199899797
0.0004199906082
0.0004199914862
0.000419992606
0.0004199939106
0.0004199952715
0.000419996476
0.0004199972371
0.0004199905288
0.0004199911231
0.0004199920633
0.0004199933702
0.0004199950295
0.0004199969557
0.0004199989599
0.0004200007309
0.0004200018491
0.00041999196
0.0004199928411
0.000419994229
0.0004199961495
0.0004199985775
0.0004200013866
0.000420004302
0.0004200068742
0.000420008497
0.0004199940946
0.000419995383
0.0004199974043
0.0004200001893
0.0004200036962
0.00042000774
0.0004200119263
0.0004200156136
0.0004200179379
0.0004199972275
0.0004199990851
0.0004200019888
0.0004200059728
0.0004200109699
0.0004200167125
0.000420022642
0.0004200278553
0.000420031138
0.0004200017515
0.000420004392
0.0004200085046
0.0004200141244
0.0004200211454
0.000420029186
0.0004200374652
0.0004200447299
0.0004200492985
0.0004200081785
0.0004200118778
0.000420017619
0.0004200254325
0.0004200351549
0.0004200462497
0.0004200576401
0.0004200676124
0.0004200738738
0.0004200171609
0.0004200222674
0.000420030165
0.0004200408694
0.0004200541349
0.0004200692164
0.0004200846514
0.0004200981314
0.0004201065793
0.0004200295112
0.0004200364561
0.0004200471593
0.0004200616072
0.0004200794375
0.0004200996306
0.0004201202281
0.0004201381675
0.0004201493859
0.0004200462204
0.0004200555254
0.0004200698162
0.0004200890278
0.0004201126367
0.0004201392677
0.0004201663361
0.0004201898412
0.0004202045049
0.0004200684716
0.0004200807555
0.0004200995564
0.0004201247272
0.0004201555267
0.0004201901262
0.0004202251639
0.0004202554925
0.000420274363
0.0004200976509
0.0004201136331
0.0004201380111
0.000420170515
0.0004202101155
0.0004202544152
0.0004202991035
0.0004203376554
0.0004203615748
0.0004201353548
0.0004201558568
0.0004201870242
0.0004202284113
0.000420278616
0.0004203345391
0.0004203907298
0.0004204390349
0.0004204689167
0.0004201833958
0.00042020934
0.0004202486512
0.0004203006425
0.0004203634382
0.0004204330863
0.0004205027858
0.0004205624883
0.0004205993078
0.0004202438068
0.0004202762139
0.0004203251603
0.0004203896391
0.0004204671837
0.0004205528208
0.0004206381732
0.0004207110162
0.0004207558003
0.000420318847
0.000420358832
0.0004204190355
0.000420498037
0.0004205926459
0.0004206966825
0.0004207999519
0.0004208877629
0.0004209415821
0.0004204110097
0.000420459777
0.0004205329818
0.0004206286821
0.0004207428142
0.0004208677914
0.0004209913476
0.0004210960265
0.0004211599882
0.000420523031
0.0004205818689
0.0004206699327
0.0004207846373
0.0004209208807
0.0004210694554
0.0004212157605
0.0004213392729
0.0004214145206
0.0004206578995
0.0004207281733
0.0004208330576
0.0004209691873
0.000421130244
0.0004213051726
0.0004214767687
0.0004216211397
0.0004217088596
0.0004208188632
0.0004209020075
0.0004210257646
0.0004211858396
0.0004213745048
0.0004215786208
0.0004217781037
0.000421945387
0.0004220467647
0.0004210094319
0.00042110694
0.0004212516983
0.0004214383182
0.0004216574575
0.0004218936469
0.0004221236439
0.0004223159049
0.0004224321069
0.0004212333722
0.0004213467843
0.0004215147297
0.0004217305499
0.0004219830715
0.0004222542409
0.0004225173738
0.0004227366382
0.0004228688066
0.0004214946944
0.0004216255827
0.0004218189375
0.0004220666423
0.0004223554663
0.0004226645099
0.0004229633614
0.0004232115864
0.0004233608196
0.0004217976298
0.0004219475823
0.0004221685815
0.0004224508559
0.0004227788807
0.0004231286431
0.0004234656944
0.0004237447517
0.0004239120948
0.0004221466
0.0004223172027
0.0004225680688
0.0004228875642
0.0004232576257
0.0004236508434
0.0004240284503
0.0004243401039
0.0004245265367
0.000422546182
0.0004227390008
0.0004230219164
0.0004233812165
0.0004237960439
0.0004242352904
0.0004246556546
0.0004250015407
0.0004252079671
0.0004230010694
0.0004232176308
0.0004235347104
0.0004239362911
0.0004243984278
0.0004248860903
0.0004253512364
0.0004257328465
0.0004259600859
0.000423516031
0.0004237577985
0.0004241110461
0.000424557191
0.0004250689761
0.0004256072313
0.0004261189862
0.0004265376532
0.0004267864331
0.0004240958565
0.0004243641849
0.0004247554194
0.0004252482032
0.0004258117481
0.0004264025405
0.0004269625165
0.0004274194031
0.0004276903537
0.0004247452229
0.0004250413222
0.0004254721756
0.0004260134498
0.0004266306195
0.0004272756437
0.000427885225
0.0004283813156
0.0004286749658
0.0004254686164
0.0004257935575
0.0004262654665
0.0004268568443
0.0004275292413
0.0004282299282
0.0004288902613
0.0004294263564
0.0004297431315
0.0004262703043
0.0004266250129
0.0004271392072
0.0004277820507
0.0004285110025
0.00042926851
0.0004299804976
0.000430557211
0.0004308974318
0.0004271542953
0.0004275395441
0.000428097037
0.0004287924467
0.0004295789972
0.0004303942046
0.0004311585035
0.0004317762624
0.0004321401456
0.0004281242991
0.0004285407017
0.0004291422828
0.000429891091
0.0004307359968
0.0004316095032
0.0004324265255
0.0004330855724
0.0004334732324
0.0004291836892
0.0004296316966
0.0004302779277
0.0004310806964
0.000431984426
0.0004329165533
0.0004337864703
0.0004344868678
0.0004348983194
0.0004303354704
0.0004308153696
0.0004315065846
0.0004323636066
0.0004333263453
0.000434317144
0.0004352398936
0.0004359815303
0.0004364166927
0.0004315822521
0.0004320941674
0.0004328304753
0.0004337417804
0.0004347634374
0.0004358126961
0.0004367879923
0.0004375705908
0.0004380292919
0.0004329262278
0.0004334701247
0.0004342514162
0.0004352167793
0.0004362969993
0.0004374042571
0.0004384316018
0.0004392547282
0.0004397367098
0.000434369161
0.0004349448523
0.0004357708085
0.0004367897623
0.0004379279393
0.0004390925004
0.0004401711966
0.0004410342711
0.000441539195
0.0004359123774
0.000436519531
0.0004373896352
0.0004384614846
0.0004396567785
0.0004408777288
0.0004420068959
0.0004429092038
0.0004434366579
0.0004375567634
0.0004381949116
0.0004391084632
0.0004402323019
0.0004414836568
0.0004427598822
0.0004439384719
0.0004448791759
0.000445428681
0.0004393027702
0.0004399713206
0.00044092745
0.000442102179
0.0004434083431
0.0004447385487
0.0004459653618
0.0004469435147
0.0004475145311
0.0004411504233
0.0004418486705
0.0004428463554
0.0004440707025
0.0004454302488
0.0004468129788
0.0004480866826
0.0004491012398
0.0004496931742
0.0004430993369
0.0004438264747
0.0004448645574
0.0004461370972
0.0004475484449
0.0004489821033
0.0004503012488
0.0004513510811
0.0004519632938
0.000445148732
0.0004459038661
0.000446981071
0.000448300246
0.0004497616816
0.0004512445522
0.0004526075913
0.0004536914979
0.0004543233093
0.0004472974588
0.0004480796197
0.0004491945709
0.0004505587112
0.0004520684104
0.0004535986768
0.0004550039795
0.0004561206999
0.0004567713976
0.0004495440219
0.0004503521771
0.0004515034158
0.0004529107597
0.0004544668076
0.0004560425726
0.000457488443
0.0004586366692
0.0004593055142
0.0004518866068
0.0004527196737
0.0004539056748
0.0004553543881
0.0004569547992
0.0004585741034
0.0004600587957
0.0004612371836
0.0004619234166
0.0004543231098
0.0004551799672
0.0004563991554
0.0004578873497
0.0004595300871
0.0004611909266
0.0004627126593
0.0004639198394
0.0004646226865
0.0004568511672
0.0004577306666
0.0004589814318
0.000460507182
0.0004621901749
0.0004638905176
0.0004654474877
0.0004666820751
0.0004674007535
0.0004594681869
0.0004603691627
0.0004616498741
0.0004632112345
0.0004649323945
0.0004666701951
0.0004682605908
0.0004695211945
0.0004702549174
0.000462171378
0.0004630926574
0.0004644016763
0.0004659966954
0.0004677539318
0.000469527146
0.0004711491579
0.0004724343893
0.0004731823705
0.0004649577818
0.0004658981935
0.000467233885
0.0004688606189
0.0004706518522
0.0004724584489
0.0004741102806
0.0004754187609
0.0004761802193
0.0004678243009
0.0004687826828
0.0004701434267
0.0004717999509
0.0004736231244
0.000475461097
0.0004771409745
0.000478471342
0.000479245505
0.0004707677276
0.0004717429336
0.0004731271336
0.0004748115535
0.0004766646446
0.0004785320204
0.0004802382002
0.0004815891157
0.0004823752226
0.0004737847708
0.0004747756771
0.0004761817684
0.0004778922285
0.0004797732575
0.0004816681064
0.0004833988823
0.0004847690346
0.0004855663398
0.0004768720812
0.0004778775911
0.0004793040478
0.0004810387395
0.000482945777
0.0004848662186
0.0004866199278
0.0004880080381
0.0004888158133
0.0004800262749
0.0004810453234
0.0004824906639
0.0004842478316
0.0004861790055
0.0004881232148
0.000489898243
0.0004913030684
0.0004921206047
0.000483243955
0.0004842755121
0.0004857383037
0.0004875162503
0.0004894697507
0.0004914359629
0.000493230748
0.0004946510849
0.0004954776945
0.0004865217313
0.0004875648047
0.0004890436676
0.0004908407582
0.0004928148416
0.0004948013559
0.0004966143914
0.0004980490773
0.0004988840952
0.0004898562379
0.0004909098752
0.0004924034848
0.0004942181502
0.0004962111423
0.0004982163246
0.0005000461616
0.0005014940775
0.0005023368622
0.0004932441491
0.0004943074393
0.0004958145283
0.0004976452667
0.0004996555645
0.0005016778493
0.0005035230986
0.0005049831696
0.0005058331041
0.0004966821932
0.0004977542672
0.0004992736269
0.0005011190052
0.0005031450784
0.0005051829699
0.0005070423024
0.000508513499
0.0005093699911
0.0005001671645
0.0005012471959
0.0005027776764
0.0005046363309
0.0005066767222
0.0005087287945
0.0005106009419
0.0005120822803
0.0005129447631
0.0005036959331
0.0005047831383
0.0005063236486
0.0005081942846
0.0005102476095
0.0005123125067
0.0005141962614
0.0005156868031
0.000516554735
0.0005072654544
0.0005083590917
0.0005099085991
0.0005117899905
0.0005138549365
0.0005159313719
0.0005178255861
0.0005193244381
0.0005201973025
0.0005108727749
0.0005119721443
0.0005135296735
0.0005154206615
0.000517495987
0.0005195827417
0.0005214863271
0.0005229926407
0.0005238699461
0.0005145150389
0.0005156194808
0.0005171841125
0.0005190836038
0.0005211681365
0.0005232640584
0.0005251759841
0.0005266889547
0.000527570234
0.0005181894918
0.0005192983862
0.0005208692555
0.0005227762208
0.0005248688557
0.0005269728571
0.0005288921489
0.0005304110144
0.0005312958244
0.000521893484
0.0005230062488
0.0005245825435
0.0005264960152
0.0005285957121
0.0005307067681
0.0005326325065
0.0005341565462
0.0005350444673
0.0005256244721
0.000526740562
0.0005283215203
0.0005302405903
0.0005323463719
0.000534463518
0.000536394836
0.0005379233698
0.0005388140049
0.0005293800207
0.0005304989253
0.000532083834
0.000534007651
0.0005361186003
0.00053824093
0.0005401770116
0.0005417093979
0.000542602372
0.000533157802
0.0005342790445
0.0005358672367
0.0005377950041
0.0005399102613
0.0005420369237
0.0005439770017
0.0005455126361
0.0005464075952
0.0005369555952
0.0005380787306
0.0005396695836
0.0005416005564
0.0005437193169
0.0005458495142
0.0005477928681
0.000549331182
0.0005502277926
0.0005407712857
0.0005418958995
0.0005434888323
0.0005454223147
0.0005475438258
0.0005496768107
0.0005516227644
0.0005531632237
0.0005540611717
0.0005446028628
0.0005457285687
0.0005473230401
0.0005492583833
0.0005513819419
0.0005535170151
0.0005554649349
0.0005570070378
0.000557906028
0.0005484484188
0.0005495748577
0.0005511703633
0.0005531069623
0.000555231912
0.0005573684198
0.0005593177122
0.0005608609881
0.0005617607428
0.000552306146
0.0005534329838
0.0005550290547
0.0005569663458
0.0005590920744
0.0005612294059
0.0005631795154
0.0005647235231
0.0005656237818
0.0005561743337
0.0005573012602
0.0005588974602
0.0005608349186
0.0005629608552
0.0005650984401
0.0005670488475
0.0005685931736
0.0005694936918
0.0005600513643
0.0005611780915
0.0005627740154
0.0005647111533
0.0005668367663
0.0005689740725
0.0005709242922
0.00057246855
0.0005733690986
0.000563935711
0.0005650619718
0.0005666572435
0.0005685936071
0.0005707184015
0.0005728549329
0.0005748045119
0.0005763483396
0.000577248704
0.0005678259339
0.0005689514807
0.0005705457511
0.0005724809191
0.0005746044346
0.000576739729
0.0005786882441
0.0005802313037
0.000581131283
0.000571720677
0.0005728452804
0.0005744382258
0.0005763718068
0.0005784936152
0.0005806272422
0.000582574299
0.0005841162747
0.0005850156809
0.0005756186644
0.0005767421118
0.0005783334322
0.0005802650631
0.0005823847665
0.0005845163254
0.0005864615562
0.000588002153
0.0005889008104
0.0005795186967
0.0005806407915
0.0005822302088
0.0005841595527
0.0005862767814
0.0005884058994
0.0005903489615
0.0005918879044
0.000592785649
0.0005834196479
0.000584540208
0.0005861274647
0.0005880542091
0.0005901686198
0.0005922949503
0.0005942355246
0.0005957725569
0.0005966692355
0.0005873204613
0.0005884393183
0.0005900241758
0.0005919480311
0.0005940593052
0.0005961825261
0.0005981203155
0.0005996551982
0.0006005506677
0.0005912201466
0.0005923371447
0.0005939193824
0.0005958400801
0.0005979479219
0.0006000677336
0.0006020024618
0.0006035349721
0.0006044290993
0.0005951177762
0.0005962327714
0.0005978121849
0.0005997294764
0.0006018336116
0.0006039497361
0.0006058811461
0.0006074110766
0.0006083037371
0.0005990124823
0.0006001253414
0.0006017017417
0.0006036153966
0.000605715571
0.0006078277501
0.0006097556028
0.0006112827606
0.0006121738386
0.0006029034531
0.0006040140531
0.0006055872655
0.0006074970706
0.0006095930483
0.0006117010423
0.0006136251158
0.0006151493212
0.000616038709
0.0006067899304
0.0006078981577
0.0006094680204
0.0006113737783
0.0006134653409
0.0006155689276
0.0006174890157
0.0006190101018
0.000619897699
0.0006106712062
0.0006117769557
0.0006133433194
0.0006152448475
0.0006173317927
0.0006194307658
0.000621346677
0.0006228644887
0.000623750202
0.00061454662
0.0006156497949
0.0006172125215
0.0006191096509
0.0006211917912
0.0006232859597
0.0006251975164
0.0006267119096
0.0006275956523
0.0006184155563
0.000619516067
0.0006210750289
0.0006229676033
0.0006250447654
0.0006271339521
0.0006290409896
0.0006305518306
0.0006314335221
0.0006222774415
0.0006233752054
0.0006249302847
0.0006268181599
0.0006288901832
0.0006309742242
0.0006328765897
0.0006343837543
0.0006352633198
0.0006261317417
0.0006272266825
0.0006287777707
0.000630660813
0.0006327275492
0.0006348062926
0.0006367038446
0.0006382072178
0.0006390845879
0.0006299779604
0.0006310700079
0.0006326170044
0.0006344950908
0.0006365564025
0.0006386297079
0.0006405223153
0.0006420217905
0.0006428969008
0.0006338156361
0.0006349047255
0.0006364475377
0.0006383205543
0.0006403763148
0.0006424440521
0.0006443315937
0.000645827072
0.0006466998628
0.0006376443401
0.0006387304116
0.0006402689542
0.0006421367959
0.000644186888
0.0006462489372
0.0006481313006
0.0006496226906
0.0006504931067
0.0006414636746
0.0006425466732
0.0006440808674
0.0006459434373
0.0006479877528
0.0006500440028
0.0006519210842
0.0006534083011
0.0006542762913
0.0006452732706
0.0006463531455
0.0006478829187
0.0006497401274
0.0006517785664
0.0006538289144
0.0006557006178
0.0006571835833
0.0006580491002
0.000649072786
0.0006501494906
0.0006516747756
0.0006535265407
0.0006555590109
0.0006576033621
0.0006594695985
0.0006609482401
0.0006618112397
0.0006528619038
0.0006539353949
0.0006554561302
0.0006573023753
0.0006593287914
0.000661367058
0.0006632277451
0.0006647019954
0.0006655624369
0.0006566403304
0.0006577105682
0.0006592266966
0.0006610673513
0.0006630876342
0.0006651197348
0.0006669747962
0.0006684445926
0.0006693024382
0.0006604077934
0.0006614747411
0.0006629862098
0.0006648212086
0.000666835285
0.0006688611438
0.0006707105082
0.0006721757924
0.0006730310066
0.0006641640401
0.0006652276635
0.0006667344232
0.0006685637053
0.0006705715065
0.0006725910524
0.0006744346529
0.0006758953699
0.0006767479193
0.0006679088354
0.0006689691024
0.0006704711069
0.0006722946147
0.000674296076
0.0006763092418
0.0006781470148
0.0006796031122
0.000680452965
0.0006716419592
0.0006726988393
0.0006741960446
0.0006760137233
0.0006780087826
0.0006800155035
0.0006818473873
0.0006832988144
0.0006841459393
0.0006753632039
0.0006764166677
0.000677909031
0.0006797208271
0.0006817094233
0.0006837096353
0.0006855355688
0.0006869822746
0.0006878266406
0.0006790723713
0.0006801223894
0.0006816098679
0.0006834157275
0.0006853977986
0.000687391436
0.0006892113561
0.0006906532878
0.0006914948624
0.0006827692679
0.0006838158098
0.0006852983589
0.0006870982251
0.0006890737055
0.0006910606983
0.000692874537
0.0006943116374
0.0006951503852
0.0006864536997
0.0006874967322
0.0006889743031
0.0006907681134
0.00069273693
0.0006947171996
0.0006965248799
0.0006979570835
0.0006987929638
0.0006901254647
0.0006911649501
0.0006926374864
0.0006944251684
0.0006963872358
0.0006983606893
0.0007001621194
0.0007015893478
0.0007024223117
0.000693784344
0.0006948202366
0.0006962876706
0.0006980691361
0.0007000243495
0.0007019908724
0.0007037859382
0.0007052080935
0.0007060380797
0.0006974300891
0.0006984623318
0.000699924578
0.0007016997155
0.000703647942
0.0007056073877
0.0007073959429
0.0007088128989
0.0007096398283
0.0007010624058
0.0007020909249
0.0007035478725
0.0007053165373
0.0007072576034
0.0007092097803
0.0007109916331
0.0007124032241
0.0007132269927
0.0007046809333
0.0007057056317
0.0007071571349
0.0007089191355
0.0007108528116
0.0007127974661
0.0007145723621
0.0007159783685
0.0007167988386
0.0007082852182
0.0007093059666
0.0007107518311
0.0007125069129
0.0007144328937
0.0007163696881
0.0007181372888
0.0007195374185
0.0007203544071
0.0007118746809
0.0007128913068
0.0007143312738
0.0007160790977
0.0007179969767
0.0007199254624
0.0007216853188
0.0007230791847
0.0007238924495
0.0007154485748
0.0007164608492
0.000717894575
0.0007196346912
0.0007215439305
0.0007234635144
0.000725215034
0.0007266021264
0.0007274113492
0.0007190059376
0.0007200135579
0.000721440589
0.0007231724057
0.0007250722985
0.0007269822036
0.0007287246122
0.0007301042663
0.0007309090327
0.0007225455324
0.0007235481026
0.0007249678467
0.0007266905922
0.0007285802197
0.0007304794387
0.0007322117348
0.0007335830933
0.0007343828701
0.0007260657807
0.0007270627882
0.0007284744802
0.0007301871593
0.0007320653403
0.0007339525823
0.0007356734873
0.0007370354584
0.0007378295684
0.0007295646844
0.0007305554739
0.000731958137
0.0007336594836
0.0007355247194
0.0007373983514
0.0007391062529
0.0007404574651
0.0007412450595
0.0007330397422
0.000734023486
0.0007354158898
0.0007371043136
0.000738954728
0.0007408127136
0.0007425056078
0.0007438443614
0.0007446243922
0.0007364878592
0.0007374635263
0.0007388441418
0.0007405176728
0.0007423509504
0.0007441907857
0.0007458662188
0.0007471904402
0.0007479616323
0.0007399052545
0.0007408715787
0.0007422385329
0.0007438947657
0.0007457080905
0.0007475267437
0.0007491817565
0.0007504889551
0.0007512497821
0.0007432873702
0.0007442428191
0.0007455938516
0.0007472298937
0.0007490198937
0.0007508137503
0.0007524448318
0.0007537320647
0.00075448073
0.0007466287894
0.0007475715365
0.0007489039608
0.0007505163885
0.0007522790903
0.0007540439126
0.0007556469663
0.0007569108167
0.0007576452424
0.0007499231678
0.0007508510707
0.0007521617459
0.0007537465727
0.0007554773733
0.0007572082784
0.0007587786102
0.0007600151831
0.0007607330113
0.0007531631898
0.0007540737773
0.0007553590931
0.0007569117582
0.0007586054197
0.0007602968845
0.0007618292174
0.0007630341596
0.0007637327684
0.0007563405568
0.0007572310286
0.0007584869097
0.0007600022908
0.0007616529666
0.000763298867
0.0007647873902
0.0007659559394
0.0007666324773
0.0007594460173
0.00076031326
0.0007615351945
0.000763007653
0.0007646089505
0.0007662026412
0.0007676410987
0.0007687681672
0.0007694196078
0.0007624694483
0.0007633100707
0.0007644931673
0.0007659166298
0.0007674617168
0.000768996157
0.0007703779807
0.0007714582745
0.0007720814938