/*--------------------------------*- C++ -*----------------------------------*\
| =========                 |                                                 |
| \\      /  F ield         | OpenFOAM: The Open Source CFD Toolbox           |
|  \\    /   O peration     | Version:  2212                                  |
|   \\  /    A nd           | Website:  www.openfoam.com                      |
|    \\/     M anipulation  |                                                 |
\*---------------------------------------------------------------------------*/
FoamFile
{
    version     2.0;
    format      ascii;
    arch        "LSB;label=32;scalar=64";
    class       volScalarField;
    location    "20.00000000";
    object      CO_0;
}
// * * * * * * * * * * * * * * * * * * * * * * * * * * * * * * * * * * * * * //

dimensions      [0 0 0 0 0 0 0];

internalField   nonuniform List<scalar> 
3000
(
8.481394183e-29
1.051805877e-28
1.37732313e-28
1.843964809e-28
2.471476727e-28
3.266914963e-28
4.199445641e-28
5.157747113e-28
5.888207617e-28
3.57403096e-28
4.464783398e-28
5.888241152e-28
7.932662537e-28
1.070411938e-27
1.430876132e-27
1.881393076e-27
2.414252445e-27
2.937054637e-27
9.20989102e-28
1.165073954e-27
1.559216736e-27
2.136219399e-27
2.943079243e-27
4.041297476e-27
5.494299678e-27
7.310336826e-27
9.09322157e-27
2.01242053e-27
2.587235752e-27
3.533525737e-27
4.96065285e-27
7.034907673e-27
9.982199416e-27
1.403694177e-26
1.918177813e-26
2.403672135e-26
4.09279696e-27
5.367007875e-27
7.51581849e-27
1.086090637e-26
1.589647683e-26
2.328628632e-26
3.363742407e-26
4.659872857e-26
5.823010595e-26
8.062287505e-27
1.080487025e-26
1.554632094e-26
2.314742753e-26
3.492470646e-26
5.25791861e-26
7.743270311e-26
1.078962548e-25
1.339835491e-25
1.572501408e-26
2.154897023e-26
3.185049194e-26
4.878338135e-26
7.560268518e-26
1.163341342e-25
1.735993381e-25
2.422574832e-25
2.973110504e-25
3.069813391e-26
4.296992229e-26
6.510725495e-26
1.022335561e-25
1.619914711e-25
2.534978902e-25
3.820250069e-25
5.35532663e-25
6.644716679e-25
6.029440081e-26
8.602959645e-26
1.331967254e-25
2.135007703e-25
3.441182789e-25
5.44720023e-25
8.2480775e-25
1.154188797e-24
1.421348638e-24
1.193417468e-25
1.731267235e-25
2.729462352e-25
4.448038257e-25
7.262791393e-25
1.158943227e-24
1.759844154e-24
2.459491839e-24
3.020404016e-24
2.380231505e-25
3.501534092e-25
5.603059006e-25
9.251495893e-25
1.525526297e-24
2.448428794e-24
3.724744374e-24
5.200389957e-24
6.374624467e-24
4.77903004e-25
7.112062385e-25
1.151820242e-24
1.92157223e-24
3.192417716e-24
5.145395858e-24
7.8370769e-24
1.093280284e-23
1.338265715e-23
9.64781141e-25
1.449391295e-24
2.370116843e-24
3.986269414e-24
6.660705637e-24
1.076887985e-23
1.641557214e-23
2.288379981e-23
2.798124314e-23
1.956032057e-24
2.961177684e-24
4.87988913e-24
8.260066663e-24
1.386305198e-23
2.246582161e-23
3.426463769e-23
4.773774805e-23
5.832119283e-23
3.978753756e-24
6.060904458e-24
1.005031576e-23
1.709825725e-23
2.879550293e-23
4.674768019e-23
7.132635943e-23
9.932348912e-23
1.212597558e-22
8.113271875e-24
1.2421672e-23
2.070112493e-23
3.536055854e-23
5.971342825e-23
9.707453768e-23
1.481541696e-22
2.062226523e-22
2.516267141e-22
1.657517972e-23
2.54817455e-23
4.26383818e-23
7.306915024e-23
1.236591476e-22
2.012466621e-22
3.072010165e-22
4.274579213e-22
5.213295262e-22
3.391058519e-23
5.230802163e-23
8.781536058e-23
1.508839509e-22
2.557933615e-22
4.166419288e-22
6.360886432e-22
8.84826206e-22
1.078723928e-21
6.945107109e-23
1.074272495e-22
1.808371013e-22
3.113773041e-22
5.286173635e-22
8.616063312e-22
1.315537463e-21
1.829481639e-21
2.229652422e-21
1.423565328e-22
2.207025677e-22
3.723432679e-22
6.422437074e-22
1.091553892e-21
1.780090888e-21
2.718037592e-21
3.778951414e-21
4.604164313e-21
2.919738179e-22
4.535251201e-22
7.6653695e-22
1.324062913e-21
2.252413175e-21
3.67467621e-21
5.610858338e-21
7.798937897e-21
9.499310882e-21
5.991118184e-22
9.320916066e-22
1.577793625e-21
2.728547007e-21
4.644969222e-21
7.580139403e-21
1.157335355e-20
1.608226126e-20
1.958303272e-20
1.229722045e-21
1.915769223e-21
3.247010613e-21
5.620507877e-21
9.573415361e-21
1.562556309e-20
2.3853882e-20
3.313682719e-20
4.033764511e-20
2.524534828e-21
3.937470959e-21
6.680606566e-21
1.157275678e-20
1.97197427e-20
3.218794051e-20
4.912702576e-20
6.82194726e-20
8.301488808e-20
5.18283414e-21
8.091617362e-21
1.374095611e-20
2.381749326e-20
4.059482605e-20
6.625680331e-20
1.010911172e-19
1.403122907e-19
1.706718232e-19
1.063871759e-20
1.662395865e-20
2.825106559e-20
4.898999619e-20
8.350862147e-20
1.362703638e-19
2.078169236e-19
2.882720304e-19
3.504650891e-19
2.1830492e-20
3.413835218e-20
5.805055029e-20
1.006957013e-19
1.716401838e-19
2.79982707e-19
4.267139495e-19
5.914617832e-19
7.186048276e-19
4.47706138e-20
7.006031317e-20
1.191928859e-19
2.06788474e-19
3.524090404e-19
5.745387577e-19
8.74907975e-19
1.211524976e-18
1.470782014e-18
9.17407227e-20
1.436524284e-19
2.444888871e-19
4.241731072e-19
7.22598551e-19
1.177158032e-18
1.790639538e-18
2.476564277e-18
3.003539315e-18
1.877744863e-19
2.941941703e-19
5.008426076e-19
8.68809703e-19
1.47918169e-18
2.407206642e-18
3.656702816e-18
5.049782263e-18
6.116793643e-18
3.83762648e-19
6.015638161e-19
1.024282443e-18
1.776256568e-18
3.021631589e-18
4.910861159e-18
7.447105583e-18
1.02650448e-17
1.241549824e-17
7.82832998e-19
1.227668953e-18
2.090418199e-18
3.623210745e-18
6.156700731e-18
9.989365348e-18
1.511643328e-17
2.078936124e-17
2.509965759e-17
1.59319449e-18
2.499417982e-18
4.255371772e-18
7.3700399e-18
1.25055798e-17
2.024859185e-17
3.05628198e-17
4.191920124e-17
5.050371462e-17
3.233422774e-18
5.073932759e-18
8.63592794e-18
1.494146929e-17
2.530736852e-17
4.087370903e-17
6.150555618e-17
8.409213566e-17
1.010653956e-16
6.540983929e-18
1.026542665e-17
1.746258298e-17
3.017204018e-17
5.099129996e-17
8.21073808e-17
1.231092125e-16
1.677010694e-16
2.009880297e-16
1.318258269e-17
2.068745885e-17
3.516303644e-17
6.065017038e-17
1.022248751e-16
1.640191846e-16
2.44902689e-16
3.322163589e-16
3.96913458e-16
2.645617519e-17
4.150543838e-17
7.046744395e-17
1.212822531e-16
2.037644421e-16
3.25585054e-16
4.838362269e-16
6.532631865e-16
7.777946085e-16
5.284728285e-17
8.285992254e-17
1.404631169e-16
2.411143831e-16
4.035655532e-16
6.417739426e-16
9.486249034e-16
1.274197346e-15
1.511438829e-15
1.050267021e-16
1.645163648e-16
2.783317569e-16
4.762559399e-16
7.936471369e-16
1.25532223e-15
1.844576262e-15
2.463761525e-15
2.910873689e-15
2.075808577e-16
3.247106256e-16
5.479721097e-16
9.341035452e-16
1.548823391e-15
2.435108359e-15
3.555119274e-15
4.720065271e-15
5.553404854e-15
4.078817157e-16
6.368291516e-16
1.071363215e-15
1.81825394e-15
2.997769217e-15
4.682101014e-15
6.78827725e-15
8.955855589e-15
1.049168722e-14
7.965466231e-16
1.240584372e-15
2.079257243e-15
3.510863753e-15
5.751898031e-15
8.919366377e-15
1.283671091e-14
1.682483242e-14
1.962372664e-14
1.545650973e-15
2.399762919e-15
4.004150636e-15
6.722031421e-15
1.09364159e-14
1.682890541e-14
2.403418807e-14
3.129013874e-14
3.633464911e-14
2.979547298e-15
4.608246486e-15
7.649096651e-15
1.275783911e-14
2.059998025e-14
3.144223117e-14
4.454835395e-14
5.760470954e-14
6.659894865e-14
5.705105505e-15
8.782944546e-15
1.449122878e-14
2.399631151e-14
3.843335445e-14
5.816513196e-14
8.174398242e-14
1.049860187e-13
1.208565266e-13
1.084939974e-14
1.661184165e-14
2.722229757e-14
4.472414736e-14
7.101756552e-14
1.065387366e-13
1.485059081e-13
1.894524873e-13
2.171793436e-13
2.049017643e-14
3.117653011e-14
5.070245841e-14
8.2593785e-14
1.299715425e-13
1.932390998e-13
2.671642744e-13
3.385896572e-13
3.865762832e-13
3.842953224e-14
5.80564568e-14
9.362846093e-14
1.511381762e-13
2.356156443e-13
3.471448594e-13
4.760770464e-13
5.995019397e-13
6.818191117e-13
7.157390017e-14
1.072718437e-13
1.714270042e-13
2.74075181e-13
4.231716342e-13
6.178354406e-13
8.405925896e-13
1.05199315e-12
1.192035217e-12
1.323769581e-13
1.966756549e-13
3.112336262e-13
4.926187843e-13
7.5317933e-13
1.089746153e-12
1.471192494e-12
1.83028538e-12
2.066698477e-12
2.431321227e-13
3.578312881e-13
5.603976116e-13
8.778103793e-13
1.328882592e-12
1.905601544e-12
2.553346591e-12
3.158615339e-12
3.554867394e-12
4.434607866e-13
6.461263173e-13
1.000912119e-12
1.551184498e-12
2.325075089e-12
3.304993502e-12
4.396385836e-12
5.40929153e-12
6.069058302e-12
8.032865488e-13
1.158063818e-12
1.773749877e-12
2.719205653e-12
4.035707691e-12
5.687572947e-12
7.513126598e-12
9.19695622e-12
1.028877891e-11
1.445173422e-12
2.060661238e-12
3.119694214e-12
4.73036735e-12
6.952119205e-12
9.716084086e-12
1.274900459e-11
1.553097918e-11
1.732771429e-11
2.582559412e-12
3.641222079e-12
5.447605499e-12
8.169401014e-12
1.189017433e-11
1.648307924e-11
2.149074621e-11
2.606140752e-11
2.900300935e-11
4.584277141e-12
6.389812598e-12
9.445701487e-12
1.400990922e-11
2.019784047e-11
2.778185415e-11
3.60030202e-11
4.34737434e-11
4.826698509e-11
8.081891358e-12
1.113622771e-11
1.626625883e-11
2.386581273e-11
3.409065617e-11
4.654108609e-11
5.996741219e-11
7.212063685e-11
7.989746702e-11
1.414977458e-11
1.92768378e-11
2.782682295e-11
4.039694237e-11
5.719173286e-11
7.752201353e-11
9.934423958e-11
1.190300646e-10
1.31598881e-10
2.460200886e-11
3.314554892e-11
4.729900732e-11
6.796286192e-11
9.53967906e-11
1.284308072e-10
1.637445426e-10
1.95508947e-10
2.157540335e-10
4.247835759e-11
5.661626141e-11
7.989595601e-11
1.136690346e-10
1.582513924e-10
2.116840073e-10
2.686044524e-10
3.196847875e-10
3.522033683e-10
7.283193263e-11
9.607235163e-11
1.34130189e-10
1.890276263e-10
2.611278023e-10
3.471921869e-10
4.386117224e-10
5.205154438e-10
5.726386296e-10
1.239918312e-10
1.619504519e-10
2.238028609e-10
3.125692201e-10
4.286351558e-10
5.66712931e-10
7.130655031e-10
8.440748195e-10
9.2751152e-10
2.095620059e-10
2.711691284e-10
3.711130242e-10
5.139033813e-10
6.999031449e-10
9.205865163e-10
1.154177826e-09
1.363317812e-09
1.496807289e-09
3.515412426e-10
4.50896936e-10
6.114513117e-10
8.399467214e-10
1.136659321e-09
1.488021807e-09
1.859767099e-09
2.193062444e-09
2.406640452e-09
5.851164842e-10
7.443070315e-10
1.000674874e-09
1.364325079e-09
1.835381153e-09
2.392552606e-09
2.982354942e-09
3.512601044e-09
3.854388338e-09
9.65899029e-10
1.219212382e-09
1.625953142e-09
2.20131258e-09
2.945242581e-09
3.82482543e-09
4.757335983e-09
5.599126283e-09
6.145929214e-09
1.580642187e-09
1.980776136e-09
2.621622485e-09
3.526083625e-09
4.694069785e-09
6.075471224e-09
7.543583814e-09
8.875935408e-09
9.749365668e-09
2.562794769e-09
3.189836861e-09
4.19187613e-09
5.603497245e-09
7.425028094e-09
9.581385176e-09
1.188047457e-08
1.397999605e-08
1.537018741e-08
4.114593383e-09
5.088758396e-09
6.6425143e-09
8.828061988e-09
1.164721253e-08
1.498918461e-08
1.856569503e-08
2.18537045e-08
2.405290662e-08
6.537754672e-09
8.03707871e-09
1.042434609e-08
1.377808205e-08
1.810361741e-08
2.323980096e-08
2.875816746e-08
3.386530849e-08
3.731353051e-08
1.027516514e-08
1.255955233e-08
1.619111687e-08
2.128718835e-08
2.786001079e-08
3.567794231e-08
4.410978448e-08
5.196130239e-08
5.730563663e-08
1.596624549e-08
1.940941303e-08
2.487497537e-08
3.253643299e-08
4.24179305e-08
5.418940453e-08
6.692826692e-08
7.885203277e-08
8.702024501e-08
2.451885151e-08
2.964978274e-08
3.778243498e-08
4.916979573e-08
6.385425766e-08
8.136782301e-08
1.003712917e-07
1.182288242e-07
1.305162774e-07
3.720062834e-08
4.475607375e-08
5.671346727e-08
7.343524908e-08
9.49885482e-08
1.207104235e-07
1.486691679e-07
1.750073714e-07
1.931744888e-07
5.575261726e-08
6.674192597e-08
8.4105736e-08
1.083524035e-07
1.395774987e-07
1.768397276e-07
2.173699895e-07
2.555883231e-07
2.819638287e-07
8.252757063e-08
9.831062943e-08
1.232049819e-07
1.579061779e-07
2.025336372e-07
2.557451758e-07
3.135977094e-07
3.681223905e-07
4.057057769e-07
1.206547803e-07
1.430330301e-07
1.782611499e-07
2.272639233e-07
2.901626844e-07
3.650355207e-07
4.463103817e-07
5.227644556e-07
5.753198261e-07
1.742321636e-07
2.055515209e-07
2.547479792e-07
3.230110277e-07
4.104112189e-07
5.141899608e-07
6.265433497e-07
7.31899481e-07
8.040323324e-07
2.485447625e-07
2.918078063e-07
3.59601462e-07
4.533973817e-07
5.731135766e-07
7.147936961e-07
8.676207948e-07
1.010322824e-06
1.107531623e-06
3.50306606e-07
4.092896799e-07
5.014698967e-07
6.28584386e-07
7.902246123e-07
9.807422272e-07
1.185319066e-06
1.375358954e-06
1.504054527e-06
4.8792006e-07
5.672891381e-07
6.909654055e-07
8.608797161e-07
1.076023385e-06
1.328398554e-06
1.5979667e-06
1.846905491e-06
2.014393167e-06
6.717434679e-07
7.771609771e-07
9.409040142e-07
1.164945133e-06
1.447272246e-06
1.776688575e-06
2.126468959e-06
2.447393846e-06
2.661815884e-06
9.143543674e-07
1.052567916e-06
1.266519074e-06
1.557961534e-06
1.923316302e-06
2.347122188e-06
2.794248532e-06
3.201663314e-06
3.471905327e-06
1.230792309e-06
1.40969572e-06
1.685631355e-06
2.059735466e-06
2.526109841e-06
3.063730187e-06
3.62709539e-06
4.136740118e-06
4.472288474e-06
1.638762851e-06
1.867420272e-06
2.21875899e-06
2.692732979e-06
3.280160106e-06
3.952913723e-06
4.652930963e-06
5.281537976e-06
5.692323463e-06
2.158783159e-06
2.447408383e-06
2.889151664e-06
3.482029318e-06
4.212382476e-06
5.043207138e-06
5.901495715e-06
6.66649681e-06
7.162700543e-06
2.814250245e-06
3.174135692e-06
3.722736137e-06
4.455166533e-06
5.35186439e-06
6.364953599e-06
7.403949818e-06
8.32314473e-06
8.914994666e-06
3.631415384e-06
4.074808319e-06
4.747964507e-06
5.641916838e-06
6.729544601e-06
7.949915298e-06
9.192439118e-06
1.028362888e-05
1.098118726e-05
4.639252625e-06
5.179179637e-06
5.995561274e-06
7.073952381e-06
8.377809473e-06
9.830803501e-06
1.129959666e-05
1.258021409e-05
1.339316855e-05
5.869215359e-06
6.519259923e-06
7.49817211e-06
8.784429736e-06
1.033002012e-05
1.204079029e-05
1.375803204e-05
1.524477504e-05
1.618224015e-05
7.354881804e-06
8.128923473e-06
9.289924938e-06
1.08075105e-05
1.262000715e-05
1.46129736e-05
1.659980984e-05
1.830829534e-05
1.937863224e-05
9.131496927e-06
1.004342192e-05
1.140590975e-05
1.317780353e-05
1.528151064e-05
1.757983781e-05
1.985593792e-05
2.180038907e-05
2.301104923e-05
1.123542617e-05
1.229882081e-05
1.388159443e-05
1.592980365e-05
1.83476204e-05
2.09727241e-05
2.355588141e-05
2.574885821e-05
2.710625544e-05
1.370351898e-05
1.493136768e-05
1.675222542e-05
1.909729155e-05
2.185022005e-05
2.482132632e-05
2.772711581e-05
3.017929659e-05
3.168870987e-05
1.657247182e-05
1.79768628e-05
2.00521956e-05
2.271274843e-05
2.581945667e-05
2.915322703e-05
3.239473038e-05
3.511474859e-05
3.678025674e-05
1.987813686e-05
2.146999282e-05
2.381442883e-05
2.680679729e-05
3.02832526e-05
3.399348657e-05
3.758108995e-05
4.057542795e-05
4.239987576e-05
2.365484953e-05
2.544369361e-05
2.806979577e-05
3.140768895e-05
3.526687279e-05
3.936429387e-05
4.330556083e-05
4.657849987e-05
4.856349387e-05
2.79347903e-05
2.992855529e-05
3.284658197e-05
3.65408488e-05
4.079255851e-05
4.528468573e-05
4.958430371e-05
5.313792682e-05
5.528385827e-05
3.274740333e-05
3.495228935e-05
3.817002381e-05
4.222849579e-05
4.687923466e-05
5.17703377e-05
5.643013386e-05
6.026437693e-05
6.257046857e-05
3.811889077e-05
4.053927392e-05
4.406192481e-05
4.848934163e-05
5.354229455e-05
5.883342719e-05
6.385244704e-05
6.796519189e-05
7.042956474e-05
4.407179672e-05
4.671018862e-05
5.05403598e-05
5.53383743e-05
6.07934629e-05
6.648256694e-05
7.185720733e-05
7.624440991e-05
7.886416616e-05
5.062468929e-05
5.348174515e-05
5.76194706e-05
6.27867264e-05
6.864073488e-05
7.472280467e-05
8.044699207e-05
8.510283849e-05
8.787415642e-05
5.779194492e-05
6.086651579e-05
6.530935287e-05
7.084162549e-05
7.708838674e-05
8.355568356e-05
8.962108764e-05
9.453817076e-05
9.745640802e-05
6.558363386e-05
6.887285738e-05
7.361603002e-05
7.950642132e-05
8.613705156e-05
9.297935642e-05
9.93756294e-05
0.0001045451391
0.0001076049406
7.400550215e-05
7.750492529e-05
8.254150782e-05
8.87806822e-05
9.578385249e-05
0.0001029887462
0.0001097037785
0.0001151156991
0.0001183111068
8.305904224e-05
8.67627689e-05
9.208390071e-05
9.8660352e-05
0.0001060225847
0.0001135757444
0.0001205959287
0.000126239238
0.000129563799
9.274164177e-05
9.664249825e-05
0.0001022376197
0.0001091379577
0.0001168439373
0.0001247294403
0.0001320399353
0.0001379028004
0.0001413496721
0.0001030467988
0.0001071365105
0.0001129936112
0.0001202028578
0.0001282357457
0.0001364363717
0.0001440213607
0.0001500913262
0.0001536533761
0.0001139643911
0.0001182337638
0.0001243396349
0.0001318415206
0.0001401832666
0.0001486807908
0.0001565237288
0.0001627878948
0.0001664577934
0.0001254809861
0.0001299200873
0.0001362605706
0.000144037825
0.0001526694664
0.0001614449391
0.0001695287845
0.0001759739713
0.0001797442778
0.0001375801807
0.0001421785154
0.0001487387439
0.0001567733716
0.0001656753163
0.0001747093229
0.0001830167518
0.0001896296501
0.0001934928894
0.0001502429577
0.0001549896356
0.0001617542602
0.0001700278
0.0001791800883
0.0001884529874
0.0001969665864
0.0002037338922
0.0002076826237
0.0001634480508
0.0001683319415
0.0001752853404
0.0001837791022
0.0001931616445
0.0002026537823
0.0002113562209
0.0002182647539
0.0002222916313
0.0001771723067
0.0001821821816
0.0001893086505
0.000198003929
0.0002075967175
0.0002172886162
0.0002261627972
0.0002331996036
0.0002372974266
0.0001913910395
0.0001965156985
0.0002037996196
0.0002126778821
0.0002224611763
0.0002323336984
0.0002413628866
0.0002485153261
0.0002526770835
0.0002060783699
0.0002113067524
0.0002187327415
0.0002277757913
0.0002377302765
0.0002477647629
0.000256932693
0.0002641885112
0.0002684074168
0.0002212075443
0.0002265288246
0.0002340818569
0.0002432719706
0.0002533788913
0.0002635572763
0.0002728482414
0.000280195628
0.000284465149
0.0002367512311
0.0002421548985
0.000249820413
0.0002591404548
0.0002693817227
0.0002796866266
0.000289085548
0.0002965131824
0.0003008270614
0.0002526817918
0.0002581577156
0.0002659217004
0.0002753552127
0.000285713493
0.0002961282934
0.000305620774
0.0003131178591
0.0003174701301
0.0002689715255
0.0002745100067
0.0002823590647
0.0002918903387
0.0003023491143
0.0003128579993
0.0003224303613
0.0003299866471
0.0003343716464
0.0002855928856
0.0002911846957
0.0002991060944
0.0003087202211
0.0003192638387
0.0003298518426
0.0003394911525
0.0003470969503
0.0003515093228
0.0003025186704
0.000308155079
0.0003161367843
0.0003258196889
0.000336433388
0.0003470864126
0.0003567804939
0.0003644266828
0.0003688613839
0.0003197221873
0.0003253949794
0.0003334256764
0.0003431641373
0.0003538340648
0.0003645388875
0.0003742763235
0.0003819543497
0.0003864066444
0.0003371773915
0.0003428788758
0.000350947978
0.0003607296335
0.0003714428455
0.0003821871168
0.0003919572447
0.0003996591149
0.0004041245736
0.0003548590019
0.0003605820122
0.00036867966
0.0003784930034
0.0003892374565
0.0004000096877
0.0004098025856
0.0004175208566
0.0004219953485
0.0003727425948
0.0003784804841
0.0003865975359
0.0003964319019
0.0004071964356
0.0004179859794
0.0004277924475
0.0004355202105
0.0004399998955
0.0003908046777
0.0003965513079
0.0004046793233
0.0004145248666
0.0004252991784
0.0004360962033
0.0004459077404
0.0004536386032
0.0004581199218
0.0004090227452
0.0004147724715
0.0004229036898
0.000432751358
0.0004435259731
0.0004543214328
0.0004641302092
0.0004718582757
0.0004763379381
0.0004273753185
0.0004331229714
0.000441250285
0.0004510917864
0.0004618580235
0.0004726436228
0.0004824424503
0.0004901622985
0.0004946372725
0.0004458419703
0.0004515828347
0.0004596997599
0.0004695275285
0.0004802774613
0.0004910456198
0.0005008279202
0.0005085345788
0.0005130020775
0.0004644033383
0.0004701331303
0.0004782337755
0.0004880409331
0.0004987673508
0.0005095111642
0.0005192709369
0.0005269598609
0.00053141733
0.000483041126
0.0004887559695
0.0004968350016
0.000506615319
0.0005173116849
0.0005280248865
0.0005377566745
0.0005454237215
0.0005498688261
0.0005017380958
0.0005074344975
0.0005154871085
0.0005252349652
0.0005358953755
0.0005465722962
0.0005562711531
0.0005639125587
0.0005683431707
0.0005204780537
0.0005261528783
0.0005341747505
0.0005438850954
0.0005545042373
0.0005651397667
0.0005748012239
0.0005824135775
0.0005868277625
0.0005392458271
0.0005448962728
0.0005528835452
0.0005625518566
0.0005731249676
0.000583714516
0.0005933345496
0.0006009147713
0.0006053107767
0.0005580272379
0.0005636508119
0.0005716000469
0.0005812222944
0.0005917451224
0.0006022845831
0.0006118595832
0.0006194049007
0.0006237811432
0.000576809071
0.0005824035661
0.0005903117171
0.0005998843243
0.0006103530891
0.0006208388025
0.0006303655425
0.0006378734696
0.0006422285233
0.0005955790398
0.0006011425115
0.0006090068921
0.0006185267005
0.0006289380571
0.0006393667759
0.000648842384
0.0006563106989
0.0006606432849
0.0006143257489
0.0006198564939
0.0006276747481
0.0006371389831
0.0006474899863
0.0006578588433
0.0006672807741
0.0006747075002
0.0006790164751
0.0006330386551
0.0006385351906
0.000646305265
0.0006557115036
0.0006659995748
0.0006763060514
0.0006856720605
0.0006930554467
0.0006973397929
0.000651708028
0.0006571690722
0.0006648891894
0.00067423533
0.000684458226
0.0006947001229
0.0007040082419
0.0007113467449
0.0007156055608
0.0006703249078
0.0006757493622
0.0006834179956
0.0006927022289
0.0007028580126
0.0007130334232
0.000722281937
0.0007295742046
0.0007338066955
0.0006888810659
0.0006942679982
0.0007018838498
0.0007111046322
0.0007211916439
0.0007312989272
0.0007404863523
0.0007477312082
0.0007519366784
0.0007073689626
0.0007127175904
0.0007202795689
0.0007294355989
0.0007394524328
0.0007494901904
0.0007586152541
0.000765811682
0.0007699895262
0.0007257817139
0.0007310913894
0.0007385985889
0.0007476887816
0.0007576342607
0.0007676013147
0.0007766629371
0.0007838100676
0.0007879597634
0.000744113049
0.0007493832465
0.0007568349287
0.0007658583958
0.0007757315498
0.0007856269216
0.0007946241972
0.0008017212941
0.0008058423953
0.0007623572727
0.0007675875755
0.0007749831526
0.0007839391821
0.000793739227
0.0008035621181
0.0008124943004
0.0008195407501
0.0008236328801
0.0007805092262
0.0007856993153
0.0007930383349
0.000801926374
0.0008116526943
0.0008214024695
0.000830268956
0.0008372642559
0.0008413271019
0.000798564254
0.0008037138981
0.0008109960288
0.0008198156674
0.0008294677987
0.0008391439703
0.000847944289
0.0008548880374
0.0008589213444
0.0008165181705
0.0008216272163
0.0008288522348
0.0008376031903
0.0008471808044
0.0008567830169
0.0008655168137
0.0008724087005
0.0008764122668
0.0008343672279
0.0008394355913
0.0008466033706
0.0008552854744
0.0008647883646
0.0008743163819
0.0008829834091
0.0008898232073
0.000893796879
0.0008521080857
0.000857135744
0.0008642462426
0.0008728594276
0.0008822874958
0.0008917411886
0.0009003412944
0.000907128852
0.0009110725192
0.0008697377814
0.0008747247666
0.0008817780187
0.0008903223078
0.0008996755529
0.0009090548875
0.0009175880061
0.000924323239
0.0009282368313
0.0008872537036
0.0008922000954
0.0008991962021
0.0009076716982
0.0009169502052
0.0009262552335
0.0009347213764
0.0009414042617
0.0009452877448
0.0009046535654
0.0009095594856
0.0009164986073
0.0009249054838
0.0009341094142
0.0009433402642
0.0009517395122
0.000958370082
0.0009622234541
0.0009219353805
0.000926800988
0.0009336833364
0.0009420218292
0.0009511514122
0.0009603082796
0.0009686407755
0.0009752191113
0.0009790424
0.0009390974398
0.0009439229255
0.0009507487581
0.0009590191575
0.0009680746823
0.000977157823
0.0009854237646
0.0009919499925
0.0009957432519
0.0009561382901
0.0009609238731
0.0009676934867
0.0009758961312
0.0009848779393
0.0009938876624
0.001002087297
0.001008561583
0.001012324891
0.0009730567136
0.0009778026372
0.0009845163632
0.0009926516328
0.001001560112
0.001010496774
0.001018630392
0.001025052937
0.001028786392
0.0009898517093
0.0009945582378
0.001001216437
0.001009284749
0.001018120327
0.001026984325
0.001035052256
0.001041423293
0.001045127015
0.001006522475
0.001011189891
0.00101779295
0.001025794751
0.001034557892
0.001043349659
0.001051352268
0.001057672057
0.001061346181
0.001023068392
0.001027696992
0.001034245319
0.001042181085
0.001050872283
0.001059592285
0.001067529963
0.001073798791
0.001077443467
0.001039489007
0.001044079101
0.001050573124
0.001058443353
0.001067063127
0.001075711856
0.001083585025
0.001089803198
0.001093418592
0.001055784021
0.001060335931
0.001066776092
0.0010745813
0.001083130193
0.001091708166
0.001099517268
0.001105685114
0.001109271401
0.001071953273
0.001076467329
0.001082854083
0.001090594807
0.001099073379
0.001107581133
0.00111532663
0.001121444492
0.00112500186
0.001087996733
0.001092473271
0.001098807085
0.00110648387
0.0011148927
0.001123330788
0.00113101316
0.001137081397
0.001140610041
0.001103914482
0.001108353845
0.001114635193
0.001122248599
0.001130588277
0.001138957267
0.001146577008
0.001152595991
0.001156096116
0.00111970671
0.001124109245
0.001130338608
0.001137889202
0.001146160329
0.001154460802
0.001162018418
0.001167988528
0.001171460345
0.0011353737
0.001139739756
0.001145917621
0.001153405977
0.001161609163
0.001169841709
0.001177337716
0.001183259344
0.001186703069
0.001150915822
0.001155245752
0.001161372607
0.001168799305
0.001176935165
0.001185100382
0.001192535304
0.001198408848
0.001201824704
0.001166333523
0.00117062768
0.001176704017
0.001184069639
0.001192138793
0.001200237284
0.001207611651
0.001213437514
0.001216825726
0.001181627318
0.001185886056
0.001191912367
0.001199217496
0.001207220567
0.001215252937
0.001222567284
0.001228345874
0.001231706671
0.001196797786
0.001201021457
0.001206998233
0.001214243453
0.001222181064
0.001230147921
0.001237402783
0.00124313451
0.001246468122
0.001211845556
0.001216034511
0.001221962242
0.001229148133
0.001237020906
0.001244922856
0.00125211877
0.001257804043
0.001261110702
0.001226771307
0.001230925893
0.001236805063
0.001243932203
0.001251740754
0.001259578401
0.001266715899
0.001272355128
0.001275635063
0.00124157575
0.001245696312
0.001251527401
0.001258596359
0.001266341298
0.001274115238
0.001281194847
0.001286788435
0.001290041874
0.001256259629
0.001260346505
0.001266129984
0.00127314132
0.001280823246
0.001288534062
0.001295556299
0.00130110464
0.001304331807
0.001270823702
0.001274877222
0.001280613552
0.001287567812
0.001295187307
0.001302835567
0.00130980093
0.001315304406
0.001318505514
0.001285268736
0.001289289219
0.001294978843
0.001301876552
0.001309434175
0.00131702042
0.001323929385
0.001329388357
0.001332563607
0.001299595483
0.001303583233
0.001309226573
0.001316068229
0.001323564505
0.001331089241
0.001337942248
0.001343357045
0.001346506621
0.001313804664
0.001317759965
0.001323357412
0.001330143472
0.00133757888
0.001345042561
0.001351839998
0.001357210909
0.001360334966
0.001327896941
0.001331820048
0.001337371951
0.001344102817
0.001351477771
0.001358880781
0.001365622965
0.001370950214
0.00137404887
0.001341872878
0.001345764008
0.001351270658
0.001357946657
0.00136526148
0.001372604102
0.001379291251
0.001384574979
0.001387648298
0.0013557329
0.001359592215
0.001365053823
0.001371675179
0.001378930069
0.00138621245
0.001392844646
0.001398084874
0.001401132848
0.001369477227
0.001373304819
0.001378721488
0.001385288281
0.001392483268
0.001399705369
0.001406282506
0.001411479098
0.001414501617
0.001383105798
0.00138690166
0.001392273348
0.00139878547
0.001405920357
0.001413081888
0.001419603614
0.001424756218
0.001427753041
0.001396618172
0.001400382168
0.001405708638
0.001412165729
0.001419240019
0.001426340363
0.001432805996
0.001437913979
0.001440884689
0.001410013403
0.001413745229
0.001419025991
0.001425427359
0.001432440163
0.00143947827
0.001445886702
0.001450949068
0.00145389302
0.001423289892
0.001426989021
0.001432223258
0.001438567787
0.001445517709
0.00145249198
0.001458841556
0.001463856842
0.001466773103
0.001436445204
0.001440110828
0.001445297302
0.001451583334
0.001458468339
0.001465376478
0.001471664858
0.001476631015
0.001479518291
0.001449475853
0.001453106812
0.001458243762
0.00146446896
0.001471286215
0.001478125062
0.001484349055
0.001489263316
0.001492119868
0.001462377063
0.001465971758
0.001471056774
0.001477217967
0.001483963663
0.001490729002
0.001496884389
0.001501743117
0.00150456667
0.001475142485
0.001478698787
0.001483728674
0.001489821688
0.001496490839
0.001503177195
0.001509258525
0.001514057051
0.001516844699
0.001487763902
0.001491279047
0.001496249676
0.001502269146
0.001508855384
0.001515455802
0.001521456195
0.001526188654
0.001528936762
0.001500230916
0.001503701396
0.001508607549
0.001514546724
0.001521042084
0.001527547917
0.001533458862
0.001538118032
0.001540822141
0.001512530629
0.001515952083
0.001520787297
0.001526637857
0.001533032571
0.001539433272
0.001545244447
0.001549821613
0.001552476362
0.00152464734
0.001528014452
0.001532770877
0.001538522759
0.001544805079
0.001551088031
0.001556787154
0.001561271999
0.001563871069
0.001536562286
0.001539868696
0.00154453697
0.001550178238
0.001556334295
0.001562484695
0.001568057439
0.001572437991
0.001574974081
0.001548253434
0.001551491675
0.00155606085
0.001561577603
0.001567591349
0.001573592164
0.001579022148
0.001583284798
0.00158574965
0.001559695384
0.001562856852
0.001567314363
0.001572690738
0.00157854396
0.001584375997
0.001589644885
0.001593774498
0.00159615898
0.001570859386
0.001573934364
0.00157826608
0.001583484333
0.001589156804
0.0015947989
0.001599886629
0.001603866767
0.001606161024
0.001581713521
0.001584691262
0.001588881626
0.001593922347
0.001599392102
0.001604821471
0.00160970663
0.001613519898
0.00161571358
0.001592223082
0.001595091961
0.001599124235
0.00160396669
0.001609210471
0.001614403218
0.001619063581
0.001622692111
0.001624774682
0.001602351155
0.001605098906
0.001608955538
0.001613578161
0.00161857202
0.001623503825
0.001627917055
0.00163134311
0.001633304236
0.001612059438
0.001614673475
0.001618336581
0.001622717615
0.001627437685
0.001632084653
0.001636229144
0.001639435845
0.00164126584
0.001621309287
0.001623777104
0.001627229068
0.00163134734
0.001635770749
0.001640110396
0.001643966234
0.001646938362
0.001648628679
0.001630062963
0.00163237261
0.001635596783
0.00163943259
0.001643538482