/*--------------------------------*- C++ -*----------------------------------*\
| =========                 |                                                 |
| \\      /  F ield         | OpenFOAM: The Open Source CFD Toolbox           |
|  \\    /   O peration     | Version:  2212                                  |
|   \\  /    A nd           | Website:  www.openfoam.com                      |
|    \\/     M anipulation  |                                                 |
\*---------------------------------------------------------------------------*/
FoamFile
{
    version     2.0;
    format      ascii;
    arch        "LSB;label=32;scalar=64";
    class       volScalarField;
    location    "20.00000000";
    object      H2;
}
// * * * * * * * * * * * * * * * * * * * * * * * * * * * * * * * * * * * * * //

dimensions      [0 0 0 0 0 0 0];

internalField   nonuniform List<scalar> 
3000
(
1.899269313e-27
2.194070915e-27
2.665558405e-27
3.341925618e-27
4.251936367e-27
5.405443637e-27
6.756156461e-27
8.139581796e-27
9.185351557e-27
6.730046295e-27
8.021575307e-27
1.008782704e-26
1.305986359e-26
1.709658385e-26
2.235976786e-26
2.895752718e-26
3.679091933e-26
4.451112555e-26
1.575113772e-26
1.930657962e-26
2.505591588e-26
3.348765068e-26
4.530281954e-26
6.14204461e-26
8.279187396e-26
1.095587164e-25
1.358822783e-25
3.245002144e-26
4.085813138e-26
5.471648075e-26
7.564600737e-26
1.061094993e-25
1.494512333e-25
2.091422499e-25
2.849415287e-25
3.565060415e-25
6.362703637e-26
8.231721155e-26
1.138612321e-25
1.630087062e-25
2.370513233e-25
3.457779941e-25
4.981406757e-25
6.889725814e-25
8.602395385e-25
1.225396226e-25
1.628291213e-25
2.32514544e-25
3.442794336e-25
5.175144663e-25
7.772674264e-25
1.142996722e-24
1.59128889e-24
1.975131297e-24
2.357371202e-25
3.213556692e-25
4.728345924e-25
7.218780681e-25
1.116390507e-24
1.715607575e-24
2.558070229e-24
3.568024508e-24
4.380508432e-24
4.56430109e-25
6.368951127e-25
9.624744393e-25
1.508549351e-24
2.387552848e-24
3.733593312e-24
5.624228146e-24
7.882406887e-24
9.77646638e-24
8.921792169e-25
1.270676355e-24
1.964411827e-24
3.14556559e-24
5.066787724e-24
8.017396737e-24
1.21371234e-23
1.698188187e-23
2.091147903e-23
1.761072289e-24
2.552133785e-24
4.020288519e-24
6.548012406e-24
1.068803219e-23
1.705176007e-23
2.588990259e-23
3.618036755e-23
4.44302746e-23
3.507030187e-24
5.156229561e-24
8.247143954e-24
1.361326017e-23
2.244358117e-23
3.601755515e-23
5.478942353e-23
7.649292995e-23
9.376329689e-23
7.035515622e-24
1.046689362e-23
1.694736154e-23
2.826872028e-23
4.696002548e-23
7.568390905e-23
1.152723391e-22
1.60803244e-22
1.968348313e-22
1.419673523e-23
2.13242406e-23
3.48659964e-23
5.86358561e-23
9.797055402e-23
1.58392083e-22
2.41441454e-22
3.365735413e-22
4.115446263e-22
2.877603344e-23
4.355935265e-23
7.177904749e-23
1.214933936e-22
2.038998509e-22
3.30425807e-22
5.039577432e-22
7.021143625e-22
8.577709808e-22
5.852572081e-23
8.914914636e-23
1.478237512e-22
2.514818791e-22
4.235198855e-22
6.875525598e-22
1.049044732e-21
1.460813807e-21
1.783442393e-21
1.193347194e-22
1.827007956e-22
3.044713435e-22
5.200757495e-22
8.782467518e-22
1.427736895e-21
2.178992628e-21
3.033037023e-21
3.700818899e-21
2.437889334e-22
3.747826871e-22
6.271146985e-22
1.074676506e-21
1.818730865e-21
2.959852064e-21
4.518179403e-21
6.286861845e-21
7.667481532e-21
4.98750378e-22
7.693314101e-22
1.291556945e-21
2.219140501e-21
3.762099243e-21
6.12778483e-21
9.355304375e-21
1.301361984e-20
1.586537656e-20
1.021463579e-21
1.579999549e-21
2.659677419e-21
4.579601707e-21
7.774666755e-21
1.267211229e-20
1.934831822e-20
2.690716762e-20
3.279269133e-20
2.093723251e-21
3.246000074e-21
5.476260437e-21
9.445829463e-21
1.60540726e-20
2.618075104e-20
3.997562992e-20
5.557905112e-20
6.771589396e-20
4.294224282e-21
6.670244991e-21
1.127387592e-20
1.947370562e-20
3.312744448e-20
5.404541967e-20
8.25218746e-20
1.147031181e-19
1.397114029e-19
8.811465756e-21
1.370877586e-20
2.320545727e-20
4.013019623e-20
6.831603155e-20
1.114851317e-19
1.702154435e-19
2.365303329e-19
2.880180294e-19
1.808618422e-20
2.817624304e-20
4.77555143e-20
8.266379365e-20
1.408012938e-19
2.298134295e-19
3.508316645e-19
4.873608449e-19
5.932670791e-19
3.712968058e-20
5.791047927e-20
9.825522468e-20
1.702066634e-19
2.900286904e-19
4.734050633e-19
7.22537139e-19
1.00333984e-18
1.220943831e-18
7.622669337e-20
1.190077053e-19
2.020955151e-19
3.502964701e-19
5.970495654e-19
9.744738187e-19
1.486800469e-18
2.06364698e-18
2.510160657e-18
1.564692528e-19
2.444973544e-19
4.155033566e-19
7.205217605e-19
1.228205409e-18
2.00420021e-18
3.056473238e-18
4.239768965e-18
5.154475112e-18
3.210725867e-19
5.020907844e-19
8.53780105e-19
1.480984851e-18
2.524402801e-18
4.117853473e-18
6.275907295e-18
8.698940628e-18
1.056890048e-17
6.5846506e-19
1.030414014e-18
1.753032687e-18
3.04134722e-18
5.183065723e-18
8.450044671e-18
1.286773322e-17
1.781853704e-17
2.163156707e-17
1.349279212e-18
2.112772048e-18
3.595827028e-18
6.238537619e-18
1.062763801e-17
1.731308402e-17
2.633588007e-17
3.642413693e-17
4.417463673e-17
2.761698348e-18
4.326868735e-18
7.366156231e-18
1.277804227e-17
2.175510483e-17
3.540405701e-17
5.378105591e-17
7.426980972e-17
8.996290858e-17
5.644199311e-18
8.847515805e-18
1.506466131e-17
2.61243409e-17
4.444072742e-17
7.22266221e-17
1.095285052e-16
1.509734221e-16
1.826012742e-16
1.151353637e-17
1.805597281e-17
3.074487996e-17
5.328846669e-17
9.054983768e-17
1.469188543e-16
2.223253425e-16
3.057600821e-16
3.691538811e-16
2.343194665e-17
3.676025159e-17
6.258598672e-17
1.083950484e-16
1.839261349e-16
2.978066872e-16
4.495034667e-16
6.165277479e-16
7.427847067e-16
4.755563711e-17
7.462498196e-17
1.270131131e-16
2.197520193e-16
3.722087447e-16
6.011510984e-16
9.045945281e-16
1.236787241e-15
1.486421912e-15
9.620164308e-17
1.509789664e-16
2.568313072e-16
4.437559488e-16
7.499557202e-16
1.207596263e-15
1.810631762e-15
2.46646767e-15
2.956036528e-15
1.938830021e-16
3.04261109e-16
5.171609575e-16
8.920135306e-16
1.50347446e-15
2.412315782e-15
3.601912003e-15
4.886080131e-15
5.837614477e-15
3.891042605e-16
6.104414975e-16
1.036400647e-15
1.783760387e-15
2.996868925e-15
4.788548462e-15
7.116031694e-15
9.607883389e-15
1.143943285e-14
7.772505944e-16
1.218661598e-15
2.065861038e-15
3.546190843e-15
5.935444361e-15
9.438899679e-15
1.395191845e-14
1.874028495e-14
2.222952163e-14
1.544675291e-15
2.419618699e-15
4.093557952e-15
7.004528606e-15
1.167256378e-14
1.846266029e-14
2.712913135e-14
3.623582053e-14
4.281174003e-14
3.05297418e-15
4.775655072e-15
8.05926677e-15
1.373828997e-14
2.277928493e-14
3.581433975e-14
5.228693995e-14
6.942043735e-14
8.167682335e-14
5.998838361e-15
9.366060042e-15
1.575693817e-14
2.674180214e-14
4.408951132e-14
6.886185636e-14
9.983854463e-14
1.31718353e-13
1.543067218e-13
1.171491057e-14
1.824550727e-14
3.058016148e-14
5.163537788e-14
8.45953092e-14
1.311809203e-13
1.887955557e-13
2.474513114e-13
2.886164384e-13
2.273160621e-14
3.529313237e-14
5.888919113e-14
9.886189879e-14
1.608446096e-13
2.475085566e-13
3.53481164e-13
4.601995595e-13
5.343929934e-13
4.381804752e-14
6.777098477e-14
1.124925929e-13
1.876275196e-13
3.029644805e-13
4.624272841e-13
6.551885953e-13
8.472200341e-13
9.795072825e-13
8.389548995e-14
1.291587981e-13
2.131074773e-13
3.52896789e-13
5.65224795e-13
8.554309857e-13
1.202227003e-12
1.544076691e-12
1.777507889e-12
1.595264436e-13
2.442639445e-13
4.002970631e-13
6.576825104e-13
1.044376064e-12
1.566806445e-12
2.184072014e-12
2.786353265e-12
3.194201204e-12
3.012249784e-13
4.583492715e-13
7.454595124e-13
1.21442364e-12
1.911173549e-12
2.841686766e-12
3.929049182e-12
4.97973714e-12
5.685692682e-12
5.647722613e-13
8.532881582e-13
1.376243297e-12
2.221811175e-12
3.464064092e-12
5.104382996e-12
7.000989148e-12
8.816910765e-12
1.002824681e-11
1.051325321e-12
1.57588621e-12
2.518745773e-12
4.027615452e-12
6.219782133e-12
9.082746804e-12
1.23599457e-11
1.547116993e-11
1.753301216e-11
1.942808677e-12
2.887040321e-12
4.569717567e-12
7.234826788e-12
1.106481985e-11
1.601447385e-11
2.162739539e-11
2.691495952e-11
3.03989249e-11
3.563555109e-12
5.246165946e-12
8.218809172e-12
1.287913726e-11
1.95062246e-11
2.798627449e-11
3.752030536e-11
4.644018612e-11
5.228906622e-11
6.486445328e-12
9.454549111e-12
1.465321029e-11
2.272245165e-11
3.408248633e-11
4.848595986e-11
6.455513411e-11
7.950124766e-11
8.92651359e-11
1.171341727e-11
1.68957763e-11
2.589605254e-11
3.97324464e-11
5.902882354e-11
8.329087963e-11
1.101773343e-10
1.35067335e-10
1.512887446e-10
2.097838664e-11
2.993377741e-11
4.535876635e-11
6.885572686e-11
1.013404848e-10
1.418785737e-10
1.865495337e-10
2.277640974e-10
2.546043735e-10
3.72483337e-11
5.256321874e-11
7.873103709e-11
1.182454371e-10
1.724339442e-10
2.396232419e-10
3.133389516e-10
3.812188052e-10
4.254648836e-10
6.553165125e-11
9.143648381e-11
1.353587626e-10
2.011477392e-10
2.90722737e-10
4.011863697e-10
5.219916789e-10
6.331718096e-10
7.058268482e-10
1.141471131e-10
1.574710537e-10
2.303974296e-10
3.38820944e-10
4.855094621e-10
6.655930177e-10
8.621171311e-10
1.043106625e-09
1.161840903e-09
1.96715795e-10
2.68330116e-10
3.880665918e-10
5.648791094e-10
8.027520095e-10
1.093705922e-09
1.410830637e-09
1.703355053e-09
1.896155955e-09
3.35189935e-10
4.521496034e-10
6.464815878e-10
9.316691456e-10
1.313434387e-09
1.778978988e-09
2.286089868e-09
2.754829228e-09
3.065246954e-09
5.643759396e-10
7.530371262e-10
1.064688091e-09
1.519439344e-09
2.125467766e-09
2.862589657e-09
3.665273479e-09
4.4087278e-09
4.903167655e-09
9.385571345e-10
1.239030646e-09
1.732710341e-09
2.449268498e-09
3.400269298e-09
4.554264971e-09
5.810435421e-09
6.975724195e-09
7.753278031e-09
1.541011539e-09
2.013408739e-09
2.785645924e-09
3.900960915e-09
5.375398879e-09
7.160314314e-09
9.10182287e-09
1.090427412e-08
1.210956199e-08
2.497453726e-09
3.230490754e-09
4.423098018e-09
6.137368114e-09
8.394855972e-09
1.112054803e-08
1.408139084e-08
1.682977704e-08
1.866918336e-08
3.994712378e-09
5.117352425e-09
6.935516058e-09
9.536840551e-09
1.294881102e-08
1.705589326e-08
2.150817002e-08
2.563636025e-08
2.839795509e-08
6.30627574e-09
8.003184694e-09
1.07392682e-08
1.463567498e-08
1.972462949e-08
2.582860566e-08
3.242734159e-08
3.853298543e-08
4.261035029e-08
9.826637457e-09
1.235825759e-08
1.642238905e-08
2.218242242e-08
2.967102306e-08
3.861689896e-08
4.825461688e-08
5.714530561e-08
6.306541748e-08
1.511650718e-08
1.884445967e-08
2.480281013e-08
3.320572845e-08
4.407695308e-08
5.700532935e-08
7.087687839e-08
8.362399993e-08
9.207923042e-08
2.296070755e-08
2.837902828e-08
3.700047488e-08
4.909698125e-08
6.466622054e-08
8.309118731e-08
1.027687826e-07
1.207688898e-07
1.326529734e-07
3.44399394e-08
4.221246589e-08
5.452415867e-08
7.170818208e-08
9.370718601e-08
1.196053195e-07
1.471228541e-07
1.721656577e-07
1.886130839e-07
5.101691101e-08
6.202096219e-08
7.937281488e-08
1.034636637e-07
1.341347225e-07
1.70043043e-07
2.079873578e-07
2.423282871e-07
2.647558623e-07
7.463661142e-08
9.001245973e-08
1.141492159e-07
1.47481539e-07
1.896783964e-07
2.387971535e-07
2.904019578e-07
3.368355365e-07
3.669837893e-07
1.078387216e-07
1.290429917e-07
1.621805625e-07
2.076974498e-07
2.649871068e-07
3.312807745e-07
4.00516418e-07
4.624445336e-07
5.024152644e-07
1.538768847e-07
1.827364884e-07
2.276373707e-07
2.889796982e-07
3.657367731e-07
4.540238353e-07
5.456734257e-07
6.271602561e-07
6.794450848e-07
2.168360853e-07
2.555980699e-07
3.156389268e-07
3.972219559e-07
4.987048255e-07
6.147245265e-07
7.344346151e-07
8.402381244e-07
9.077318019e-07
3.017368029e-07
3.531084452e-07
4.323316017e-07
5.393983356e-07
6.71794779e-07
8.222376974e-07
9.765307821e-07
1.11210013e-06
1.198092192e-06
4.146129869e-07
4.817861683e-07
5.849263577e-07
7.235667898e-07
8.939970053e-07
1.086487027e-06
1.282724373e-06
1.454154108e-06
1.56229367e-06
5.625518411e-07
6.492059334e-07
7.816842951e-07
9.588112583e-07
1.175278571e-06
1.418297221e-06
1.664584562e-06
1.878520545e-06
2.012751876e-06
7.536858331e-07
8.639648008e-07
1.031844636e-06
1.255120577e-06
1.526405079e-06
1.82915526e-06
2.134190706e-06
2.397689009e-06
2.562159709e-06
9.971327425e-07
1.135594628e-06
1.345497298e-06
1.623211716e-06
1.958708944e-06
2.330923125e-06
2.70379491e-06
3.024142355e-06
3.223090592e-06
1.30288641e-06
1.474426545e-06
1.733410693e-06
2.074314275e-06
2.483828551e-06
2.935534644e-06
3.385484423e-06
3.769996024e-06
4.007627181e-06
1.681667921e-06
1.89142048e-06
2.206832498e-06
2.61993982e-06
3.113448346e-06
3.654712951e-06
4.190885932e-06
4.646698582e-06
4.927063625e-06
2.144752413e-06
2.397977598e-06
2.777284804e-06
3.271661464e-06
3.859069042e-06
4.499740776e-06
5.130945829e-06
5.664828106e-06
5.991715759e-06
2.703788955e-06
3.005754453e-06
3.456374043e-06
4.04092523e-06
4.731829765e-06
5.48130436e-06
6.215805092e-06
6.834000752e-06
7.210854877e-06
3.3706291e-06
3.726494322e-06
4.255630332e-06
4.938906036e-06
5.742391743e-06
6.609415957e-06
7.454767591e-06
8.162882147e-06
8.592739993e-06
4.157174175e-06
4.571884074e-06
5.186381777e-06
5.976409672e-06
6.900879733e-06
7.893406006e-06
8.85635042e-06
9.659293843e-06
1.014478153e-05
5.075243455e-06
5.55343598e-06
6.259658659e-06
7.163809364e-06
8.216861734e-06
9.341957279e-06
1.042838542e-05
1.133039373e-05
1.187378223e-05
6.13645785e-06
6.682385966e-06
7.48611394e-06
8.510995478e-06
9.699332608e-06
1.096312307e-05
1.217807038e-05
1.318280252e-05
1.378628807e-05
7.352129411e-06
7.969596559e-06
8.875945357e-06
1.002731974e-05
1.135667714e-05
1.276429069e-05
1.411187127e-05
1.522224232e-05
1.588734758e-05
8.7331475e-06
9.425455445e-06
1.043881157e-05
1.172153285e-05
1.31966328e-05
1.475217562e-05
1.623562461e-05
1.745396431e-05
1.818149152e-05
1.028985653e-05
1.105976526e-05
1.218373839e-05
1.36017077e-05
1.522622231e-05
1.693276568e-05
1.855438403e-05
1.988191093e-05
2.067226211e-05
1.203192687e-05
1.288162815e-05
1.411902418e-05
1.567517406e-05
1.745172533e-05
1.931130925e-05
2.107246817e-05
2.250936386e-05
2.336243207e-05
1.396822592e-05
1.489933062e-05
1.625214288e-05
1.794843529e-05
1.987863932e-05
2.189236418e-05
2.379300244e-05
2.533868161e-05
2.625392497e-05
1.610670332e-05
1.712024073e-05
1.858964993e-05
2.042710391e-05
2.251156326e-05
2.467924602e-05
2.671823357e-05
2.837135647e-05
2.934782753e-05
1.845428999e-05
1.955073321e-05
2.113715944e-05
2.311588979e-05
2.535422702e-05
2.767423025e-05
2.984947526e-05
3.160801141e-05
3.264439466e-05
2.10168968e-05
2.219620383e-05
2.389936443e-05
2.601870102e-05
2.84089009e-05
3.087854756e-05
3.318709853e-05
3.504840278e-05
3.61430578e-05
2.379943462e-05
2.506109746e-05
2.688001517e-05
2.913771088e-05
3.167671828e-05
3.429240021e-05
3.673054608e-05
3.869143715e-05
3.984244317e-05
2.680590001e-05
2.814871993e-05
3.008104645e-05
3.247386911e-05
3.515770233e-05
3.791499022e-05
4.047836067e-05
4.253519965e-05
4.374039992e-05
3.003845819e-05
3.146036605e-05
3.35030091e-05
3.60269171e-05
3.885079721e-05
4.174455663e-05
4.44282235e-05
4.657699137e-05
4.783403612e-05
3.349746388e-05
3.499593687e-05
3.714518369e-05
3.97954461e-05
4.27539189e-05
4.577842502e-05
4.857700178e-05
5.081337393e-05
5.211976124e-05
3.718191715e-05
3.875404377e-05
4.100565912e-05
4.377696689e-05
4.686401894e-05
5.001306697e-05
5.292080348e-05
5.524021986e-05
5.659333355e-05
4.108956248e-05
4.273210344e-05
4.508141812e-05
4.796798861e-05
5.117715707e-05
5.444416647e-05
5.745503758e-05
5.985276723e-05
6.12499113e-05
4.521698673e-05
4.692643382e-05
4.936842814e-05
5.236410372e-05
5.568857944e-05
5.906669077e-05
6.217447751e-05
6.464567691e-05
6.608410638e-05
4.955972067e-05
5.133235351e-05
5.386173637e-05
5.696007684e-05
6.039279993e-05
6.387496354e-05
6.707332647e-05
6.961309165e-05
7.10900397e-05
5.411234405e-05
5.594428401e-05
5.855556707e-05
6.174993528e-05
6.528368252e-05
6.886273872e-05
7.214528341e-05
7.474869569e-05
7.626139735e-05
5.886859269e-05
6.075585318e-05
6.344341931e-05
6.672705943e-05
7.035452336e-05
7.402327393e-05
7.738360854e-05
8.004577442e-05
8.159148692e-05
6.382146528e-05
6.575999798e-05
6.851816371e-05
7.188427179e-05
7.559813118e-05
7.934940243e-05
8.278118792e-05
8.549727334e-05
8.707329351e-05
6.896332852e-05
7.09490651e-05
7.377213663e-05
7.721392346e-05
8.100690543e-05
8.48336031e-05
8.833059641e-05
9.109585591e-05
9.269953481e-05
7.428601884e-05
7.631490823e-05
7.919723104e-05
8.270797732e-05
8.657291132e-05
9.046806786e-05
9.402415863e-05
9.683395986e-05
9.8462715e-05
7.978093997e-05
8.184898102e-05
8.47849832e-05
8.835808733e-05
9.228795155e-05
9.624476615e-05
9.98540075e-05
0.0001027038516
0.000104355177
8.543915539e-05
8.75424252e-05
9.052665472e-05
9.415567361e-05
9.814363408e-05
0.0001021555062
0.0001058121402
0.0001086976782
0.0001103691525
9.125147534e-05
9.338615331e-05
9.64133096e-05
0.0001000919929
0.0001041314361
0.0001081919929
0.0001118904709
0.0001148075173
0.0001164968104
9.720853788e-05
9.937092589e-05
0.000102435886
0.0001061582043
0.0001102427634
0.0001143458819
0.000118080881
0.0001210254238
0.0001227303015
0.0001033008839
0.0001054874228
0.0001085852626
0.00011234543
0.000116469006
0.0001206088298
0.0001243752651
0.0001273434734
0.0001290618014
0.0001095190262
0.0001117263087
0.0001148523198
0.0001186448113
0.0001228015887
0.000126972541
0.0001307655741
0.0001337538037
0.0001354835501
0.0001158535116
0.0001180782926
0.0001212279948
0.0001250475595
0.0001292320176
0.0001334288095
0.0001372438549
0.0001402486513
0.0001419878878
0.0001222949784
0.0001245341819
0.0001277033319
0.0001315450015
0.0001357519221
0.000139969558
0.0001438022854
0.0001468203854
0.0001485672883
0.000128834206
0.0001310849299
0.0001342695271
0.0001381286213
0.000142353092
0.0001465868715
0.0001504332069
0.0001534615385
0.0001552143883
0.0001354621599
0.0001377216785
0.0001409179676
0.0001447900957
0.0001490275107
0.0001532730283
0.0001571291523
0.0001601648328
0.0001619220135
0.0001421700305
0.0001444357948
0.0001476402659
0.0001515213259
0.0001557673842
0.0001600205257
0.0001638828701
0.0001669232041
0.0001686832015
0.0001489492662
0.0001512189032
0.0001544282892
0.0001583144646
0.000162565165
0.0001668221028
0.0001706873462
0.000173729821
0.0001754912208
0.0001557916018
0.0001580629111
0.0001612741839
0.0001651619381
0.000169413573
0.0001736707594
0.0001775358205
0.0001805781019
0.0001823395873
0.000162689081
0.0001649600314
0.000168170396
0.0001720564649
0.0001763056122
0.0001805597709
0.0001844218016
0.0001874617283
0.0001892220771
0.000169634075
0.0001719027994
0.0001751096868
0.0001789910703
0.0001832345836
0.0001874827005
0.0001913390773
0.0001943746551
0.0001961327366
0.0001766192965
0.0001788840859
0.0001820851449
0.0001859590967
0.0001901940948
0.0001944334076
0.000198281723
0.000201311118
0.0002030658896
0.0001836378091
0.0001858971064
0.0001890901944
0.0001929542112
0.0001971780665
0.0002014060538
0.0002052441067
0.0002082656385
0.0002100161421
0.0001906830338
0.0001929354267
0.0001961185998
0.0001999704101
0.0002041807366
0.0002083951058
0.0002122208918
0.0002152330265
0.0002169783846
0.0001977487518
0.0001999929651
0.0002031644683
0.00020700202
0.0002111966605
0.0002153953365
0.0002192070375
0.0002222083803
0.0002239477923
0.0002048291037
0.0002070639923
0.0002102222486
0.0002140436969
0.0002182207103
0.0002224018231
0.0002261977974
0.0002291870848
0.0002309198229
0.0002119185873
0.0002141431279
0.000217286728
0.000221090423
0.0002252480713
0.0002294099437
0.0002331887154
0.0002361648084
0.0002378902139
0.0002190120519
0.0002212253357
0.000224353027
0.0002281375013
0.0002322742368
0.0002364153726
0.0002401756216
0.0002431374977
0.0002448549768
0.0002261046914
0.000228305916
0.0002314165923
0.0002351805486
0.0002392950013
0.000243414073
0.0002471546249
0.0002501013712
0.0002518103914
0.000233192035
0.0002353804971
0.0002384731881
0.0002422154875
0.0002463064525
0.0002504022902
0.0002541221064
0.0002570529123
0.0002587529982
0.0002402699372
0.0002424450252
0.0002455188864
0.0002492385366
0.0002533049621
0.0002573765416
0.00026107471
0.0002639888602
0.0002656795902
0.0002473345662
0.000249495753
0.0002525500563
0.0002562462001
0.0002602871758
0.0002643336082
0.0002680093337
0.0002709062014
0.0002725872037
0.0002543823917
0.000256529228
0.0002595633517
0.0002632352566
0.0002672500025
0.0002712705235
0.0002749231192
0.0002778021599
0.0002794731092
0.0002614101716
0.0002635422793
0.0002665556999
0.0002702027474
0.0002741906032
0.0002781845631
0.0002818134419
0.000284674187
0.0002863348011
0.0002684149391
0.000270532005
0.0002735242882
0.0002771459644
0.0002811063794
0.0002850732335
0.0002886779001
0.000291519951
0.0002931699874
0.0002753939884
0.0002774957586
0.0002804665516
0.0002840624375
0.0002879949609
0.0002919342608
0.0002955143041
0.0002983373264
0.0002999765797
0.0002823448615
0.0002844311355
0.0002873801593
0.0002909499225
0.0002948541947
0.0002987655795
0.0003023206651
0.0003051243838
0.0003067526822
0.0002892653338
0.0002913359596
0.0002942630021
0.0002978063886
0.0003016821323
0.000305565321
0.000309095185
0.0003118793788
0.0003134965815
0.0002961534006
0.0002982082702
0.0003011131795
0.000304630006
0.0003084770189
0.0003123318028
0.0003158362446
0.0003186007417
0.0003202067366
0.0003030072637
0.000305046308
0.0003079289864
0.0003114191333
0.0003152372805
0.0003190635165
0.0003225423939
0.0003252870671
0.0003268817681
0.0003098253176
0.0003118485029
0.0003147089016
0.0003181723064
0.0003219615134
0.0003257591171
0.0003292123401
0.0003319371035
0.0003335204482
0.000316606137
0.000318613461
0.0003214515745
0.0003248882261
0.0003286484731
0.0003324174132
0.0003358449389
0.0003385497432
0.0003401216908
0.0003233484664
0.0003253399542
0.000328155815
0.0003315657475
0.0003352970631
0.000339037356
0.0003424391842
0.0003451240135
0.0003466845429
0.0003300512069
0.0003320269082
0.0003348205832
0.0003382038711
0.0003419063268
0.000345618031
0.0003489941993
0.0003516590676
0.000353208175
0.0003367134048
0.000338673391
0.0003414449768
0.0003448017299
0.0003484754355
0.0003521586471
0.0003555092272
0.0003581541753
0.0003596918734
0.0003433342402
0.0003452786014
0.0003480282213
0.000351358581
0.0003550036798
0.0003586585286
0.0003619836223
0.0003646087153
0.0003661350308
0.0003499130171
0.00035184186
0.0003545696601
0.0003578737954
0.0003614904607
0.0003651171057
0.0003684168419
0.0003710221663
0.0003725371389
0.0003564491536
0.0003583625995
0.0003610687461
0.0003643468498
0.0003679352809
0.0003715339072
0.0003748084383
0.0003773940998
0.0003788977807
0.0003629421732
0.0003648403555
0.0003675250322
0.0003707773181
0.0003743377367
0.0003779085522
0.0003811580516
0.0003837241727
0.0003852166233
0.000369391696
0.0003712747585
0.0003739381638
0.0003771648634
0.000380697511
0.0003842407431
0.0003874654026
0.0003900121205
0.0003914934113
0.00037579743
0.0003776655259
0.0003803078706
0.0003835092309
0.0003870143655
0.0003905302588
0.0003937302858
0.0003962577511
0.0003977279606
0.0003821591646
0.0003840124541
0.0003866339599
0.0003898102404
0.0003932881345
0.0003967769481
0.0003999525639
0.0004024609382
0.000403920152
0.0003884767624
0.0003903154121
0.0003929163093
0.0003960677803
0.0003995187183
0.0004029807238
0.0004061321613
0.0004086216162
0.0004100699259
0.0003947501532
0.0003965743345
0.0003991548606
0.0004022818015
0.0004057060776
0.0004091415567
0.0004122690588
0.0004147397743
0.000416177277
0.0004009793274
0.0004027892159
0.0004053496141
0.0004084523111
0.0004118502277
0.000415259471
0.000418363289
0.0004208154521
0.0004222422493
0.0004071643307
0.0004089601049
0.0004115006227
0.0004145793678
0.0004179512338
0.0004213345386
0.0004244149306
0.0004268487345
0.0004282649316
0.0004133052583
0.000415087099
0.0004176079872
0.0004206630766
0.0004240092058
0.0004273668751
0.0004304241049
0.0004328397474
0.0004342454533
0.0004194022504
0.0004211703397
0.0004236718515
0.0004267035843
0.0004300242944
0.0004333566352
0.0004363909708
0.0004387886542
0.0004401839803
0.0004254554871
0.0004272100081
0.0004296923979
0.0004327010752
0.0004359966863
0.0004393040089
0.0004423157219
0.0004446956513
0.0004460807112
0.0004314651846
0.0004332063206
0.0004356698436
0.0004386557675
0.0004419266012
0.0004452092179
0.000448198582
0.0004505609651
0.0004519358743
0.0004374315912
0.0004391595253
0.0004416044364
0.0004445679093
0.0004478142878
0.0004510725118
0.0004540398025
0.0004563848486
0.0004577497239
0.0004433549835
0.0004450698983
0.0004474964517
0.0004504377752
0.0004536600206
0.0004568941656
0.0004598396592
0.0004621675787
0.0004635225377
0.0004492356635
0.0004509377403
0.0004533461891
0.0004562656638
0.0004594640971
0.0004626744764
0.000465598449
0.000467909453
0.0004692546143
0.000455073955
0.0004567633742
0.0004591539696
0.0004620518941
0.0004652268351
0.0004684137606
0.0004713164882
0.0004736107877
0.0004749462699
0.0004608702016
0.0004625471416
0.0004649201328
0.0004677968036
0.0004709485696
0.000474112352
0.0004769941094
0.000479271915
0.0004805978369
0.0004666247632
0.0004682894007
0.0004706450344
0.0004735007453
0.0004766296513
0.0004797705987
0.0004826316592
0.000484893181
0.000486209661
0.0004723380144
0.000473990524
0.0004763290442
0.0004791640858
0.0004822704436
0.0004853888619
0.0004882294968
0.0004904749434
0.0004917820997
0.000478010342
0.000479650896
0.0004819725435
0.0004847872031
0.0004878713212
0.0004909675131
0.0004937879914
0.0004960175699
0.00049731552
0.000483642143
0.0004852709114
0.0004875759238
0.0004903704848
0.0004934326679
0.0004965069325
0.0004993075204
0.0005015214363
0.0005028102968
0.0004892338227
0.0004908509727
0.0004931395841
0.0004959143259
0.0004989548745
0.0005020075073
0.000504788468
0.0005069869244
0.0005082668107
0.0004947857929
0.000496391489
0.0004986639297
0.0005014191275
0.0005044383375
0.0005074696296
0.0005102312226
0.00051241442
0.0005136854463
0.0005002984702
0.0005018928741
0.0005041493703
0.0005068852943
0.0005098834568
0.0005128936947
0.0005156361754
0.0005178043115
0.0005190665903
0.0005057722741
0.0005073555443
0.0005095963178
0.0005123132332
0.0005152906338
0.0005182800986
0.0005210037177
0.0005231569864
0.0005244106284
0.0005112076252
0.0005127799167
0.0005150051847
0.0005177033509
0.0005206602689
0.0005236292356
0.0005263342385
0.0005284728296
0.0005297179429
0.0005166049428
0.000518166407
0.0005203763813
0.0005230560513
0.000525992759
0.0005289414954
0.0005316281209
0.0005337522189
0.0005349889087
0.0005219646429
0.0005235154266
0.0005257103129
0.0005283717322
0.0005312884935
0.0005342172589
0.0005368857375
0.0005389955206
0.0005402238882
0.0005272871344
0.0005288273798
0.0005310073765
0.0005336507815
0.0005365478501
0.0005394568928
0.0005421074451
0.000544203083
0.0005454232248
0.0005325728156
0.0005341026586
0.0005362679553
0.0005388935712
0.0005417711878
0.0005446607431
0.0005472935766
0.0005493752283
0.000550587234
0.0005378220682
0.0005393416372
0.0005414924123
0.0005441004506
0.0005469588397
0.0005498291251
0.0005524444305
0.0005545122405
0.0005557161911
0.0005430352507
0.0005445446645
0.0005466810825
0.0005492717362
0.0005521111015
0.0005549623116
0.0005575602568
0.0005596143504
0.0005608103148
0.000548212689
0.0005497120541
0.0005518342611
0.0005544076998
0.0005572282165
0.0005600605154
0.0005626412382
0.0005646817149
0.0005658697461
0.000553354664
0.0005548440706
0.0005569521886
0.0005595085504
0.0005623103569
0.0005651238683
0.000567687466
0.0005697143909
0.0005708945207
0.0005584613957
0.0005599409125
0.0005620350316
0.0005645744135
0.0005673575988
0.0005701523923
0.0005726989088
0.0005747123012
0.0005758845324
0.0005635330219
0.0005650026898
0.000567082858
0.0005696053022
0.0005723698905
0.0005751459645
0.000577675373
0.0005796751913
0.0005808394894
0.0005685695721
0.0005700293949
0.0005720956054
0.0005746010825
0.0005773470129
0.0005801042727
0.0005826164538
0.0005846025774
0.0005857588583
0.0005735709343
0.0005750208679
0.0005770730421
0.0005795614297
0.0005822885309
0.0005850267612
0.0005875214758
0.0005894936818
0.0005906417983
0.0005785368138
0.0005799767521
0.0005820147194
0.0005844857757
0.000587193735
0.0005899125661
0.0005923894227
0.0005943473583
0.0005954870822
0.000583466684
0.0005848964424
0.0005869199149
0.0005893732468
0.0005920615726
0.0005947604404
0.0005972188556
0.0005991620047
0.0006002930074
0.0005883597286
0.0005897790233
0.0005917875665
0.0005942225912
0.0005968905687
0.0005995686676
0.0006020078205
0.0006039354662
0.0006050572948
0.0005932147733
0.0005946231985
0.0005966161963
0.0005990320971
0.0006016787376
0.0006043349663
0.0006067537476
0.0006086649289
0.0006097769809
0.0005980302086
0.0005994272091
0.000601403825
0.0006037995033
0.0006064234877
0.0006090563894
0.0006114533432
0.0006133468092
0.0006144483043
0.0006028039047
0.0006041887463
0.0006061478805
0.0006085219009
0.0006111215188
0.0006137292184
0.0006161024832
0.0006179766428
0.0006190665938
0.0006075331216
0.0006089048591
0.0006108451017
0.000613195635
0.0006157687204
0.0006183488585
0.000620696106
0.0006225489798
0.0006236261636
0.0006122144138
0.0006135718581
0.0006154914424
0.0006178162077
0.0006203600747
0.0006229097427
0.0006252281189
0.0006270572932
0.0006281202242
0.0006168435381
0.0006181852229
0.0006200819789
0.0006223781877
0.0006248895706
0.0006274052517
0.0006296913244
0.0006314939107
0.0006325408189
0.0006214153648
0.0006227395169
0.0006246108291
0.000626875136
0.0006293501372
0.0006318276571
0.0006340773755
0.0006358499819
0.0006368787974
0.0006259238036
0.0006272283168
0.0006290710896
0.0006312995537
0.0006337336057
0.0006361681011
0.0006383767716
0.0006401154891
0.0006411238371
0.0006303617472
0.0006316441646
0.0006334548002
0.0006356428619
0.0006380307102
0.0006404166185
0.0006425789056
0.000644279315
0.0006452645237
0.0006347210442
0.0006359785508
0.0006377529423
0.0006398954235
0.0006422311346
0.0006445622149
0.0006466721703
0.0006483293753
0.0006492885001
0.000638992507
0.0006402219366
0.0006419554834
0.0006440466137
0.0006463236172
0.0006485930058
0.000650644134
0.0006522528238
0.0006531826894
0.0006431659653
0.0006443638246
0.0006460514723
0.0006480849486
0.000650296117
0.0006524964246
0.0006544817876
0.0006560363328
0.0006569335957
0.0006472303708
0.0006483928827
0.0006500291924