/*--------------------------------*- C++ -*----------------------------------*\
| =========                 |                                                 |
| \\      /  F ield         | OpenFOAM: The Open Source CFD Toolbox           |
|  \\    /   O peration     | Version:  2212                                  |
|   \\  /    A nd           | Website:  www.openfoam.com                      |
|    \\/     M anipulation  |                                                 |
\*---------------------------------------------------------------------------*/
FoamFile
{
    version     2.0;
    format      ascii;
    arch        "LSB;label=32;scalar=64";
    class       volScalarField;
    location    "20.00000000";
    object      H_0;
}
// * * * * * * * * * * * * * * * * * * * * * * * * * * * * * * * * * * * * * //

dimensions      [0 0 0 0 0 0 0];

internalField   nonuniform List<scalar> 
3000
(
3.743036929e-35
4.640487354e-35
6.073222518e-35
8.122641625e-35
1.086709884e-34
1.431662545e-34
1.828542042e-34
2.217526593e-34
2.471857493e-34
1.574323234e-34
1.965028354e-34
2.587603468e-34
3.477252658e-34
4.672822839e-34
6.204767613e-34
8.070764685e-34
1.01816436e-33
1.20911914e-33
4.046120734e-34
5.110778997e-34
6.82230204e-34
9.309645047e-34
1.274885147e-33
1.735194863e-33
2.329569828e-33
3.047351869e-33
3.716177099e-33
8.813389016e-34
1.130692773e-33
1.538922315e-33
2.149389599e-33
3.026058008e-33
4.251621775e-33
5.902432988e-33
7.941259828e-33
9.791891061e-33
1.786374447e-33
2.336410288e-33
3.258296391e-33
4.680650565e-33
6.796382267e-33
9.854642685e-33
1.405998939e-32
1.920820023e-32
2.368118851e-32
3.506702813e-33
4.685526122e-33
6.710431829e-33
9.927489416e-33
1.485480194e-32
2.213815602e-32
3.222391503e-32
4.434520392e-32
5.443242328e-32
6.815876691e-33
9.309739683e-33
1.369217229e-32
2.083185859e-32
3.201561706e-32
4.878098928e-32
7.200333146e-32
9.935948797e-32
1.207040813e-31
1.326049909e-32
1.849766185e-32
2.788355551e-32
4.348813524e-32
6.834100599e-32
1.059389907e-31
1.580375093e-31
2.192978459e-31
2.696608121e-31
2.595872345e-32
3.690766767e-32
5.684558146e-32
9.050493373e-32
1.447045588e-31
2.27005457e-31
3.404943536e-31
4.720735223e-31
5.768572139e-31
5.121614388e-32
7.403312846e-32
1.161120283e-31
1.879691882e-31
3.045381882e-31
4.818280839e-31
7.252385139e-31
1.004999373e-30
1.225936896e-30
1.018348262e-31
1.492757877e-31
2.376429006e-31
3.898559617e-31
6.380685812e-31
1.015849517e-30
1.532759401e-30
2.123347546e-30
2.587604853e-30
2.03862319e-31
3.023218115e-31
4.87166905e-31
8.076716769e-31
1.332288144e-30
2.131028171e-30
3.221054406e-30
4.461105404e-30
5.432876136e-30
4.103980093e-31
6.144325827e-31
9.998680465e-31
1.671588315e-30
2.774168888e-30
4.453143396e-30
6.739786168e-30
9.332923776e-30
1.136061432e-29
8.298353395e-31
1.25209586e-30
2.053730152e-30
3.456365705e-30
5.763641065e-30
9.277471937e-30
1.405575915e-29
1.946173917e-29
2.368163453e-29
1.683696059e-30
2.55660473e-30
4.220367244e-30
7.140754966e-30
1.195287967e-29
1.928231966e-29
2.923805233e-29
4.048179446e-29
4.924428374e-29
3.4251184e-30
5.227901785e-30
8.675138755e-30
1.474170972e-29
2.475215044e-29
4.000182882e-29
6.069933198e-29
8.404389569e-29
1.022007435e-28
6.981758176e-30
1.070205409e-29
1.783491479e-29
3.041457526e-29
5.119753318e-29
8.286549871e-29
1.258248977e-28
1.742322222e-28
2.117753659e-28
1.425397964e-29
2.192652549e-29
3.666987362e-29
6.271916065e-29
1.058026883e-28
1.714735969e-28
2.605398577e-28
3.608383386e-28
4.383087338e-28
2.913713823e-29
4.495307792e-29
7.540251438e-29
1.292884801e-28
2.185049359e-28
3.54560129e-28
5.391011871e-28
7.469058208e-28
9.073752007e-28
5.962030209e-29
9.221199746e-29
1.550632489e-28
2.664528329e-28
4.510704893e-28
7.328006437e-28
1.115098849e-27
1.54579761e-27
1.878738757e-27
1.220970085e-28
1.892458365e-28
3.189329965e-28
5.490950564e-28
9.310039734e-28
1.514347047e-27
2.306619796e-27
3.200179206e-27
3.892263415e-27
2.502242229e-28
3.885665614e-28
6.561297589e-28
1.131658675e-27
1.921749781e-27
3.130131854e-27
4.773683942e-27
6.630868655e-27
8.073791842e-27
5.131380059e-28
7.981917635e-28
1.35027568e-27
2.332967163e-27
3.968336793e-27
6.473999048e-27
9.889470563e-27
1.376019438e-26
1.678159125e-26
1.052933115e-27
1.640465737e-27
2.780053731e-27
4.812010752e-27
8.200381278e-27
1.340470301e-26
2.052103508e-26
2.862017688e-26
3.498443379e-26
2.161827984e-27
3.373423853e-27
5.727294289e-27
9.933122076e-27
1.696472508e-26
2.780063225e-26
4.268188385e-26
5.971815254e-26
7.322793735e-26
4.441133799e-27
6.941443628e-27
1.180824976e-26
2.052643439e-26
3.515118577e-26
5.778796436e-26
8.905651134e-26
1.25134799e-25
1.540915096e-25
9.129178675e-27
1.429396283e-26
2.437015267e-26
4.247820897e-26
7.298614671e-26
1.204798856e-25
1.865818511e-25
2.636272976e-25
3.264185415e-25
1.877850159e-26
2.946080352e-26
5.036000953e-26
8.807005435e-26
1.519536809e-25
2.521374033e-25
3.929171438e-25
5.590951739e-25
6.97094899e-25
3.865631383e-26
6.0786184e-26
1.042326518e-25
1.830234299e-25
3.174275092e-25
5.301424743e-25
8.326092e-25
1.195166892e-24
1.502999001e-24
7.964648961e-26
1.255836169e-25
2.161585546e-25
3.814503245e-25
6.658317319e-25
1.12097241e-24
1.777404683e-24
2.578555887e-24
3.276175668e-24
1.642772395e-25
2.598673106e-25
4.493431672e-25
7.977869579e-25
1.403528506e-24
2.386023237e-24
3.82671685e-24
5.621423107e-24
7.228115436e-24
3.392798538e-25
5.387808409e-25
9.367784725e-25
1.675506899e-24
2.975668796e-24
5.1175506e-24
8.317967495e-24
1.239574971e-23
1.615494248e-23
7.018554695e-25
1.119692587e-24
1.95972851e-24
3.536171162e-24
6.350868499e-24
1.107048332e-23
1.827041414e-23
2.766731666e-23
3.659301526e-23
1.45487549e-24
2.333639876e-24
4.116561244e-24
7.505592016e-24
1.365651227e-23
2.41741246e-23
4.057954387e-23
6.252801155e-23
8.39982768e-23
3.023566311e-24
4.880691349e-24
8.688876566e-24
1.603426435e-23
2.961103587e-23
5.332150449e-23
9.116823093e-23
1.430676368e-22
1.952721493e-22
6.303907195e-24
1.025062618e-23
1.844259839e-23
3.450425564e-23
6.478550955e-23
1.188514771e-22
2.071759481e-22
3.312006602e-22
4.591682721e-22
1.319587202e-23
2.163698655e-23
3.939781501e-23
7.484931873e-23
1.431024706e-22
2.677371646e-22
4.759779442e-22
7.748550489e-22
1.09016238e-21
2.775948405e-23
4.594343108e-23
8.477966631e-23
1.637931135e-22
3.192310133e-22
6.094165022e-22
1.104540789e-21
1.828999776e-21
2.607508596e-21
5.874994659e-23
9.823812758e-23
1.839360237e-22
3.617855603e-22
7.192640505e-22
1.400753185e-21
2.585446337e-21
4.346903635e-21
6.267043125e-21
1.252506122e-22
2.117693279e-22
4.027030717e-22
8.069638683e-22
1.636519938e-21
3.24819909e-21
6.094096166e-21
1.037792794e-20
1.509456937e-20
2.693785999e-22
4.608044606e-22
8.904984279e-22
1.818225563e-21
3.758612985e-21
7.589855633e-21
1.443679609e-20
2.48285917e-20
3.633537655e-20
5.85434243e-22
1.013531274e-21
1.990688012e-21
4.139368999e-21
8.708909465e-21
1.784649927e-20
3.430618891e-20
5.938710822e-20
8.71992422e-20
1.288057012e-21
2.256723554e-21
4.503036717e-21
9.523682637e-21
2.03458673e-20
4.217400427e-20
8.162957776e-20
1.417278993e-19
2.081953361e-19
2.874926215e-21
5.095115376e-21
1.031782484e-20
2.215068915e-20
4.790470043e-20
1.000641853e-19
1.942318802e-19
3.369822234e-19
4.938271198e-19
6.523769332e-21
1.168486499e-20
2.397447587e-20
5.210641612e-20
1.136666043e-19
2.382643123e-19
4.618762518e-19
7.977565569e-19
1.162984416e-18
1.508258791e-20
2.726719892e-20
5.656101895e-20
1.240601787e-19
2.719046935e-19
5.695332055e-19
1.098053571e-18
1.881311828e-18
2.721081682e-18
3.558965826e-20
6.483862728e-20
1.356340904e-19
2.992194809e-19
6.563242305e-19
1.368242327e-18
2.613922872e-18
4.428275017e-18
6.339793927e-18
8.578967847e-20
1.572208087e-19
3.307896924e-19
7.315737178e-19
1.600388374e-18
3.309805587e-18
6.248112345e-18
1.044298958e-17
1.477564562e-17
2.111404448e-19
3.885008684e-19
8.2001768e-19
1.812930904e-18
3.945134587e-18
8.078471033e-18
1.505252298e-17
2.481254517e-17
3.469977619e-17
5.292220639e-19
9.758231509e-19
2.061422364e-18
4.545955942e-18
9.8267675e-18
1.992082546e-17
3.668695823e-17
5.980696036e-17
8.292988234e-17
1.344591807e-18
2.479624388e-18
5.231440995e-18
1.149005728e-17
2.466890171e-17
4.959982843e-17
9.067187089e-17
1.471560314e-16
2.037589718e-16
3.439930187e-18
6.331661602e-18
1.331465147e-17
2.909667099e-17
6.210114473e-17
1.242855802e-16
2.270992551e-16
3.70681868e-16
5.178864132e-16
8.792526659e-18
1.611801903e-17
3.371726601e-17
7.326074756e-17
1.556715452e-16
3.115501561e-16
5.738041895e-16
9.526740908e-16
1.357771079e-15
2.227363823e-17
4.057397347e-17
8.42693204e-17
1.819385883e-16
3.855380034e-16
7.751882255e-16
1.450190376e-15
2.471195222e-15
3.61787667e-15
5.552006735e-17
1.002898034e-16
2.064318227e-16
4.426124846e-16
9.366800625e-16
1.899396712e-15
3.626821414e-15
6.362314553e-15
9.558032081e-15
1.35400453e-16
2.421097777e-16
4.932010738e-16
1.050025552e-15
2.22248589e-15
4.555085985e-15
8.880468449e-15
1.595201991e-14
2.433221036e-14
3.218950979e-16
5.693088762e-16
1.147464146e-15
2.427618565e-15
5.146736114e-15
1.066274023e-14
2.111482439e-14
3.830169253e-14
5.82228194e-14
7.454264131e-16
1.304821589e-15
2.605546384e-15
5.488935001e-15
1.167191334e-14
2.438450587e-14
4.852486974e-14
8.70943685e-14
1.290549457e-13
1.685287108e-15
2.926345884e-15
5.806928821e-15
1.221619228e-14
2.607043505e-14
5.461041004e-14
1.07534926e-13
1.867141071e-13
2.648163686e-13
3.73959272e-15
6.465066552e-15
1.279891804e-14
2.695637615e-14
5.762257813e-14
1.198103323e-13
2.291684098e-13
3.777116984e-13
5.08707798e-13
8.211441846e-15
1.4188561e-14
2.811205432e-14
5.927311314e-14
1.260877467e-13
2.564244354e-13
4.677714086e-13
7.246360564e-13
9.297616507e-13
1.802301917e-14
3.119532548e-14
6.186175506e-14
1.299331321e-13
2.717535845e-13
5.31215653e-13
9.118856731e-13
1.329431887e-12
1.640696576e-12
3.993713811e-14
6.912678851e-14
1.364759358e-13
2.824574774e-13
5.714287516e-13
1.056718159e-12
1.700005663e-12
2.354850547e-12
2.824786092e-12
8.987635981e-14
1.54444596e-13
3.001395063e-13
6.02587552e-13
1.159506151e-12
2.010013719e-12
3.047909191e-12
4.061221243e-12
4.77612814e-12
2.048276205e-13
3.452027274e-13
6.501341539e-13
1.245118764e-12
2.251269216e-12
3.66095178e-12
5.293233008e-12
6.860229031e-12
7.959894751e-12
4.66146117e-13
7.598243026e-13
1.365327441e-12
2.462527556e-12
4.170375856e-12
6.419281604e-12
8.959544451e-12
1.139132646e-11
1.309967306e-11
1.036025837e-12
1.61490105e-12
2.7389405e-12
4.631470532e-12
7.392059204e-12
1.090395011e-11
1.48421254e-11
1.862626973e-11
2.129793626e-11
2.197081199e-12
3.257710607e-12
5.202241764e-12
8.287671367e-12
1.261065616e-11
1.803165528e-11
2.41176826e-11
3.000458894e-11
3.419220472e-11
4.374638561e-12
6.182001713e-12
9.349565462e-12
1.418514314e-11
2.082550464e-11
2.912108592e-11
3.847550234e-11
4.759592141e-11
5.414194068e-11
8.140985863e-12
1.104505425e-11
1.598784779e-11
2.337517129e-11
3.343310917e-11
4.600531855e-11
6.025995877e-11
7.427508577e-11
8.44289191e-11
1.423632503e-11
1.87141923e-11
2.620745308e-11
3.728447991e-11
5.231428575e-11
7.113788963e-11
9.260247973e-11
1.138815978e-10
1.29437279e-10
2.362307788e-11
3.033125509e-11
4.144574422e-11
5.777539109e-11
7.989731099e-11
1.07667704e-10
1.395094821e-10
1.713202053e-10
1.947619519e-10
3.754094929e-11
4.735919119e-11
6.352172035e-11
8.717024877e-11
1.191776856e-10
1.594507325e-10
2.058633114e-10
2.525476657e-10
2.871816981e-10
5.75291909e-11
7.15916059e-11
9.462807535e-11
1.282246297e-10
1.736667251e-10
2.30964508e-10
2.972919415e-10
3.643906632e-10
4.144339257e-10
8.540890489e-11
1.051151851e-10
1.372688745e-10
1.840335395e-10
2.472495835e-10
3.27100033e-10
4.198758737e-10
5.141576656e-10
5.847508915e-10
1.232120569e-10
1.502218438e-10
1.9414194e-10
2.578635996e-10
3.439468427e-10
4.528267322e-10
5.796903947e-10
7.090470497e-10
8.061640953e-10
1.730782586e-10
2.09279653e-10
2.679677965e-10
3.529217275e-10
4.675972436e-10
6.12758358e-10
7.822251613e-10
9.554100991e-10
1.085649124e-09
2.371194595e-10
2.845719904e-10
3.612874061e-10
4.720911341e-10
6.215061212e-10
8.106835286e-10
1.031769687e-09
1.257985037e-09
1.428248219e-09
3.172786707e-10
3.781350188e-10
4.762652439e-10
6.176834691e-10
8.081257787e-10
1.049150971e-09
1.330884835e-09
1.619254026e-09
1.83634568e-09
4.152148389e-10
4.916305779e-10
6.145427801e-10
7.912635315e-10
1.028840061e-09
1.329202927e-09
1.68007946e-09
2.039068046e-09
2.309258727e-09
5.322478518e-10
6.26291384e-10
7.771836707e-10
9.935939859e-10
1.283908956e-09
1.650323301e-09
2.077770676e-09
2.514628556e-09
2.843238738e-09
6.693886277e-10
7.829627865e-10
9.647336021e-10
1.22472106e-09
1.572591482e-09
2.010614918e-09
2.520536454e-09
3.040827477e-09
3.43187859e-09
8.274591053e-10
9.622413155e-10
1.177387872e-09
1.484184416e-09
1.893417099e-09
2.407159763e-09
3.00359571e-09
3.610867058e-09
4.066860029e-09
1.00727987e-09
1.164680676e-09
1.415226798e-09
1.7712973e-09
2.244533956e-09
2.836467679e-09
3.521390703e-09
4.216988499e-09
4.738663695e-09
1.209877044e-09
1.391009978e-09
1.678454164e-09
2.085420729e-09
2.62404602e-09
3.294918007e-09
4.068180926e-09
4.851219824e-09
5.437770579e-09
1.436644297e-09
1.642296213e-09
1.967565701e-09
2.426153237e-09
3.030257454e-09
3.779127904e-09
4.638699716e-09
5.506610576e-09
6.156577909e-09
1.689398142e-09
1.919990064e-09
2.283387504e-09
2.793373549e-09
3.46174414e-09
4.286096763e-09
5.228471125e-09
6.178869657e-09
6.897119503e-09
1.970287951e-09
2.225823315e-09
2.626962549e-09
3.187124968e-09
3.917242646e-09
4.813057502e-09
5.833162344e-09
6.862265854e-09
7.646056389e-09
2.281560768e-09
2.561569466e-09
2.999317399e-09
3.607417925e-09
4.395573162e-09
5.357608999e-09
6.450324863e-09
7.558017166e-09
8.396946366e-09
2.625220551e-09
2.928713665e-09
3.401155825e-09
4.053954034e-09
4.895317296e-09
5.917717762e-09
7.07860047e-09
8.25566355e-09
9.141475832e-09
3.002655078e-09
3.328115143e-09
3.832598354e-09
4.526050027e-09
5.415103418e-09
6.492036956e-09
7.718073802e-09
8.949701443e-09
9.87295013e-09
3.414315526e-09
3.759737697e-09
4.293014813e-09
5.022495095e-09
5.954292985e-09
7.083837402e-09
8.361017239e-09
9.633973279e-09
1.058519575e-08
3.859558358e-09
4.222530303e-09
4.780837076e-09
5.541827942e-09
6.512798251e-09
7.688106022e-09
9.001878076e-09
1.030307317e-08
1.127280765e-08
4.336438696e-09
4.714416985e-09
5.294250494e-09
6.083311683e-09
7.092926044e-09
8.298859787e-09
9.63544927e-09
1.095216097e-08
1.193113635e-08
4.842509857e-09
5.233463373e-09
5.833006677e-09
6.65258882e-09
7.686787126e-09
8.910321209e-09
1.025684844e-08
1.157694736e-08
1.25562812e-08
5.376192819e-09
5.780436281e-09
6.402032555e-09
7.240346681e-09
8.287698417e-09
9.517130671e-09
1.08616012e-08
1.217372477e-08
1.314508922e-08
5.942059654e-09
6.358629272e-09
6.992114628e-09
7.839289368e-09
8.889727625e-09
1.011434871e-08
1.144569142e-08
1.273938783e-08
1.369514011e-08
6.534992178e-09
6.957059225e-09
7.595066808e-09
8.442926584e-09
9.487419825e-09
1.069745104e-08
1.200559395e-08
1.327143621e-08
1.420471314e-08
7.144490759e-09
7.567458364e-09
8.203998659e-09
9.0453693e-09
1.007575621e-08
1.126235944e-08
1.253829916e-08
1.376796146e-08
1.467273804e-08
7.762787301e-09
8.182923705e-09
8.812780113e-09
9.641233584e-09
1.065017259e-08
1.180547816e-08
1.304132453e-08
1.422761915e-08
1.509873393e-08
8.383302135e-09
8.797338845e-09
9.415852539e-09
1.022562699e-08
1.120659292e-08
1.232372012e-08
1.351271083e-08
1.464958895e-08
1.548274081e-08
9.000162447e-09
9.405178921e-09
1.000818519e-08
1.079416827e-08
1.174145781e-08
1.281451749e-08
1.395100378e-08
1.503352607e-08
1.582524777e-08
9.60807309e-09
1.000146796e-08
1.058528274e-08
1.134301039e-08
1.225173943e-08
1.327581621e-08
1.435522408e-08
1.537950767e-08
1.612712191e-08
1.020229754e-08
1.058178346e-08
1.114320107e-08
1.186885305e-08
1.273494052e-08
1.370605676e-08
1.472482902e-08
1.568797741e-08
1.638954031e-08
1.077866426e-08
1.114226615e-08
1.16785545e-08
1.236894092e-08
1.318907936e-08
1.410414432e-08
1.505966904e-08
1.595969074e-08
1.66139274e-08
1.133357014e-08
1.167962053e-08
1.218851002e-08
1.284104831e-08
1.361266333e-08
1.446941172e-08
1.535994198e-08
1.619566267e-08
1.680189839e-08
1.186397325e-08
1.219110354e-08
1.267076936e-08
1.328345317e-08
1.400465454e-08
1.480157811e-08
1.5626147e-08
1.639711932e-08
1.695520944e-08
1.23673748e-08
1.267450243e-08
1.312354135e-08
1.369490314e-08
1.436443039e-08
1.510070572e-08
1.585903996e-08
1.656545375e-08
1.707571453e-08
1.284179209e-08
1.312810449e-08
1.354550733e-08
1.407457676e-08
1.469174144e-08
1.53671565e-08
1.605959119e-08
1.670218656e-08
1.716532865e-08
1.328572494e-08
1.355066105e-08
1.393578225e-08
1.442204189e-08
1.49866686e-08
1.560154998e-08
1.622894627e-08
1.680893115e-08
1.722599684e-08
1.369811799e-08
1.394134803e-08
1.429387334e-08
1.473721323e-08
1.524958083e-08
1.580472327e-08
1.636839032e-08
1.688736343e-08
1.725966853e-08
1.407832049e-08
1.42997248e-08
1.461963814e-08
1.502031027e-08
1.548109455e-08
1.597769373e-08
1.64793158e-08
1.693919574e-08
1.726827642e-08
1.44260453e-08
1.462569271e-08
1.491324293e-08
1.527181659e-08
1.568203522e-08
1.612162463e-08
1.65631938e-08
1.69661546e-08
1.725371949e-08
1.474132803e-08
1.491945427e-08
1.517512248e-08
1.549244122e-08
1.585340166e-08
1.623779398e-08
1.662154882e-08
1.696996195e-08
1.721784931e-08
1.502448723e-08
1.518147378e-08
1.540594182e-08
1.568308241e-08
1.59963332e-08
1.632756644e-08
1.665593659e-08
1.695231938e-08
1.716245944e-08
1.527608618e-08
1.541243991e-08
1.56065602e-08
1.584479407e-08
1.61120798e-08
1.639236835e-08
1.666792499e-08
1.691489513e-08
1.70892771e-08
1.549689681e-08
1.561323053e-08
1.577799768e-08
1.597875514e-08
1.620197513e-08
1.643366564e-08
1.665907762e-08
1.685931347e-08
1.699995715e-08
1.568786585e-08
1.578488004e-08
1.592140442e-08
1.608624158e-08
1.626741253e-08
1.645294455e-08
1.663093984e-08
1.678714614e-08
1.689607757e-08
1.585008347e-08
1.592854927e-08
1.603803259e-08
1.616860137e-08
1.630982365e-08
1.645169482e-08
1.658502704e-08
1.669990561e-08
1.677913663e-08
1.598475448e-08
1.604549802e-08
1.612921108e-08
1.622723204e-08
1.633065979e-08
1.643139536e-08
1.6522815e-08
1.659903998e-08
1.665055112e-08
1.609317208e-08
1.613706026e-08
1.619632279e-08
1.626356086e-08
1.633137562e-08
1.6393502e-08
1.644573194e-08
1.648592918e-08
1.651165568e-08
1.617669423e-08
1.620462176e-08
1.624078446e-08
1.627902746e-08
1.631341513e-08
1.63394373e-08
1.635515227e-08
1.636188244e-08
1.636370301e-08
1.623672235e-08
1.624960035e-08
1.626402887e-08
1.627506878e-08
1.627819977e-08
1.62705821e-08
1.625239176e-08
1.622813673e-08
1.620786469e-08
1.627468263e-08
1.62734284e-08
1.626748942e-08
1.625310607e-08
1.622711845e-08
1.618826874e-08
1.613870391e-08
1.608585612e-08
1.604523272e-08
1.629200944e-08
1.627753765e-08
1.625258678e-08
1.621453398e-08
1.616151927e-08
1.609377575e-08
1.601527754e-08
1.593613194e-08
1.587682144e-08
1.6290131e-08
1.626334607e-08
1.622071754e-08
1.616071139e-08
1.608270292e-08
1.598832377e-08
1.58832353e-08
1.577998352e-08
1.570356994e-08
1.627045715e-08
1.623224672e-08
1.61732447e-08
1.609295398e-08
1.599191745e-08
1.587307271e-08
1.574363302e-08
1.561835949e-08
1.552634468e-08
1.623436888e-08
1.618559843e-08
1.611148989e-08
1.601252821e-08
1.589035433e-08
1.57491199e-08
1.559745979e-08
1.545213963e-08
1.534594245e-08
1.618320974e-08
1.612471813e-08
1.603672709e-08
1.592064674e-08
1.577914568e-08
1.561749907e-08
1.544563873e-08
1.528213691e-08
1.516309348e-08
1.611827877e-08
1.605087474e-08
1.595017771e-08
1.581846505e-08
1.565936245e-08
1.547918018e-08
1.528902817e-08
1.510910002e-08
1.497846463e-08
1.604082494e-08
1.596528434e-08
1.585300694e-08
1.570707904e-08
1.553201347e-08
1.533506984e-08
1.512842333e-08
1.493371596e-08
1.479266274e-08
1.595204292e-08
1.586910667e-08
1.574632124e-08
1.558752371e-08
1.539804534e-08
1.51860123e-08
1.49645584e-08
1.475661292e-08
1.4606238e-08
1.58530699e-08
1.576344266e-08
1.563116668e-08
1.546077253e-08
1.525834284e-08
1.503279091e-08
1.479810873e-08
1.457836324e-08
1.441968728e-08
1.574498361e-08
1.564933292e-08
1.550852824e-08
1.532773758e-08
1.511372992e-08
1.487612994e-08
1.462969344e-08
1.439948638e-08
1.423345746e-08
1.562880112e-08
1.552775702e-08
1.537932975e-08
1.518927021e-08
1.496497119e-08
1.471669668e-08
1.445987799e-08
1.422045203e-08
1.404794876e-08
1.550547845e-08
1.539963358e-08
1.524443448e-08
1.504616231e-08
1.48127737e-08
1.455510378e-08
1.428917702e-08
1.404168311e-08
1.386351786e-08
1.537591086e-08
1.526582086e-08
1.51046462e-08
1.48991478e-08
1.465778899e-08
1.439191176e-08
1.411805713e-08
1.386355884e-08
1.36804811e-08
1.524093368e-08
1.512711788e-08
1.496071074e-08
1.474890465e-08
1.450061546e-08
1.422763165e-08
1.39469397e-08
1.368641764e-08
1.349911741e-08
1.510132364e-08
1.498426597e-08
1.481331774e-08
1.459605697e-08
1.434180077e-08
1.406272765e-08
1.377620376e-08
1.351056003e-08
1.33196712e-08
1.49578005e-08
1.483795063e-08
1.466310284e-08
1.44411774e-08
1.418184447e-08
1.389761984e-08
1.360618874e-08
1.333625142e-08
1.314235513e-08
1.481102905e-08
1.468880363e-08
1.451064994e-08
1.428478956e-08
1.402120052e-08
1.373268693e-08
1.34371972e-08
1.316372479e-08
1.29673527e-08
1.466162133e-08
1.453740538e-08
1.435649367e-08
1.412737068e-08
1.386028012e-08
1.356826893e-08
1.326949752e-08
1.299318322e-08
1.279482072e-08
1.451013896e-08
1.438428732e-08
1.420112189e-08
1.396935417e-08
1.36994542e-08
1.340466979e-08
1.310332643e-08
1.282480242e-08
1.262489171e-08
1.435709571e-08
1.422993452e-08
1.404497836e-08
1.381113228e-08
1.353905614e-08
1.324215996e-08
1.293889145e-08
1.265873293e-08
1.245767602e-08
1.420295992e-08
1.407478818e-08
1.388846526e-08
1.365305866e-08
1.33793843e-08
1.308097883e-08
1.277637323e-08
1.249510235e-08
1.229326387e-08
1.404815716e-08
1.391924822e-08
1.373194573e-08
1.349545082e-08
1.322070434e-08
1.292133703e-08
1.261592769e-08
1.233401734e-08
1.21317273e-08
1.389307278e-08
1.376367588e-08
1.357574648e-08
1.333859274e-08
1.306325183e-08
1.276341878e-08
1.245768819e-08
1.217556561e-08
1.197312193e-08
1.373805451e-08
1.360839628e-08
1.342016027e-08
1.318273725e-08
1.290723443e-08
1.260738405e-08
1.230176754e-08
1.201981764e-08
1.181748863e-08
1.358341494e-08
1.345370086e-08
1.326544836e-08
1.302810836e-08
1.275283414e-08
1.245337053e-08
1.214825976e-08
1.186682841e-08
1.166485504e-08
1.342943395e-08
1.329984976e-08
1.311184274e-08
1.287490343e-08
1.260020934e-08
1.230149561e-08
1.199724187e-08
1.171663892e-08
1.151523698e-08
1.327636108e-08
1.314707415e-08
1.29595484e-08
1.272329532e-08
1.244949677e-08
1.215185811e-08
1.184877549e-08
1.156927761e-08
1.136863976e-08
1.312441775e-08
1.299557839e-08
1.280874546e-08
1.257343437e-08
1.230081339e-08
1.200454002e-08
1.170290835e-08
1.142476173e-08
1.122505934e-08
1.297379943e-08
1.284554215e-08
1.265959112e-08
1.242545029e-08
1.215425812e-08
1.185960806e-08
1.155967563e-08
1.128309849e-08
1.108448348e-08
1.28246777e-08
1.269712241e-08
1.251222163e-08
1.227945393e-08
1.200991344e-08
1.17171151e-08
1.141910133e-08
1.114428624e-08
1.094689267e-08
1.267720219e-08
1.255045531e-08
1.236675399e-08
1.213553897e-08
1.186784694e-08
1.157710158e-08
1.128119939e-08
1.100831546e-08
1.081226109e-08
1.253150242e-08
1.240565793e-08
1.22232877e-08
1.199378342e-08
1.172811275e-08
1.143959671e-08
1.114597478e-08
1.087516971e-08
1.068055742e-08
1.238768947e-08
1.226282997e-08
1.208190631e-08
1.185425114e-08
1.159075279e-08
1.130461965e-08
1.101342456e-08
1.074482648e-08
1.055174557e-08
1.224585766e-08
1.212205528e-08
1.194267885e-08
1.171699314e-08
1.145579803e-08
1.11721806e-08
1.088353873e-08
1.061725798e-08
1.042578541e-08
1.210608604e-08
1.198340331e-08
1.180566121e-08
1.158204884e-08
1.13232696e-08
1.104228174e-08
1.075630111e-08
1.049243184e-08
1.030263334e-08
1.196843977e-08
1.184693046e-08
1.167089743e-08
1.144944723e-08
1.119317984e-08
1.091491815e-08
1.063169009e-08
1.037031175e-08
1.018224287e-08
1.183297144e-08
1.171268132e-08
1.153842083e-08
1.131920794e-08
1.10655332e-08
1.079007863e-08
1.050967933e-08
1.025085805e-08
1.00645651e-08
1.16997223e-08
1.158068987e-08
1.140825509e-08
1.119134223e-08
1.094032719e-08
1.066774647e-08
1.039023839e-08
1.013402823e-08
9.949549181e-09
1.156872333e-08
1.145098048e-08
1.12804153e-08
1.106585386e-08
1.081755309e-08
1.05479001e-08
1.027333331e-08
1.001977745e-08
9.837142723e-09
1.143999635e-08
1.132356895e-08
1.115490878e-08
1.094273996e-08
1.069719673e-08
1.043051374e-08
1.015892711e-08
9.908058907e-09
9.72729213e-09
1.13135549e-08
1.119846341e-08
1.103173602e-08
1.082199176e-08
1.057923918e-08
1.031555797e-08
1.004698029e-08
9.798824256e-09
9.619942941e-09
1.118940516e-08
1.107566511e-08
1.091089138e-08
1.07035953e-08
1.046365728e-08
1.020300022e-08
9.93745122e-09
9.692023937e-09
9.5150401e-09
1.106754673e-08
1.095516924e-08
1.079236383e-08
1.058753204e-08
1.035042426e-08
1.009280526e-08
9.830296543e-09
9.587607479e-09
9.412528213e-09
1.094797338e-08
1.08369656e-08
1.067613759e-08
1.047377946e-08
1.023951021e-08
9.984935595e-09
9.725471504e-09
9.485523769e-09
9.312351767e-09
1.083067372e-08
1.072103923e-08
1.056219268e-08
1.036231157e-08
1.013088252e-08
9.879351858e-09
9.622930255e-09
9.385721293e-09
9.214455326e-09
1.071563179e-08
1.060737098e-08
1.045050549e-08
1.025309939e-08
1.00245063e-08
9.776013142e-09
9.522626126e-09
9.288148348e-09
9.118783699e-09
1.060282767e-08
1.049593806e-08
1.034104925e-08
1.014611134e-08
9.920344753e-09
9.674877296e-09
9.424511858e-09
9.192753215e-09
9.025282081e-09
1.049223789e-08
1.03867145e-08
1.023379444e-08
1.004131365e-08
9.818359459e-09
9.57590118e-09
9.328539804e-09
9.099484322e-09
8.933896178e-09
1.038383593e-08
1.027967152e-08
1.012870914e-08
9.938670659e-09
9.718510667e-09
9.47904088e-09
9.234662094e-09
9.008290351e-09
8.844572288e-09
1.027759259e-08
1.017477794e-08
1.00257594e-08
9.838145099e-09
9.6207575e-09
9.384251875e-09
9.142830744e-09
8.91912032e-09
8.757257354e-09
1.017347627e-08
1.007200041e-08
9.924909439e-09
9.739698267e-09
9.525058103e-09
9.291489123e-09
9.052997711e-09
8.831923589e-09
8.671898953e-09
1.00714532e-08
9.971303617e-09
9.826121787e-09
9.643290148e-09
9.431369696e-09
9.200707073e-09
8.965114842e-09
8.746649784e-09
8.588445193e-09
9.971487599e-09
9.872650394e-09
9.729357366e-09
9.548879393e-09
9.339648497e-09
9.111859518e-09
8.87913369e-09
8.663248565e-09
8.506844468e-09
9.873541574e-09
9.776001624e-09
9.634575342e-09
9.456423135e-09
9.249849464e-09
9.024899272e-09
8.795005112e-09
8.581669188e-09
8.427044986e-09
9.777574969e-09
9.681315991e-09
9.541732797e-09
9.365876565e-09
9.161925776e-09
8.939777557e-09
8.712678569e-09
8.501859705e-09
8.348993941e-09
9.683544866e-09
9.588549447e-09
9.450784119e-09
9.277192209e-09
9.075827965e-09
8.856442946e-09
8.632100921e-09
8.423765682e-09
8.272636175e-09
9.591404796e-09
9.497654327e-09
9.361679951e-09
9.190318682e-09
8.991502463e-09
8.774839746e-09
8.553214622e-09
8.347328216e-09
8.197912087e-09
9.50110344e-09
9.408577915e-09
9.274365594e-09
9.105198874e-09
8.908889523e-09
8.694905593e-09
8.475955008e-09
8.272480959e-09
8.124754498e-09
9.412582737e-09
9.321260387e-09
9.188778692e-09
9.021767304e-09
8.827920177e-09
8.61656799e-09
8.400246395e-09
8.199145834e-09
8.053084117e-09
9.325775213e-09
9.235631919e-09
9.104846003e-09
8.939946443e-09
8.74851203e-09
8.539739494e-09
8.325996662e-09
8.127227069e-09
7.982803205e-09
9.240600346e-09
9.151608743e-09
9.022479008e-09
8.859641743e-09
8.670563579e-09
8.464311249e-09
8.253089953e-09
8.056603142e-09
7.913786995e-09
9.156959736e-09
9.069087948e-09
8.941568134e-09
8.780735109e-09
8.593946777e-09
8.390144524e-09
8.181377149e-09
7.987116252e-09
7.845872457e-09
9.074730884e-09
8.987940773e-09
8.861975352e-09
8.703076562e-09
8.518497575e-09
8.317059978e-09
8.110663784e-09
7.918558975e-09
7.778844048e-09
8.993759358e-09
8.908004217e-09
8.783524924e-09
8.626473885e-09
8.444004221e-09
8.24482443e-09
8.040695203e-09
7.850657891e-09
7.712416235e-09
8.913849197e-09
8.829070783e-09
8.70599218e-09
8.550680108e-09
8.370193195e-09
8.17313505e-09
7.971138899e-09
7.783054164e-09
7.646212769e-09
8.834751451e-09
8.750876285e-09
8.629090227e-09
8.475378816e-09
8.29671283e-09
8.101601061e-09
7.901564202e-09
7.715281296e-09
7.579743027e-09
8.756150832e-09
8.673085729e-09
8.552454709e-09
8.40016743e-09
8.223114837e-09
8.029723306e-09
7.831419786e-09
7.646740684e-09
7.512376106e-09
8.677650674e-09
8.595277475e-09
8.475626798e-09
8.324538804e-09
8.148834254e-09
7.95687236e-09
7.760009853e-09
7.576675988e-09
7.443313835e-09
8.598756546e-09
8.516926177e-09
8.398035143e-09
8.247861782e-09
8.073168491e-09
7.882266098e-09
7.686470279e-09
7.504147855e-09
7.371564444e-09
8.518858902e-09
8.437384872e-09
8.318977203e-09
8.169361784e-09
7.995257044e-09
7.804948374e-09
7.609746338e-09
7.428011081e-09
7.295919209e-09
8.437215702e-09
8.355867301e-09
8.237601218e-09
8.088102416e-09
7.914062946e-09
7.723770668e-09
7.52857472e-09
7.346896829e-09
7.214935055e-09
8.35293604e-09
8.271431636e-09
8.152890189e-09
8.002970006e-09
7.828358246e-09
7.637378934e-09
7.441472183e-09
7.259203363e-09
7.126926682e-09
8.264966179e-09
8.182967127e-09
8.063649613e-09
7.912663017e-09
7.736715822e-09
7.544208583e-09
7.346734327e-09
7.163098723e-09
7.029972272e-09
8.172079687e-09
8.089185543e-09
7.968501041e-09
7.815688714e-09
7.637510274e-09
7.442490704e-09
7.242448005e-09
7.056539443e-09
6.921937021e-09
8.072873693e-09
7.988619527e-09
7.865883821e-09
7.71036971e-09
7.528930813e-09
7.330272811e-09
7.126521023e-09
6.937309293e-09
6.800518767e-09
7.965773457e-09
7.879630237e-09
7.754067544e-09
7.594863145e-09
7.409009161e-09
7.205457313e-09
6.996732525e-09
6.803081573e-09
6.663319309e-09
7.84904766e-09
7.760426709e-09
7.631177783e-09
7.467195163e-09
7.275665176e-09
7.06586048e-09
6.850806747e-09
6.651507496e-09
6.507943825e-09
7.720836718e-09
7.629099323e-09
7.495237442e-09
7.325312973e-09
7.126772351e-09
6.909293721e-09
6.686511518e-09
6.480331488e-09
6.33212874e-09
7.579196238e-09
7.483669354e-09
7.344225599e-09
7.16715607e-09
6.960244264e-09
6.733667557e-09
6.501780963e-09
6.287531802e-09
6.133895544e-09
7.422157182e-09
7.322156001e-09