/*--------------------------------*- C++ -*----------------------------------*\
| =========                 |                                                 |
| \\      /  F ield         | OpenFOAM: The Open Source CFD Toolbox           |
|  \\    /   O peration     | Version:  2212                                  |
|   \\  /    A nd           | Website:  www.openfoam.com                      |
|    \\/     M anipulation  |                                                 |
\*---------------------------------------------------------------------------*/
FoamFile
{
    version     2.0;
    format      ascii;
    arch        "LSB;label=32;scalar=64";
    class       volScalarField;
    location    "20.00000000";
    object      I-C4H51_0;
}
// * * * * * * * * * * * * * * * * * * * * * * * * * * * * * * * * * * * * * //

dimensions      [0 0 0 0 0 0 0];

internalField   nonuniform List<scalar> 
3000
(
5.425642083e-31
6.728522011e-31
8.810898174e-31
1.179606801e-30
1.581034954e-30
2.089888218e-30
2.686441687e-30
3.29948118e-30
3.766767476e-30
2.286347639e-30
2.856173401e-30
3.766778269e-30
5.074622952e-30
6.847563653e-30
9.153506008e-30
1.20355296e-29
1.544430957e-29
1.878875151e-29
5.891671659e-30
7.453114539e-30
9.974499744e-30
1.366566776e-29
1.882726844e-29
2.58527341e-29
3.514780596e-29
4.676526384e-29
5.817063734e-29
1.287368461e-29
1.655085414e-29
2.260440183e-29
3.173393787e-29
4.500324902e-29
6.385750677e-29
8.979627994e-29
1.227085211e-28
1.53766254e-28
2.618209291e-29
3.433338819e-29
4.807962137e-29
6.94786132e-29
1.016918614e-28
1.489654866e-28
2.151830657e-28
2.980981e-28
3.725053472e-28
5.157537531e-29
6.912002597e-29
9.945169979e-29
1.480769704e-28
2.234177392e-28
3.363556074e-28
4.953463212e-28
6.902247108e-28
8.571078883e-28
1.005946881e-28
1.378512384e-28
2.037513242e-28
3.120730677e-28
4.83639328e-28
7.442029892e-28
1.110534537e-27
1.549748264e-27
1.901934776e-27
1.963793651e-28
2.748834033e-28
4.164984624e-28
6.539996591e-28
1.036277826e-27
1.621654688e-27
2.443857e-27
3.425861928e-27
4.250695973e-27
3.857098741e-28
5.503407708e-28
8.520741088e-28
1.365787927e-27
2.201362448e-27
3.484633752e-27
5.276385671e-27
7.383472446e-27
9.092522845e-27
7.634421051e-28
1.107510456e-27
1.746066718e-27
2.845458349e-27
4.646086357e-27
7.413885236e-27
1.125791336e-26
1.573363525e-26
1.932185102e-26
1.52265986e-27
2.239969269e-27
3.584337493e-27
5.918282002e-27
9.758956646e-27
1.566286359e-26
2.382759228e-26
3.326745668e-26
4.077916194e-26
3.057197252e-27
4.549663306e-27
7.368318784e-27
1.229250556e-26
2.042224169e-26
3.291565433e-26
5.013462958e-26
6.993832404e-26
8.56103078e-26
6.171809479e-27
9.271913154e-27
1.516189427e-26
2.550059744e-26
4.26092559e-26
6.888969182e-26
1.05012195e-25
1.463901492e-25
1.789990474e-25
1.251294912e-26
1.894297471e-26
3.121717994e-26
5.284054227e-26
8.868344717e-26
1.437162979e-25
2.191946047e-25
3.053835538e-25
3.730869987e-25
2.54525193e-26
3.877226325e-26
6.429296023e-26
1.093794067e-25
1.842079566e-25
2.990499826e-25
4.56282461e-25
6.353831379e-25
7.757118164e-25
5.190148035e-26
7.946278344e-26
1.324273423e-25
2.262053299e-25
3.819932801e-25
6.209963515e-25
9.477582999e-25
1.319228685e-24
1.609683395e-24
1.060332231e-25
1.630094909e-25
2.727623551e-25
4.67431283e-25
7.910609862e-25
1.287396736e-24
1.965198238e-24
2.734494708e-24
3.335001551e-24
2.16929693e-25
3.346200903e-25
5.617643906e-25
9.652210065e-25
1.63633789e-24
2.665303629e-24
4.069128073e-24
5.660329253e-24
6.900714022e-24
4.442860379e-25
6.872237723e-25
1.156834559e-24
1.991914402e-24
3.381622634e-24
5.511789192e-24
8.415635898e-24
1.170339256e-23
1.426332847e-23
9.106701875e-25
1.411858274e-24
2.381920286e-24
4.108502684e-24
6.982788687e-24
1.138743456e-23
1.738758139e-23
2.417436222e-23
2.945333867e-23
1.867788194e-24
2.901249403e-24
4.903620041e-24
8.470174114e-24
1.440893147e-23
2.350730241e-23
3.589326955e-23
4.989065188e-23
6.076812234e-23
3.832583307e-24
5.962691139e-24
1.009331701e-23
1.745481124e-23
2.971437207e-23
4.849097415e-23
7.403599827e-23
1.0287997e-22
1.252747848e-22
7.866665346e-24
1.225538357e-23
2.077147917e-23
3.595499866e-23
6.124217667e-23
9.995842226e-23
1.52595871e-22
2.119798784e-22
2.580442917e-22
1.614972319e-23
2.518842889e-23
4.273656496e-23
7.403218058e-23
1.261493333e-22
2.059097472e-22
3.14270913e-22
4.364073665e-22
5.310552442e-22
3.315515225e-23
5.176295406e-23
8.790238689e-23
1.523630881e-22
2.596895058e-22
4.238519579e-22
6.466908421e-22
8.975929433e-22
1.091806166e-21
6.805703049e-23
1.063452668e-22
1.807251311e-22
3.133943197e-22
5.342137096e-22
8.717362978e-22
1.329427401e-21
1.844107445e-21
2.241963188e-21
1.396520253e-22
2.183867419e-22
3.713556668e-22
6.44161323e-22
1.098000872e-21
1.791079744e-21
2.729735416e-21
3.783645176e-21
4.59699302e-21
2.864024726e-22
4.481834224e-22
7.62489819e-22
1.322848296e-21
2.254398853e-21
3.675386745e-21
5.596881203e-21
7.750256667e-21
9.408752055e-21
5.868753534e-22
9.18960165e-22
1.564021927e-21
2.71348137e-21
4.622541298e-21
7.530407592e-21
1.145491532e-20
1.584285026e-20
1.921396672e-20
1.201213754e-21
1.881992014e-21
3.203944478e-21
5.557869892e-21
9.462485684e-21
1.539916194e-20
2.339232447e-20
3.230400476e-20
3.912979227e-20
2.454971279e-21
3.848268971e-21
6.552445867e-21
1.13629059e-20
1.932970495e-20
3.141531139e-20
4.7639942e-20
6.566660473e-20
7.942328864e-20
5.007867585e-21
7.853531431e-21
1.337263192e-20
2.317807205e-20
3.938508223e-20
6.390305341e-20
9.670146293e-20
1.329917983e-19
1.605652315e-19
1.019183793e-20
1.598904788e-20
2.72220747e-20
4.714694448e-20
7.999955016e-20
1.295324379e-19
1.955136726e-19
2.681616762e-19
3.230777392e-19
2.068455614e-20
3.245849811e-20
5.524496756e-20
9.558219935e-20
1.618939809e-19
2.614735493e-19
3.934577129e-19
5.379465113e-19
6.465262956e-19
4.184338358e-20
6.566904755e-20
1.117100371e-19
1.930138131e-19
3.261968758e-19
5.252498194e-19
7.875429836e-19
1.072801928e-18
1.285742223e-18
8.433041124e-20
1.32339918e-19
2.249417577e-19
3.879857177e-19
6.539436126e-19
1.049248512e-18
1.566669062e-18
2.125224078e-18
2.539098438e-18
1.692430225e-19
2.655147915e-19
4.507878823e-19
7.758557279e-19
1.303503237e-18
2.082802903e-18
3.09515282e-18
4.178995456e-18
4.975636469e-18
3.380698024e-19
5.300639141e-19
8.985577967e-19
1.542434864e-18
2.581652619e-18
4.105497523e-18
6.068456399e-18
8.151178627e-18
9.668838122e-18
6.718672138e-19
1.052429041e-18
1.780518451e-18
3.046660921e-18
5.077046836e-18
8.030432479e-18
1.179995443e-17
1.576094971e-17
1.862117471e-17
1.327917297e-18
2.077209135e-18
3.505437077e-18
5.975561764e-18
9.907991298e-18
1.557765237e-17
2.274248365e-17
3.019476951e-17
3.552573319e-17
2.609263707e-18
4.07386532e-18
6.853626904e-18
1.163156793e-17
1.917705512e-17
2.995190829e-17
4.342534603e-17
5.729157963e-17
6.711646104e-17
5.095595629e-18
7.936153395e-18
1.330123488e-17
2.245937717e-17
3.679551661e-17
5.705815506e-17
8.21178326e-17
1.07630278e-16
1.255351074e-16
9.887698687e-18
1.535154588e-17
2.561498873e-17
4.30015675e-17
6.996144238e-17
1.076563365e-16
1.537493098e-16
2.001664113e-16
2.324366898e-16
1.906049359e-17
2.947946053e-17
4.8932111e-17
8.161329271e-17
1.31780321e-16
2.011393744e-16
2.849806584e-16
3.685035744e-16
4.260406923e-16
3.649620149e-17
5.618547727e-17
9.270199822e-17
1.535070506e-16
2.458623829e-16
3.720886974e-16
5.229251435e-16
6.716069462e-16
7.731322888e-16
6.940486793e-17
1.062678536e-16
1.741441174e-16
2.861053736e-16
4.543072302e-16
6.815399909e-16
9.500084765e-16
1.211948103e-15
1.389319748e-15
1.310781669e-16
1.994399993e-16
3.243495718e-16
5.283619313e-16
8.314426119e-16
1.236171954e-15
1.709079099e-15
2.16599474e-15
2.472970184e-15
2.458388853e-16
3.71394687e-16
5.989529668e-16
9.668491352e-16
1.507260742e-15
2.220724929e-15
3.045517382e-15
3.835078867e-15
4.361670053e-15
4.578694608e-16
6.862338794e-16
1.096642444e-15
1.753294892e-15
2.707081309e-15
3.952365745e-15
5.377364917e-15
6.729714083e-15
7.62557609e-15
8.468415899e-16
1.258170005e-15
1.991013229e-15
3.151356768e-15
4.818191487e-15
6.971242343e-15
9.411387703e-15
1.170853345e-14
1.322088618e-14
1.555382519e-15
2.289134335e-15
3.584984342e-15
5.615517866e-15
8.501077441e-15
1.219039887e-14
1.633406691e-14
2.020600274e-14
2.274084575e-14
2.836999832e-15
4.133501779e-15
6.403141239e-15
9.923323721e-15
1.487399013e-14
2.114259364e-14
2.812425979e-14
3.460381715e-14
3.882433783e-14
5.139147595e-15
7.408787449e-15
1.134751272e-14
1.739579089e-14
2.581760829e-14
3.638463629e-14
4.806261465e-14
5.883390103e-14
6.581815423e-14
9.246338304e-15
1.318396722e-14
1.995907512e-14
3.026302083e-14
4.447583856e-14
6.215679811e-14
8.155781191e-14
9.935327547e-14
1.108463617e-13
1.652536742e-14
2.329863424e-14
3.485537419e-14
5.226790624e-14
7.607019242e-14
1.054501956e-13
1.374819564e-13
1.667174046e-13
1.855324905e-13
2.933994309e-14
4.089285022e-14
6.044508686e-14
8.964562288e-14
1.292308524e-13
1.777427106e-13
2.303257681e-13
2.781056516e-13
3.087599412e-13
5.174273015e-14
7.128974145e-14
1.041172989e-13
1.527410743e-13
2.18152019e-13
2.977876125e-13
3.836515593e-13
4.613627719e-13
5.110843205e-13
9.064231265e-14
1.234645047e-13
1.781899616e-13
2.586286587e-13
3.660731393e-13
4.960978147e-13
6.356226015e-13
7.614515973e-13
8.417676036e-13
1.577429272e-13
2.124656567e-13
3.030954046e-13
4.353639287e-13
6.108877176e-13
8.221325568e-13
1.047830941e-12
1.250727908e-12
1.379963646e-12
2.727586701e-13
3.633949804e-13
5.125720643e-13
7.288601793e-13
1.014158266e-12
1.355791463e-12
1.719363598e-12
2.045269435e-12
2.252467405e-12
4.687177343e-13
6.179276553e-13
8.621036293e-13
1.213987835e-12
1.675582098e-12
2.225772086e-12
2.80918651e-12
3.330791231e-12
3.661838993e-12
8.006844408e-13
1.044963804e-12
1.442608841e-12
2.01246494e-12
2.756183202e-12
3.638873369e-12
4.571751572e-12
5.403760638e-12
5.930947575e-12
1.360054724e-12
1.757986778e-12
2.402613654e-12
3.321671047e-12
4.515489843e-12
5.926792302e-12
7.413685555e-12
8.736696081e-12
9.573602471e-12
2.297908987e-12
2.943282262e-12
3.984110019e-12
5.461034073e-12
7.3711643e-12
9.620965677e-12
1.198424916e-11
1.408218403e-11
1.540693557e-11
3.863008996e-12
4.905675235e-12
6.580442949e-12
8.946665783e-12
1.199472196e-11
1.557253602e-11
1.932023072e-11
2.263944775e-11
2.473136236e-11
6.463281698e-12
8.142329386e-12
1.082946801e-11
1.461126731e-11
1.946523318e-11
2.514512392e-11
3.107917555e-11
3.632308979e-11
3.962151798e-11
1.076450467e-11
1.346099572e-11
1.776264531e-11
2.379606246e-11
3.151580223e-11
4.052506891e-11
4.991668591e-11
5.820048584e-11
6.340215572e-11
1.784682809e-11
2.216744181e-11
2.904145037e-11
3.865580426e-11
5.092701995e-11
6.522017489e-11
8.009872438e-11
9.320920754e-11
1.014355002e-10
2.944884653e-11
3.635781148e-11
4.732681474e-11
6.263744306e-11
8.214900256e-11
1.048568092e-10
1.284939777e-10
1.493376917e-10
1.624328188e-10
4.833938353e-11
5.936444899e-11
7.684424934e-11
1.012169055e-10
1.322686486e-10
1.684374403e-10
2.061679903e-10
2.395584113e-10
2.606335563e-10
7.886641778e-11
9.641522508e-11
1.242231076e-10
1.630020671e-10
2.124761412e-10
2.702809034e-10
3.30894954e-10
3.849390025e-10
4.193671085e-10
1.277354414e-10
1.555703254e-10
1.996950752e-10
2.613228698e-10
3.402105498e-10
4.329172526e-10
5.309897518e-10
6.194901321e-10
6.76684871e-10
2.050578692e-10
2.489869158e-10
3.187215206e-10
4.164138633e-10
5.421529849e-10
6.912095919e-10
8.508841835e-10
9.973558561e-10
1.09381722e-09
3.25674511e-10
3.945196384e-10
5.040665397e-10
6.582279831e-10
8.581520622e-10
1.097869002e-09
1.358733242e-09
1.602771454e-09
1.766988778e-09
5.10693953e-10
6.17586723e-10
7.882327074e-10
1.029786685e-09
1.345979371e-09
1.730256561e-09
2.155935791e-09
2.562644079e-09
2.842407372e-09
7.890979469e-10
9.531259541e-10
1.216038993e-09
1.590778326e-09
2.08652222e-09
2.697911342e-09
3.387745488e-09
4.060581762e-09
4.532939319e-09
1.19918448e-09
1.447366132e-09
1.846986959e-09
2.420915155e-09
3.188690166e-09
4.149686845e-09
5.253249028e-09
6.349880872e-09
7.133331697e-09
1.789597882e-09
2.159110112e-09
2.757007989e-09
3.622447437e-09
4.793078076e-09
6.278930856e-09
8.01223522e-09
9.761890677e-09
1.102950745e-08
2.619797586e-09
3.160335546e-09
4.039294948e-09
5.321322774e-09
7.073461271e-09
9.325087442e-09
1.198633759e-08
1.470600935e-08
1.669733648e-08
3.76008003e-09
4.536204381e-09
5.804233402e-09
7.666820902e-09
1.023559241e-08
1.357061807e-08
1.75526214e-08
2.165878511e-08
2.468791991e-08
5.291654989e-09
6.384980186e-09
8.178888393e-09
1.08299969e-08
1.45134125e-08
1.933308645e-08
2.512928099e-08
3.114183255e-08
3.559929161e-08
7.307653641e-09
8.818724037e-09
1.130687399e-08
1.500166393e-08
2.016328984e-08
2.695299189e-08
3.515424934e-08
4.368988441e-08
5.003641652e-08
9.916114993e-09
1.196576369e-08
1.534948746e-08
2.03905997e-08
2.745667642e-08
3.677733549e-08
4.805615312e-08
5.980774532e-08
6.855785409e-08
1.32458096e-08
1.597568304e-08
2.048863071e-08
2.722204041e-08
3.667022228e-08
4.91356085e-08
6.420932701e-08
7.989932163e-08
9.158194818e-08
1.745522357e-08
2.102707463e-08
2.693159128e-08
3.573599367e-08
4.807091923e-08
6.429934788e-08
8.384627319e-08
1.0410308e-07
1.191353838e-07
2.274427908e-08
2.733783164e-08
3.491797626e-08
4.61865422e-08
6.189754484e-08
8.241937741e-08
1.068823756e-07
1.318440181e-07
1.498836212e-07
2.936736011e-08
3.517713269e-08
4.472984091e-08
5.884868537e-08
7.835949827e-08
1.034934898e-07
1.327351644e-07
1.609445512e-07
1.769469853e-07
3.764444245e-08
4.48757191e-08
5.670198509e-08
7.403438118e-08
9.768359107e-08
1.275471089e-07
1.610629309e-07
1.906704346e-07
2.029752229e-07
4.79650959e-08
5.682625509e-08
7.121429444e-08
9.206395006e-08
1.200173336e-07
1.542805109e-07
1.904137855e-07
2.164236226e-07
2.270801895e-07
6.078188253e-08
7.147135192e-08
8.867064698e-08
1.132333439e-07
1.453980832e-07
1.831518102e-07
2.189374598e-07
2.40710744e-07
2.501151214e-07
7.658950186e-08
8.927262138e-08
1.094458819e-07
1.377117421e-07
1.735381004e-07
2.129362683e-07
2.437885978e-07
2.634611689e-07
2.723191777e-07
9.588695766e-08
1.106567028e-07
1.337906908e-07
1.653229655e-07
2.031923011e-07
2.395110348e-07
2.667396122e-07
2.852773933e-07
2.940047568e-07
1.191153774e-07
1.359352481e-07
1.617289272e-07
1.95472427e-07
2.323975995e-07
2.633050781e-07
2.884510987e-07
3.065288535e-07
3.153823839e-07
1.465133449e-07
1.650849071e-07
1.926746474e-07
2.264064781e-07
2.572615173e-07
2.852651764e-07
3.09415707e-07
3.274582026e-07
3.365801452e-07
1.777674989e-07
1.971599847e-07
2.242568967e-07
2.52090628e-07
2.796751339e-07
3.062276686e-07
3.3000572e-07
3.482261855e-07
3.576717482e-07
2.110601309e-07
2.287473016e-07
2.505464199e-07
2.750022758e-07
3.008845827e-07
3.267604506e-07
3.504633472e-07
3.689281057e-07
3.786931916e-07
2.401555821e-07
2.544453708e-07
2.737146195e-07
2.96559359e-07
3.216178008e-07
3.471941812e-07
3.709231423e-07
3.896104106e-07
3.996551003e-07
2.644924678e-07
2.774121444e-07
2.955401198e-07
3.176291847e-07
3.422812697e-07
3.677001992e-07
3.914464302e-07
4.102872283e-07
4.205523889e-07
2.870177341e-07
2.993636714e-07
3.169665409e-07
3.386705969e-07
3.630737668e-07
3.883497157e-07
4.120488881e-07
4.309528255e-07
4.413708206e-07
3.09045571e-07
3.211206642e-07
3.384397961e-07
3.598885531e-07
3.840688343e-07
4.091547253e-07
4.327192423e-07
4.515896385e-07
4.620908381e-07
3.311187785e-07
3.430253288e-07
3.601338908e-07
3.813463453e-07
4.052703433e-07
4.300942732e-07
4.534308457e-07
4.721729391e-07
4.826894788e-07
3.534254759e-07
3.651854225e-07
3.820859703e-07
4.030347842e-07
4.266462212e-07
4.511300056e-07
4.741483219e-07
4.926733137e-07
5.031411538e-07
3.759971273e-07
3.876015076e-07
4.042693308e-07
4.249104245e-07
4.481470988e-07
4.722146858e-07
4.948311362e-07
5.130578961e-07
5.234178703e-07
3.987995255e-07
4.102284248e-07
4.266297513e-07
4.46914921e-07
4.697158144e-07
4.932965565e-07
5.154354432e-07
5.332909903e-07
5.434892712e-07
4.217728433e-07
4.330031355e-07
4.491022925e-07
4.689841035e-07
4.912919362e-07
5.143214899e-07
5.359150816e-07
5.53334474e-07
5.633227076e-07
4.44848358e-07
4.558565301e-07
4.71618518e-07
4.91051941e-07
5.128138185e-07
5.352340833e-07
5.562222192e-07
5.731481913e-07
5.828834443e-07
4.679549747e-07
4.787180733e-07
4.941093746e-07
5.130521889e-07
5.3421957e-07
5.559783301e-07
5.763079088e-07
5.926904257e-07
6.021350274e-07
4.910215581e-07
5.015174873e-07
5.165062856e-07
5.349191093e-07
5.554476186e-07
5.764981688e-07
5.961226654e-07
6.119184761e-07
6.210398015e-07
5.13977714e-07
5.241853573e-07
5.387416237e-07
5.565879013e-07
5.764371829e-07
5.967380383e-07
6.156171008e-07
6.307893193e-07
6.395595413e-07
5.367541214e-07
5.466534535e-07
5.607490544e-07
5.779951072e-07
5.971287702e-07
6.166434761e-07
6.347426026e-07
6.492603291e-07
6.576561537e-07
5.592828363e-07
5.688550684e-07
5.824639276e-07
5.990790776e-07
6.174647267e-07
6.361617516e-07
6.534520356e-07
6.672900107e-07
6.752924055e-07
5.814976992e-07
5.90725454e-07
6.038237584e-07
6.197805045e-07
6.37389826e-07
6.552425084e-07
6.717004293e-07
6.848387163e-07
6.924326359e-07
6.033348542e-07
6.122023552e-07
6.247687794e-07
6.400429949e-07
6.568518654e-07
6.738383858e-07
6.894456238e-07
7.01869307e-07
7.090434193e-07
6.247333467e-07
6.332266032e-07
6.452425271e-07
6.598136488e-07
6.758022384e-07
6.919055894e-07
7.06648846e-07
7.183477376e-07
7.250941508e-07
6.456357509e-07
6.537427228e-07
6.651924208e-07
6.790436073e-07
6.941964526e-07
7.094043879e-07
7.232751966e-07
7.34243545e-07
7.405575366e-07
6.659887812e-07
6.736995107e-07
6.845702979e-07
6.976885388e-07
7.119945701e-07
7.262995179e-07
7.392940357e-07
7.495302296e-07
7.554099787e-07
6.857438462e-07
6.930505499e-07
7.03332874e-07
7.157090398e-07
7.291615529e-07
7.425604856e-07
7.54679259e-07
7.641855245e-07
7.696318472e-07
7.048575166e-07
7.117546331e-07
7.214421079e-07
7.330709365e-07
7.456675044e-07
7.581617616e-07
7.694094649e-07
7.781915559e-07
7.832076449e-07
7.232918853e-07
7.297760782e-07
7.388654589e-07
7.497454778e-07
7.614878035e-07
7.730828689e-07
7.834680158e-07
7.915348975e-07
7.961260678e-07
7.410148089e-07
7.470849273e-07
7.55576029e-07
7.657094188e-07
7.766031337e-07
7.873083707e-07
7.96843003e-07
8.042065305e-07
8.083799717e-07
7.580000271e-07
7.636570272e-07
7.715525951e-07
7.809449994e-07
7.909994138e-07
8.008277661e-07
8.095271237e-07
8.162017199e-07
8.199662568e-07
7.742271641e-07
7.794739982e-07
7.86779534e-07
7.954398257e-07
8.046676416e-07
8.136353058e-07
8.215174842e-07
8.275198199e-07
8.308856831e-07
7.896816213e-07
7.945230991e-07
8.012466544e-07
8.091866671e-07
8.176036608e-07
8.257297411e-07
8.328153431e-07
8.381640222e-07
8.411426303e-07
8.04354373e-07
8.087970029e-07
8.149489464e-07
8.221831812e-07
8.298078673e-07
8.371140188e-07
8.43425806e-07
8.48141061e-07
8.50744814e-07
8.18241681e-07
8.222934966e-07
8.278862648e-07
8.344315817e-07
8.412848663e-07
8.477949362e-07
8.533574862e-07
8.574608857e-07
8.597029733e-07
8.313447436e-07
8.350151221e-07
8.400629609e-07
8.459382631e-07
8.520430957e-07
8.577827687e-07
8.626221439e-07
8.66136316e-07
8.680305389e-07
8.436692955e-07
8.469687735e-07
8.514874773e-07
8.56713397e-07
8.620944274e-07
8.670908823e-07
8.712343132e-07
8.741826859e-07
8.757432925e-07
8.552251748e-07
8.581652642e-07
8.621719195e-07
8.667705107e-07
8.714537581e-07
8.757353401e-07
8.792109279e-07
8.816174899e-07
8.828590274e-07
8.660258696e-07
8.686188804e-07
8.721316177e-07
8.761260621e-07
8.801386006e-07
8.837345129e-07
8.865709538e-07
8.884600345e-07
8.893972152e-07
8.760880589e-07
8.783469292e-07
8.813846878e-07
8.847990177e-07
8.881686824e-07
8.91108701e-07
8.933350329e-07
8.947311046e-07
8.953786865e-07
8.854311572e-07
8.873692944e-07
8.899516031e-07
8.928104438e-07
8.955655598e-07
8.978797731e-07
8.99525147e-07
9.004526477e-07
9.008253294e-07
8.940768729e-07
8.95708007e-07
8.978547821e-07
9.001831164e-07
9.023522527e-07
9.04070826e-07
9.05164302e-07
9.05647479e-07
9.057598085e-07
9.020487861e-07
9.03386836e-07
9.051181983e-07
9.069411547e-07
9.085529032e-07
9.097058698e-07
9.102762375e-07
9.103390115e-07
9.102053073e-07
9.093719534e-07
9.10430907e-07
9.117670182e-07
9.131096811e-07
9.141924617e-07
9.1480954e-07
9.148851617e-07
9.145510101e-07
9.141852947e-07
9.160725404e-07
9.168663489e-07
9.178272672e-07
9.187145117e-07
9.192964019e-07
9.194068363e-07
9.190155141e-07
9.183073728e-07
9.17723317e-07
9.22177488e-07
9.227199729e-07
9.233255277e-07
9.237818758e-07
9.238904649e-07
9.235228912e-07
9.226917545e-07
9.216319357e-07
9.208428138e-07
9.277142098e-07
9.280189839e-07
9.282886682e-07
9.283381669e-07
9.280004322e-07
9.271827651e-07
9.259381783e-07
9.245483052e-07
9.235669583e-07
9.327103244e-07
9.327907241e-07
9.32743604e-07
9.324097232e-07
9.316519283e-07
9.304112691e-07
9.287787573e-07
9.270797117e-07
9.259185208e-07
9.37193419e-07
9.370624486e-07
9.367170888e-07
9.360226376e-07
9.348702494e-07
9.332328129e-07
9.312370041e-07
9.292488881e-07
9.279197532e-07
9.411908453e-07
9.408611317e-07
9.40235535e-07
9.392025949e-07
9.376802187e-07
9.356712767e-07
9.333358593e-07
9.310779669e-07
9.295922938e-07
9.447295446e-07
9.442133013e-07
9.433248616e-07
9.41974735e-07
9.401060652e-07
9.377499056e-07
9.350975985e-07
9.325883986e-07
9.30957091e-07
9.478359011e-07
9.471449007e-07
9.460103674e-07
9.443635396e-07
9.42171325e-07
9.394912244e-07
9.36543759e-07
9.338008862e-07
9.320343426e-07
9.505356207e-07
9.496811754e-07
9.483166278e-07
9.463927412e-07
9.438987626e-07
9.409169701e-07
9.376950829e-07
9.347353366e-07
9.328434517e-07
9.528536329e-07
9.518465813e-07
9.502674134e-07
9.480852519e-07
9.453103101e-07
9.420480419e-07
9.385714746e-07
9.354108242e-07
9.334029938e-07
9.548140146e-07
9.536647142e-07
9.518856255e-07
9.49463108e-07
9.464270221e-07
9.429044643e-07
9.391919725e-07
9.358455679e-07
9.337306972e-07
9.564399314e-07
9.551582559e-07
9.531932501e-07
9.505474317e-07
9.472690435e-07
9.435053632e-07
9.395747309e-07
9.360569182e-07
9.338434324e-07
9.577535954e-07
9.563489366e-07
9.542113257e-07
9.513584052e-07
9.47855593e-07
9.438689546e-07
9.39737014e-07
9.360613549e-07
9.337572115e-07
9.587762383e-07
9.572575115e-07
9.54959925e-07
9.519152588e-07
9.482049545e-07
9.44012542e-07
9.396951975e-07
9.358744908e-07
9.334871941e-07
9.595280969e-07
9.579037492e-07
9.554581468e-07
9.522362667e-07
9.483344783e-07
9.439525213e-07
9.394647767e-07
9.355110832e-07
9.330476997e-07
9.600284093e-07
9.583064299e-07
9.55724118e-07
9.523387525e-07
9.482605904e-07
9.437043932e-07
9.390603815e-07
9.349850504e-07
9.324522248e-07
9.602954194e-07
9.584833528e-07
9.557750029e-07
9.522391013e-07
9.479988072e-07
9.432827805e-07
9.384957962e-07
9.343094923e-07
9.317134649e-07
9.603463903e-07
9.584513496e-07
9.556270192e-07
9.519527783e-07
9.475637562e-07
9.42701451e-07
9.377839828e-07
9.334967152e-07
9.308433391e-07
9.601976224e-07
9.582263049e-07
9.552954596e-07
9.514943519e-07
9.469692004e-07
9.419733426e-07
9.369371079e-07
9.32558259e-07
9.298530177e-07
9.598644777e-07
9.578231809e-07
9.547947174e-07
9.508775203e-07
9.462280663e-07
9.411105927e-07
9.359665721e-07
9.315049263e-07
9.287529514e-07
9.593614078e-07
9.572560457e-07
9.54138316e-07
9.501151414e-07
9.453524744e-07
9.401245683e-07
9.348830402e-07
9.303468133e-07
9.275529018e-07
9.587019846e-07
9.565381045e-07
9.533389401e-07
9.492192648e-07
9.44353771e-07
9.390258983e-07
9.336964735e-07
9.290933414e-07
9.262619729e-07
9.578989336e-07
9.556817333e-07
9.524084693e-07
9.482011654e-07
9.432425619e-07
9.378245069e-07
9.324161626e-07
9.277532892e-07
9.248886428e-07
9.569641689e-07
9.546985133e-07
9.513580131e-07
9.470713777e-07
9.420287462e-07
9.365296466e-07
9.310507599e-07
9.263348249e-07
9.234407957e-07
9.55908829e-07
9.535992671e-07
9.501979459e-07
9.458397308e-07
9.407215509e-07
9.351499323e-07
9.296083125e-07
9.248455382e-07
9.219257533e-07
9.547433132e-07
9.523940944e-07
9.489379429e-07
9.445153834e-07
9.393295651e-07
9.336933744e-07
9.280962949e-07
9.232924719e-07
9.203503055e-07
9.534773182e-07
9.510924082e-07
9.475870155e-07
9.431068588e-07
9.378607738e-07
9.321674117e-07
9.265216405e-07
9.216821531e-07
9.187207416e-07
9.521198742e-07
9.497029708e-07
9.461535467e-07
9.416220789e-07
9.363225912e-07
9.305789437e-07
9.248907729e-07
9.200206229e-07
9.17042879e-07
9.506793808e-07
9.482339291e-07
9.446453255e-07
9.400683984e-07
9.347218935e-07
9.289343619e-07
9.23209636e-07
9.183134658e-07
9.153220921e-07
9.491636421e-07
9.466928488e-07
9.430695805e-07
9.384526366e-07
9.330650501e-07
9.272395801e-07
9.21483723e-07
9.165658378e-07
9.135633399e-07
9.475799005e-07
9.45086748e-07
9.414330128e-07
9.367811099e-07
9.313579541e-07
9.255000636e-07
9.197181047e-07
9.147824934e-07
9.117711922e-07
9.459348698e-07
9.434221299e-07
9.397418272e-07
9.350596619e-07
9.296060521e-07
9.237208574e-07
9.179174562e-07
9.129678114e-07
9.099498549e-07
9.442347674e-07
9.417050136e-07
9.380017634e-07
9.332936926e-07
9.278143718e-07
9.219066128e-07
9.160860825e-07
9.111258197e-07
9.081031942e-07
9.424853441e-07
9.399409644e-07
9.362181239e-07
9.314881871e-07
9.25987549e-07
9.200616137e-07
9.142279432e-07
9.092602186e-07
9.062347591e-07
9.406919143e-07
9.381351224e-07
9.343958031e-07
9.296477415e-07
9.241298534e-07
9.181897999e-07
9.123466754e-07
9.073744032e-07
9.043478037e-07
9.388593828e-07
9.362922296e-07
9.325393127e-07
9.277765893e-07
9.222452127e-07
9.162947914e-07
9.10445616e-07
9.054714842e-07
9.024453072e-07
9.369922724e-07
9.34416656e-07
9.306528074e-07
9.258786245e-07
9.203372356e-07
9.143799092e-07
9.08527822e-07
9.035543084e-07
9.005299933e-07
9.350947479e-07
9.325124239e-07
9.287401083e-07
9.239574248e-07
9.184092334e-07
9.124481962e-07
9.065960905e-07
9.016254764e-07
8.986043488e-07
9.3317064e-07
9.305832309e-07
9.26804725e-07
9.220162726e-07
9.164642398e-07
9.105024362e-07
9.046529759e-07
8.996873601e-07
8.966706392e-07
9.312234669e-07
9.286324706e-07
9.248498758e-07
9.200581742e-07
9.145050292e-07
9.085451706e-07
9.027008064e-07
8.977421181e-07
8.947309244e-07
9.292564538e-07
9.266632521e-07
9.228785056e-07
9.180858769e-07
9.125341327e-07
9.065787133e-07
9.007416975e-07
8.95791708e-07
8.927870703e-07
9.272725501e-07
9.24678416e-07
9.208933023e-07
9.161018833e-07
9.105538511e-07
9.046051628e-07
8.987775627e-07
8.938378965e-07
8.908407582e-07
9.252744438e-07
9.226805484e-07
9.188967078e-07
9.141084623e-07
9.085662639e-07
9.026264087e-07
8.968101186e-07
8.918822632e-07
8.888934881e-07
9.232645709e-07
9.206719889e-07
9.168909263e-07
9.12107654e-07
9.065732327e-07
9.006441333e-07
8.948408844e-07
8.899261976e-07
8.869465742e-07
9.212451204e-07
9.186548345e-07
9.148779247e-07
9.101012686e-07
9.045763958e-07
8.986598036e-07
8.928711697e-07
8.879708846e-07
8.850011289e-07
9.192180306e-07
9.166309337e-07
9.128594252e-07
9.080908746e-07
9.025771533e-07
8.966746487e-07
8.909020475e-07
8.860172732e-07
8.830580283e-07
9.171849764e-07
9.146018716e-07
9.108368844e-07
9.060777722e-07
9.005766323e-07
8.946896201e-07
8.88934307e-07
8.84066022e-07
8.811178544e-07
9.151473416e-07
9.125689372e-07
9.08811456e-07
9.040629482e-07
8.985756327e-07
8.927053256e-07
8.869683759e-07
8.821174124e-07
8.791808009e-07
9.131061726e-07
9.105330722e-07
9.067839305e-07
9.020470045e-07
8.965745425e-07
8.907219289e-07
8.850042042e-07
8.801712178e-07
8.772465343e-07
9.110621081e-07
9.084947931e-07
9.04754646e-07
9.000300539e-07
8.945732139e-07
8.887390046e-07
8.830410972e-07
8.782265167e-07
8.753139934e-07
9.090152787e-07
9.064540805e-07
9.027233623e-07
8.980115727e-07
8.925707912e-07
8.867553372e-07
8.810774837e-07
8.762814347e-07
8.733811155e-07
9.069651678e-07
9.044102269e-07
9.006890881e-07
8.959902022e-07
8.90565479e-07
8.847686515e-07
8.791106088e-07
8.743328018e-07
8.714444709e-07
9.049104273e-07
9.023616358e-07
8.986498549e-07
8.93963488e-07
8.885542404e-07
8.827752637e-07
8.771361352e-07
8.723757113e-07
8.694987944e-07
9.02848639e-07
9.003055621e-07
8.96602427e-07
8.919275489e-07
8.865324148e-07
8.807696425e-07
8.751476455e-07
8.704029691e-07
8.675364018e-07
9.007760148e-07
8.982377888e-07
8.945419401e-07
8.89876667e-07
8.844932492e-07
8.787438725e-07
8.731360368e-07
8.68404428e-07
8.655464859e-07
8.986870308e-07
8.96152232e-07
8.924614651e-07
8.87802795e-07
8.824273374e-07
8.766870185e-07
8.710888081e-07
8.663662065e-07
8.63514294e-07
8.965739892e-07
8.940404722e-07
8.903514921e-07
8.8569498e-07
8.803219712e-07
8.745843943e-07
8.689892458e-07
8.642698044e-07
8.614201986e-07
8.944265104e-07
8.918912123e-07
8.881993382e-07
8.835387075e-07
8.781604079e-07
8.724167477e-07
8.668155256e-07
8.620911315e-07
8.592386846e-07
8.9223096e-07
8.896896713e-07
8.859884919e-07
8.813151775e-07
8.7592107e-07
8.701593793e-07
8.645397548e-07
8.597994851e-07
8.569372868e-07
8.899698141e-07
8.874169172e-07
8.836978984e-07
8.790005351e-07
8.735767083e-07
8.67781231e-07
8.621269891e-07
8.573565161e-07
8.544755284e-07
8.876209823e-07
8.850491609e-07
8.813012126e-07
8.765650714e-07
8.710935488e-07
8.652439823e-07
8.595342838e-07
8.547152407e-07
8.518039188e-07
8.851571057e-07
8.825570327e-07
8.787660457e-07
8.739724363e-07
8.68430471e-07
8.625011989e-07
8.567098239e-07
8.51819169e-07
8.48863085e-07
8.825448587e-07
8.799048712e-07
8.760532396e-07
8.711788997e-07
8.655382631e-07
8.594975929e-07
8.535922045e-07
8.486016165e-07
8.455831158e-07
8.797442822e-07
8.770500581e-07
8.731162064e-07
8.681327064e-07
8.62359007e-07
8.561684574e-07
8.501099323e-07
8.449852834e-07
8.418832047e-07
8.767081877e-07
8.739424381e-07
8.699003793e-07
8.647735757e-07
8.588256507e-07
8.524393385e-07
8.461812219e-07
8.408821822e-07
8.376716796e-07
8.73381668e-07
8.705238652e-07
8.663428177e-07
8.610323954e-07
8.548618257e-07
8.482260127e-07
8.417141626e-07
8.36194e-07
8.328465095e-07
8.697017579e-07
8.667279207e-07
8.623720174e-07
8.568311653e-07
8.50381971e-07
8.434348377e-07
8.366073313e-07
8.308129739e-07
8.272963732e-07
8.65597287e-07
8.62479846e-07
8.579079725e-07
8.520832428e-07
8.452918203e-07
8.3796354e-07
8.307509219e-07
8.246233603e-07
8.209023722e-07
8.60988967e-07
8.576967374e-07
8.528625388e-07
8.466939429e-07
8.394893134e-07
8.317025065e-07
8.240284655e-07
8.175035716e-07
8.135404637e-07
8.557897587e-07
8.522880476e-07