/*--------------------------------*- C++ -*----------------------------------*\
| =========                 |                                                 |
| \\      /  F ield         | OpenFOAM: The Open Source CFD Toolbox           |
|  \\    /   O peration     | Version:  2212                                  |
|   \\  /    A nd           | Website:  www.openfoam.com                      |
|    \\/     M anipulation  |                                                 |
\*---------------------------------------------------------------------------*/
FoamFile
{
    version     2.0;
    format      ascii;
    arch        "LSB;label=32;scalar=64";
    class       volScalarField;
    location    "20.00000000";
    object      p;
}
// * * * * * * * * * * * * * * * * * * * * * * * * * * * * * * * * * * * * * //

dimensions      [1 -1 -2 0 0 0 0];

internalField   nonuniform List<scalar> 
3000
(
10000.24994
10000.24997
10000.25005
10000.25015
10000.25034
10000.25056
10000.25103
10000.25145
10000.25312
10000.24987
10000.24988
10000.24992
10000.24997
10000.25004
10000.25008
10000.25024
10000.25022
10000.25041
10000.24981
10000.24981
10000.24985
10000.24988
10000.24994
10000.24998
10000.25006
10000.25004
10000.25012
10000.24961
10000.24959
10000.2496
10000.24959
10000.2496
10000.24958
10000.24958
10000.24954
10000.24951
10000.24945
10000.24943
10000.24943
10000.24941
10000.24941
10000.24939
10000.24938
10000.24936
10000.24933
10000.24922
10000.24919
10000.24919
10000.24916
10000.24915
10000.24912
10000.24911
10000.24909
10000.24906
10000.24903
10000.24901
10000.249
10000.24898
10000.24896
10000.24895
10000.24893
10000.24892
10000.2489
10000.24882
10000.2488
10000.24879
10000.24878
10000.24876
10000.24875
10000.24874
10000.24873
10000.24872
10000.24864
10000.24862
10000.24862
10000.2486
10000.24859
10000.24859
10000.24858
10000.24857
10000.24856
10000.24846
10000.24845
10000.24844
10000.24843
10000.24842
10000.24842
10000.24841
10000.24841
10000.2484
10000.24829
10000.24828
10000.24828
10000.24827
10000.24827
10000.24826
10000.24826
10000.24826
10000.24825
10000.24813
10000.24812
10000.24812
10000.24812
10000.24811
10000.24811
10000.24811
10000.2481
10000.2481
10000.24798
10000.24797
10000.24797
10000.24797
10000.24796
10000.24796
10000.24796
10000.24796
10000.24795
10000.24783
10000.24782
10000.24782
10000.24782
10000.24782
10000.24781
10000.24781
10000.24781
10000.24781
10000.24768
10000.24767
10000.24767
10000.24767
10000.24767
10000.24767
10000.24767
10000.24767
10000.24767
10000.24753
10000.24753
10000.24753
10000.24753
10000.24753
10000.24753
10000.24753
10000.24753
10000.24752
10000.24739
10000.24739
10000.24739
10000.24739
10000.24739
10000.24739
10000.24739
10000.24738
10000.24738
10000.24725
10000.24725
10000.24725
10000.24725
10000.24725
10000.24725
10000.24725
10000.24725
10000.24724
10000.24711
10000.24711
10000.24711
10000.24711
10000.24711
10000.24711
10000.24711
10000.24711
10000.24711
10000.24697
10000.24697
10000.24697
10000.24697
10000.24697
10000.24697
10000.24697
10000.24697
10000.24697
10000.24683
10000.24683
10000.24683
10000.24683
10000.24683
10000.24683
10000.24683
10000.24683
10000.24683
10000.24669
10000.24669
10000.24669
10000.24669
10000.24669
10000.24669
10000.24669
10000.24669
10000.24669
10000.24656
10000.24655
10000.24656
10000.24656
10000.24656
10000.24656
10000.24656
10000.24656
10000.24655
10000.24642
10000.24642
10000.24642
10000.24642
10000.24642
10000.24642
10000.24642
10000.24642
10000.24642
10000.24628
10000.24628
10000.24628
10000.24628
10000.24628
10000.24628
10000.24628
10000.24628
10000.24628
10000.24614
10000.24614
10000.24614
10000.24614
10000.24614
10000.24614
10000.24614
10000.24614
10000.24614
10000.246
10000.246
10000.246
10000.246
10000.246
10000.246
10000.246
10000.246
10000.246
10000.24586
10000.24586
10000.24586
10000.24586
10000.24586
10000.24586
10000.24586
10000.24586
10000.24586
10000.24571
10000.24571
10000.24571
10000.24572
10000.24572
10000.24572
10000.24572
10000.24572
10000.24571
10000.24557
10000.24557
10000.24557
10000.24557
10000.24557
10000.24557
10000.24557
10000.24557
10000.24557
10000.24542
10000.24542
10000.24542
10000.24542
10000.24542
10000.24542
10000.24542
10000.24542
10000.24542
10000.24526
10000.24526
10000.24527
10000.24527
10000.24527
10000.24527
10000.24527
10000.24527
10000.24526
10000.2451
10000.24511
10000.24511
10000.24511
10000.24511
10000.24512
10000.24511
10000.24511
10000.2451
10000.24494
10000.24494
10000.24495
10000.24495
10000.24495
10000.24495
10000.24495
10000.24495
10000.24494
10000.24477
10000.24477
10000.24478
10000.24478
10000.24478
10000.24478
10000.24478
10000.24478
10000.24476
10000.24459
10000.24459
10000.2446
10000.2446
10000.2446
10000.24461
10000.2446
10000.2446
10000.24458
10000.24441
10000.24441
10000.24441
10000.24442
10000.24442
10000.24442
10000.24442
10000.24442
10000.24439
10000.24421
10000.24421
10000.24422
10000.24422
10000.24422
10000.24423
10000.24422
10000.24422
10000.24419
10000.244
10000.24401
10000.24401
10000.24401
10000.24402
10000.24402
10000.24401
10000.24401
10000.24398
10000.24379
10000.24379
10000.24379
10000.2438
10000.2438
10000.2438
10000.24379
10000.24379
10000.24376
10000.24355
10000.24356
10000.24356
10000.24356
10000.24356
10000.24356
10000.24355
10000.24355
10000.24352
10000.24331
10000.24331
10000.24331
10000.24332
10000.24332
10000.24331
10000.2433
10000.2433
10000.24326
10000.24304
10000.24305
10000.24305
10000.24305
10000.24305
10000.24305
10000.24304
10000.24303
10000.24299
10000.24276
10000.24277
10000.24277
10000.24277
10000.24277
10000.24276
10000.24275
10000.24274
10000.2427
10000.24247
10000.24247
10000.24247
10000.24247
10000.24247
10000.24246
10000.24244
10000.24243
10000.24239
10000.24215
10000.24215
10000.24215
10000.24215
10000.24214
10000.24213
10000.24212
10000.24211
10000.24206
10000.24181
10000.24181
10000.24181
10000.2418
10000.2418
10000.24179
10000.24177
10000.24176
10000.24171
10000.24145
10000.24144
10000.24144
10000.24144
10000.24143
10000.24142
10000.2414
10000.24139
10000.24134
10000.24106
10000.24106
10000.24105
10000.24105
10000.24104
10000.24103
10000.241
10000.24099
10000.24094
10000.24065
10000.24065
10000.24064
10000.24063
10000.24062
10000.24061
10000.24058
10000.24057
10000.24052
10000.24022
10000.24021
10000.2402
10000.24019
10000.24018
10000.24016
10000.24014
10000.24012
10000.24007
10000.23975
10000.23975
10000.23974
10000.23973
10000.23971
10000.23969
10000.23967
10000.23965
10000.2396
10000.23926
10000.23926
10000.23925
10000.23923
10000.23922
10000.2392
10000.23917
10000.23915
10000.23909
10000.23875
10000.23874
10000.23873
10000.23871
10000.23869
10000.23867
10000.23864
10000.23862
10000.23857
10000.2382
10000.23819
10000.23818
10000.23816
10000.23814
10000.23812
10000.23809
10000.23807
10000.23801
10000.23763
10000.23762
10000.23761
10000.23759
10000.23756
10000.23754
10000.23751
10000.23748
10000.23743
10000.23703
10000.23702
10000.237
10000.23698
10000.23695
10000.23693
10000.2369
10000.23687
10000.23682
10000.2364
10000.23639
10000.23637
10000.23635
10000.23632
10000.23629
10000.23626
10000.23624
10000.23618
10000.23574
10000.23573
10000.23571
10000.23568
10000.23566
10000.23563
10000.23559
10000.23557
10000.23552
10000.23505
10000.23504
10000.23502
10000.23499
10000.23496
10000.23493
10000.2349
10000.23488
10000.23482
10000.23434
10000.23433
10000.2343
10000.23428
10000.23425
10000.23421
10000.23418
10000.23416
10000.23411
10000.2336
10000.23358
10000.23356
10000.23353
10000.2335
10000.23347
10000.23344
10000.23341
10000.23336
10000.23283
10000.23281
10000.23279
10000.23276
10000.23273
10000.2327
10000.23266
10000.23264
10000.23259
10000.23203
10000.23202
10000.23199
10000.23196
10000.23193
10000.2319
10000.23187
10000.23184
10000.23179
10000.23121
10000.2312
10000.23117
10000.23114
10000.23111
10000.23108
10000.23104
10000.23102
10000.23097
10000.23037
10000.23035
10000.23032
10000.23029
10000.23026
10000.23023
10000.2302
10000.23017
10000.23013
10000.2295
10000.22948
10000.22945
10000.22942
10000.22939
10000.22936
10000.22933
10000.2293
10000.22926
10000.2286
10000.22859
10000.22856
10000.22853
10000.2285
10000.22846
10000.22843
10000.22841
10000.22837
10000.22769
10000.22767
10000.22764
10000.22761
10000.22758
10000.22755
10000.22752
10000.22749
10000.22745
10000.22675
10000.22673
10000.22671
10000.22668
10000.22665
10000.22661
10000.22658
10000.22656
10000.22652
10000.22579
10000.22577
10000.22575
10000.22572
10000.22569
10000.22566
10000.22563
10000.2256
10000.22557
10000.22481
10000.2248
10000.22477
10000.22474
10000.22471
10000.22468
10000.22465
10000.22463
10000.22459
10000.22381
10000.2238
10000.22377
10000.22375
10000.22371
10000.22368
10000.22366
10000.22363
10000.2236
10000.2228
10000.22278
10000.22276
10000.22273
10000.2227
10000.22267
10000.22264
10000.22262
10000.22259
10000.22176
10000.22175
10000.22173
10000.2217
10000.22167
10000.22164
10000.22161
10000.22159
10000.22156
10000.22071
10000.2207
10000.22068
10000.22065
10000.22062
10000.22059
10000.22057
10000.22055
10000.22052
10000.21965
10000.21963
10000.21961
10000.21958
10000.21956
10000.21953
10000.21951
10000.21949
10000.21946
10000.21856
10000.21855
10000.21853
10000.21851
10000.21848
10000.21845
10000.21843
10000.21841
10000.21838
10000.21747
10000.21746
10000.21744
10000.21741
10000.21739
10000.21736
10000.21734
10000.21732
10000.21729
10000.21636
10000.21635
10000.21633
10000.2163
10000.21628
10000.21626
10000.21623
10000.21622
10000.21619
10000.21524
10000.21523
10000.21521
10000.21518
10000.21516
10000.21514
10000.21512
10000.2151
10000.21508
10000.2141
10000.21409
10000.21407
10000.21405
10000.21403
10000.21401
10000.21399
10000.21397
10000.21395
10000.21296
10000.21294
10000.21293
10000.21291
10000.21288
10000.21286
10000.21284
10000.21283
10000.21281
10000.2118
10000.21179
10000.21177
10000.21175
10000.21173
10000.21171
10000.21169
10000.21168
10000.21166
10000.21063
10000.21062
10000.2106
10000.21059
10000.21057
10000.21055
10000.21053
10000.21052
10000.2105
10000.20945
10000.20944
10000.20943
10000.20941
10000.20939
10000.20937
10000.20936
10000.20934
10000.20933
10000.20827
10000.20826
10000.20824
10000.20823
10000.20821
10000.20819
10000.20817
10000.20816
10000.20814
10000.20707
10000.20706
10000.20705
10000.20703
10000.20701
10000.207
10000.20698
10000.20697
10000.20696
10000.20587
10000.20586
10000.20585
10000.20583
10000.20581
10000.2058
10000.20578
10000.20577
10000.20576
10000.20466
10000.20465
10000.20463
10000.20462
10000.2046
10000.20459
10000.20458
10000.20457
10000.20455
10000.20344
10000.20343
10000.20342
10000.2034
10000.20339
10000.20337
10000.20336
10000.20335
10000.20334
10000.20221
10000.2022
10000.20219
10000.20218
10000.20217
10000.20215
10000.20214
10000.20213
10000.20212
10000.20098
10000.20097
10000.20096
10000.20095
10000.20094
10000.20092
10000.20091
10000.2009
10000.20089
10000.19974
10000.19974
10000.19973
10000.19971
10000.1997
10000.19969
10000.19968
10000.19967
10000.19966
10000.1985
10000.19849
10000.19848
10000.19847
10000.19846
10000.19845
10000.19844
10000.19843
10000.19842
10000.19725
10000.19724
10000.19724
10000.19722
10000.19721
10000.1972
10000.19719
10000.19719
10000.19718
10000.196
10000.19599
10000.19598
10000.19597
10000.19596
10000.19595
10000.19594
10000.19594
10000.19593
10000.19474
10000.19473
10000.19472
10000.19472
10000.19471
10000.1947
10000.19469
10000.19468
10000.19467
10000.19348
10000.19347
10000.19346
10000.19345
10000.19344
10000.19344
10000.19343
10000.19342
10000.19341
10000.19221
10000.1922
10000.1922
10000.19219
10000.19218
10000.19217
10000.19216
10000.19216
10000.19215
10000.19094
10000.19093
10000.19093
10000.19092
10000.19091
10000.1909
10000.1909
10000.19089
10000.19088
10000.18966
10000.18966
10000.18965
10000.18965
10000.18964
10000.18963
10000.18962
10000.18962
10000.18961
10000.18839
10000.18838
10000.18838
10000.18837
10000.18836
10000.18836
10000.18835
10000.18834
10000.18834
10000.18711
10000.1871
10000.1871
10000.18709
10000.18708
10000.18708
10000.18707
10000.18707
10000.18706
10000.18582
10000.18582
10000.18582
10000.18581
10000.1858
10000.1858
10000.18579
10000.18579
10000.18578
10000.18454
10000.18454
10000.18453
10000.18452
10000.18452
10000.18451
10000.18451
10000.1845
10000.1845
10000.18325
10000.18325
10000.18324
10000.18324
10000.18323
10000.18323
10000.18322
10000.18322
10000.18321
10000.18196
10000.18196
10000.18195
10000.18195
10000.18194
10000.18194
10000.18193
10000.18193
10000.18192
10000.18067
10000.18067
10000.18066
10000.18066
10000.18065
10000.18065
10000.18064
10000.18064
10000.18063
10000.17937
10000.17937
10000.17937
10000.17936
10000.17936
10000.17935
10000.17935
10000.17935
10000.17934
10000.17808
10000.17807
10000.17807
10000.17807
10000.17806
10000.17806
10000.17805
10000.17805
10000.17805
10000.17678
10000.17678
10000.17677
10000.17677
10000.17677
10000.17676
10000.17676
10000.17675
10000.17675
10000.17548
10000.17548
10000.17547
10000.17547
10000.17547
10000.17546
10000.17546
10000.17546
10000.17545
10000.17418
10000.17418
10000.17417
10000.17417
10000.17417
10000.17416
10000.17416
10000.17416
10000.17416
10000.17288
10000.17288
10000.17287
10000.17287
10000.17287
10000.17286
10000.17286
10000.17286
10000.17285
10000.17157
10000.17157
10000.17157
10000.17157
10000.17156
10000.17156
10000.17156
10000.17155
10000.17155
10000.17027
10000.17027
10000.17026
10000.17026
10000.17026
10000.17026
10000.17025
10000.17025
10000.17025
10000.16896
10000.16896
10000.16896
10000.16896
10000.16895
10000.16895
10000.16895
10000.16895
10000.16895
10000.16766
10000.16766
10000.16765
10000.16765
10000.16765
10000.16765
10000.16764
10000.16764
10000.16764
10000.16635
10000.16635
10000.16635
10000.16634
10000.16634
10000.16634
10000.16634
10000.16634
10000.16633
10000.16504
10000.16504
10000.16504
10000.16504
10000.16503
10000.16503
10000.16503
10000.16503
10000.16503
10000.16373
10000.16373
10000.16373
10000.16373
10000.16373
10000.16372
10000.16372
10000.16372
10000.16372
10000.16242
10000.16242
10000.16242
10000.16242
10000.16242
10000.16242
10000.16241
10000.16241
10000.16241
10000.16112
10000.16111
10000.16111
10000.16111
10000.16111
10000.16111
10000.16111
10000.1611
10000.1611
10000.15981
10000.1598
10000.1598
10000.1598
10000.1598
10000.1598
10000.1598
10000.1598
10000.1598
10000.15849
10000.15849
10000.15849
10000.15849
10000.15849
10000.15849
10000.15849
10000.15849
10000.15849
10000.15718
10000.15718
10000.15718
10000.15718
10000.15718
10000.15718
10000.15718
10000.15718
10000.15718
10000.15587
10000.15587
10000.15587
10000.15587
10000.15587
10000.15587
10000.15587
10000.15587
10000.15587
10000.15456
10000.15456
10000.15456
10000.15456
10000.15456
10000.15456
10000.15456
10000.15455
10000.15455
10000.15325
10000.15325
10000.15325
10000.15325
10000.15325
10000.15325
10000.15324
10000.15324
10000.15324
10000.15194
10000.15194
10000.15194
10000.15194
10000.15194
10000.15193
10000.15193
10000.15193
10000.15193
10000.15063
10000.15063
10000.15063
10000.15062
10000.15062
10000.15062
10000.15062
10000.15062
10000.15062
10000.14932
10000.14932
10000.14931
10000.14931
10000.14931
10000.14931
10000.14931
10000.14931
10000.14931
10000.148
10000.148
10000.148
10000.148
10000.148
10000.148
10000.148
10000.148
10000.148
10000.14669
10000.14669
10000.14669
10000.14669
10000.14669
10000.14669
10000.14669
10000.14669
10000.14669
10000.14538
10000.14538
10000.14538
10000.14538
10000.14538
10000.14538
10000.14538
10000.14538
10000.14538
10000.14407
10000.14407
10000.14407
10000.14407
10000.14407
10000.14407
10000.14407
10000.14407
10000.14407
10000.14276
10000.14276
10000.14276
10000.14276
10000.14275
10000.14275
10000.14275
10000.14275
10000.14275
10000.14145
10000.14145
10000.14144
10000.14144
10000.14144
10000.14144
10000.14144
10000.14144
10000.14144
10000.14013
10000.14013
10000.14013
10000.14013
10000.14013
10000.14013
10000.14013
10000.14013
10000.14013
10000.13882
10000.13882
10000.13882
10000.13882
10000.13882
10000.13882
10000.13882
10000.13882
10000.13882
10000.13751
10000.13751
10000.13751
10000.13751
10000.13751
10000.13751
10000.13751
10000.13751
10000.13751
10000.1362
10000.1362
10000.1362
10000.1362
10000.1362
10000.1362
10000.1362
10000.1362
10000.1362
10000.13489
10000.13489
10000.13489
10000.13489
10000.13489
10000.13489
10000.13489
10000.13489
10000.13489
10000.13358
10000.13358
10000.13358
10000.13358
10000.13358
10000.13358
10000.13358
10000.13358
10000.13358
10000.13227
10000.13227
10000.13227
10000.13227
10000.13227
10000.13227
10000.13227
10000.13227
10000.13227
10000.13096
10000.13096
10000.13096
10000.13096
10000.13096
10000.13096
10000.13096
10000.13096
10000.13096
10000.12965
10000.12965
10000.12965
10000.12965
10000.12965
10000.12965
10000.12965
10000.12965
10000.12965
10000.12834
10000.12834
10000.12834
10000.12834
10000.12834
10000.12834
10000.12834
10000.12834
10000.12834
10000.12703
10000.12703
10000.12703
10000.12703
10000.12703
10000.12703
10000.12703
10000.12703
10000.12703
10000.12572
10000.12572
10000.12572
10000.12572
10000.12572
10000.12572
10000.12572
10000.12572
10000.12572
10000.12441
10000.12441
10000.12441
10000.12441
10000.12441
10000.12441
10000.12441
10000.12441
10000.12442
10000.12311
10000.12311
10000.12311
10000.12311
10000.12311
10000.12311
10000.12311
10000.12311
10000.12311
10000.1218
10000.1218
10000.1218
10000.1218
10000.1218
10000.1218
10000.1218
10000.1218
10000.1218
10000.12049
10000.12049
10000.12049
10000.12049
10000.12049
10000.12049
10000.12049
10000.12049
10000.12049
10000.11918
10000.11918
10000.11918
10000.11918
10000.11918
10000.11918
10000.11918
10000.11918
10000.11919
10000.11788
10000.11788
10000.11788
10000.11788
10000.11788
10000.11788
10000.11788
10000.11788
10000.11788
10000.11657
10000.11657
10000.11657
10000.11657
10000.11657
10000.11657
10000.11657
10000.11657
10000.11657
10000.11526
10000.11526
10000.11527
10000.11527
10000.11527
10000.11527
10000.11527
10000.11527
10000.11527
10000.11396
10000.11396
10000.11396
10000.11396
10000.11396
10000.11396
10000.11396
10000.11396
10000.11396
10000.11265
10000.11265
10000.11265
10000.11265
10000.11265
10000.11265
10000.11265
10000.11266
10000.11266
10000.11135
10000.11135
10000.11135
10000.11135
10000.11135
10000.11135
10000.11135
10000.11135
10000.11135
10000.11004
10000.11004
10000.11004
10000.11004
10000.11005
10000.11005
10000.11005
10000.11005
10000.11005
10000.10874
10000.10874
10000.10874
10000.10874
10000.10874
10000.10874
10000.10874
10000.10874
10000.10874
10000.10744
10000.10744
10000.10744
10000.10744
10000.10744
10000.10744
10000.10744
10000.10744
10000.10744
10000.10613
10000.10613
10000.10613
10000.10613
10000.10613
10000.10613
10000.10613
10000.10613
10000.10614
10000.10483
10000.10483
10000.10483
10000.10483
10000.10483
10000.10483
10000.10483
10000.10483
10000.10483
10000.10353
10000.10353
10000.10353
10000.10353
10000.10353
10000.10353
10000.10353
10000.10353
10000.10353
10000.10223
10000.10223
10000.10223
10000.10223
10000.10223
10000.10223
10000.10223
10000.10223
10000.10223
10000.10092
10000.10092
10000.10092
10000.10092
10000.10092
10000.10092
10000.10093
10000.10093
10000.10093
10000.09962
10000.09962
10000.09962
10000.09962
10000.09962
10000.09962
10000.09962
10000.09962
10000.09963
10000.09832
10000.09832
10000.09832
10000.09832
10000.09832
10000.09832
10000.09832
10000.09832
10000.09832
10000.09702
10000.09702
10000.09702
10000.09702
10000.09702
10000.09702
10000.09702
10000.09702
10000.09702
10000.09572
10000.09572
10000.09572
10000.09572
10000.09572
10000.09572
10000.09572
10000.09572
10000.09572
10000.09442
10000.09442
10000.09442
10000.09442
10000.09442
10000.09442
10000.09442
10000.09442
10000.09442
10000.09312
10000.09312
10000.09312
10000.09312
10000.09312
10000.09312
10000.09312
10000.09312
10000.09312
10000.09182
10000.09182
10000.09182
10000.09182
10000.09182
10000.09182
10000.09182
10000.09182
10000.09183
10000.09052
10000.09052
10000.09052
10000.09052
10000.09053
10000.09053
10000.09053
10000.09053
10000.09053
10000.08923
10000.08923
10000.08923
10000.08923
10000.08923
10000.08923
10000.08923
10000.08923
10000.08923
10000.08793
10000.08793
10000.08793
10000.08793
10000.08793
10000.08793
10000.08793
10000.08793
10000.08793
10000.08663
10000.08663
10000.08663
10000.08663
10000.08663
10000.08663
10000.08663
10000.08663
10000.08663
10000.08533
10000.08533
10000.08533
10000.08534
10000.08534
10000.08534
10000.08534
10000.08534
10000.08534
10000.08404
10000.08404
10000.08404
10000.08404
10000.08404
10000.08404
10000.08404
10000.08404
10000.08404
10000.08274
10000.08274
10000.08274
10000.08274
10000.08274
10000.08274
10000.08274
10000.08274
10000.08274
10000.08145
10000.08145
10000.08145
10000.08145
10000.08145
10000.08145
10000.08145
10000.08145
10000.08145
10000.08015
10000.08015
10000.08015
10000.08015
10000.08015
10000.08015
10000.08015
10000.08015
10000.08015
10000.07886
10000.07886
10000.07886
10000.07886
10000.07886
10000.07886
10000.07886
10000.07886
10000.07886
10000.07756
10000.07756
10000.07756
10000.07756
10000.07756
10000.07756
10000.07756
10000.07756
10000.07757
10000.07627
10000.07627
10000.07627
10000.07627
10000.07627
10000.07627
10000.07627
10000.07627
10000.07627
10000.07497
10000.07497
10000.07498
10000.07498
10000.07498
10000.07498
10000.07498
10000.07498
10000.07498
10000.07368
10000.07368
10000.07368
10000.07368
10000.07368
10000.07368
10000.07368
10000.07368
10000.07369
10000.07239
10000.07239
10000.07239
10000.07239
10000.07239
10000.07239
10000.07239
10000.07239
10000.07239
10000.0711
10000.0711
10000.0711
10000.0711
10000.0711
10000.0711
10000.0711
10000.0711
10000.0711
10000.06981
10000.06981
10000.06981
10000.06981
10000.06981
10000.06981
10000.06981
10000.06981
10000.06981
10000.06852
10000.06852
10000.06852
10000.06852
10000.06852
10000.06852
10000.06852
10000.06852
10000.06852
10000.06723
10000.06723
10000.06723
10000.06723
10000.06723
10000.06723
10000.06723
10000.06723
10000.06723
10000.06594
10000.06594
10000.06594
10000.06594
10000.06594
10000.06594
10000.06594
10000.06594
10000.06594
10000.06465
10000.06465
10000.06465
10000.06465
10000.06465
10000.06465
10000.06465
10000.06465
10000.06466
10000.06336
10000.06336
10000.06336
10000.06336
10000.06336
10000.06337
10000.06337
10000.06337
10000.06337
10000.06208
10000.06208
10000.06208
10000.06208
10000.06208
10000.06208
10000.06208
10000.06208
10000.06209
10000.0608
10000.0608
10000.0608
10000.0608
10000.0608
10000.0608
10000.0608
10000.0608
10000.0608
10000.05952
10000.05952
10000.05952
10000.05952
10000.05952
10000.05952
10000.05952
10000.05952
10000.05953
10000.05824
10000.05824
10000.05824
10000.05824
10000.05824
10000.05824
10000.05824
10000.05824
10000.05825
10000.05697
10000.05696
10000.05696
10000.05696
10000.05696
10000.05697
10000.05697
10000.05697
10000.05698
10000.05569
10000.05569
10000.05569
10000.05569
10000.05569
10000.05569
10000.0557
10000.0557
10000.05571
10000.05443
10000.05443
10000.05443
10000.05443
10000.05443
10000.05443
10000.05443
10000.05443
10000.05444
10000.05317
10000.05317
10000.05316
10000.05316
10000.05316
10000.05317
10000.05317
10000.05317
10000.05318
10000.05191
10000.05191
10000.05191
10000.05191
10000.05191
10000.05191
10000.05191
10000.05192
10000.05193
10000.05066
10000.05066
10000.05066
10000.05066
10000.05066
10000.05066
10000.05066
10000.05067
10000.05068
10000.04942
10000.04942
10000.04941
10000.04941
10000.04941
10000.04942
10000.04942
10000.04943
10000.04944
10000.04818
10000.04818
10000.04818
10000.04818
10000.04818
10000.04818
10000.04819
10000.04819
10000.04821
10000.04695
10000.04695
10000.04695
10000.04695
10000.04695
10000.04696
10000.04696
10000.04697
10000.04699
10000.04574
10000.04574
10000.04574
10000.04574
10000.04574
10000.04574
10000.04574
10000.04575
10000.04577
10000.04453
10000.04453
10000.04453
10000.04453
10000.04453
10000.04453
10000.04454
10000.04455
10000.04457
10000.04334
10000.04334
10000.04334
10000.04333
10000.04334
10000.04334
10000.04335
10000.04335
10000.04338
10000.04215
10000.04215
10000.04215
10000.04215
10000.04215
10000.04216
10000.04217
10000.04218
10000.0422
10000.04099
10000.04099
10000.04098
10000.04098
10000.04099
10000.04099
10000.041
10000.04101
10000.04104
10000.03983
10000.03983
10000.03983
10000.03983
10000.03983
10000.03984
10000.03985
10000.03986
10000.03989
10000.03869
10000.03869
10000.03869
10000.03869
10000.03869
10000.0387
10000.03871
10000.03872
10000.03875
10000.03757
10000.03757
10000.03757
10000.03757
10000.03757
10000.03758
10000.03759
10000.0376
10000.03764
10000.03646
10000.03646
10000.03646
10000.03647
10000.03647
10000.03647
10000.03649
10000.0365
10000.03654
10000.03538
10000.03538
10000.03538
10000.03538
10000.03538
10000.03539
10000.0354
10000.03541
10000.03545
10000.03431
10000.03431
10000.03431
10000.03431
10000.03431
10000.03432
10000.03433
10000.03435
10000.03439
10000.03326
10000.03326
10000.03326
10000.03326
10000.03327
10000.03327
10000.03329
10000.0333
10000.03334
10000.03223
10000.03223
10000.03223
10000.03223
10000.03224
10000.03225
10000.03226
10000.03227
10000.03232
10000.03122
10000.03122
10000.03122
10000.03122
10000.03123
10000.03124
10000.03125
10000.03127
10000.03131
10000.03023
10000.03023
10000.03024
10000.03024
10000.03024
10000.03025
10000.03027
10000.03028
10000.03033
10000.02927
10000.02927
10000.02927
10000.02927
10000.02928
10000.02929
10000.0293
10000.02932
10000.02937
10000.02832
10000.02833
10000.02833
10000.02833
10000.02834
10000.02835
10000.02836
10000.02838
10000.02843
10000.0274
10000.0274
10000.02741
10000.02741
10000.02742
10000.02743
10000.02744
10000.02746
10000.02751
10000.0265
10000.02651
10000.02651
10000.02651
10000.02652
10000.02653
10000.02655
10000.02656
10000.02662
10000.02563
10000.02563
10000.02563
10000.02564
10000.02564
10000.02566
10000.02567
10000.02569
10000.02574
10000.02478
10000.02478
10000.02478
10000.02478
10000.02479
10000.0248
10000.02482
10000.02484
10000.02489
10000.02395
10000.02395
10000.02395
10000.02396
10000.02396
10000.02397
10000.02399
10000.02401
10000.02406
10000.02314
10000.02314
10000.02314
10000.02315
10000.02316
10000.02317
10000.02319
10000.02321
10000.02326
10000.02235
10000.02236
10000.02236
10000.02236
10000.02237
10000.02238
10000.0224
10000.02242
10000.02247
10000.02159
10000.02159
10000.0216
10000.0216
10000.02161
10000.02162
10000.02164
10000.02166
10000.02171
10000.02085
10000.02085
10000.02086
10000.02086
10000.02087
10000.02088
10000.0209
10000.02092
10000.02097
10000.02013
10000.02014
10000.02014
10000.02015
10000.02015
10000.02017
10000.02019
10000.0202
10000.02026
10000.01944
10000.01944
10000.01944
10000.01945
10000.01946
10000.01947
10000.01949
10000.01951
10000.01956
10000.01876
10000.01876
10000.01877
10000.01877
10000.01878
10000.0188
10000.01882
10000.01883
10000.01888
10000.01811
10000.01811
10000.01811
10000.01812
10000.01813
10000.01814
10000.01816
10000.01818
10000.01823
10000.01747
10000.01748
10000.01748
10000.01749
10000.0175
10000.01751
10000.01753
10000.01755
10000.0176
10000.01686
10000.01686
10000.01687
10000.01687
10000.01688
10000.0169
10000.01691
10000.01693
10000.01698
10000.01626
10000.01627
10000.01627
10000.01628
10000.01629
10000.0163
10000.01632
10000.01634
10000.01639
10000.01569
10000.01569
10000.0157
10000.0157
10000.01571
10000.01573
10000.01575
10000.01576
10000.01581
10000.01513
10000.01514
10000.01514
10000.01515
10000.01516
10000.01517
10000.01519
10000.0152
10000.01525
10000.01459
10000.0146
10000.0146
10000.01461
10000.01462
10000.01463
10000.01465
10000.01466
10000.01471
10000.01407
10000.01408
10000.01408
10000.01409
10000.0141
10000.01411
10000.01413
10000.01414
10000.01419
10000.01357
10000.01357
10000.01358
10000.01358
10000.01359
10000.01361
10000.01362
10000.01364
10000.01368
10000.01308
10000.01308
10000.01309
10000.01309
10000.0131
10000.01312
10000.01313
10000.01315
10000.01319
10000.01261
10000.01261
10000.01261
10000.01262
10000.01263
10000.01264
10000.01266
10000.01267
10000.01272
10000.01215
10000.01215
10000.01216
10000.01216
10000.01217
10000.01219
10000.0122
10000.01222
10000.01226
10000.01171
10000.01171
10000.01171
10000.01172
10000.01173
10000.01174
10000.01176
10000.01177
10000.01181
10000.01128
10000.01128
10000.01129
10000.01129
10000.0113
10000.01131
10000.01133
10000.01134
10000.01138
10000.01086
10000.01087
10000.01087
10000.01088
10000.01089
10000.0109
10000.01091
10000.01093
10000.01096
10000.01046
10000.01046
10000.01047
10000.01048
10000.01048
10000.0105
10000.01051
10000.01052
10000.01056
10000.01007
10000.01007
10000.01008
10000.01009
10000.01009
10000.01011
10000.01012
10000.01013
10000.01016
10000.00969
10000.0097
10000.0097
10000.00971
10000.00972
10000.00973
10000.00974
10000.00975
10000.00978
10000.00933
10000.00933
10000.00933
10000.00934
10000.00935
10000.00936
10000.00937
10000.00938
10000.00942
10000.00897
10000.00897
10000.00898
10000.00899
10000.00899
10000.009
10000.00902
10000.00903
10000.00906
10000.00863
10000.00863
10000.00863
10000.00864
10000.00865
10000.00866
10000.00867
10000.00868
10000.00871
10000.00829
10000.00829
10000.0083
10000.00831
10000.00831
10000.00832
10000.00834
10000.00835
10000.00837
10000.00797
10000.00797
10000.00797
10000.00798
10000.00799
10000.008
10000.00801
10000.00802
10000.00805
10000.00765
10000.00765
10000.00766
10000.00766
10000.00767
10000.00768
10000.00769
10000.0077
10000.00773
10000.00734
10000.00735
10000.00735
10000.00736
10000.00737
10000.00737
10000.00739
10000.00739
10000.00742
10000.00704
10000.00705
10000.00705
10000.00706
10000.00707
10000.00707
10000.00709
10000.00709
10000.00712
10000.00675
10000.00676
10000.00676
10000.00677
10000.00678
10000.00678
10000.0068
10000.0068
10000.00683
10000.00647
10000.00647
10000.00648
10000.00648
10000.00649
10000.0065
10000.00651
10000.00652
10000.00654
10000.0062
10000.0062
10000.0062
10000.00621
10000.00622
10000.00622
10000.00623
10000.00624
10000.00626
10000.00593
10000.00593
10000.00593
10000.00594
10000.00595
10000.00595
10000.00597
10000.00597
10000.00599
10000.00566
10000.00567
10000.00567