/*--------------------------------*- C++ -*----------------------------------*\
| =========                 |                                                 |
| \\      /  F ield         | OpenFOAM: The Open Source CFD Toolbox           |
|  \\    /   O peration     | Version:  2212                                  |
|   \\  /    A nd           | Website:  www.openfoam.com                      |
|    \\/     M anipulation  |                                                 |
\*---------------------------------------------------------------------------*/
FoamFile
{
    version     2.0;
    format      ascii;
    arch        "LSB;label=32;scalar=64";
    class       volScalarField;
    location    "20.00000000";
    object      PC3H4_0;
}
// * * * * * * * * * * * * * * * * * * * * * * * * * * * * * * * * * * * * * //

dimensions      [0 0 0 0 0 0 0];

internalField   nonuniform List<scalar> 
3000
(
3.565451998e-27
4.421635568e-27
5.790061798e-27
7.75175419e-27
1.038972121e-26
1.373362555e-26
1.765384617e-26
2.168240334e-26
2.475315087e-26
1.502469467e-26
1.876928571e-26
2.475329087e-26
3.334773503e-26
4.499852838e-26
6.015190817e-26
7.909097178e-26
1.014915885e-25
1.234694161e-25
3.871701202e-26
4.897797678e-26
6.554715419e-26
8.980348959e-26
1.237226795e-25
1.698901429e-25
2.309721965e-25
3.073156984e-25
3.822655214e-25
8.45991649e-26
1.087635428e-25
1.485441678e-25
2.08538471e-25
2.957370606e-25
4.196368216e-25
5.900921535e-25
8.063734072e-25
1.010467976e-24
1.720550915e-25
2.256210232e-25
3.159538252e-25
4.565763424e-25
6.682642267e-25
9.78920802e-25
1.414067177e-24
1.958941013e-24
2.447906627e-24
3.389265562e-25
4.542206505e-25
6.535441751e-25
9.730833685e-25
1.468182608e-24
2.210350556e-24
3.255155161e-24
4.535796872e-24
5.63246669e-24
6.610561473e-25
9.058865802e-25
1.338947189e-24
2.050780594e-24
3.178224078e-24
4.890513272e-24
7.297856403e-24
1.018414026e-23
1.24985054e-23
1.290503746e-24
1.806391413e-24
2.737011831e-24
4.297746095e-24
6.809879592e-24
1.065667279e-23
1.605976105e-23
2.251299515e-23
2.793340251e-23
2.534686586e-24
3.616555769e-24
5.599391408e-24
8.975253469e-24
1.446621834e-23
2.289921589e-23
3.467368549e-23
4.852037303e-23
5.975137461e-23
5.016948755e-24
7.277988795e-24
1.147425187e-23
1.869888808e-23
3.053168946e-23
4.872024086e-23
7.398121739e-23
1.0339336e-22
1.269732693e-22
1.000613754e-23
1.471992598e-23
2.355442251e-23
3.889190564e-23
6.413084466e-23
1.029282854e-22
1.565826836e-22
2.186166169e-22
2.679796794e-22
2.009032787e-23
2.989804698e-23
4.842080077e-23
8.07800231e-23
1.342044666e-22
2.163047464e-22
3.294589911e-22
4.595986787e-22
5.62586889e-22
4.055795657e-23
6.09302426e-23
9.963616746e-23
1.67576804e-22
2.80006102e-22
4.527075998e-22
6.900860958e-22
9.620007092e-22
1.1762896e-21
8.222866227e-23
1.244834807e-22
2.051432394e-22
3.472408457e-22
5.827819648e-22
9.444295278e-22
1.4404341e-21
2.006823497e-21
2.451735677e-21
1.672608561e-22
2.547913561e-22
4.225002379e-22
7.187851514e-22
1.210519855e-21
1.965202519e-21
2.998453407e-21
4.175410834e-21
5.09757865e-21
3.410698105e-22
5.221885039e-22
8.702443139e-22
1.486504962e-21
2.510263153e-21
4.080868267e-21
6.228179527e-21
8.66929161e-21
1.057801039e-20
6.967957507e-22
1.071214444e-21
1.792453752e-21
3.071717703e-21
5.198445455e-21
8.460108399e-21
1.291427081e-20
1.796969103e-20
2.191591273e-20
1.425550244e-21
2.198950929e-21
3.691626297e-21
6.342935401e-21
1.075316993e-20
1.751500284e-20
2.674021408e-20
3.71967687e-20
4.534793855e-20
2.919619054e-21
4.516080731e-21
7.602120967e-21
1.30898356e-20
2.222228234e-20
3.622063981e-20
5.530322469e-20
7.690866801e-20
9.373124827e-20
5.984455479e-21
9.278005448e-21
1.565275336e-20
2.699896357e-20
4.588729069e-20
7.483235456e-20
1.142622288e-19
1.588614565e-19
1.935521704e-19
1.227414202e-20
1.906551677e-20
3.222406519e-20
5.566162141e-20
9.468807558e-20
1.544778826e-19
2.358720781e-19
3.27855664e-19
3.993367963e-19
2.51857634e-20
3.918373481e-20
6.632808018e-20
1.147040281e-19
1.952675462e-19
3.186577021e-19
4.865264404e-19
6.760741629e-19
8.232413482e-19
5.169567236e-20
8.053606766e-20
1.364994607e-19
2.362777285e-19
4.024520347e-19
6.56875254e-19
1.002781447e-18
1.393022548e-18
1.695734139e-18
1.061276611e-19
1.655253782e-19
2.808426875e-19
4.865013494e-19
8.289884248e-19
1.35313277e-18
2.065226518e-18
2.867844359e-18
3.489821443e-18
2.17878579e-19
3.40159465e-19
5.776491969e-19
1.001251711e-18
1.706545627e-18
2.785336674e-18
4.249718996e-18
5.898518318e-18
7.174787539e-18
4.472357382e-19
6.988462982e-19
1.187632439e-18
2.059465983e-18
3.510577226e-18
5.728601746e-18
8.736311823e-18
1.211852384e-17
1.473302676e-17
9.177211485e-19
1.435125133e-18
2.440358078e-18
4.233096264e-18
7.215495899e-18
1.177005307e-17
1.79384144e-17
2.48641662e-17
3.020906906e-17
1.882089454e-18
2.945230479e-18
5.010690133e-18
8.693077249e-18
1.48147474e-17
2.415274746e-17
3.677981871e-17
5.093069242e-17
6.182946932e-17
3.856642342e-18
6.03893256e-18
1.027794598e-17
1.783160098e-17
3.037695883e-17
4.94859573e-17
7.527579925e-17
1.041110459e-16
1.262642858e-16
7.893757581e-18
1.236748137e-17
2.105467152e-17
3.652345593e-17
6.218257814e-17
1.011953543e-16
1.53722298e-16
2.122852671e-16
2.57140824e-16
1.613280549e-17
2.528883958e-17
4.305929597e-17
7.467115922e-17
1.270248553e-16
2.064452302e-16
3.130651382e-16
4.315270724e-16
5.21928907e-16
3.290912305e-17
5.16093584e-17
8.78780408e-17
1.523143372e-16
2.588184513e-16
4.199379161e-16
6.354721528e-16
8.739535262e-16
1.055151913e-15
6.697550048e-17
1.05071774e-16
1.788894322e-16
3.098253999e-16
5.257157814e-16
8.512203754e-16
1.284815026e-15
1.762220246e-15
2.123100296e-15
1.359282245e-16
2.133004953e-16
3.63041415e-16
6.281168913e-16
1.063883711e-15
1.718269272e-15
2.585601126e-15
3.535106998e-15
4.248637351e-15
2.749730946e-16
4.315430557e-16
7.341006699e-16
1.26838712e-15
2.143597479e-15
3.451670726e-15
5.175326104e-15
7.049900767e-15
8.449234584e-15
5.541758196e-16
8.696694841e-16
1.478200928e-15
2.54964162e-15
4.297379589e-15
6.89511937e-15
1.029534027e-14
1.396587576e-14
1.668564465e-14
1.11217734e-15
1.744825571e-15
2.962344471e-15
5.098522281e-15
8.565949081e-15
1.36871041e-14
2.033974537e-14
2.746220021e-14
3.269731428e-14
2.221618628e-15
3.483304301e-15
5.904855058e-15
1.01360817e-14
1.696528324e-14
2.697920464e-14
3.987875733e-14
5.3565334e-14
6.353861029e-14
4.415158903e-15
6.916012939e-15
1.17006378e-14
2.002106874e-14
3.336371294e-14
5.277183623e-14
7.754318908e-14
1.035728093e-13
1.223687362e-13
8.726367701e-15
1.365032055e-14
2.303588744e-14
3.926825904e-14
6.511014298e-14
1.023682205e-13
1.494517952e-13
1.984243843e-13
2.334567411e-13
1.714666829e-14
2.677125269e-14
4.503837779e-14
7.643649786e-14
1.260215033e-13
1.968282524e-13
2.853687414e-13
3.764905188e-13
4.4105462e-13
3.348539997e-14
5.215200756e-14
8.740844378e-14
1.475908913e-13
2.418004708e-13
3.749560079e-13
5.396353299e-13
7.07290125e-13
8.249516005e-13
6.497609094e-14
1.008814339e-13
1.683271192e-13
2.825823007e-13
4.597482892e-13
7.074595241e-13
1.010359012e-12
1.315388872e-12
1.527453093e-12
1.252531487e-13
1.937204171e-13
3.215519958e-13
5.363144397e-13
8.659850673e-13
1.32177666e-12
1.872739399e-12
2.421611154e-12
2.799717466e-12
2.398255045e-13
3.692105756e-13
6.091743469e-13
1.008749224e-12
1.61565723e-12
2.445151035e-12
3.436374699e-12
4.413442866e-12
5.0806221e-12
4.560637994e-13
6.982993644e-13
1.144334102e-12
1.880071077e-12
2.985396132e-12
4.478653174e-12
6.242906397e-12
7.96426726e-12
9.129886576e-12
8.612809776e-13
1.310489984e-12
2.131288377e-12
3.471905199e-12
5.46356248e-12
8.123242037e-12
1.123100641e-11
1.42337222e-11
1.625109133e-11
1.615206702e-12
2.440196995e-12
3.935452347e-12
6.352923938e-12
9.904129832e-12
1.459268421e-11
2.001301901e-11
2.520196743e-11
2.866275139e-11
3.007844605e-12
4.508219974e-12
7.204757815e-12
1.151944722e-11
1.77869225e-11
2.597042771e-11
3.53355609e-11
4.422373978e-11
5.011193669e-11
5.561697677e-12
8.263717021e-12
1.307812173e-11
2.070171674e-11
3.165426651e-11
4.580345268e-11
6.184138524e-11
7.694123416e-11
8.68833445e-11
1.021083479e-11
1.502946807e-11
2.354050018e-11
3.687905366e-11
5.583805735e-11
8.008356733e-11
1.073216392e-10
1.327797523e-10
1.49450192e-10
1.861176016e-11
2.71218487e-11
4.202241512e-11
6.513925882e-11
9.76611118e-11
1.388574751e-10
1.847610952e-10
2.273846184e-10
2.551619581e-10
3.367811929e-11
4.856353667e-11
7.440348727e-11
1.141002421e-10
1.694063748e-10
2.388485235e-10
3.156553585e-10
3.865673309e-10
4.32597248e-10
6.049172807e-11
8.628222678e-11
1.306776088e-10
1.98241059e-10
2.915180697e-10
4.076893047e-10
5.353459676e-10
6.526463722e-10
7.285646248e-10
1.078396493e-10
1.52109986e-10
2.276940989e-10
3.416867604e-10
4.977198948e-10
6.906637617e-10
9.015187184e-10
1.094551818e-09
1.219250933e-09
1.907587064e-10
2.660289835e-10
3.935292509e-10
5.842035558e-10
8.431876302e-10
1.161421124e-09
1.507607595e-09
1.823671688e-09
2.027654088e-09
3.346653028e-10
4.614269657e-10
6.745570054e-10
9.908122e-10
1.417377767e-09
1.938646064e-09
2.503566708e-09
3.018290692e-09
3.350276864e-09
5.820923064e-10
7.935469424e-10
1.146618443e-09
1.666780253e-09
2.363966321e-09
3.211817884e-09
4.127721621e-09
4.960686018e-09
5.497254217e-09
1.003434628e-09
1.352836511e-09
1.932506516e-09
2.780894133e-09
3.911534672e-09
5.280550786e-09
6.754974108e-09
8.092691872e-09
8.95218215e-09
1.713911673e-09
2.285827032e-09
3.229044666e-09
4.601179301e-09
6.420283734e-09
8.613950105e-09
1.096876467e-08
1.309807067e-08
1.446108503e-08
2.90002381e-09
3.827416929e-09
5.348560688e-09
7.549106447e-09
1.045224573e-08
1.393880748e-08
1.766682672e-08
2.102338134e-08
2.316342977e-08
4.860318964e-09
6.350200322e-09
8.781644628e-09
1.228075751e-08
1.687512884e-08
2.23682477e-08
2.821424951e-08
3.345323849e-08
3.678172843e-08
8.067436158e-09
1.043888104e-08
1.429078079e-08
1.980633253e-08
2.7012838e-08
3.558574284e-08
4.466201828e-08
5.276031605e-08
5.789082841e-08
1.326123179e-08
1.700082931e-08
2.304755018e-08
3.166230194e-08
4.285855974e-08
5.610356262e-08
7.005396682e-08
8.245452246e-08
9.029288604e-08
2.158615182e-08
2.742706583e-08
3.682887563e-08
5.015270488e-08
6.736921485e-08
8.761923415e-08
1.088479817e-07
1.276589991e-07
1.39527395e-07
3.478896732e-08
4.382018134e-08
5.828900012e-08
7.867734111e-08
1.048633635e-07
1.354955502e-07
1.67477532e-07
1.957410881e-07
2.135454034e-07
5.549354792e-08
6.93051877e-08
9.132310906e-08
1.221658919e-07
1.615459286e-07
2.073862939e-07
2.550758138e-07
2.97120814e-07
3.235703463e-07
8.756592928e-08
1.084361912e-07
1.415377512e-07
1.876374577e-07
2.461771269e-07
3.140208097e-07
3.843736015e-07
4.462650527e-07
4.851513398e-07
1.365786454e-07
1.677102395e-07
2.168431114e-07
2.848978575e-07
3.708884684e-07
4.701440954e-07
5.727595759e-07
6.628484982e-07
7.193849256e-07
2.103842889e-07
2.562000654e-07
3.281742664e-07
4.273680274e-07
5.521273559e-07
6.955815441e-07
8.434581671e-07
9.730225697e-07
1.054237181e-06
3.198071293e-07
3.863064535e-07
4.903255937e-07
6.33011295e-07
8.116831549e-07
1.016360594e-06
1.226734459e-06
1.41068167e-06
1.525842321e-06
4.794401514e-07
5.746021744e-07
7.22853201e-07
9.252983004e-07
1.177708837e-06
1.465777343e-06
1.760985867e-06
2.018560861e-06
2.179595421e-06
7.085005872e-07
8.427087894e-07
1.050972848e-06
1.334114531e-06
1.685618709e-06
2.085255596e-06
2.493536522e-06
2.848953695e-06
3.070811196e-06
1.031670913e-06
1.218124451e-06
1.506353748e-06
1.896489018e-06
2.378711082e-06
2.92481977e-06
3.480928608e-06
3.963822391e-06
4.264708341e-06
1.479835419e-06
1.734898694e-06
2.12768911e-06
2.657007574e-06
3.308360266e-06
4.043007682e-06
4.788522483e-06
5.434103549e-06
5.835519576e-06
2.090600382e-06
2.434043065e-06
2.960927559e-06
3.667784007e-06
4.533647717e-06
5.506094979e-06
6.489285666e-06
7.338102316e-06
7.864631689e-06
2.908510281e-06
3.363583235e-06
4.059068311e-06
4.987903864e-06
6.120365152e-06
7.386592222e-06
8.661768182e-06
9.759010806e-06
1.043781897e-05
3.984879121e-06
4.578184879e-06
5.48147498e-06
6.682324764e-06
8.139416092e-06
9.761096065e-06
1.138740876e-05
1.278175583e-05
1.364181586e-05
5.377209651e-06
6.138345756e-06
7.292732019e-06
8.820304131e-06
1.066474808e-05
1.270770045e-05
1.474745679e-05
1.64895321e-05
1.756063024e-05
7.148231024e-06
8.109211255e-06
9.561142467e-06
1.147350872e-05
1.377103848e-05
1.630326753e-05
1.881988645e-05
2.096046183e-05
2.227207664e-05
9.364644497e-06
1.055913112e-05
1.235702606e-05
1.471401746e-05
1.75314051e-05
2.062089079e-05
2.367669073e-05
2.626480956e-05
2.784497905e-05
1.209570955e-05
1.355811278e-05
1.575100494e-05
1.861244149e-05
2.201540223e-05
2.572784219e-05
2.93818682e-05
3.246307452e-05
3.433736754e-05
1.54118157e-05
1.717632897e-05
1.981244946e-05
2.323634673e-05
2.728749361e-05
3.168419109e-05
3.599027596e-05
3.960511541e-05
4.179581848e-05
1.938316165e-05
2.148280098e-05
2.460820088e-05
2.864908385e-05
3.340608525e-05
3.854214436e-05
4.354735309e-05
4.773025029e-05
5.025568179e-05
2.407860812e-05
2.654431096e-05
3.020160301e-05
3.490902614e-05
4.042307945e-05
4.634603126e-05
5.208961683e-05
5.686823051e-05
5.974271157e-05
2.95646972e-05
3.242451502e-05
3.665177939e-05
4.206910213e-05
4.838377313e-05
5.513269672e-05
6.164571578e-05
6.70410703e-05
7.027527123e-05
3.5904766e-05
3.918316043e-05
4.401301834e-05
5.017641583e-05
5.732676842e-05
6.49317121e-05
7.223685783e-05
7.826410648e-05
8.186683463e-05
4.315805169e-05
4.68752904e-05
5.233412913e-05
5.927179365e-05
6.728370887e-05
7.57651978e-05
8.387627408e-05
9.054336709e-05
9.45178545e-05
5.137870381e-05
5.555035728e-05
6.165770726e-05
6.938924742e-05
7.82789841e-05
8.764769128e-05
9.656998553e-05
0.0001038786478
0.0001082221156
6.061467492e-05
6.525122678e-05
7.201930177e-05
8.055531725e-05
9.032914536e-05
0.0001005859666
0.000110315734
0.0001182582223
0.0001229636458
7.090653972e-05
7.601314857e-05
8.344662997e-05
9.278866226e-05
0.0001034429965
0.0001145791141
0.0001251037147
0.0001336631236
0.0001387187198
8.228634923e-05
8.786277059e-05
9.595880774e-05
0.0001060993382
0.0001176213094
0.0001296188689
0.0001409136918
0.0001500657591
0.0001554556795
9.477671363e-05
0.0001008173668
0.0001095656352
0.0001204886712
0.0001328561784
0.000145686326
0.0001577171174
0.0001674307794
0.0001731355677
0.0001083899701
0.0001148843425
0.0001242678829
0.0001359494545
0.0001491315828
0.0001627533871
0.0001754773889
0.0001857156611
0.0001917127835
0.0001231288274
0.000130062001
0.0001400577899
0.0001524667934
0.0001664196278
0.0001807830384
0.0001941503357
0.0002048713488
0.0002111357873
0.0001389869473
0.000146340031
0.0001569189544
0.0001700120061
0.0001846826391
0.0001997300557
0.0002136849643
0.0002248430376
0.0002313478971
0.000155949789
0.0001636982081
0.0001748204989
0.0001885458672
0.0002038740705
0.0002195419085
0.0002340243555
0.0002455710558
0.0002522881571
0.0001739877478
0.0001821000435
0.0001937197177
0.0002080194833
0.0002239394809
0.0002401597564
0.0002551066376
0.000266991798
0.0002738922389
0.000193055961
0.0002014971321
0.0002135637791
0.0002283755502
0.00024481768
0.000261519533
0.0002768660021
0.0002890386728
0.0002960933441
0.0002130984693
0.0002218310824
0.0002342912808
0.0002495497206
0.0002664419648
0.0002835530728
0.0002992337277
0.0003116430363
0.000318823082
0.0002340502022
0.0002430352867
0.0002558338127
0.0002714720063
0.0002887413803
0.000306189239
0.0003221391803
0.0003347350871
0.0003420123022
0.0002558387598
0.0002650365919
0.0002781174903
0.0002940681682
0.0003116419597
0.000329355011
0.0003455107612
0.0003582447022
0.0003655918656
0.0002783860946
0.0002877568988
0.000301064435
0.0003172610537
0.0003350679048
0.0003529765074
0.0003692767837
0.0003821022
0.0003894933433
0.0003016101147
0.0003111146846
0.0003245941786
0.0003409718558
0.0003589426837
0.0003769799205
0.0003933662639
0.0004062390204
0.0004136496356
0.0003254261946
0.0003350264295
0.0003486249694
0.0003651212697
0.0003831900251
0.0004012923527
0.0004177096179
0.0004305883194
0.0004379955105
0.0003497485725
0.000359407928
0.0003730749588
0.000389630532
0.0004077347995
0.0004258425463
0.0004422392626
0.0004550854749
0.0004624680589
0.0003744916144
0.0003841754643
0.0003978632565
0.0004144223322
0.0004325037816
0.0004505615054
0.0004668901207
0.000479668508
0.0004870070713
0.0003995709281
0.0004092468436
0.0004229108442
0.0004394215924
0.0004574262924
0.0004753830121
0.0004916000328
0.0005042784217
0.0005115553387
0.0004249043222
0.0004345422701
0.0004481413472
0.0004645561165
0.0004824347247
0.0005002440403
0.000516310082
0.000528859464
0.0005360588841
0.0004504126063
0.0004599850764
0.0004734816664
0.0004897571129
0.0005074649588
0.0005250850753
0.0005409648377
0.0005533593199
0.0005604671285
0.0004760202384
0.0004855023065
0.0004988624764
0.0005149595991
0.0005324566742
0.0005498503466
0.0005655125261
0.0005777292411
0.0005847330002
0.0005016558265
0.0005110251626
0.0005242186005
0.000540102697
0.0005573535694
0.0005744879811
0.0005899051345
0.0006019241176
0.0006088129908
0.0005272524972
0.0005364893281
0.0005494892726
0.0005651298303
0.0005821034979
0.0005989500887
0.0006140984583
0.0006259025011
0.0006326671672
0.0005527481434
0.0005618351773
0.0005746183003
0.0005899888355
0.0006066585312
0.0006231927863
0.0006380520973
0.0006496265841
0.000656259143
0.0005780855658
0.0005870078885
0.0005995541389
0.0006146319981
0.0006309749603
0.0006471761705
0.0006617294097
0.0006730621431
0.0006795560169
0.0006032125226
0.0006119574713
0.0006242498928
0.0006390160242
0.0006550132426
0.0006708642475
0.0006850974298
0.0006961784502
0.0007025282824
0.0006280817019
0.0006366387237
0.0006486632524
0.0006631019606
0.0006787379062
0.0006942248261
0.0007081267562
0.0007189481598
0.0007251497146
0.0006526506292
0.00066101113
0.0006727563813
0.0006868550699
0.0007021174183
0.000717229383
0.0007307914168
0.0007413471753
0.0007473972382
0.0006768815242
0.0006850387122
0.0006964957614
0.0007102446724
0.0007251240256
0.000739852905
0.0007530687146
0.0007633544995
0.0007692507807
0.0007007411156
0.0007086898433
0.0007198520068
0.0007332439618
0.0007477335738
0.0007620737141
0.0007749390606
0.0007849520734
0.0007906931157
0.0007242004262
0.000731937035
0.0007427996542
0.0007558298007
0.0007699253115
0.0007838732816
0.0007963857963
0.0008061246071
0.0008117096978
0.0007472345354
0.0007547567039
0.0007653169363
0.000777982504
0.0007916816842
0.0008052360334
0.0008173950114
0.0008268594059
0.0008322884938
0.0007698223279
0.0007771289262
0.0007873855459
0.0007996856138
0.0008129881226
0.000826149152
0.000837955357
0.0008471461934
0.0008524198115
0.000791946233
0.0007990371852
0.0008089903936
0.0008209256706
0.0008338328288
0.000846602377
0.0008580578603
0.000866976936
0.0008720961291
0.0008135919623
0.000820468117
0.0008301193654
0.0008416919858
0.0008542065633
0.0008665878078
0.0008776957397
0.0008863456681
0.0008913119263
0.0008347482479
0.0008414112572
0.0008507630827
0.0008619764158
0.000874102436
0.0008860997097
0.0008968642249
0.000905248322
0.0009100635193
0.0008554065856
0.0008618587942
0.0008709146674
0.0008817731427
0.0008935157026
0.0009051343259
0.0009155603811
0.0009236825623
0.0009283489008
0.0008755609861
0.0008818053287
0.000890569515
0.0009010784623
0.000912443568
0.0009236896953
0.0009337829413
0.0009416476266
0.0009461675855
0.0008952077349
0.0009012476439
0.0009097250765
0.0009198905806
0.0009308849984
0.0009417654795
0.0009515321437
0.0009591441733
0.0009635204623
0.0009143451646
0.0009201844852
0.0009283806513
0.0009382094207
0.0009488405427
0.0009593627977
0.0009688095793
0.0009761741361
0.0009804096545
0.0009329734389
0.0009386163536
0.0009465371909
0.0009560364398
0.0009663121631
0.0009764840703
0.0009856180461
0.0009927405876
0.0009968383863
0.0009510943488
0.0009565453096
0.0009641971147
0.0009733744579
0.0009833030772
0.0009931328729
0.001001961413
0.00100884761
0.001012810859
0.0009687111235
0.0009739747916
0.0009813641381
0.0009902274972
0.000999817609
0.001009313799
0.001017844494
0.001024500174
0.001028332131
0.0009858282537
0.0009909094461
0.0009980431123
0.001006600633
0.001015861051
0.001025032333
0.001033272926
0.001039704028
0.001043408015
0.001002451328
0.001007354971
0.001014239876
0.001022499857
0.001031439539
0.001040294732
0.00104825306
0.001054465594
0.001058044971
0.001018586885
0.001023317971
0.001029961121
0.001037931946
0.001046559928
0.001055107915
0.001062791865
0.001068791867
0.001072250015
0.00103424227
0.001038805827
0.001045214263
0.001052904353
0.001061229694
0.001069479367
0.001076896824
0.001082690333
0.001086030633
0.001049425518
0.001053826572
0.001060007334
0.001067425093
0.001075456827
0.001083417045
0.001090575859
0.001096168884
0.001099394704
0.001064145232
0.001068388786
0.001074348872
0.001081502651
0.001089249744
0.001096929294
0.001103837248
0.001109235747
0.001112350428
0.001078410484
0.001082501494
0.001088247832
0.001095145893
0.001102617211
0.001110024774
0.001116689555
0.001121899412
0.001124906258
0.001092230721
0.001096174075
0.001101713501
0.001108363987
0.001115568263
0.00112271239
0.001129141568
0.001134168579
0.001137070843
0.001105615679
0.001109416188
0.001114755418
0.001121166331
0.001128112144
0.001135001231
0.001141202237
0.001146052094
0.001148852979
0.001118575314
0.00112223769
0.00112738331
0.001133562491
0.001140258245
0.001146900514
0.001152880627
0.001157558909
0.001160261552
0.001131119729
0.001134648583
0.001139607028
0.001145562141
0.001152016049
0.001158419536
0.001164185871
0.00116869803
0.001171305502
0.001143259121
0.001146658949
0.0011514365
0.001157175019
0.001163395089
0.00116956763
0.001175127127
0.001179478485
0.001181993786
0.001155003732
0.001158278911
0.001162881677
0.001168410878
0.001174404906
0.00118035413
0.001185713545
0.001189909287
0.001192335341
0.001166363794
0.001169518577
0.001173952499
0.001179279449
0.00118505501
0.00119078833
0.001195954233
0.001199999402
0.001202339057
0.001177349495
0.00118038801
0.001184658848
0.001189790407
0.001195354851
0.001200879463
0.001205858232
0.001209757726
0.001212013751
0.001187970947
0.001190897191
0.001195010526
0.001199953339
0.00120531379
0.001210636668
0.001215434487
0.001219193061
0.001221368143
0.001198238148
0.001201055989
0.001205017224
0.001209777722
0.001214941074
0.001220068972
0.001224691833
0.001228314093
0.001230410842
0.001208160968
0.001210874145
0.001214688499
0.0012192729
0.00122424582
0.001229185271
0.00123363897
0.001237129378
0.00123915032
0.00121774912
0.001220361242
0.001224033758
0.001228448066
0.001233236995
0.001237994311
0.001242284455
0.001245647326
0.001247594909
0.001227012144
0.001229526694
0.001233062235
0.001237312246
0.001241923401
0.001246504679
0.001250636682
0.00125387619
0.001255752782
0.001235959395
0.001238379729
0.001241782986
0.001245874287
0.001250313666
0.001254724788
0.001258703881
0.001261824056
0.001263631947
0.001244600029
0.00124692938
0.001250204871
0.001254142848
0.001258416233
0.001262662873
0.0012664941
0.001269498835
0.001271240236
0.001252942991
0.001255184474
0.00125833655
0.00126212639
0.001266239352
0.001270326979
0.001274015206
0.001276908257
0.001278585305
0.001260997015
0.001263153625
0.001266186473
0.001269833171
0.001273791075
0.001277724959
0.001281274876
0.001284059866
0.001285674623
0.001268770612
0.001270845231
0.00127376288
0.001277271241
0.001281079252
0.001284864467
0.001288280596
0.001290961018
0.001292515475
0.001276272069
0.001278267467
0.001281073793
0.00128444844
0.001288111529
0.001291752962
0.001295039655
0.001297618876
0.001299114953
0.001283509447
0.001285428289
0.001288127016
0.001291372396
0.001294895345
0.001298397699
0.00130155915
0.001304040415
0.001305479961
0.001290490581
0.001292335426
0.001294930136
0.001298050524
0.001301437933
0.001304805733
0.001307845978
0.001310232413
0.001311617215
0.001297223079
0.001298996385
0.001301490519
0.001304490026
0.001307746318
0.001310983919
0.001313906846
0.00131620146
0.001317533237
0.001303714321
0.001305418453
0.001307815318
0.001310697894
0.001313827323
0.001316938914
0.001319748261
0.001321953956
0.001323234364
0.001309971468
0.001311608694
0.001313911468
0.00131668091
0.001319687567
0.001322677176
0.001325376544
0.001327496109
0.001328726748
0.001316001458
0.001317573959
0.001319785694
0.001322445651
0.001325333467
0.00132820497
0.001330797822
0.001332833947
0.001334016353
0.001321811012
0.001323320883
0.001325444512
0.001327998491
0.001330771245
0.001333528369
0.001336018039
0.001337973311
0.001339108967
0.00132740664
0.001328855891
0.001330894232
0.001333345602
0.001336006929
0.001338653259
0.001341042954
0.001342919864
0.001344010198
0.00133279464
0.001334185203
0.001336140963
0.001338492964
0.001341046357
0.001343585341
0.001345878146
0.001347679094
0.00134872548
0.001337981108
0.001339314839
0.001341190619
0.001343446363
0.001345895182
0.001348330135
0.00135052902
0.001352256314
0.001353260077
0.001342971939
0.001344250622
0.00134604892
0.001348211399
0.001350558873
0.001352892985
0.001355000808
0.001356656671
0.001357619088
0.001347772835
0.001348998182
0.001350721401
0.001352793491
0.001355042725
0.001357279065
0.001359298575
0.001360885148
0.001361807447
0.001352389308
0.001353562966
0.001355213413
0.001357197879
0.001359351859
0.001361493377
0.001363427222
0.001364946565
0.001365829931
0.001356826686
0.001357950235
0.00135953013
0.001361429629
0.001363491227
0.001365540764
0.001367391489
0.001368845587
0.00136969116
0.001361090116
0.001362165078
0.001363676553
0.00136549364
0.001367465618
0.001369425906
0.001371195963
0.001372586726
0.001373395604
0.001365184574
0.001366212409
0.001367657513
0.001369394646
0.001371279661
0.001373153327
0.001374845077
0.001376174343
0.001376947585
0.001369114864
0.001370096977
0.001371477681
0.001373137222
0.001374937828
0.001376727402
0.001378343112
0.001379612653
0.001380351278
0.001372885626
0.001373823365
0.001375141564
0.001376725784
0.001378444439
0.001380152351
0.001381694207
0.001382905725
0.001383610712
0.001376501336
0.001377396
0.001378653513
0.001380164596
0.00138180366
0.001383432248
0.001384902348
0.001386057482
0.001386729774
0.001379966314
0.001380819148
0.001382017725
0.001383457767
0.001385019508
0.001386571017
0.001387971379
0.0013890717
0.001389712204
0.001383284722
0.001384096922
0.00138523824
0.001386609253
0.001388095848
0.001389572433
0.00139090499
0.001391952009
0.001392561591
0.001386460566
0.001387233277
0.001388318946
0.001389622859
0.001391036392
0.001392440116
0.00139370672
0.001394701878
0.001395281369
0.001389497693
0.001390232013
0.00139126357
0.001392502227
0.001393844691
0.001395177522
0.001396379938
0.001397324611
0.001397874802
0.001392399788
0.001393096763
0.001394075677
0.001395250834
0.001396524125
0.001397787936
0.001398927841
0.001399823332
0.001400344971
0.001395170369
0.001395830994
0.001396758656
0.001397871979
0.001399077893
0.001400274453
0.001401353426
0.00140220096
0.001402694749
0.001397812771
0.001398437985
0.001399315711
0.001400368769
0.001401508991
0.001402639956
0.001403659472
0.001404460189
0.001404926777
0.001400330138
0.001400920821
0.001401749839
0.001402744094
0.00140382019
0.001404887089
0.001405848504
0.001406603446
0.001407043426
0.001402725398
0.001403282364
0.001404063807
0.0014050006
0.001406014
0.001407018224
0.001407922757
0.001408632855
0.001409046751
0.001405001239
0.001405525228
0.001406260121
0.001407140661
0.001408092639
0.001409035414
0.001409884132
0.001410550187
0.001410938446
0.001407160078
0.001407651745
0.001408340991
0.00140916633
0.001410057985
0.001410940349
0.001411734137
0.001412356802
0.00141271978
0.001409204023
0.001409663927
0.001410308286
0.001411079299
0.001411911525
0.0014127343
0.001413473834
0.001414053589
0.001414391536
0.001411134827
0.001411563416
0.001412163488
0.001412880846
0.001413654299
0.001414418059
0.001415103776
0.001415640902
0.001415953948
0.001412953846
0.00141335144
0.00141390764
0.001414571776
0.001415286845
0.001415991878
0.001416623945
0.001417118496
0.001417406637
0.001414661982
0.001415028756
0.001415541286
0.001416152372
0.001416809141
0.001417455416
0.001418033693
0.001418485473
0.001418748552
0.00141625963
0.001416595599
0.001417064428
0.001417622338
0.001418220555
0.001418807689
0.0014193317
0.001419740241
0.001419977936
0.001417746634
0.001418051634
0.00141847647
0.001418980757
0.001419519804
0.001420047032
0.001420515947
0.001420880487
0.001421092307
0.001419122239
0.001419395913
0.001419776189
0.001420226061
0.001420704935
0.001421171097
0.001421583715
0.001421903198
0.001422088474
0.001420385065
0.001420626854
0.001420961714
0.001421356026
0.001421773331
0.001422176869
0.001422531624
0.001422804703
0.001422962603
0.001421533094
0.001421742237
0.001422030538
0.001422367796
0.001422721754
0.001423060732
0.001423355719
0.001423580789
0.001423710332
0.001422563689
0.001422739231
0.001422979557
0.001423257944
0.001423546435
0.001423818584
0.001424051616
0.001424226863
0.001424326957
0.001423473644
0.001423614457
0.001423805156
0.001424022583
0.001424243211
0.001424446017
0.00142461471
0.00142473819
0.001424807684
0.001424259279
0.001424364099
0.001424503344
0.001424657532
0.00142480773
0.001424938551
0.001425040451
0.001425110205
0.001425147959
0.001424916586
0.001424984071
0.001425069941
0.001425158541
0.001425235716
0.001425291944
0.001425324695
0.001425338893
0.00142534387
0.001425441422
0.001425470228
0.001425500832
0.001425521576
0.001425523292
0.001425502565
0.001425464113
0.001425421229
0.001425392605
0.00142582977
0.001425818648
0.001425792267
0.001425743158
0.001425667369
0.001425567809
0.001425456646
0.001425355662
0.001425292948
0.001426078044
0.001426025959
0.00142594122
0.001425820761
0.001425666061
0.001425486557
0.001425301982
0.001425142607
0.00142504578
0.00142618345
0.001426089715
0.001425945788
0.001425753219
0.001425519131
0.001425259628
0.001425002022
0.001424784913
0.001424654544
0.001426144379
0.001426008797
0.0014258056
0.001425541161
0.001425228416
0.001424890203
0.001424561294
0.001424288256
0.001424125626
0.001425960809
0.00142578382
0.001425522228
0.001425187405
0.001424798212
0.00142438418
0.001423987263
0.001423661413
0.001423468599
0.001425634709
0.001425417523