/*--------------------------------*- C++ -*----------------------------------*\
| =========                 |                                                 |
| \\      /  F ield         | OpenFOAM: The Open Source CFD Toolbox           |
|  \\    /   O peration     | Version:  2212                                  |
|   \\  /    A nd           | Website:  www.openfoam.com                      |
|    \\/     M anipulation  |                                                 |
\*---------------------------------------------------------------------------*/
FoamFile
{
    version     2.0;
    format      ascii;
    arch        "LSB;label=32;scalar=64";
    class       volScalarField;
    location    "20.00000000";
    object      PC3H4;
}
// * * * * * * * * * * * * * * * * * * * * * * * * * * * * * * * * * * * * * //

dimensions      [0 0 0 0 0 0 0];

internalField   nonuniform List<scalar> 
3000
(
3.565436414e-27
4.421606262e-27
5.790005352e-27
7.751650249e-27
1.038954284e-26
1.373334341e-26
1.765343735e-26
2.168186471e-26
2.475251564e-26
1.5024618e-26
1.876914065e-26
2.475301184e-26
3.334722453e-26
4.499765972e-26
6.015054178e-26
7.908898325e-26
1.014889026e-25
1.234660945e-25
3.871677497e-26
4.897752599e-26
6.554628802e-26
8.980191188e-26
1.237200096e-25
1.698859709e-25
2.30966192e-25
3.0730774e-25
3.822559358e-25
8.459857513e-26
1.087624209e-25
1.485420204e-25
2.08534592e-25
2.957306168e-25
4.196271919e-25
5.900796023e-25
8.063594642e-25
1.010453868e-24
1.720538624e-25
2.256186969e-25
3.15949423e-25
4.565686034e-25
6.682522478e-25
9.789060377e-25
1.414056504e-24
1.958942817e-24
2.44790949e-24
3.389244208e-25
4.54216661e-25
6.535368195e-25
9.730712505e-25
1.468167151e-24
2.210342637e-24
3.255174516e-24
4.535803183e-24
5.632306884e-24
6.610530849e-25
9.058809672e-25
1.33893717e-24
2.050765229e-24
3.178208032e-24
4.890509885e-24
7.297819483e-24
1.018372373e-23
1.250537818e-23
1.29050018e-24
1.806384964e-24
2.737000219e-24
4.297726542e-24
6.809849391e-24
1.06566347e-23
1.605978141e-23
2.251337698e-23
2.792643381e-23
2.534683387e-24
3.61655021e-24
5.599381771e-24
8.975237291e-24
1.446619001e-23
2.28991599e-23
3.467358508e-23
4.852031645e-23
5.975153004e-23
5.016946822e-24
7.277985817e-24
1.14742476e-23
1.869888268e-23
3.053168222e-23
4.872022518e-23
7.398117757e-23
1.033932962e-22
1.26973223e-22
1.000613732e-23
1.471992624e-23
2.355442448e-23
3.889191181e-23
6.413085844e-23
1.029283086e-22
1.565827136e-22
2.186166515e-22
2.679797231e-22
2.009032922e-23
2.989804994e-23
4.842080738e-23
8.078003664e-23
1.342044912e-22
2.16304785e-22
3.294590427e-22
4.595987391e-22
5.62586954e-22
4.055795895e-23
6.093024705e-23
9.963617607e-23
1.675768196e-22
2.800061274e-22
4.527076362e-22
6.900861405e-22
9.620007573e-22
1.176289647e-21
8.22286651e-23
1.244834855e-22
2.051432478e-22
3.472408595e-22
5.827819855e-22
9.444295548e-22
1.44043413e-21
2.006823526e-21
2.451735704e-21
1.67260859e-22
2.547913606e-22
4.22500245e-22
7.187851621e-22
1.210519869e-21
1.965202536e-21
2.998453425e-21
4.17541085e-21
5.097578664e-21
3.410698134e-22
5.221885078e-22
8.702443194e-22
1.48650497e-21
2.510263163e-21
4.080868277e-21
6.228179536e-21
8.669291617e-21
1.057801039e-20
6.967957537e-22
1.071214448e-21
1.792453757e-21
3.071717708e-21
5.198445462e-21
8.460108404e-21
1.291427082e-20
1.796969103e-20
2.191591274e-20
1.425550247e-21
2.198950933e-21
3.691626301e-21
6.342935404e-21
1.075316993e-20
1.751500284e-20
2.674021408e-20
3.71967687e-20
4.534793856e-20
2.919619059e-21
4.516080735e-21
7.602120971e-21
1.30898356e-20
2.222228234e-20
3.622063982e-20
5.53032247e-20
7.690866802e-20
9.37312483e-20
5.984455486e-21
9.278005453e-21
1.565275336e-20
2.699896357e-20
4.58872907e-20
7.483235458e-20
1.142622288e-19
1.588614565e-19
1.935521704e-19
1.227414203e-20
1.906551678e-20
3.22240652e-20
5.566162143e-20
9.468807561e-20
1.544778826e-19
2.358720781e-19
3.278556641e-19
3.993367964e-19
2.518576341e-20
3.918373482e-20
6.63280802e-20
1.147040281e-19
1.952675463e-19
3.186577021e-19
4.865264404e-19
6.760741629e-19
8.232413483e-19
5.169567238e-20
8.05360677e-20
1.364994608e-19
2.362777286e-19
4.024520348e-19
6.568752541e-19
1.002781448e-18
1.393022549e-18
1.69573414e-18
1.061276611e-19
1.655253784e-19
2.808426877e-19
4.865013496e-19
8.289884251e-19
1.35313277e-18
2.065226519e-18
2.86784436e-18
3.489821445e-18
2.178785791e-19
3.401594653e-19
5.776491973e-19
1.001251712e-18
1.706545627e-18
2.785336675e-18
4.249718997e-18
5.89851832e-18
7.174787542e-18
4.472357386e-19
6.988462988e-19
1.18763244e-18
2.059465984e-18
3.510577226e-18
5.728601748e-18
8.736311825e-18
1.211852385e-17
1.473302676e-17
9.177211494e-19
1.435125134e-18
2.440358079e-18
4.233096265e-18
7.215495901e-18
1.177005307e-17
1.793841441e-17
2.486416621e-17
3.020906908e-17
1.882089455e-18
2.945230481e-18
5.010690134e-18
8.69307725e-18
1.48147474e-17
2.415274748e-17
3.677981873e-17
5.093069244e-17
6.182946936e-17
3.856642345e-18
6.038932565e-18
1.027794598e-17
1.783160098e-17
3.037695885e-17
4.948595734e-17
7.52757993e-17
1.04111046e-16
1.262642859e-16
7.893757589e-18
1.236748138e-17
2.105467154e-17
3.652345595e-17
6.218257818e-17
1.011953543e-16
1.537222981e-16
2.122852672e-16
2.571408242e-16
1.61328055e-17
2.52888396e-17
4.305929602e-17
7.467115929e-17
1.270248554e-16
2.064452303e-16
3.130651384e-16
4.315270727e-16
5.219289075e-16
3.290912309e-17
5.160935848e-17
8.787804091e-17
1.523143374e-16
2.588184516e-16
4.199379165e-16
6.354721533e-16
8.73953527e-16
1.055151914e-15
6.697550059e-17
1.050717741e-16
1.788894324e-16
3.098254002e-16
5.25715782e-16
8.512203764e-16
1.284815027e-15
1.762220248e-15
2.123100299e-15
1.359282248e-16
2.133004957e-16
3.630414155e-16
6.28116892e-16
1.063883713e-15
1.718269274e-15
2.585601128e-15
3.535107002e-15
4.248637357e-15
2.749730952e-16
4.315430564e-16
7.341006711e-16
1.268387122e-15
2.143597481e-15
3.45167073e-15
5.17532611e-15
7.049900775e-15
8.449234596e-15
5.541758208e-16
8.696694855e-16
1.478200931e-15
2.549641624e-15
4.297379594e-15
6.895119378e-15
1.029534029e-14
1.396587578e-14
1.668564467e-14
1.112177342e-15
1.744825574e-15
2.962344476e-15
5.098522288e-15
8.565949091e-15
1.368710412e-14
2.03397454e-14
2.746220025e-14
3.269731433e-14
2.221618633e-15
3.483304306e-15
5.904855065e-15
1.013608172e-14
1.696528327e-14
2.697920468e-14
3.987875738e-14
5.356533408e-14
6.353861041e-14
4.415158912e-15
6.91601295e-15
1.170063781e-14
2.002106876e-14
3.336371299e-14
5.277183631e-14
7.75431892e-14
1.035728095e-13
1.223687364e-13
8.726367719e-15
1.365032057e-14
2.303588747e-14
3.926825908e-14
6.511014308e-14
1.023682207e-13
1.494517954e-13
1.984243847e-13
2.334567416e-13
1.714666832e-14
2.677125273e-14
4.503837787e-14
7.643649796e-14
1.260215035e-13
1.968282528e-13
2.85368742e-13
3.764905195e-13
4.41054621e-13
3.348540004e-14
5.215200766e-14
8.740844397e-14
1.475908915e-13
2.418004712e-13
3.749560087e-13
5.396353311e-13
7.072901266e-13
8.249516025e-13
6.497609108e-14
1.008814341e-13
1.683271196e-13
2.825823012e-13
4.597482901e-13
7.074595256e-13
1.010359014e-12
1.315388875e-12
1.527453097e-12
1.25253149e-13
1.937204176e-13
3.215519965e-13
5.363144409e-13
8.659850693e-13
1.321776663e-12
1.872739403e-12
2.42161116e-12
2.799717473e-12
2.398255051e-13
3.692105766e-13
6.091743484e-13
1.008749227e-12
1.615657234e-12
2.445151041e-12
3.436374707e-12
4.413442877e-12
5.080622113e-12
4.560638007e-13
6.982993663e-13
1.144334105e-12
1.880071082e-12
2.98539614e-12
4.478653186e-12
6.242906412e-12
7.964267281e-12
9.129886601e-12
8.612809803e-13
1.310489988e-12
2.131288383e-12
3.471905207e-12
5.463562495e-12
8.123242059e-12
1.123100644e-11
1.423372224e-11
1.625109137e-11
1.615206708e-12
2.440197003e-12
3.935452359e-12
6.352923955e-12
9.904129857e-12
1.459268425e-11
2.001301906e-11
2.520196751e-11
2.866275147e-11
3.007844614e-12
4.508219989e-12
7.204757838e-12
1.151944725e-11
1.778692255e-11
2.597042778e-11
3.5335561e-11
4.422373991e-11
5.011193685e-11
5.561697695e-12
8.263717047e-12
1.307812177e-11
2.07017168e-11
3.16542666e-11
4.580345281e-11
6.184138542e-11
7.69412344e-11
8.688334478e-11
1.021083482e-11
1.502946812e-11
2.354050025e-11
3.687905377e-11
5.583805752e-11
8.008356757e-11
1.073216395e-10
1.327797527e-10
1.494501924e-10
1.861176022e-11
2.712184879e-11
4.202241523e-11
6.5139259e-11
9.76611121e-11
1.388574755e-10
1.847610958e-10
2.273846192e-10
2.55161959e-10
3.36781194e-11
4.856353681e-11
7.44034875e-11
1.141002424e-10
1.694063753e-10
2.388485243e-10
3.156553596e-10
3.865673323e-10
4.325972496e-10
6.049172828e-11
8.628222704e-11
1.306776092e-10
1.982410597e-10
2.915180707e-10
4.076893061e-10
5.353459695e-10
6.526463747e-10
7.285646277e-10
1.078396497e-10
1.521099865e-10
2.276940997e-10
3.416867616e-10
4.977198967e-10
6.906637643e-10
9.01518722e-10
1.094551823e-09
1.219250938e-09
1.907587071e-10
2.660289845e-10
3.935292524e-10
5.842035581e-10
8.431876336e-10
1.161421129e-09
1.507607601e-09
1.823671696e-09
2.027654097e-09
3.346653041e-10
4.614269676e-10
6.745570082e-10
9.908122042e-10
1.417377773e-09
1.938646073e-09
2.50356672e-09
3.018290707e-09
3.350276879e-09
5.820923089e-10
7.93546946e-10
1.146618449e-09
1.666780261e-09
2.363966332e-09
3.211817899e-09
4.127721641e-09
4.960686043e-09
5.497254243e-09
1.003434632e-09
1.352836517e-09
1.932506525e-09
2.780894146e-09
3.911534691e-09
5.280550813e-09
6.754974142e-09
8.092691914e-09
8.952182194e-09
1.713911681e-09
2.285827044e-09
3.229044682e-09
4.601179325e-09
6.420283767e-09
8.61395015e-09
1.096876473e-08
1.309807073e-08
1.44610851e-08
2.900023826e-09
3.82741695e-09
5.348560717e-09
7.549106487e-09
1.045224578e-08
1.393880755e-08
1.766682682e-08
2.102338145e-08
2.316342989e-08
4.86031899e-09
6.350200357e-09
8.781644677e-09
1.228075757e-08
1.687512893e-08
2.236824782e-08
2.821424967e-08
3.345323868e-08
3.678172862e-08
8.067436203e-09
1.04388811e-08
1.429078087e-08
1.980633264e-08
2.701283814e-08
3.558574303e-08
4.466201853e-08
5.276031635e-08
5.789082871e-08
1.326123187e-08
1.700082941e-08
2.304755031e-08
3.166230212e-08
4.285855997e-08
5.610356293e-08
7.005396722e-08
8.245452294e-08
9.029288652e-08
2.158615194e-08
2.742706599e-08
3.682887584e-08
5.015270517e-08
6.736921522e-08
8.761923464e-08
1.088479823e-07
1.276589998e-07
1.395273958e-07
3.478896752e-08
4.382018159e-08
5.828900045e-08
7.867734155e-08
1.048633641e-07
1.35495551e-07
1.67477533e-07
1.957410893e-07
2.135454045e-07
5.549354823e-08
6.93051881e-08
9.132310958e-08
1.221658926e-07
1.615459295e-07
2.073862951e-07
2.550758153e-07
2.971208157e-07
3.23570348e-07
8.756592976e-08
1.084361918e-07
1.41537752e-07
1.876374587e-07
2.461771283e-07
3.140208114e-07
3.843736037e-07
4.462650553e-07
4.851513423e-07
1.365786461e-07
1.677102405e-07
2.168431126e-07
2.848978591e-07
3.708884704e-07
4.701440979e-07
5.72759579e-07
6.628485019e-07
7.193849291e-07
2.1038429e-07
2.562000669e-07
3.281742682e-07
4.273680297e-07
5.521273588e-07
6.955815477e-07
8.434581715e-07
9.73022575e-07
1.054237186e-06
3.19807131e-07
3.863064556e-07
4.903255963e-07
6.330112983e-07
8.116831591e-07
1.016360599e-06
1.226734465e-06
1.410681678e-06
1.525842329e-06
4.794401539e-07
5.746021775e-07
7.228532048e-07
9.252983051e-07
1.177708843e-06
1.46577735e-06
1.760985875e-06
2.018560871e-06
2.179595431e-06
7.085005908e-07
8.427087939e-07
1.050972853e-06
1.334114538e-06
1.685618718e-06
2.085255606e-06
2.493536534e-06
2.848953709e-06
3.07081121e-06
1.031670918e-06
1.218124458e-06
1.506353755e-06
1.896489027e-06
2.378711094e-06
2.924819784e-06
3.480928625e-06
3.96382241e-06
4.264708359e-06
1.479835427e-06
1.734898702e-06
2.127689121e-06
2.657007587e-06
3.308360282e-06
4.043007701e-06
4.788522506e-06
5.434103575e-06
5.835519601e-06
2.090600392e-06
2.434043077e-06
2.960927573e-06
3.667784024e-06
4.533647738e-06
5.506095004e-06
6.489285697e-06
7.338102351e-06
7.864631722e-06
2.908510294e-06
3.363583251e-06
4.05906833e-06
4.987903887e-06
6.12036518e-06
7.386592255e-06
8.661768221e-06
9.759010851e-06
1.043781901e-05
3.984879139e-06
4.5781849e-06
5.481475005e-06
6.682324795e-06
8.139416129e-06
9.761096109e-06
1.138740881e-05
1.278175589e-05
1.364181591e-05
5.377209673e-06
6.138345784e-06
7.292732052e-06
8.820304171e-06
1.066474813e-05
1.270770051e-05
1.474745686e-05
1.648953217e-05
1.756063031e-05
7.148231053e-06
8.109211291e-06
9.561142511e-06
1.147350877e-05
1.377103854e-05
1.63032676e-05
1.881988653e-05
2.096046192e-05
2.227207672e-05
9.364644536e-06
1.055913117e-05
1.235702612e-05
1.471401753e-05
1.753140518e-05
2.062089087e-05
2.367669083e-05
2.626480967e-05
2.784497915e-05
1.20957096e-05
1.355811284e-05
1.575100501e-05
1.861244157e-05
2.201540232e-05
2.572784229e-05
2.938186832e-05
3.246307466e-05
3.433736766e-05
1.541181576e-05
1.717632904e-05
1.981244954e-05
2.323634683e-05
2.728749372e-05
3.168419122e-05
3.59902761e-05
3.960511556e-05
4.179581862e-05
1.938316172e-05
2.148280107e-05
2.460820098e-05
2.864908396e-05
3.340608538e-05
3.854214451e-05
4.354735326e-05
4.773025047e-05
5.025568195e-05
2.407860821e-05
2.654431106e-05
3.020160313e-05
3.490902627e-05
4.042307959e-05
4.634603142e-05
5.208961701e-05
5.68682307e-05
5.974271175e-05
2.95646973e-05
3.242451514e-05
3.665177953e-05
4.206910228e-05
4.838377329e-05
5.51326969e-05
6.164571598e-05
6.704107051e-05
7.027527142e-05
3.590476611e-05
3.918316056e-05
4.401301849e-05
5.0176416e-05
5.73267686e-05
6.49317123e-05
7.223685805e-05
7.826410672e-05
8.186683485e-05
4.315805182e-05
4.687529055e-05
5.233412929e-05
5.927179383e-05
6.728370907e-05
7.576519802e-05
8.387627432e-05
9.054336734e-05
9.451785473e-05
5.137870396e-05
5.555035745e-05
6.165770744e-05
6.938924761e-05
7.827898432e-05
8.764769151e-05
9.656998579e-05
0.000103878648
0.0001082221158
6.061467508e-05
6.525122697e-05
7.201930196e-05
8.055531747e-05
9.032914559e-05
0.0001005859668
0.0001103157342
0.0001182582226
0.0001229636461
7.090653989e-05
7.601314876e-05
8.344663018e-05
9.278866249e-05
0.0001034429968
0.0001145791143
0.000125103715
0.0001336631239
0.00013871872
8.228634942e-05
8.786277081e-05
9.595880797e-05
0.0001060993385
0.0001176213096
0.0001296188691
0.0001409136921
0.0001500657594
0.0001554556798
9.477671383e-05
0.000100817367
0.0001095656354
0.0001204886715
0.0001328561787
0.0001456863263
0.0001577171177
0.0001674307798
0.000173135568
0.0001083899703
0.0001148843427
0.0001242678832
0.0001359494548
0.0001491315831
0.0001627533874
0.0001754773893
0.0001857156615
0.0001917127838
0.0001231288277
0.0001300620013
0.0001400577902
0.0001524667937
0.0001664196281
0.0001807830387
0.0001941503361
0.0002048713492
0.0002111357876
0.0001389869476
0.0001463400313
0.0001569189547
0.0001700120064
0.0001846826394
0.0001997300561
0.0002136849647
0.000224843038
0.0002313478975
0.0001559497893
0.0001636982085
0.0001748204992
0.0001885458675
0.0002038740709
0.0002195419089
0.0002340243559
0.0002455710562
0.0002522881575
0.0001739877481
0.0001821000438
0.0001937197181
0.0002080194836
0.0002239394813
0.0002401597568
0.000255106638
0.0002669917985
0.0002738922393
0.0001930559613
0.0002014971325
0.0002135637795
0.0002283755506
0.0002448176805
0.0002615195334
0.0002768660026
0.0002890386733
0.0002960933445
0.0002130984697
0.0002218310828
0.0002342912812
0.000249549721
0.0002664419652
0.0002835530733
0.0002992337282
0.0003116430368
0.0003188230824
0.0002340502026
0.0002430352871
0.0002558338132
0.0002714720068
0.0002887413808
0.0003061892394
0.0003221391807
0.0003347350876
0.0003420123026
0.0002558387602
0.0002650365923
0.0002781174908
0.0002940681687
0.0003116419601
0.0003293550114
0.0003455107616
0.0003582447027
0.0003655918661
0.000278386095
0.0002877568993
0.0003010644355
0.0003172610542
0.0003350679053
0.0003529765078
0.0003692767842
0.0003821022005
0.0003894933437
0.0003016101151
0.000311114685
0.0003245941791
0.0003409718562
0.0003589426842
0.0003769799209
0.0003933662644
0.0004062390209
0.0004136496361
0.000325426195
0.00033502643
0.0003486249698
0.0003651212701
0.0003831900255
0.0004012923532
0.0004177096184
0.0004305883199
0.000437995511
0.0003497485729
0.0003594079284
0.0003730749593
0.0003896305325
0.0004077348
0.0004258425468
0.0004422392631
0.0004550854754
0.0004624680594
0.0003744916148
0.0003841754648
0.000397863257
0.0004144223327
0.0004325037821
0.0004505615059
0.0004668901212
0.0004796685085
0.0004870070717
0.0003995709285
0.000409246844
0.0004229108446
0.0004394215929
0.0004574262928
0.0004753830126
0.0004916000333
0.0005042784222
0.0005115553391
0.0004249043226
0.0004345422705
0.0004481413476
0.0004645561169
0.0004824347252
0.0005002440407
0.0005163100825
0.0005288594644
0.0005360588845
0.0004504126067
0.0004599850768
0.0004734816668
0.0004897571133
0.0005074649593
0.0005250850758
0.0005409648382
0.0005533593204
0.0005604671289
0.0004760202387
0.0004855023069
0.0004988624769
0.0005149595995
0.0005324566747
0.000549850347
0.0005655125266
0.0005777292415
0.0005847330006
0.0005016558268
0.000511025163
0.0005242186009
0.0005401026974
0.0005573535699
0.0005744879816
0.000589905135
0.000601924118
0.0006088129912
0.0005272524975
0.0005364893285
0.0005494892731
0.0005651298307
0.0005821034983
0.0005989500892
0.0006140984587
0.0006259025015
0.0006326671676
0.0005527481438
0.0005618351777
0.0005746183007
0.000589988836
0.0006066585317
0.0006231927867
0.0006380520977
0.0006496265846
0.0006562591434
0.0005780855662
0.0005870078889
0.0005995541394
0.0006146319985
0.0006309749607
0.000647176171
0.0006617294101
0.0006730621436
0.0006795560173
0.000603212523
0.0006119574717
0.0006242498932
0.0006390160247
0.000655013243
0.0006708642479
0.0006850974302
0.0006961784506
0.0007025282828
0.0006280817022
0.0006366387241
0.0006486632528
0.000663101961
0.0006787379066
0.0006942248265
0.0007081267567
0.0007189481603
0.000725149715
0.0006526506296
0.0006610111305
0.0006727563817
0.0006868550703
0.0007021174187
0.0007172293834
0.0007307914173
0.0007413471758
0.0007473972386
0.0006768815246
0.0006850387126
0.0006964957618
0.0007102446728
0.000725124026
0.0007398529054
0.0007530687151
0.0007633545
0.0007692507811
0.000700741116
0.0007086898437
0.0007198520072
0.0007332439622
0.0007477335742
0.0007620737145
0.000774939061
0.0007849520738
0.0007906931161
0.0007242004265
0.0007319370354
0.0007427996546
0.0007558298011
0.0007699253119
0.000783873282
0.0007963857967
0.0008061246076
0.0008117096982
0.0007472345358
0.0007547567043
0.0007653169367
0.0007779825044
0.0007916816846
0.0008052360338
0.0008173950118
0.0008268594063
0.0008322884942
0.0007698223282
0.0007771289266
0.0007873855463
0.0007996856141
0.000812988123
0.0008261491524
0.0008379553574
0.0008471461938
0.0008524198119
0.0007919462333
0.0007990371856
0.000808990394
0.000820925671
0.0008338328292
0.0008466023773
0.0008580578607
0.0008669769364
0.0008720961295
0.0008135919626
0.0008204681173
0.0008301193658
0.0008416919862
0.0008542065637
0.0008665878081
0.0008776957401
0.0008863456685
0.0008913119266
0.0008347482482
0.0008414112575
0.0008507630831
0.0008619764162
0.0008741024364
0.0008860997101
0.0008968642252
0.0009052483223
0.0009100635197
0.000855406586
0.0008618587945
0.0008709146677
0.0008817731431
0.0008935157029
0.0009051343262
0.0009155603815
0.0009236825626
0.0009283489012
0.0008755609864
0.0008818053291
0.0008905695153
0.0009010784627
0.0009124435683
0.0009236896956
0.0009337829416
0.000941647627
0.0009461675858
0.0008952077352
0.0009012476442
0.0009097250768
0.000919890581
0.0009308849987
0.0009417654798
0.000951532144
0.0009591441737
0.0009635204626
0.0009143451649
0.0009201844856
0.0009283806516
0.000938209421
0.000948840543
0.000959362798
0.0009688095796
0.0009761741365
0.0009804096548
0.0009329734392
0.0009386163539
0.0009465371912
0.0009560364401
0.0009663121635
0.0009764840706
0.0009856180464
0.0009927405879
0.0009968383866
0.0009510943491
0.0009565453099
0.000964197115
0.0009733744582
0.0009833030775
0.0009931328732
0.001001961414
0.00100884761
0.001012810859
0.0009687111238
0.0009739747919
0.0009813641385
0.0009902274976
0.0009998176093
0.001009313799
0.001017844494
0.001024500174
0.001028332132
0.000985828254
0.0009909094464
0.0009980431126
0.001006600634
0.001015861052
0.001025032333
0.001033272926
0.001039704029
0.001043408016
0.001002451329
0.001007354971
0.001014239877
0.001022499857
0.001031439539
0.001040294732
0.001048253061
0.001054465594
0.001058044971
0.001018586885
0.001023317971
0.001029961121
0.001037931947
0.001046559929
0.001055107915
0.001062791865
0.001068791867
0.001072250015
0.001034242271
0.001038805827
0.001045214263
0.001052904353
0.001061229695
0.001069479368
0.001076896824
0.001082690333
0.001086030633
0.001049425519
0.001053826572
0.001060007334
0.001067425094
0.001075456827
0.001083417045
0.00109057586
0.001096168885
0.001099394705
0.001064145233
0.001068388786
0.001074348872
0.001081502652
0.001089249745
0.001096929295
0.001103837249
0.001109235747
0.001112350428
0.001078410485
0.001082501494
0.001088247833
0.001095145894
0.001102617211
0.001110024775
0.001116689556
0.001121899413
0.001124906258
0.001092230721
0.001096174076
0.001101713501
0.001108363987
0.001115568263
0.001122712391
0.001129141568
0.001134168579
0.001137070844
0.00110561568
0.001109416188
0.001114755418
0.001121166331
0.001128112145
0.001135001232
0.001141202237
0.001146052094
0.001148852979
0.001118575314
0.001122237691
0.00112738331
0.001133562491
0.001140258245
0.001146900514
0.001152880627
0.001157558909
0.001160261552
0.001131119729
0.001134648583
0.001139607028
0.001145562141
0.001152016049
0.001158419536
0.001164185871
0.00116869803
0.001171305502
0.001143259122
0.00114665895
0.0011514365
0.001157175019
0.001163395089
0.001169567631
0.001175127127
0.001179478486
0.001181993786
0.001155003732
0.001158278911
0.001162881677
0.001168410878
0.001174404906
0.00118035413
0.001185713545
0.001189909287
0.001192335341
0.001166363794
0.001169518578
0.001173952499
0.001179279449
0.001185055011
0.001190788331
0.001195954233
0.001199999402
0.001202339057
0.001177349496
0.001180388011
0.001184658848
0.001189790407
0.001195354851
0.001200879463
0.001205858232
0.001209757726
0.001212013751
0.001187970947
0.001190897191
0.001195010526
0.001199953339
0.00120531379
0.001210636668
0.001215434487
0.001219193061
0.001221368144
0.001198238148
0.00120105599
0.001205017224
0.001209777722
0.001214941074
0.001220068973
0.001224691833
0.001228314093
0.001230410842
0.001208160968
0.001210874145
0.0012146885
0.001219272901
0.00122424582
0.001229185271
0.00123363897
0.001237129378
0.00123915032
0.00121774912
0.001220361242
0.001224033758
0.001228448066
0.001233236995
0.001237994311
0.001242284455
0.001245647326
0.001247594909
0.001227012144
0.001229526694
0.001233062236
0.001237312246
0.001241923401
0.001246504679
0.001250636682
0.001253876191
0.001255752782
0.001235959395
0.001238379729
0.001241782986
0.001245874287
0.001250313667
0.001254724788
0.001258703881
0.001261824057
0.001263631947
0.001244600029
0.00124692938
0.001250204871
0.001254142848
0.001258416233
0.001262662873
0.0012664941
0.001269498836
0.001271240236
0.001252942991
0.001255184474
0.00125833655
0.00126212639
0.001266239352
0.001270326979
0.001274015206
0.001276908257
0.001278585305
0.001260997015
0.001263153625
0.001266186473
0.001269833171
0.001273791075
0.001277724959
0.001281274876
0.001284059866
0.001285674623
0.001268770612
0.001270845231
0.00127376288
0.001277271241
0.001281079252
0.001284864467
0.001288280596
0.001290961018
0.001292515475
0.001276272069
0.001278267467
0.001281073793
0.00128444844
0.001288111529
0.001291752962
0.001295039655
0.001297618876
0.001299114953
0.001283509447
0.001285428289
0.001288127016
0.001291372396
0.001294895345
0.001298397699
0.00130155915
0.001304040415
0.001305479962
0.001290490581
0.001292335426
0.001294930136
0.001298050524
0.001301437933
0.001304805733
0.001307845978
0.001310232413
0.001311617215
0.001297223079
0.001298996385
0.001301490519
0.001304490026
0.001307746318
0.001310983919
0.001313906846
0.00131620146
0.001317533237
0.001303714321
0.001305418453
0.001307815318
0.001310697894
0.001313827323
0.001316938914
0.001319748261
0.001321953956
0.001323234365
0.001309971468
0.001311608694
0.001313911468
0.00131668091
0.001319687567
0.001322677176
0.001325376544
0.00132749611
0.001328726748
0.001316001458
0.001317573959
0.001319785695
0.001322445652
0.001325333467
0.00132820497
0.001330797822
0.001332833947
0.001334016353
0.001321811013
0.001323320883
0.001325444512
0.001327998491
0.001330771245
0.001333528369
0.001336018039
0.001337973311
0.001339108967
0.00132740664
0.001328855891
0.001330894232
0.001333345602
0.001336006929
0.001338653259
0.001341042954
0.001342919864
0.001344010198
0.00133279464
0.001334185203
0.001336140963
0.001338492964
0.001341046357
0.001343585341
0.001345878146
0.001347679094
0.00134872548
0.001337981108
0.001339314839
0.001341190619
0.001343446363
0.001345895182
0.001348330135
0.00135052902
0.001352256314
0.001353260077
0.001342971939
0.001344250622
0.00134604892
0.0013482114
0.001350558873
0.001352892986
0.001355000808
0.001356656671
0.001357619088
0.001347772835
0.001348998182
0.001350721401
0.001352793491
0.001355042725
0.001357279065
0.001359298575
0.001360885148
0.001361807447
0.001352389308
0.001353562966
0.001355213413
0.001357197879
0.001359351859
0.001361493377
0.001363427222
0.001364946565
0.001365829931
0.001356826686
0.001357950235
0.00135953013
0.001361429629
0.001363491227
0.001365540764
0.001367391489
0.001368845587
0.00136969116
0.001361090116
0.001362165078
0.001363676553
0.00136549364
0.001367465618
0.001369425906
0.001371195963
0.001372586726
0.001373395604
0.001365184574
0.001366212409
0.001367657514
0.001369394646
0.001371279661
0.001373153328
0.001374845077
0.001376174343
0.001376947585
0.001369114864
0.001370096977
0.001371477681
0.001373137222
0.001374937829
0.001376727402
0.001378343112
0.001379612653
0.001380351278
0.001372885626
0.001373823365
0.001375141564
0.001376725785
0.001378444439
0.001380152351
0.001381694207
0.001382905725
0.001383610712
0.001376501336
0.001377396
0.001378653513
0.001380164596
0.00138180366
0.001383432248
0.001384902348
0.001386057482
0.001386729774
0.001379966314
0.001380819148
0.001382017725
0.001383457767
0.001385019508
0.001386571017
0.001387971379
0.0013890717
0.001389712204
0.001383284722
0.001384096922
0.00138523824
0.001386609254
0.001388095848
0.001389572434
0.00139090499
0.001391952009
0.001392561591
0.001386460566
0.001387233277
0.001388318946
0.001389622859
0.001391036393
0.001392440116
0.00139370672
0.001394701878
0.001395281369
0.001389497693
0.001390232013
0.00139126357
0.001392502227
0.001393844691
0.001395177522
0.001396379938
0.001397324611
0.001397874802
0.001392399788
0.001393096763
0.001394075677
0.001395250834
0.001396524125
0.001397787936
0.001398927841
0.001399823332
0.001400344971
0.001395170369
0.001395830994
0.001396758656
0.001397871979
0.001399077893
0.001400274453
0.001401353426
0.001402200961
0.001402694749
0.001397812771
0.001398437985
0.001399315711
0.001400368769
0.001401508992
0.001402639956
0.001403659472
0.001404460189
0.001404926777
0.001400330138
0.001400920822
0.001401749839
0.001402744094
0.00140382019
0.001404887089
0.001405848504
0.001406603446
0.001407043426
0.001402725398
0.001403282364
0.001404063807
0.0014050006
0.001406014
0.001407018224
0.001407922757
0.001408632855
0.001409046751
0.001405001239
0.001405525228
0.001406260121
0.001407140661
0.001408092639
0.001409035414
0.001409884132
0.001410550187
0.001410938446
0.001407160078
0.001407651745
0.001408340991
0.00140916633
0.001410057985
0.001410940349
0.001411734137
0.001412356802
0.00141271978
0.001409204023
0.001409663927
0.001410308286
0.001411079299
0.001411911525
0.0014127343
0.001413473834
0.001414053589
0.001414391536
0.001411134827
0.001411563416
0.001412163488
0.001412880846
0.001413654299
0.001414418059
0.001415103776
0.001415640902
0.001415953948
0.001412953847
0.00141335144
0.00141390764
0.001414571776
0.001415286845
0.001415991878
0.001416623945
0.001417118496
0.001417406637
0.001414661982
0.001415028756
0.001415541286
0.001416152372
0.001416809141
0.001417455416
0.001418033693
0.001418485473
0.001418748552
0.00141625963
0.001416595599
0.001417064428
0.001417622338
0.001418220555
0.001418807689
0.0014193317
0.001419740241
0.001419977936
0.001417746634
0.001418051634
0.00141847647
0.001418980757
0.001419519804
0.001420047032
0.001420515947
0.001420880487
0.001421092307
0.00141912224
0.001419395913
0.001419776189
0.001420226061
0.001420704935
0.001421171098
0.001421583715
0.001421903198
0.001422088474
0.001420385065
0.001420626854
0.001420961714
0.001421356026
0.001421773331
0.001422176869
0.001422531624
0.001422804703
0.001422962603
0.001421533094
0.001421742237
0.001422030538
0.001422367796
0.001422721754
0.001423060732
0.001423355719
0.001423580789
0.001423710332
0.001422563689
0.001422739231
0.001422979557
0.001423257944
0.001423546435
0.001423818584
0.001424051616
0.001424226863
0.001424326957
0.001423473644
0.001423614457
0.001423805156
0.001424022583
0.001424243211
0.001424446017
0.00142461471
0.00142473819
0.001424807684
0.001424259279
0.001424364099
0.001424503344
0.001424657532
0.00142480773
0.001424938551
0.001425040451
0.001425110205
0.001425147959
0.001424916586
0.001424984071
0.001425069941
0.001425158541
0.001425235716
0.001425291944
0.001425324695
0.001425338893
0.00142534387
0.001425441422
0.001425470228
0.001425500832
0.001425521576
0.001425523292
0.001425502565
0.001425464113
0.001425421229
0.001425392605
0.00142582977
0.001425818648
0.001425792267
0.001425743158
0.001425667369
0.001425567809
0.001425456646
0.001425355662
0.001425292948
0.001426078044
0.001426025959
0.00142594122
0.001425820761
0.001425666061
0.001425486557
0.001425301982
0.001425142607
0.00142504578
0.00142618345
0.001426089715
0.001425945788
0.001425753219
0.001425519131
0.001425259628
0.001425002022
0.001424784913
0.001424654544
0.001426144379
0.001426008797
0.0014258056
0.001425541161
0.001425228416
0.001424890203
0.001424561294
0.001424288256
0.001424125626
0.001425960809
0.00142578382
0.001425522228
0.001425187405
0.001424798212
0.00142438418
0.001423987263
0.001423661413
0.001423468599
0.001425634709
0.001425417523
0.001425099553