/*--------------------------------*- C++ -*----------------------------------*\
| =========                 |                                                 |
| \\      /  F ield         | OpenFOAM: The Open Source CFD Toolbox           |
|  \\    /   O peration     | Version:  2212                                  |
|   \\  /    A nd           | Website:  www.openfoam.com                      |
|    \\/     M anipulation  |                                                 |
\*---------------------------------------------------------------------------*/
FoamFile
{
    version     2.0;
    format      ascii;
    arch        "LSB;label=32;scalar=64";
    class       volScalarField;
    location    "20.00000000";
    object      Qdot;
}
// * * * * * * * * * * * * * * * * * * * * * * * * * * * * * * * * * * * * * //

dimensions      [1 -1 -3 0 0 0 0];

internalField   nonuniform List<scalar> 
3000
(
-4.582918993e-15
-4.575842353e-15
-4.56283071e-15
-4.539866265e-15
-4.498659083e-15
-4.421750572e-15
-4.271413674e-15
-3.964954214e-15
-3.316124957e-15
-4.524376901e-15
-4.50100713e-15
-4.459876637e-15
-4.392320867e-15
-4.283822662e-15
-4.11149504e-15
-3.842035873e-15
-3.434384721e-15
-2.863565843e-15
-4.444648146e-15
-4.402921404e-15
-4.332807297e-15
-4.225137108e-15
-4.067141662e-15
-3.843619362e-15
-3.541194276e-15
-3.157902985e-15
-2.72586374e-15
-4.352147329e-15
-4.294178883e-15
-4.200687331e-15
-4.064886896e-15
-3.879093974e-15
-3.637604549e-15
-3.341635149e-15
-3.006340436e-15
-2.669797158e-15
-4.253883323e-15
-4.183374548e-15
-4.073370139e-15
-3.920503772e-15
-3.722398371e-15
-3.480605585e-15
-3.204481307e-15
-2.914220144e-15
-2.640261128e-15
-4.154876756e-15
-4.075755259e-15
-3.955477978e-15
-3.794038468e-15
-3.593401335e-15
-3.35992519e-15
-3.106639637e-15
-2.853262139e-15
-2.621761259e-15
-4.057875663e-15
-3.973496221e-15
-3.84781769e-15
-3.683697552e-15
-3.486344659e-15
-3.265009242e-15
-3.033795067e-15
-2.809954962e-15
-2.608982416e-15
-3.964417407e-15
-3.877467044e-15
-3.750032173e-15
-3.587229868e-15
-3.396528934e-15
-3.188696559e-15
-2.977543206e-15
-2.777538045e-15
-2.601186089e-15
-3.875238751e-15
-3.787759975e-15
-3.661202648e-15
-3.502367913e-15
-3.320192719e-15
-3.12605023e-15
-2.932832197e-15
-2.752498959e-15
-2.602051968e-15
-3.790696242e-15
-3.704214476e-15
-3.580415161e-15
-3.427283505e-15
-3.254621007e-15
-3.073841225e-15
-2.896703792e-15
-2.733075894e-15
-2.603881656e-15
-3.710932216e-15
-3.626569657e-15
-3.506861946e-15
-3.360574876e-15
-3.197945627e-15
-3.030112689e-15
-2.867697905e-15
-2.718837522e-15
-2.6077203e-15
-3.636006259e-15
-3.554599449e-15
-3.439960592e-15
-3.301338273e-15
-3.149135755e-15
-2.994084713e-15
-2.84575994e-15
-2.710796177e-15
-2.615741679e-15
-3.56598354e-15
-3.488201269e-15
-3.379447288e-15
-3.249276479e-15
-3.108150324e-15
-2.966417641e-15
-2.832735605e-15
-2.712260503e-15
-2.632453677e-15
-3.501050816e-15
-3.427543871e-15
-3.325586128e-15
-3.205020229e-15
-3.076458079e-15
-2.950067461e-15
-2.833734562e-15
-2.730828402e-15
-2.667190977e-15
-3.441705384e-15
-3.373335454e-15
-3.279594221e-15
-3.170838616e-15
-3.05823469e-15
-2.952250083e-15
-2.860166139e-15
-2.782653477e-15
-2.739262107e-15
-3.389115427e-15
-3.327363338e-15
-3.24452982e-15
-3.152150126e-15
-3.06291663e-15
-2.988602563e-15
-2.936098208e-15
-2.90129118e-15
-2.88856741e-15
-3.345834763e-15
-3.293586917e-15
-3.227118828e-15
-3.160656088e-15
-3.110510523e-15
-3.091823603e-15
-3.111425446e-15
-3.155971983e-15
-3.197494791e-15
-3.317246046e-15
-3.280366321e-15
-3.241504815e-15
-3.220797624e-15
-3.242550177e-15
-3.329511505e-15
-3.489057095e-15
-3.689340484e-15
-3.836047873e-15
-3.314496329e-15
-3.305018049e-15
-3.316944121e-15
-3.383039706e-15
-3.544677634e-15
-3.840975736e-15
-4.281099716e-15
-4.795560162e-15
-5.183247376e-15
-3.360492232e-15
-3.403146848e-15
-3.513610498e-15
-3.75121428e-15
-4.19321424e-15
-4.913310583e-15
-5.925223327e-15
-7.082478595e-15
-7.968762871e-15
-3.502174641e-15
-3.647794158e-15
-3.955097483e-15
-4.538875675e-15
-5.551371952e-15
-7.13898083e-15
-9.326476486e-15
-1.180983271e-14
-1.372777712e-14
-3.835695617e-15
-4.188789121e-15
-4.895357728e-15
-6.185648767e-15
-8.368457101e-15
-1.174324349e-14
-1.636184037e-14
-2.159833887e-14
-2.566927963e-14
-4.558132022e-15
-5.333729395e-15
-6.856783681e-15
-9.597923561e-15
-1.41934699e-14
-2.126706661e-14
-3.093845691e-14
-4.192644598e-14
-5.053086942e-14
-6.073843373e-15
-7.714883672e-15
-1.0915586e-14
-1.664807587e-14
-2.623682822e-14
-4.099821405e-14
-6.122718463e-14
-8.431568662e-14
-1.025657172e-13
-9.213468798e-15
-1.263368702e-14
-1.929280548e-14
-3.121297736e-14
-5.117358743e-14
-8.198824855e-14
-1.244135779e-13
-1.731759103e-13
-2.122029518e-13
-1.568535018e-14
-2.277283853e-14
-3.658088253e-14
-6.134113743e-14
-1.02934085e-13
-1.674551116e-13
-2.568949027e-13
-3.606823739e-13
-4.451141435e-13
-2.900774687e-14
-4.36720567e-14
-7.229858769e-14
-1.237978432e-13
-2.107246973e-13
-3.464810559e-13
-5.363894111e-13
-7.595157618e-13
-9.448138119e-13
-5.643712562e-14
-8.679361532e-14
-1.462311056e-13
-2.536450065e-13
-4.361188667e-13
-7.235959408e-13
-1.130434084e-12
-1.615907273e-12
-2.029342651e-12
-1.129651507e-13
-1.759087281e-13
-2.996376124e-13
-5.245499445e-13
-9.097617149e-13
-1.52332321e-12
-2.404112477e-12
-3.474989341e-12
-4.414260239e-12
-2.296267202e-13
-3.604529214e-13
-6.188985944e-13
-1.092150364e-12
-1.910931654e-12
-3.232600231e-12
-5.162508662e-12
-7.560662576e-12
-9.735275964e-12
-4.708256254e-13
-7.435760043e-13
-1.285702379e-12
-2.287370143e-12
-4.041708082e-12
-6.918808032e-12
-1.120384435e-11
-1.666115033e-11
-2.179196246e-11
-9.706159286e-13
-1.541366854e-12
-2.684292733e-12
-4.818999352e-12
-8.612358652e-12
-1.494877951e-11
-2.459850978e-11
-3.72223042e-11
-4.954875198e-11
-2.009061597e-12
-3.208674261e-12
-5.632439124e-12
-1.021770012e-11
-1.850373482e-11
-3.263468862e-11
-5.468495049e-11
-8.435841173e-11
-1.144619431e-10
-4.173931852e-12
-6.708342599e-12
-1.188320397e-11
-2.181920022e-11
-4.011944423e-11
-7.204749198e-11
-1.231700044e-10
-1.939746809e-10
-2.685315269e-10
-8.705598507e-12
-1.409211034e-11
-2.522545392e-11
-4.696498916e-11
-8.785580792e-11
-1.609526983e-10
-2.81127515e-10
-4.523320853e-10
-6.390334068e-10
-1.823901933e-11
-2.976571844e-11
-5.39226095e-11
-1.019827796e-10
-1.944503232e-10
-3.639590219e-10
-6.500149408e-10
-1.068510436e-09
-1.539595996e-09
-3.841584053e-11
-6.32729751e-11
-1.161764559e-10
-2.235829353e-10
-4.351852261e-10
-8.329844801e-10
-1.521153027e-09
-2.552276844e-09
-3.74554683e-09
-8.142676171e-11
-1.354931269e-10
-2.52509207e-10
-4.952182998e-10
-9.850084853e-10
-1.928408356e-09
-3.597489427e-09
-6.149732865e-09
-9.172992377e-09
-1.738951014e-10
-2.926093413e-10
-5.541565777e-10
-1.108682959e-09
-2.2543574e-09
-4.510943892e-09
-8.580428575e-09
-1.477342665e-08
-2.270528511e-08
-3.746729436e-10
-6.380192289e-10
-1.228964751e-09
-2.509447018e-09
-5.214016465e-09
-1.051453442e-08
-2.07517497e-08
-2.392390996e-07
1.979851185e-07
-8.156511306e-10
-1.406294697e-09
-2.75622051e-09
-5.742626069e-09
-1.204445195e-08
-2.545956871e-08
2.041401752e-07
1.656678555e-07
-8.584500684e-08
-1.796976801e-09
-3.137277364e-09
-6.255050301e-09
-1.315256502e-08
-2.883378799e-08
1.931423199e-07
-6.884759502e-08
9.064044333e-08
2.08390431e-08
-4.013426179e-09
-7.092726559e-09
-1.424157355e-08
-3.121136836e-08
1.855476343e-07
-9.421856823e-08
2.704315388e-07
1.435447359e-07
1.917379534e-07
-9.103471091e-09
-1.643473427e-08
-2.364727937e-07
1.802378343e-07
1.417536835e-07
4.647282366e-07
2.744914152e-07
8.398883146e-07
1.041481201e-06
-2.117247255e-08
-2.409426622e-07
1.747447125e-07
1.291849614e-07
2.190941231e-07
6.394383813e-07
1.037380482e-06
1.814801599e-06
2.96608885e-06
2.042910432e-07
1.634660117e-07
1.15251603e-07
-1.563920032e-08
5.840151471e-07
1.30135966e-06
2.397756674e-06
4.155889561e-06
8.03366526e-06
-6.803544285e-08
8.693205448e-08
4.033785565e-07
7.515019174e-07
1.125914027e-06
2.571110665e-06
5.426654662e-06
1.044244582e-05
2.243664256e-05
2.673232011e-07
5.822044992e-07
8.999984166e-07
1.440510174e-06
3.251925695e-06
6.681598229e-06
1.303740582e-05
2.718504948e-05
6.642952866e-05
2.383858147e-07
7.982613862e-07
1.494897435e-06
3.516879563e-06
7.531013726e-06
1.59060342e-05
3.240477171e-05
7.345885137e-05
0.0002006542664
1.158198437e-06
2.056669024e-06
4.13127613e-06
8.840063081e-06
1.891753712e-05
3.909956748e-05
8.264416003e-05
0.0002049357237
0.000603997159
2.551029737e-06
4.609263399e-06
1.001272018e-05
2.213510466e-05
4.690862573e-05
9.730773366e-05
0.0002159287858
0.0005789491555
0.001772278529
6.599176724e-06
1.228571388e-05
2.558208264e-05
5.479119563e-05
0.0001157252591
0.000244513671
0.0005738175818
0.0016203856
0.004997323757
1.73539439e-05
3.130685827e-05
6.386686944e-05
0.0001350670979
0.0002846601842
0.0006173152564
0.001518455544
0.004424609806
0.01342263842
4.404845597e-05
7.788520383e-05
0.0001563075296
0.0003270973839
0.0006922853033
0.001547238677
0.003957995597
0.01163558768
0.03418927117
0.0001080922544
0.000188644245
0.0003733645277
0.0007743938059
0.00165828576
0.003802402418
0.01003045887
0.0292263592
0.08241088251
0.0002583763831
0.0004442812755
0.0008664796357
0.001789961388
0.003867694598
0.009128588049
0.02448731379
0.06976913817
0.1877408712
0.0005985315794
0.001014366224
0.001955099388
0.004036246774
0.008811469693
0.02131578395
0.05729808548
0.1578637181
0.4038136361
0.001344077617
0.002250912626
0.004312795632
0.008862049929
0.01967921625
0.04834659131
0.1282719824
0.3382870013
0.8200907315
0.002937700152
0.004887570208
0.009273441816
0.01917413685
0.04322275481
0.1065050432
0.2746726461
0.6870500559
1.576035595
0.006303267576
0.01039195547
0.01970531655
0.0411264511
0.09352157922
0.2276578047
0.5623191247
1.324947578
2.879045309
0.01327122611
0.02189131784
0.04171915861
0.08773263415
0.1990283039
0.4706473418
1.099200078
2.433421094
5.026585033
0.02790633581
0.04617396699
0.08839792282
0.1859314828
0.4144294935
0.9362066356
2.050019333
4.274292928
8.429684684
0.05918156389
0.09804611126
0.1874002719
0.3892070386
0.8375975141
1.782611733
3.653151919
7.214350975
13.63430856
0.1272057347
0.2095015203
0.395061018
0.7968846716
1.628361823
3.240493398
6.244458197
11.75204955
21.33891406
0.2760774252
0.4468414266
0.8186108036
1.576743026
3.023440319
5.632006519
10.2879944
18.54270839
32.40764275
0.5966888595
0.9369678459
1.642336602
2.981627203
5.348890279
9.400752615
16.40779044
28.42050259
47.87882168
1.257430276
1.89539289
3.144478279
5.355393005
9.042326318
15.14794063
25.41570041
42.41586668
68.9684087
2.527357461
3.637570816
5.695566428
9.14289878
14.68868436
23.66405605
38.33268303
61.76645682
97.06755945
4.770863487
6.56575642
9.756341181
14.91990267
23.05466637
35.94987203
56.39989454
87.91811417
133.7324149
8.424042522
11.16095954
15.90169556
23.42889861
35.10759586
53.22239744
81.07512652
122.5112517
180.6624911
13.99786629
18.00931754
24.85697834
35.59647083
52.01487988
76.90169136
114.0081616
167.3468805
239.6622915
22.11584851
27.83812604
37.51327207
52.52591666
75.11891026
108.5731649
156.9895271
224.3263183
312.5798956
33.54190748
41.5242854
54.91344895
75.46355066
105.8892749
149.9214934
211.8689294
295.3603109
401.217524
49.173501
60.07304999
78.21326106
105.7436501
145.8486158
202.6366392
280.4439697
382.2477554
507.2134019
70.01233749
84.57359751
108.6224587
144.7146631
196.4779341
268.2981127
364.3263389
486.5315664
631.9018292
97.11016489
116.1409764
147.3371718
193.6530909
259.1113735
348.2503388
464.8006009
609.3482955
776.1679295
131.5184972
155.8563231
195.4672102
253.6777609
334.8357616
443.487818
582.6976077
751.2961296
940.3220792
174.2348219
204.7088784
253.9722249
325.6787917
424.4125542
554.5712902
718.3074421
912.349103
1124.022459
226.1599306
263.5526147
323.618023
410.2748058
528.2379195
681.5931968
871.3528816
1091.840581
1326.269107
288.0733419
333.0851299
404.9614727
507.8070833
646.3499708
824.2018404
1041.033109
1288.525732
1545.478774
360.6309918
413.8522878
498.3663164
618.3714
778.4819013
981.6806543
1226.131436
1500.714138
1779.63011
444.3839453
506.2758136
604.0447801
741.8793175
924.1489531
1153.066045
1425.165786
1726.446904
2026.447719
539.8111371
610.694957
722.1132625
878.1335326
1082.749343
1337.278993
1636.553303
1963.692915
2283.651623
647.3548638
727.4093013
852.6467994
1026.898866
1253.656751
1533.242589
1858.751824
2210.522926
2549.00573
767.4464495
856.7093126
995.717764
1187.953078
1436.287659
1739.970116
2090.372096
2465.170895
2820.607715
900.5118469
998.8845287
1151.408848
1361.107623
1630.133785
1956.615124
2330.283871
2726.27992
3097.032029
1046.952526
1154.205641
1319.797536
1546.195822
1834.754856
2182.470528
2577.538062
2992.962899
3378.949387
1207.104426
1322.884707
1500.918227
1743.036278
2049.738272
2416.935849
2831.335814
3264.381524
3663.911457
1381.184609
1505.024767
1694.716523
1951.394414
2274.70704
2659.417446
3091.138176
3541.228103
3950.99791
1569.238691
1700.571767
1901.006862
2170.944489
2509.158829
2909.437788
3356.950103
3821.36489
4239.163115
1771.102423
1909.282263
2119.449407
2401.299418
2752.650834
3166.561176
3628.960013
4103.999918
4527.58015
1986.38691
2130.71436
2349.589322
2641.877463
3004.763853
3431.718848
3905.387021
4388.297591
4815.49672
2214.531384
2364.287153
2590.721696
2892.122465
3265.401925
3703.613868
4185.365421
4673.504411
5102.239643
2454.695317
2609.172577
2842.190782
3151.49684
3535.098379
3980.908754
4468.067308
4958.918554
5387.197806
2706.07336
2864.658083
3103.457754
3421.38731
3811.690589
4262.619995
4752.691262
5243.876905
5669.80946
2967.940819
3130.463471
3375.719978
3699.172318
4094.015439
4547.805913
5038.464802
5527.750061
5949.554122
3240.981735
3407.28559
3656.429395
3983.547037
4380.99696
4835.565887
5324.644114
5809.938808
6225.946494
3523.86902
3692.40472
3944.101183
4273.325027
4671.619378
5125.034834
5610.512356
6089.870934
6498.531356
3814.444522
3984.373553
4237.479602
4567.405469
4964.916488
5415.380153
5895.378219
6366.998528
6766.879332
4111.330007
4281.933303
4535.421089
4864.754229
5259.964979
5705.799751
6178.574795
6640.795843
7030.583558
4413.319745
4583.943479
4836.861088
5164.390596
5555.87962
5995.520507
6459.458723
6910.757834
7289.257338
4719.310862
4889.343018
5140.794241
5465.37831
5851.809672
6283.79707
6737.409727
7176.399438
7542.532809
5028.269407
5197.128621
5446.262126
5766.819365
6146.936225
6569.911118
7011.830702
7437.255645
7790.060567
5339.211899
5506.341768
5752.345212
6067.849682
6440.470431
6853.171214
7282.148398
7692.882327
8031.510157
5651.194129
5816.060382
6058.157481
6367.636275
6731.652652
7132.913349
7547.814744
7942.857715
8266.571247
5963.303959
6125.393407
6362.843034
6665.375775
7019.752569
7408.502185
7808.308708
8186.784374
8494.955309
6274.656909
6433.477655
6665.57444
6960.29423
7304.070205
7679.332919
8063.138595
8424.291514
8716.397596
6584.394006
6739.476587
6965.552631
7251.648085
7583.937747
7944.833647
8311.844602
8655.037436
8930.659237
6891.68159
7042.580783
7262.008163
7538.72614
7858.722006
8204.468045
8554.00147
8878.711952
9137.529271
7195.712786
7342.009848
7554.203578
7820.85228
8127.827302
8457.738182
8789.221055
9095.038625
9336.826478
7495.710297
7637.015415
7841.436592
8097.388701
8390.698539
8704.187284
9017.154682
9303.776692
9528.400912
7790.93017
7926.884929
8123.043802
8367.739378
8646.824272
8943.402266
9237.495136
9504.722596
9712.135026
8080.666168
8210.945861
8398.4046
8631.353521
8895.739547
9175.015909
9449.978203
9697.711029
9887.944368
8364.254391
8488.570039
8666.945035
8887.728791
9137.028366
9398.708548
9654.383697
9882.615472
10055.77781
8641.077835
8759.177804
8928.141365
9136.414095
9370.325641
9614.209207
9850.53592
10059.34822
10215.61728
8910.570612
9022.241755
9181.523124
9377.011821
9595.318536
9821.296133
10038.30356
10227.85985
10367.47712
9172.22162
9277.289903
9426.675542
9609.1794
9811.747163
10019.79671
10217.59903
10388.13829
10511.40291
9425.577491
9523.908084
9663.24123
9832.630156
10019.40459
10209.58674
10388.37726
10540.20732
10647.47003
9670.244715
9761.741558
9890.921074
10047.13341
10218.1362
10390.58923
10550.63406
10684.12482
10775.78185
9905.890884
9990.495762
10109.47432
10252.51384
10407.83838
10562.77253
10704.40402
10819.98056
10896.46762
10132.24503
10209.9362
10318.71791
10448.65022
10588.4567
10726.14811
10849.75806
10947.89381
11009.68029
10349.09713
10419.88752
10518.52501
10635.47341
10759.9835
10880.76794
10986.80074
11068.01073
11115.59398
10556.29671
10620.23187
10708.82297
10812.96395
10922.45514
11026.7215
11115.66729
11180.50162
11214.40159
10753.75086
10810.90653
10889.59068
10981.14904
11075.9488
11164.13259
11236.52056
11285.55806
11306.3122
10941.42146
10991.90103
11060.85541
11140.09929
11220.57916
11293.15603
11349.54788
11383.39011
11391.54855
11119.32198
11163.2538
11222.68931
11289.92509
11356.49476
11413.97419
11454.95787
11474.22344
11470.34458
11287.51381
11325.04839
11375.20565
11430.77285
11483.87436
11526.79354
11552.97731
11558.29665
11542.94305
11446.10231
11477.40953
11518.55481
11562.82111
11602.92323
11631.84126
11643.84815
11635.85854
11609.59325
11595.2326
11620.49896
11652.92024
11686.27663
11713.8695
11729.3619
11727.82449
11707.1657
11670.54889
11735.08532
11754.51122
11778.51438
11801.37053
11816.96057
11819.61418
11805.1699
11772.48011
11726.06611
11865.87227
11879.66945
11895.57462
11908.35448
11912.45971
11902.86797
11876.15476
11832.06699
11776.40168
11987.83217
11996.22123
12004.35939
12007.49717
12000.64276
11979.40145
11941.05391
11886.19279
11821.81137
12101.22651
12104.43465
12105.1444
12099.08076
12081.79512
12049.49846
12000.14441
11935.12348
11862.54847
12206.33557
12204.59445
12198.21911
12183.39775
12156.20888
12113.44611
12053.70357
11979.12284
11898.86252
12303.45468
12296.99846
12283.88338
12260.74793
12224.18025
12171.5326
12102.00717
12018.45115
11930.99817
12392.89064
12381.95425
12362.44443
12331.4357
12286.00717
12224.04524
12145.32793
12053.36391
11959.19428
12474.95853
12459.77607
12434.21401
12395.76756
12341.98725
12271.26872
12183.93407
12084.11084
11983.68305
12549.97867
12530.78201
12499.50587
12454.04988
12392.41587
12313.48366
12218.0882
12110.93495
12004.68941
12618.27395
12595.29157
12558.6335
12506.58698
12437.58455
12350.96521
12248.04633
12134.07184
12022.43049
12680.16743
12653.62332
12611.9081
12553.67933
12477.77952
12383.98204
12274.05699
12153.74917
12037.1152
12735.98018
12706.09296
12659.63684
12595.62217
12513.28056
12412.79534
12296.36066
12170.18611
12048.94398
12786.02943
12753.01164
12702.12138
12632.70415
12544.35996
12437.65817
12315.18916
12183.59313
12058.10857
12830.62697
12794.68445
12739.65655
12665.20633
12571.28175
12458.81477
12330.76537
12194.17172
12064.79196
12870.07777
12831.4092
12772.52933
12693.40134
12594.30099
12476.5002
12343.30287
12202.11427
12069.16833
12904.67885
12863.4754
12801.01794
12717.55261
12613.66333
12490.93996
12353.00583
12207.60403
12071.40307
12934.71838
12891.1634
12825.39117
12737.91391
12629.60458
12502.34978
12360.06886
12210.81513
12071.65296
12960.47484
12914.74377
12845.90781
12754.72892
12642.35049
12510.93555
12364.67713
12211.91271
12070.06624
12982.21656
12934.47678
12862.81634
12768.23099
12652.11668
12516.89326
12367.00636
12211.05304
12066.78285
13000.20122
12950.61207
12876.35462
12778.64301
12659.10849
12520.40911
12367.22299
12208.38372
12061.93466
13014.67562
12963.38846
12886.7498
12786.17735
12663.52112
12521.65958
12365.48436
12204.04389
12055.64569
13025.87552
12973.03378
12894.21822
12791.03588
12665.5397
12520.81165
12361.93894
12198.16454
12048.0324
13034.02554
12979.7649
12898.96552
12793.41009
12665.33945
12518.02296
12356.72655
12190.8687
12039.20399
13039.33923
12983.78779
12901.18669
12793.48128
12663.08589
12513.44212
12349.97869
12182.27182
12029.26268
13042.0192
12985.29767
12901.06632
12791.42074
12658.93513
12507.20897
12341.81882
12172.48203
12018.30401
13042.25724
12984.4792
12898.77877
12787.39004
12653.03413
12499.45488
12332.36267
12161.60048
12006.41719
13040.23461
12981.50672
12894.48849
12781.54131
12645.52105
12490.3031
12321.71856
12149.72164
11993.68537
13036.12228
12976.54458
12888.3503
12774.01758
12636.52551
12479.86906
12309.98778
12136.93364
11980.18595
13030.08126
12969.74741
12880.50972
12764.9531
12626.16901
12468.26076
12297.26485
12123.31856
11965.99091
13022.26291
12961.26049
12871.10333
12754.4737
12614.56525
12455.57906
12283.6379
12108.95278
11951.16708
13012.80935
12951.22013
12860.25913
12742.69717
12601.82048
12441.91808
12269.18901
12093.90728
11935.77644
13001.85378
12939.75401
12848.09692
12729.73359
12588.03387
12427.36548
12253.99449
12078.24791
11919.87641
12989.5209
12926.98156
12834.72867
12715.68574
12573.29786
12412.00288
12238.12522
12062.03574
11903.52009
12975.92727
12913.01439
12820.25887
12700.64943
12557.69852
12395.90609
12221.64696
12045.32728
11886.75656
12961.18175
12897.95662
12804.78497
12684.71389
12541.31588
12379.14554
12204.62064
12028.17481
11869.6311
12945.3858
12881.9053
12788.39769
12667.9621
12524.22427
12361.7865
12187.10266
12010.62658
11852.18545
12928.63396
12864.95074
12771.1814
12650.47116
12506.49265
12343.88945
12169.14515
11992.72714
11834.45804
12911.01413
12847.17693
12753.21448
12632.3126
12488.18491
12325.51031
12150.79624
11974.51749
11816.48417
12892.60801
12828.66184
12734.56965
12613.55272
12469.3602
12306.70076
12132.10031
11956.03539
11798.29627
12873.49142
12809.47781
12715.3143
12594.2529
12450.07318
12287.50851
12113.09825
11937.31552
11779.92405
12853.73463
12789.69184
12695.51082
12574.46988
12430.37433
12267.97751
12093.82764
11918.38968
11761.39472
12833.40268
12769.36593
12675.21687
12554.25605
12410.31019
12248.14822
12074.32301
11899.28703
11742.73312
12812.55572
12748.55735
12654.48568
12533.65973
12389.92358
12228.0578
12054.616
11880.03421
11723.96191
12791.24926
12727.31893
12633.36631
12512.72536
12369.25386
12207.7403
12034.73554
11860.6555
11705.10167
12769.53441
12705.6993
12611.90382
12491.49372
12348.33705
12187.22685
12014.70796
11841.17293
11686.17103
12747.45811
12683.74305
12590.13952
12470.00211
12327.206
12166.54571
11994.55711
11821.60637
11667.18671
12725.06328
12661.4909
12568.11104
12448.28437
12305.89041
12145.72231
11974.30428
11801.97344
11648.16348
12702.38889
12638.97974
12545.85233
12426.37095
12284.41682
12124.77917
11953.96817
11782.28943
11629.11398
12679.46991
12616.24258
12523.39361
12404.28867
12262.80832
12103.7356
11933.56445
11762.56688
11610.04839
12656.33711
12593.30827
12500.76101
12382.06038
12241.08416
12082.60716
11913.10524
11742.81491
11590.9737
12633.01664
12570.20102
12477.97605
12359.70431
12219.25894
12061.40475
11892.59796
11723.03806
11571.89247
12609.5293
12546.93963
12455.05467
12337.23292
12197.34127
12040.13309
11872.0437
11703.23446
11552.80096
12585.88933
12523.53616
12432.00578
12314.65126
12175.33188
12018.78849
11851.4347
11683.39305
11533.68611
12562.10272
12499.99403
12408.82913
12291.95448
12153.22079
11997.35562
11830.75062
11663.48948
11514.52126
12538.16474
12476.30537
12385.51228
12269.12445
12130.98331
11975.80296
11809.95343
11643.4804
11495.25995
12514.05651
12452.44731
12362.02651
12246.125
12108.5747
11954.07659
11788.98036
11623.29566
11475.82755
12489.74053
12428.37709
12338.32134
12222.89579
12085.92302
11932.09209
11767.73469
11602.82798
11456.11003
12465.15473
12404.02574
12314.31751
12199.34425
12062.92006
11909.72411
11746.0739
11581.91981
11435.93972
12440.20508
12379.28997
12289.89804
12175.33566
12039.40992
11886.79339
11723.79505
11560.34695
11415.0775
12414.75629
12354.02238
12264.8974
12150.68087
12015.17523
11863.05115
11700.61713
11537.79895
11393.19148
12388.62072
12328.0195
12239.08845
12125.12188
11989.92088
11838.16076
11676.16055
11513.85636
11369.8323
12361.54531
12301.0079
12212.16739
12098.3151
11963.25543
11811.677
11649.924
11487.96523
11344.40552
12333.19656
12272.62842
12183.73663
12069.81276
11934.67058
11783.02334
11621.25948
11459.4098
11316.14216
12303.14403
12242.41877
12153.28631
12039.04274
11903.51921
11751.46813
11589.34643
11427.28453
11284.06877
12270.84238
12209.79494
12120.17465
12005.28786
11868.99329
11716.10085
11553.16639
11390.46729
11246.97908
12235.61297
12174.03223
12083.60833
11967.66537
11830.10258
11675.81018
11511.48038
11347.59589
11203.4098
12196.62559
12134.24679
12042.62378
11925.10814
11785.65592
11629.26555
11462.81107
11297.05094
11151.62352
12152.88169
12089.37911
11996.07112
11876.3494
11734.24712
11574.90481
11405.43244
11236.94769
11089.6023
12103.20039
12038.1807
11942.60216
11819.91268
11674.24766
11510.93038
11337.37019
11165.14064
11015.05549
12046.2089
11979.20604
11880.66463
11754.10936
11603.80874
11435.31685
11256.41558
11079.24393
10925.44541
11980.33936
11910.81156
11808.50465
11677.04608
11520.875
11345.83257
11160.15603
10976.67094
10818.03431
11903.83377
11831.16366
11724.17958
11586.64417
11423.2125
11240.07781
11046.02457
10854.69537
10689.95496
11814.75933
11738.25798
11625.58333
11480.67328
11308.45279
11115.54118
10911.37014
10710.53526
10538.30623
11711.03573
11629.95149
11510.48579
11356.80062
11174.1544
10969.6755
10753.54893
10541.45999
10360.27302
11590.47601
11504.0089
11376.58762
11212.65682
11017.88216
10799.99247
10570.03571
10344.91793
10153.26784
11450.84203
11358.16413
11221.59064
11045.91799
10837.30323
10604.17439
10358.55191
10118.68049
9915.088558
11289.91451
11190.19659
11043.28325
10854.40264
10630.29742
10380.19888
10117.20502
9860.995603
9644.084264
11105.57697
10998.02098
10839.63869
10636.18039
10395.07738
10126.47086
9844.631786
9570.741126
9339.318329
10895.9113
10779.78807
10608.92281
10389.68778
10130.31261
9841.953855
9540.135385
9247.566824
9000.715819
10659.30165
10533.99213
10349.80618
10113.84495
9835.249513
9526.291327
9203.805661
8892.0122
8629.181174
10394.5416
10259.57975
10061.47414
9808.165593
9509.818563
9179.907679
8836.610715
8505.587401
8226.672309
10100.93852
9956.053074
9743.727247
9472.851535
9154.719133
8804.078668
8440.449013
8090.805917
7796.219188
9778.407777
9623.559864
9397.063776
9108.863369
8771.47281
8400.962081
8018.153253
7651.160787
7341.878648
9427.549069
9262.962346
9022.736243
8717.958855
8362.437633
7973.582065
7573.440769
7191.040657
6868.6226
9049.697214
8875.877331
8622.774664
8302.692827
7930.778206
7525.764053
7110.80993
6715.587616
6382.163148
8646.94058
8464.68135
8199.971353
7866.374831
7480.390221
7062.021706
6635.387128
6230.50453
5888.724658
8222.102315
8032.476848
7757.824793
7412.984332
7015.782051
6587.401811
6152.733782
5741.82464
5394.778257
7778.682154
7583.018502
7300.44363
6947.047066
6541.920049
6107.296974
5668.626282
5255.659259
4906.757473
7320.759887
7120.602195
6832.415421
6473.479772
6064.047462
5627.238501
5188.823473
4777.94032
4430.774223
6852.86504
6649.922596
6358.647967
5997.413189
5587.488825
5152.683095
4718.836787
4314.174318
3972.353561
6379.820363
6175.907971
5884.193161
5524.004662
5117.452749
4688.808319
4263.72116
3869.230287
3536.215461
5906.568904
5703.542435
5414.06401
5058.251657
4658.84622
4240.335384
3827.918653
3447.223015
3126.798834
5437.995637
5237.686303
4953.054845
4604.815424
4216.110259
3811.396368
3415.200215
3052.333008
2747.576049
4978.755417
4782.905902
4505.574884
4167.861683
3793.074952
3405.42295
3029.384484
2687.187306
2399.80672
4533.119719
4343.326761
4075.512297
3750.940523
3392.856578
3025.750396
2672.096053
2351.238612
2080.586498
4104.852966
3922.52502
3666.156402
3356.973197
3018.700088
2674.153838
2343.563828
2043.730659
1794.912758
3697.122159
3523.458197
3280.169895
2989.112625
2672.190159
2350.697587
2042.635089
1768.507796
1540.429554
3312.460918
3148.558426
2920.724084
2648.483663
2353.278027
2054.065483
1772.959693
1522.976595
1315.852936
2953.794697
2800.857416
2588.066465
2335.049641
2060.54008
1787.846107
1531.88777
1305.814073
1119.371678
2621.700485
2479.494475
2282.351016
2047.283503
1797.523507
1549.38269
1318.12502
1115.269161
948.825307
2316.126178
2183.059664
2001.917571
1788.658028
1561.566446
1337.425394
1130.001095
949.3048421
801.8539654
2035.435371
1915.371317
1750.124102
1556.486231
1351.449943
1150.379138
965.5911015
805.7225008
676.0194645
1783.034335
1673.899846
1524.185766
1349.540334
1165.631209
986.4124006
822.8245479
682.2627228
568.9029369
1556.157042
1457.597417
1322.825359
1166.297352
1002.347725
843.5573159
699.5752239
576.6873096
478.1780056
1353.567468
1265.098949
1144.504041
1005.034758
859.7097887
719.7922004
593.7343355
486.8412137
401.6628336
1173.775534
1094.816545
987.509871
863.9165027
735.7775563
613.1088162
503.2665291
410.6973128
337.3538062
1015.122449
945.0245122
850.0379559
741.064613
628.6233898
521.5643794
426.250775
346.3861218
283.445945
875.8573483
813.932971
730.2558713
634.6167639
536.3803463
443.3196811
360.9080545
292.214247
238.337981
754.2005458
699.7456018
626.3560954
542.7709757
457.2777178
376.6653013
305.6183175
246.6701589
200.6296142
648.3933366
600.7060597
536.5960885
463.8182095
389.6655685
320.0371138
258.9273721
208.4211086
169.1084332
556.7365473
515.1323783
459.3272657
396.1648647
332.0295935
272.024824
219.5434402
176.2988918
142.7202663
477.6184182
441.4414809
393.0148084
338.3466229
282.9999863
231.3704126
186.3288872
149.2725584
120.7458086
409.5338471
378.1654995
336.2496207
289.0368083
241.3526082
196.9686402
158.3052417
126.6380435
102.2748991
351.0963307
323.9609469
287.7551763
247.0468389
206.0056805
167.858034
134.6622055
107.6452247
86.74546827
301.0445778
277.613936
246.3870902
211.3223056
176.0093705
143.1975076
114.8408025
91.6172968
73.68279996
258.2440704
238.0380453
211.129841
180.936592
150.5363029
122.4051362
98.05687517
78.09122078
62.68455519
221.6837905
204.2706837
181.09042
155.082082
128.9291804
104.813307
83.84335068
66.6640869
53.413
190.4707523
175.4652244
155.4875598
133.0566376
110.6642081
89.86254558
71.79685643
56.99617084
45.63195333
163.820019
150.8780435
133.632204
114.4279863
95.09259922
77.15320078
61.57384763
48.8193143
39.04965195
141.0391195
129.8681988
115.0985814
98.51097894
81.82131508
66.33958769