/*--------------------------------*- C++ -*----------------------------------*\
| =========                 |                                                 |
| \\      /  F ield         | OpenFOAM: The Open Source CFD Toolbox           |
|  \\    /   O peration     | Version:  2212                                  |
|   \\  /    A nd           | Website:  www.openfoam.com                      |
|    \\/     M anipulation  |                                                 |
\*---------------------------------------------------------------------------*/
FoamFile
{
    version     2.0;
    format      ascii;
    arch        "LSB;label=32;scalar=64";
    class       volScalarField;
    location    "20.00000000";
    object      SC3H5;
}
// * * * * * * * * * * * * * * * * * * * * * * * * * * * * * * * * * * * * * //

dimensions      [0 0 0 0 0 0 0];

internalField   nonuniform List<scalar> 
3000
(
1.196885751e-28
1.484425172e-28
1.944013809e-28
2.602882076e-28
3.488928139e-28
4.612129465e-28
5.928953979e-28
7.282202088e-28
8.313728182e-28
5.043997335e-28
6.301684409e-28
8.311608322e-28
1.119848076e-27
1.511217276e-27
2.020265012e-27
2.656503625e-27
3.409038832e-27
4.147366174e-27
1.299945341e-27
1.644627058e-27
2.20123975e-27
3.016136159e-27
4.155721715e-27
5.706887975e-27
7.759241106e-27
1.032443855e-26
1.284283341e-26
2.840953343e-27
3.652825812e-27
4.989449463e-27
7.00538362e-27
9.935631222e-27
1.409944606e-26
1.982811999e-26
2.70972117e-26
3.395689373e-26
5.779095247e-27
7.579212628e-27
1.061510681e-26
1.534149269e-26
2.245697071e-26
3.289987379e-26
4.75285876e-26
6.584706034e-26
8.228609482e-26
1.138701732e-26
1.526257712e-26
2.196325203e-26
3.270615533e-26
4.935287863e-26
7.430899788e-26
1.094441805e-25
1.525107682e-25
1.893873373e-25
2.221623674e-26
3.044852923e-26
4.501115836e-26
6.895040233e-26
1.068704536e-25
1.644661849e-25
2.454454466e-25
3.425314273e-25
4.206412738e-25
4.338425294e-26
6.073622577e-26
9.204055139e-26
1.445459365e-25
2.29066255e-25
3.58503497e-25
5.403251792e-25
7.575113486e-25
9.396889973e-25
8.524088962e-26
1.216420582e-25
1.88363813e-25
3.019723245e-25
4.86780292e-25
7.706360209e-25
1.167003291e-24
1.63317035e-24
2.011307898e-24
1.687803017e-25
2.448834295e-25
3.861368407e-25
6.293571243e-25
1.027757434e-24
1.640215776e-24
2.490906166e-24
3.481479111e-24
4.275686444e-24
3.36753671e-25
4.954706369e-25
7.929648721e-25
1.309500366e-24
2.159595201e-24
3.46651141e-24
5.274080323e-24
7.364139728e-24
9.027413757e-24
6.763950528e-25
1.006752728e-24
1.630726938e-24
2.720936239e-24
4.521064756e-24
7.287738836e-24
1.110129733e-23
1.548771634e-23
1.895924588e-23
1.366027937e-24
2.052499273e-24
3.356884218e-24
5.646748672e-24
9.436515733e-24
1.525862155e-23
2.326198493e-23
3.243063189e-23
3.965676284e-23
2.770630855e-24
4.195016405e-24
6.914301297e-24
1.170542378e-23
1.964817578e-23
3.184485602e-23
4.857461484e-23
6.768023827e-23
8.26893236e-23
5.63797292e-24
8.589734498e-24
1.424593804e-23
2.423976724e-23
4.082828967e-23
6.629035931e-23
1.011548702e-22
1.408722937e-22
1.719940713e-22
1.150127964e-23
1.761150399e-23
2.935480962e-23
5.014985524e-23
8.469983796e-23
1.377113796e-22
2.101962411e-22
2.926068047e-22
3.57049171e-22
2.350625157e-23
3.614268731e-23
6.048682743e-23
1.036714964e-22
1.754735304e-22
2.856064832e-22
4.360222814e-22
6.0675933e-22
7.400459628e-22
4.811008273e-23
7.422242244e-23
1.246252466e-22
2.141626631e-22
3.631198949e-22
5.915313934e-22
9.031901033e-22
1.256482954e-21
1.531906467e-21
9.857257549e-23
1.524956636e-22
2.567433241e-22
4.421439322e-22
7.507203201e-22
1.223769628e-21
1.868704833e-21
2.598978176e-21
3.16763439e-21
2.021303721e-22
3.134204265e-22
5.288492042e-22
9.123325901e-22
1.550809561e-21
2.529353031e-21
3.862507908e-21
5.370593412e-21
6.543725195e-21
4.147399557e-22
6.443159579e-22
1.089178089e-21
1.881651773e-21
3.201389561e-21
5.223521907e-21
7.976643803e-21
1.108825787e-20
1.350651087e-20
8.51370506e-22
1.324752318e-21
2.242819552e-21
3.879182481e-21
6.604672132e-21
1.077951761e-20
1.645992129e-20
2.287454575e-20
2.785533901e-20
1.748226248e-21
2.723949255e-21
4.617504331e-21
7.9939889e-21
1.361803012e-20
2.222985048e-20
3.393955266e-20
4.715140293e-20
5.740070861e-20
3.590489067e-21
5.600856793e-21
9.504307144e-21
1.64666572e-20
2.806266738e-20
4.581145183e-20
6.992737462e-20
9.711168927e-20
1.181794587e-19
7.374341561e-21
1.15147842e-20
1.955710154e-20
3.390371087e-20
5.779370575e-20
9.433939448e-20
1.439531247e-19
1.998204278e-19
2.430684801e-19
1.514369189e-20
2.366688293e-20
4.022611109e-20
6.976599102e-20
1.189394237e-19
1.941101081e-19
2.960551611e-19
4.107048865e-19
4.99337863e-19
3.108825627e-20
4.86226977e-20
8.269302489e-20
1.434617106e-19
2.445690809e-19
3.98993062e-19
6.081564536e-19
8.430246073e-19
1.024296547e-18
6.378540371e-20
9.983054476e-20
1.698662415e-19
2.947439298e-19
5.023683748e-19
8.191158022e-19
1.247475072e-18
1.727572368e-18
2.097363678e-18
1.307653043e-19
2.047886185e-19
3.485913156e-19
6.048692207e-19
1.030555008e-18
1.679030368e-18
2.55431499e-18
3.533046577e-18
4.285031752e-18
2.677798193e-19
4.196015437e-19
7.144436411e-19
1.239513432e-18
2.110584062e-18
3.435127956e-18
5.218677107e-18
7.207352232e-18
8.73066111e-18
5.475531554e-19
8.584326862e-19
1.461863869e-18
2.535429503e-18
4.31360618e-18
7.011379618e-18
1.063341937e-17
1.465808258e-17
1.772963125e-17
1.117557324e-18
1.75283914e-18
2.985076638e-18
5.174556367e-18
8.793849208e-18
1.426966552e-17
2.159547808e-17
2.970186239e-17
3.586148917e-17
2.275755193e-18
3.570712471e-18
6.080142932e-18
1.053177883e-17
1.787249441e-17
2.894134799e-17
4.368702225e-17
5.992371601e-17
7.219804663e-17
4.621675257e-18
7.253374614e-18
1.23470572e-17
2.136493653e-17
3.619115332e-17
5.845736908e-17
8.797141344e-17
1.202835907e-16
1.445665532e-16
9.356008768e-18
1.468528832e-17
2.498457093e-17
4.317378441e-17
7.297196825e-17
1.175110321e-16
1.762037829e-16
2.400383494e-16
2.876913176e-16
1.887107239e-17
2.961836969e-17
5.034978107e-17
8.685475136e-17
1.464063495e-16
2.349257601e-16
3.50794906e-16
4.758788317e-16
5.685645104e-16
3.79069056e-17
5.947783788e-17
1.009940996e-16
1.738416743e-16
2.920950129e-16
4.667547626e-16
6.936513579e-16
9.365724331e-16
1.115122994e-15
7.579935302e-17
1.188636096e-16
2.015234893e-16
3.459677633e-16
5.791135201e-16
9.209928227e-16
1.361387276e-15
1.828639837e-15
2.169113046e-15
1.508205447e-16
2.362854151e-16
3.998102905e-16
6.841999742e-16
1.140267917e-15
1.803666482e-15
2.650363296e-15
3.540018898e-15
4.182399425e-15
2.984979793e-16
4.670115033e-16
7.882462867e-16
1.343867449e-15
2.228452541e-15
3.503814775e-15
5.115422118e-15
6.791539867e-15
7.990431726e-15
5.874387001e-16
9.173709966e-16
1.543645366e-15
2.62021512e-15
4.320466969e-15
6.74839396e-15
9.784199674e-15
1.2908155e-14
1.51213438e-14
1.149192258e-15
1.790310009e-15
3.00141735e-15
5.069079398e-15
8.306120727e-15
1.288147607e-14
1.853974567e-14
2.429960202e-14
2.834133822e-14
2.234135677e-15
3.469981795e-15
5.792007503e-15
9.726565545e-15
1.582878105e-14
2.436190107e-14
3.479655616e-14
4.530416558e-14
5.260859016e-14
4.315102918e-15
6.677207732e-15
1.108905335e-14
1.850422804e-14
2.989140262e-14
4.564036748e-14
6.468298261e-14
8.365697292e-14
9.67291951e-14
8.277602479e-15
1.275194438e-14
2.105514627e-14
3.489077481e-14
5.592117552e-14
8.468674543e-14
1.190877264e-13
1.530237469e-13
1.762136887e-13
1.57650088e-14
2.415999807e-14
3.963143012e-14
6.517987953e-14
1.036125121e-13
1.556127709e-13
2.171587365e-13
2.773318847e-13
3.181739508e-13
2.979714273e-14
4.53892724e-14
7.391465331e-14
1.205830794e-13
1.900628069e-13
2.830985561e-13
3.921879029e-13
4.98070155e-13
5.696303098e-13
5.58641467e-14
8.451166837e-14
1.365195607e-13
2.208010719e-13
3.450048726e-13
5.097064255e-13
7.01279207e-13
8.862775762e-13
1.011213721e-12
1.038361259e-13
1.558668108e-13
2.495693428e-13
3.999588512e-13
6.193753165e-13
9.076983007e-13
1.240759302e-12
1.561300054e-12
1.777960378e-12
1.912604414e-13
2.846202054e-13
4.513554213e-13
7.163497524e-13
1.099174849e-12
1.597869588e-12
2.170151958e-12
2.71793662e-12
3.082057695e-12
3.490113884e-13
5.144471912e-13
8.073740965e-13
1.26833716e-12
1.927811989e-12
2.779640819e-12
3.749888912e-12
4.665206948e-12
5.254609392e-12
6.309411221e-13
9.204574599e-13
1.428582654e-12
2.220220656e-12
3.341771957e-12
4.777683188e-12
6.395182087e-12
7.864555515e-12
8.791415604e-12
1.13041417e-12
1.631049393e-12
2.501831126e-12
3.844634591e-12
5.727126355e-12
8.106821123e-12
1.070384567e-11
1.298892783e-11
1.43570976e-11
2.00886672e-12
2.865309495e-12
4.341542961e-12
6.594339655e-12
9.714783643e-12
1.357009033e-11
1.757682525e-11
2.091732721e-11
2.268767036e-11
3.545566361e-12
4.997547591e-12
7.477491583e-12
1.121991354e-11
1.63184257e-11
2.230787461e-11
2.822459647e-11
3.261813947e-11
3.428806812e-11
6.224411201e-12
8.667687865e-12
1.279982372e-11
1.894339529e-11
2.70140021e-11
3.602485986e-11
4.416475237e-11
4.886655091e-11
4.893192625e-11
1.088513944e-11
1.49735847e-11
2.181112747e-11
3.173902918e-11
4.407775934e-11
5.705198719e-11
6.7041434e-11
6.98118851e-11
6.53240534e-11
1.898254936e-11
2.577984414e-11
3.696047864e-11
5.239731471e-11
7.078408179e-11
8.828350346e-11
9.817032287e-11
9.460203918e-11
8.158643922e-11
3.300001208e-11
4.413184354e-11
6.17520473e-11
8.52538372e-11
1.114872765e-10
1.326804835e-10
1.3771642e-10
1.213928779e-10
9.653461275e-11
5.700972976e-11
7.457178054e-11
1.01668001e-10
1.362713791e-10
1.711779554e-10
1.920761818e-10
1.838088127e-10
1.480599779e-10
1.104473933e-10
9.676408404e-11
1.239332582e-10
1.644622801e-10
2.127566434e-10
2.541130948e-10
2.654476505e-10
2.326184005e-10
1.734490113e-10
1.245596786e-10
1.614283029e-10
2.021598765e-10
2.599600874e-10
3.218781132e-10
3.612918871e-10
3.477729202e-10
2.802340422e-10
1.980742037e-10
1.402108241e-10
2.636643541e-10
3.217463093e-10
3.982834134e-10
4.673259602e-10
4.875955497e-10
4.31347205e-10
3.251084199e-10
2.236076185e-10
1.58570369e-10
4.184059512e-10
4.95158642e-10
5.854211574e-10
6.445192253e-10
6.212542616e-10
5.098809754e-10
3.686184851e-10
2.520330429e-10
1.808060817e-10
6.382044261e-10
7.285391848e-10
8.162684424e-10
8.375464192e-10
7.484615191e-10
5.8196759e-10
4.136724917e-10
2.852963836e-10
2.082633307e-10
9.237465552e-10
1.012228687e-09
1.069194662e-09
1.023259775e-09
8.609769426e-10
6.505936572e-10
4.633499616e-10
3.253308168e-10
2.425276446e-10
1.25260794e-09
1.314554946e-09
1.310356494e-09
1.183129156e-09
9.59417032e-10
7.203431777e-10
5.204305601e-10
3.74135507e-10
2.854255033e-10
1.577862563e-09
1.590316865e-09
1.510573657e-09
1.312657389e-09
1.049874975e-09
7.954506438e-10
5.873806124e-10
4.337855717e-10
3.389971387e-10
1.848207004e-09
1.804925522e-09
1.660965675e-09
1.419200443e-09
1.139170828e-09
8.792239785e-10
6.663871817e-10
5.063868183e-10
4.054373266e-10
2.037718313e-09
1.952354394e-09
1.771457569e-09
1.513568799e-09
1.232540376e-09
9.740549615e-10
7.593150323e-10
5.939748495e-10
4.869879157e-10
2.154289447e-09
2.048890488e-09
1.858052923e-09
1.604465643e-09
1.333233891e-09
1.081468088e-09
8.676088183e-10
6.983623983e-10
5.857738391e-10
2.222309538e-09
2.115624789e-09
1.933696805e-09
1.697113207e-09
1.442832766e-09
1.202138726e-09
9.921552251e-10
8.209410465e-10
7.035854004e-10
2.264365239e-09
2.168206155e-09
2.006033269e-09
1.793853898e-09
1.561525086e-09
1.335877112e-09
1.133126492e-09
9.624559014e-10
8.416238805e-10
2.294853016e-09
2.215328565e-09
2.078460575e-09
1.894972758e-09
1.688376127e-09
1.481616349e-09
1.289837632e-09
1.122786257e-09
1.000243183e-09
2.320885707e-09
2.260723548e-09
2.151705407e-09
1.99938066e-09
1.821553327e-09
1.63743407e-09
1.460655808e-09
1.300776447e-09
1.178733761e-09
2.345312652e-09
2.305285134e-09
2.224931248e-09
2.105139682e-09
1.958551083e-09
1.800641575e-09
1.643001741e-09
1.494164826e-09
1.375201279e-09
2.368593755e-09
2.348414112e-09
2.29654058e-09
2.209881999e-09
2.096445168e-09
1.96796282e-09
1.833472352e-09
1.699649884e-09
1.586585713e-09
2.390144936e-09
2.388940286e-09
2.364729382e-09
2.311173422e-09
2.232186457e-09
2.135804742e-09
2.028091107e-09
1.913108969e-09
1.808843934e-09
2.409139301e-09
2.425700985e-09
2.427891048e-09
2.406839968e-09
2.362918984e-09
2.300594211e-09
2.222661752e-09
2.129950716e-09
2.037283341e-09
2.424989623e-09
2.457914651e-09
2.484914006e-09
2.495247232e-09
2.486286281e-09
2.45913314e-09
2.413171332e-09
2.345546689e-09
2.26699549e-09
2.437630891e-09
2.485410212e-09
2.535380181e-09
2.575506163e-09
2.600679327e-09
2.608910464e-09
2.596170268e-09
2.555663968e-09
2.493310927e-09
2.447654554e-09
2.508732571e-09
2.579656394e-09
2.647577391e-09
2.705382883e-09
2.748313554e-09
2.769058713e-09
2.756817688e-09
2.71218984e-09
2.456316771e-09
2.529131381e-09
2.618872312e-09
2.712257454e-09
2.800594303e-09
2.876702558e-09
2.930229759e-09
2.94647691e-09
2.920452274e-09
2.465436367e-09
2.548442912e-09
2.654790345e-09
2.771049923e-09
2.887316099e-09
2.994347734e-09
3.07907185e-09
3.123137812e-09
3.116035765e-09
2.477203098e-09
2.568884794e-09
2.689588137e-09
2.825944479e-09
2.967148529e-09
3.102260668e-09
3.215876874e-09
3.286403834e-09
3.297910149e-09
2.493925912e-09
2.592794544e-09
2.725586968e-09
2.87914009e-09
3.042019539e-09
3.201949168e-09
3.341620357e-09
3.436821963e-09
3.466448382e-09
2.517759448e-09
2.622351467e-09
2.764967253e-09
2.932753814e-09
3.113892652e-09
3.29516009e-09
3.457936838e-09
3.576159296e-09
3.625155025e-09
2.550451604e-09
2.659326008e-09
2.809517037e-09
2.988559079e-09
3.184463748e-09
3.383413386e-09
3.566145476e-09
3.705369845e-09
3.77248594e-09
2.593152039e-09
2.704898048e-09
2.860463014e-09
3.047835199e-09
3.255050453e-09
3.46826189e-09
3.668021823e-09
3.827256428e-09
3.909073619e-09
2.646307463e-09
2.75956504e-09
2.918394885e-09
3.111319243e-09
3.326659644e-09
3.550852068e-09
3.765181171e-09
3.940799256e-09
4.034749415e-09
2.709653094e-09
2.823144347e-09
2.983271519e-09
3.179163363e-09
3.399801299e-09
3.632213702e-09
3.859210277e-09
4.046339444e-09
4.14973144e-09
2.78229009e-09
2.894863237e-09
3.054530893e-09
3.251330229e-09
3.475040984e-09
3.714363479e-09
3.949160389e-09
4.143824716e-09
4.25421296e-09
2.862797224e-09
2.973500336e-09
3.131392274e-09
3.327411893e-09
3.552788206e-09
3.796412845e-09
4.034561223e-09
4.23327298e-09
4.3484319e-09
2.949705196e-09
3.057822584e-09
3.212929856e-09
3.407217046e-09
3.633884087e-09
3.877201329e-09
4.114983687e-09
4.314730459e-09
4.432660923e-09
3.041468928e-09
3.146707563e-09
3.298869348e-09
3.492289636e-09
3.71608852e-09
3.955618558e-09
4.190035098e-09
4.388264289e-09
4.507200307e-09
3.137235014e-09
3.240127408e-09
3.390351004e-09
3.579594656e-09
3.797592175e-09
4.030729268e-09
4.259391588e-09
4.45397212e-09
4.572378127e-09
3.238166185e-09
3.33865269e-09
3.484201943e-09
3.666873421e-09
3.876989111e-09
4.101784371e-09
4.322810091e-09
4.511988696e-09
4.628550293e-09
3.342153927e-09
3.438528515e-09
3.577796849e-09
3.752389714e-09
3.953183941e-09
4.168198151e-09
4.380127358e-09
4.56248719e-09
4.676098168e-09
3.445742577e-09
3.537180972e-09
3.669262719e-09
3.834839382e-09
4.025334352e-09
4.229527716e-09
4.431255329e-09
4.605677292e-09
4.715424234e-09
3.546759116e-09
3.632860147e-09
3.757258424e-09
3.913250828e-09
4.092805225e-09
4.285454977e-09
4.476174698e-09
4.641801223e-09
4.746946608e-09
3.643773459e-09
3.724355199e-09
3.840818237e-09
3.986907945e-09
4.155132188e-09
4.335770276e-09
4.514927275e-09
4.671128547e-09
4.771093147e-09
3.735812128e-09
3.810817127e-09
3.919249539e-09
4.05529488e-09
4.211992632e-09
4.38035728e-09
4.547607708e-09
4.693950454e-09
4.788295734e-09
3.822205348e-09
3.891653582e-09
3.992066424e-09
4.118056066e-09
4.263182036e-09
4.419179019e-09
4.574355094e-09
4.710574082e-09
4.798985117e-09
3.90250061e-09
3.966463975e-09
4.05894455e-09
4.174965958e-09
4.308594061e-09
4.45226507e-09
4.595344938e-09
4.721317236e-09
4.803586537e-09
3.976409128e-09
4.03499624e-09
4.119688322e-09
4.225905018e-09
4.348203513e-09
4.479699984e-09
4.610781722e-09
4.726503724e-09
4.802516202e-09
4.043769351e-09
4.097115661e-09
4.174205637e-09
4.270840056e-09
4.38205169e-09
4.501613012e-09
4.620892292e-09
4.726459392e-09
4.796178599e-09
4.104520141e-09
4.152781062e-09
4.222487721e-09
4.309807894e-09
4.410233808e-09
4.518169119e-09
4.625920094e-09
4.721508858e-09
4.784964546e-09
4.158680113e-09
4.202025994e-09
4.264592733e-09
4.34290171e-09
4.432888292e-09
4.52956126e-09
4.626120256e-09
4.71197289e-09
4.769249883e-09
4.206331292e-09
4.244943602e-09
4.300632314e-09
4.370259651e-09
4.450187711e-09
4.536003795e-09
4.621755445e-09
4.698166351e-09
4.749394667e-09
4.247606e-09
4.281674335e-09
4.330760522e-09
4.392055333e-09
4.462331151e-09
4.537726937e-09
4.613092428e-09
4.680396614e-09
4.725742777e-09
4.282676244e-09
4.312395918e-09
4.355164696e-09
4.408489933e-09
4.469537823e-09
4.534972088e-09
4.600399218e-09
4.658962366e-09
4.6986218e-09
4.311745071e-09
4.337315128e-09
4.374057924e-09
4.419785618e-09
4.472041716e-09
4.527987946e-09
4.583942732e-09
4.634152719e-09
4.668343143e-09
4.335039478e-09
4.356661018e-09
4.387672794e-09
4.426180062e-09
4.470087133e-09
4.517027247e-09
4.563986869e-09
4.606246561e-09
4.635202277e-09
4.352804561e-09
4.370679305e-09
4.396256196e-09
4.427921878e-09
4.463924955e-09
4.502344056e-09
4.54079093e-09
4.575512085e-09
4.599479077e-09
4.365298653e-09
4.379627701e-09
4.400064992e-09
4.425266797e-09
4.453809514e-09
4.484191503e-09
4.514608333e-09
4.542206472e-09
4.561438218e-09
4.37278925e-09
4.383771991e-09
4.399362375e-09
4.418474457e-09
4.439995978e-09
4.462819892e-09
4.485685552e-09
4.506575673e-09
4.521329594e-09
4.37554958e-09
4.383382738e-09
4.394414808e-09
4.407805709e-09
4.422738146e-09
4.438475132e-09
4.454261267e-09
4.468854284e-09
4.479388751e-09
4.373855689e-09
4.378732483e-09
4.385489439e-09
4.393520343e-09
4.402286613e-09
4.411397427e-09
4.420565671e-09
4.429265481e-09
4.435837325e-09
4.367983963e-09
4.370093375e-09
4.372851904e-09
4.375875174e-09
4.378887223e-09
4.381820201e-09
4.384819919e-09
4.388021029e-09
4.390883468e-09
4.358209007e-09
4.357735149e-09
4.356764481e-09
4.35512243e-09
4.352779784e-09
4.349969211e-09
4.34723571e-09
4.345321324e-09
4.344722282e-09
4.344801835e-09
4.341923403e-09
4.337484515e-09
4.331508406e-09
4.324197013e-09
4.316061835e-09
4.308014967e-09
4.301355491e-09
4.297536236e-09
4.328028328e-09
4.322918146e-09
4.315263106e-09
4.305272346e-09
4.293363664e-09
4.280306516e-09
4.267349622e-09
4.256301519e-09
4.249495595e-09
4.308147924e-09
4.300972571e-09
4.290344012e-09
4.276645524e-09
4.26049584e-09
4.242902333e-09
4.225421486e-09
4.210326441e-09
4.200758843e-09
4.285412523e-09
4.276332037e-09
4.262962752e-09
4.245850508e-09
4.225800458e-09
4.204038695e-09
4.182402202e-09
4.163586543e-09
4.151473106e-09
4.260065584e-09
4.249233235e-09
4.233345881e-09
4.213100582e-09
4.189474843e-09
4.163895146e-09
4.138453268e-09
4.116227613e-09
4.101774588e-09
4.232341389e-09
4.219903523e-09
4.201710427e-09
4.178599316e-09
4.151706458e-09
4.122641265e-09
4.093726123e-09
4.068385223e-09
4.051789003e-09
4.202464467e-09
4.188560415e-09
4.168263475e-09
4.142540263e-09
4.112672735e-09
4.080436649e-09
4.048362298e-09
4.020185035e-09
4.001632021e-09
4.170649166e-09
4.155411206e-09
4.133201869e-09
4.105106769e-09
4.07254101e-09
4.037430983e-09
4.002493612e-09
3.971743137e-09
3.951409713e-09
4.137099349e-09
4.120652723e-09
4.096712043e-09
4.066471895e-09
4.031468543e-09
3.993764161e-09
3.956242421e-09
3.923166401e-09
3.901219004e-09
4.102008212e-09
4.084471185e-09
4.058969945e-09
4.026798423e-09
3.989602616e-09
3.949566485e-09
3.909721897e-09
3.874552861e-09
3.851148124e-09
4.065558206e-09
4.047042174e-09
4.020141065e-09
3.986238945e-09
3.947080693e-09
3.904958898e-09
3.863036346e-09
3.8259921e-09
3.801277068e-09
4.027921055e-09
4.00853068e-09
3.98038053e-09
3.944936022e-09
3.904030646e-09
3.860053273e-09
3.816281554e-09
3.777565655e-09
3.751678042e-09
3.989257856e-09
3.969091236e-09
3.939833275e-09
3.903022405e-09
3.860571019e-09
3.814952724e-09
3.769545145e-09
3.72934743e-09
3.702415921e-09
3.949719246e-09
3.92886811e-09
3.89863428e-09
3.8606213e-09
3.816811339e-09
3.769751955e-09
3.722906968e-09
3.681404104e-09
3.653548688e-09
3.909445642e-09
3.887995562e-09
3.856908843e-09
3.817846684e-09
3.772852455e-09
3.724537627e-09
3.676439485e-09
3.63379555e-09
3.605127872e-09
3.868567517e-09
3.846598142e-09
3.814772906e-09
3.774803644e-09
3.728786901e-09
3.679388737e-09
3.630208167e-09
3.586575243e-09
3.557198976e-09
3.827205731e-09
3.804791029e-09
3.772333405e-09
3.731588748e-09
3.684699283e-09
3.634377014e-09
3.584271892e-09
3.53979067e-09
3.509801894e-09
3.78547189e-09
3.762680399e-09
3.729688654e-09
3.688290435e-09
3.640666668e-09
3.589567315e-09
3.538683347e-09
3.493483724e-09
3.462971307e-09
3.74346873e-09
3.720363817e-09
3.686928736e-09
3.64498941e-09
3.596758991e-09
3.545018022e-09
3.493489417e-09
3.447691095e-09
3.41673708e-09
3.701290524e-09
3.677930643e-09
3.644135915e-09
3.601759062e-09
3.553039455e-09
3.500781439e-09
3.448731568e-09
3.402444641e-09
3.371124625e-09
3.659023498e-09
3.635462449e-09
3.601385052e-09
3.558665864e-09
3.509564933e-09
3.456904177e-09
3.404446225e-09
3.357771754e-09
3.326155263e-09
3.616746256e-09
3.593033446e-09
3.558744026e-09
3.515769796e-09
3.466386372e-09
3.413427548e-09
3.360665139e-09
3.313695707e-09
3.281846561e-09
3.574530209e-09
3.550710901e-09
3.516274141e-09
3.473124738e-09
3.423549182e-09
3.370387935e-09
3.31741574e-09
3.270235995e-09
3.238212661e-09
3.532439999e-09
3.508555568e-09
3.474030555e-09
3.430778882e-09
3.381093614e-09
3.327817138e-09
3.274721466e-09
3.227408639e-09
3.195264575e-09
3.490533908e-09
3.466622078e-09
3.432062658e-09
3.388775107e-09
3.339055129e-09
3.285742733e-09
3.232602087e-09
3.18522649e-09
3.153010474e-09
3.448864269e-09
3.424959348e-09
3.390414463e-09
3.347151336e-09
3.29746473e-09
3.244188374e-09
3.191073994e-09
3.143699502e-09
3.111455952e-09
3.407477868e-09
3.383610974e-09
3.349124991e-09
3.305940917e-09
3.256349323e-09
3.203174137e-09
3.150150511e-09
3.102835007e-09
3.070604279e-09
3.366416337e-09
3.342615615e-09
3.308228638e-09
3.265172969e-09
3.215732037e-09
3.162716803e-09
3.109842152e-09
3.062637964e-09
3.030456637e-09
3.32571652e-09
3.302007347e-09
3.26775552e-09
3.224872703e-09
3.175632526e-09
3.122830142e-09
3.070156881e-09
3.023111188e-09
2.991012341e-09
3.285410829e-09
3.261816013e-09
3.227731803e-09
3.18506174e-09
3.136067262e-09
3.083525182e-09
3.031100353e-09
2.984255567e-09
2.952269032e-09
3.245527582e-09
3.222067551e-09
3.188180018e-09
3.145758401e-09
3.097049807e-09
3.044810451e-09
2.992676136e-09
2.946070266e-09
2.914222874e-09
3.206091327e-09
3.182784304e-09
3.149119359e-09
3.106977992e-09
3.05859107e-09
3.006692215e-09
2.954885919e-09
2.908552912e-09
2.876868718e-09
3.167123143e-09
3.143985315e-09
3.110565962e-09
3.068733062e-09
3.020699546e-09
2.969174692e-09
2.917729704e-09
2.871699765e-09
2.840200265e-09
3.128640932e-09
3.10568661e-09
3.072533171e-09
3.031033649e-09
2.983381544e-09
2.932260257e-09
2.881205988e-09
2.835505879e-09
2.804210211e-09
3.090659688e-09
3.067901455e-09
3.035031786e-09
2.993887513e-09
2.946641395e-09
2.895949624e-09
2.845311927e-09
2.799965246e-09
2.768890379e-09
3.053191753e-09
3.030640599e-09
2.99807029e-09
2.957300349e-09
2.910481648e-09
2.860242026e-09
2.810043489e-09
2.765070932e-09
2.734231839e-09
3.016247048e-09
2.993912509e-09
2.961655071e-09
2.921275985e-09
2.874903249e-09
2.825135374e-09
2.775395594e-09
2.730815196e-09
2.70022502e-09
2.979833305e-09
2.957723579e-09
2.925790618e-09
2.88581657e-09
2.839905708e-09
2.790626402e-09
2.741362243e-09
2.697189606e-09
2.666859814e-09
2.943956264e-09
2.922078328e-09
2.890479711e-09
2.850922741e-09
2.805487257e-09
2.756710806e-09
2.707936634e-09
2.664185136e-09
2.63412566e-09
2.90861987e-09
2.886979585e-09
2.85572359e-09
2.816593789e-09
2.771644989e-09
2.723383366e-09
2.675111274e-09
2.631792264e-09
2.602011632e-09
2.87382645e-09
2.852428659e-09
2.821522117e-09
2.782827796e-09
2.738374987e-09
2.690638065e-09
2.642878073e-09
2.600001052e-09
2.57050651e-09
2.839576876e-09
2.818425498e-09
2.787873923e-09
2.749621778e-09
2.705672449e-09
2.65846819e-09
2.611228433e-09
2.568801221e-09
2.53959885e-09
2.805870717e-09
2.78496883e-09
2.754776541e-09
2.716971802e-09
2.673531796e-09
2.626866426e-09
2.580153334e-09
2.538182223e-09
2.50927704e-09
2.772706381e-09
2.752056302e-09
2.722226535e-09
2.684873102e-09
2.641946769e-09
2.595824947e-09
2.549643402e-09
2.5081333e-09
2.479529355e-09
2.740081242e-09
2.719684598e-09
2.690219611e-09
2.653320183e-09
2.610910525e-09
2.565335492e-09
2.519688978e-09
2.47864354e-09
2.450344007e-09
2.707991757e-09
2.687849555e-09
2.65875072e-09
2.622306915e-09
2.580415719e-09
2.535389437e-09
2.490280177e-09
2.449701924e-09
2.421709185e-09
2.676433577e-09
2.656546262e-09
2.627814158e-09
2.59182662e-09
2.550454578e-09
2.50597786e-09
2.46140694e-09
2.421297375e-09
2.393613092e-09
2.645401644e-09
2.625769159e-09
2.59740365e-09
2.561872148e-09
2.521018972e-09
2.477091599e-09
2.433059087e-09
2.393418792e-09
2.366043982e-09
2.614890281e-09
2.59551212e-09
2.567512432e-09
2.53243595e-09
2.492100475e-09
2.448721305e-09
2.405226354e-09
2.366055088e-09
2.338990182e-09
2.584893277e-09
2.56576853e-09
2.538133316e-09
2.503510143e-09
2.463690419e-09
2.420857486e-09
2.377898435e-09
2.33919522e-09
2.312440128e-09
2.555403957e-09
2.536531356e-09
2.509258765e-09
2.475086567e-09
2.435779949e-09
2.393490553e-09
2.351065015e-09
2.312828216e-09
2.286382375e-09
2.526415252e-09
2.507793211e-09
2.480880939e-09
2.447156834e-09
2.408360059e-09
2.366610854e-09
2.324715797e-09
2.286943194e-09
2.260805627e-09
2.497919754e-09
2.479546409e-09
2.452991755e-09
2.419712373e-09
2.381421636e-09
2.340208703e-09
2.29884053e-09
2.261529385e-09
2.235698742e-09
2.469909772e-09
2.451783009e-09
2.425582925e-09
2.392744469e-09
2.354955488e-09
2.314274406e-09
2.27342902e-09
2.236576142e-09
2.211050746e-09
2.442377368e-09
2.424494859e-09
2.398645987e-09
2.36624429e-09
2.328952364e-09
2.288798273e-09
2.248471145e-09
2.212072948e-09
2.186850832e-09
2.415314393e-09
2.397673618e-09
2.372172333e-09
2.340202898e-09
2.303402964e-09
2.263770626e-09
2.223956847e-09
2.1880094e-09
2.163088353e-09
2.388712499e-09
2.371310772e-09
2.346153213e-09
2.314611258e-09
2.278297932e-09
2.239181775e-09
2.199876114e-09
2.164375193e-09
2.139752788e-09
2.362563142e-09
2.345397626e-09
2.320579721e-09
2.289460209e-09
2.253627827e-09
2.215021989e-09
2.176218929e-09
2.141160056e-09
2.116833685e-09
2.336857552e-09
2.319925273e-09
2.295442757e-09
2.264740414e-09
2.229383055e-09
2.191281408e-09
2.152975179e-09
2.118353653e-09
2.094320554e-09
2.311586681e-09
2.29488453e-09
2.270732947e-09
2.240442272e-09
2.205553759e-09
2.167949917e-09
2.130134503e-09
2.095945416e-09
2.072202691e-09
2.286741098e-09
2.270265824e-09
2.246440515e-09
2.216555759e-09
2.182129638e-09
2.145016932e-09
2.107686056e-09
2.073924285e-09
2.050468904e-09
2.262310829e-09
2.246059014e-09
2.22255508e-09
2.193070191e-09
2.159099675e-09
2.12247109e-09
2.085618152e-09
2.052278316e-09
2.029107093e-09
2.238285118e-09
2.222253128e-09
2.199065357e-09
2.169973894e-09
2.136451748e-09
2.100299802e-09
2.063917757e-09
2.030994114e-09
2.008103651e-09
2.214652088e-09
2.198835998e-09
2.175958752e-09
2.147253731e-09
2.114172087e-09
2.078488622e-09
2.042569777e-09
2.010056043e-09
1.987442617e-09
2.191398283e-09
2.175793764e-09
2.153220802e-09
2.124894461e-09
2.092244542e-09
2.057020414e-09
2.021556097e-09
1.989445154e-09
1.967104526e-09
2.168508061e-09
2.15311021e-09
2.130834439e-09
2.102877914e-09
2.070649627e-09
2.035874243e-09
2.00085433e-09
1.969137795e-09
1.947064916e-09
2.145962811e-09
2.130765926e-09
2.108779058e-09
2.081181922e-09
2.049363301e-09
2.015023985e-09
1.98043623e-09
1.949103834e-09
1.927292425e-09
2.123739969e-09
2.108737245e-09
2.08702934e-09
2.059778998e-09
2.028355466e-09
1.99443661e-09
1.960265748e-09
1.9293045e-09
1.90774646e-09
2.101811818e-09
2.08699496e-09
2.065553839e-09
2.038634754e-09
2.007588163e-09
1.974070137e-09
1.940296719e-09
1.909689806e-09
1.888374441e-09
2.080144059e-09
2.065502797e-09
2.044313309e-09
2.017706027e-09
1.987013477e-09
1.953871258e-09
1.9204702e-09
1.890195612e-09
1.869108652e-09
2.058694146e-09
2.044215646e-09
2.023258785e-09
1.996938769e-09
1.966571171e-09
1.9337727e-09
1.900711522e-09
1.870740383e-09
1.849862782e-09
2.037409417e-09
2.023077584e-09
2.002329445e-09
1.976265705e-09
1.946186112e-09
1.913690378e-09
1.880927154e-09
1.851221768e-09
1.830528299e-09
2.016225055e-09
2.002019746e-09
1.981450337e-09
1.955603861e-09
1.925765566e-09
1.893520452e-09
1.861001521e-09
1.831513179e-09
1.810970848e-09
1.995061925e-09
1.98095807e-09
1.960530012e-09
1.934852065e-09
1.905196543e-09
1.873136467e-09
1.840793947e-09
1.811460593e-09
1.791026937e-09
1.973824372e-09
1.959791048e-09
1.939458187e-09
1.913888521e-09
1.884343281e-09
1.852386793e-09
1.820136036e-09
1.790879848e-09
1.770501215e-09
1.952398111e-09
1.938397588e-09
1.918103602e-09
1.892568662e-09
1.863045126e-09
1.831092545e-09
1.798829696e-09
1.769554811e-09
1.749164723e-09
1.930648329e-09
1.916635154e-09
1.89631222e-09
1.87072346e-09
1.841115012e-09
1.809046316e-09
1.776646167e-09
1.747236726e-09
1.7267545e-09
1.908418163e-09
1.894338348e-09
1.87390598e-09
1.848158436e-09
1.818338826e-09
1.786011989e-09
1.753326385e-09
1.723645148e-09
1.702974979e-09
1.885527752e-09
1.871318138e-09
1.850682312e-09
1.824653593e-09
1.794475901e-09
1.761725948e-09
1.728583019e-09
1.698470842e-09
1.677501548e-09
1.86177405e-09
1.847361939e-09
1.826414648e-09
1.799964529e-09
1.769260925e-09
1.735899972e-09
1.702104506e-09
1.671380987e-09
1.64998667e-09
1.836931605e-09
1.822234761e-09
1.800854149e-09
1.77382497e-09
1.742407521e-09
1.708226089e-09
1.673561354e-09
1.642026962e-09
1.620068807e-09
1.810754526e-09
1.795681646e-09
1.773732864e-09
1.745950929e-09
1.713613692e-09
1.678383576e-09
1.642614906e-09
1.610054874e-09
1.587384326e-09
1.782979804e-09
1.767431554e-09
1.7447685e-09
1.716046674e-09
1.682569299e-09
1.646048247e-09
1.60892863e-09
1.575118868e-09
1.551582336e-09
1.753332156e-09
1.737202872e-09
1.71367093e-09