/*--------------------------------*- C++ -*----------------------------------*\
| =========                 |                                                 |
| \\      /  F ield         | OpenFOAM: The Open Source CFD Toolbox           |
|  \\    /   O peration     | Version:  2212                                  |
|   \\  /    A nd           | Website:  www.openfoam.com                      |
|    \\/     M anipulation  |                                                 |
\*---------------------------------------------------------------------------*/
FoamFile
{
    version     2.0;
    format      ascii;
    arch        "LSB;label=32;scalar=64";
    class       volScalarField;
    location    "20.00000000";
    object      SC3H5_0;
}
// * * * * * * * * * * * * * * * * * * * * * * * * * * * * * * * * * * * * * //

dimensions      [0 0 0 0 0 0 0];

internalField   nonuniform List<scalar> 
3000
(
1.196890847e-28
1.484434792e-28
1.944032401e-28
2.602916413e-28
3.488987212e-28
4.612223104e-28
5.929089887e-28
7.282381374e-28
8.31393978e-28
5.044022463e-28
6.301732138e-28
8.311700449e-28
1.119864981e-27
1.511246116e-27
2.020310478e-27
2.65656991e-27
3.409128483e-27
4.147477144e-27
1.299953133e-27
1.644641935e-27
2.201268438e-27
3.016188575e-27
4.155810662e-27
5.707027308e-27
7.759442092e-27
1.032470546e-26
1.284315533e-26
2.840972786e-27
3.652862946e-27
4.989520803e-27
7.00551292e-27
9.935846704e-27
1.409976918e-26
1.982854286e-26
2.709768383e-26
3.395737335e-26
5.779135862e-27
7.579289822e-27
1.061525345e-26
1.534175146e-26
2.245737303e-26
3.290037311e-26
4.752895574e-26
6.584701405e-26
8.228600909e-26
1.138708798e-26
1.52627097e-26
2.196349749e-26
3.270656159e-26
4.935340061e-26
7.430927441e-26
1.094435442e-25
1.525105369e-25
1.893926332e-25
2.221633809e-26
3.044871578e-26
4.501149274e-26
6.895091762e-26
1.06870996e-25
1.64466304e-25
2.45446655e-25
3.425452918e-25
4.204112459e-25
4.338437072e-26
6.073643966e-26
9.204093794e-26
1.445465896e-25
2.290672677e-25
3.585047848e-25
5.403245458e-25
7.574986445e-25
9.399222302e-25
8.524099477e-26
1.216422416e-25
1.883641319e-25
3.019728607e-25
4.86781232e-25
7.706378832e-25
1.167006651e-24
1.633172295e-24
2.011302775e-24
1.687803644e-25
2.448835263e-25
3.861369792e-25
6.293572979e-25
1.027757663e-24
1.640216277e-24
2.490907462e-24
3.481481212e-24
4.275687963e-24
3.367536767e-25
4.954706257e-25
7.929648026e-25
1.309500154e-24
2.159594729e-24
3.466510616e-24
5.274079292e-24
7.364138538e-24
9.027412262e-24
6.763950068e-25
1.006752628e-24
1.630726715e-24
2.720935783e-24
4.521063928e-24
7.287737537e-24
1.110129559e-23
1.548771431e-23
1.895924369e-23
1.366027857e-24
2.052499125e-24
3.35688393e-24
5.646748151e-24
9.436514882e-24
1.525862034e-23
2.326198344e-23
3.243063028e-23
3.965676126e-23
2.770630761e-24
4.195016246e-24
6.914301018e-24
1.170542332e-23
1.96481751e-23
3.184485512e-23
4.857461382e-23
6.768023729e-23
8.26893227e-23
5.637972824e-24
8.58973435e-24
1.42459378e-23
2.423976689e-23
4.082828918e-23
6.629035873e-23
1.011548696e-22
1.408722932e-22
1.719940709e-22
1.150127955e-23
1.761150385e-23
2.935480943e-23
5.014985498e-23
8.469983763e-23
1.377113793e-22
2.101962408e-22
2.926068044e-22
3.570491708e-22
2.350625147e-23
3.614268718e-23
6.048682728e-23
1.036714962e-22
1.754735301e-22
2.85606483e-22
4.360222813e-22
6.067593299e-22
7.400459626e-22
4.811008261e-23
7.42224223e-23
1.246252465e-22
2.14162663e-22
3.631198948e-22
5.915313934e-22
9.031901032e-22
1.256482954e-21
1.531906467e-21
9.857257533e-23
1.524956634e-22
2.56743324e-22
4.421439322e-22
7.507203201e-22
1.223769627e-21
1.868704833e-21
2.598978176e-21
3.167634389e-21
2.021303718e-22
3.134204263e-22
5.288492041e-22
9.1233259e-22
1.550809561e-21
2.529353031e-21
3.862507907e-21
5.370593411e-21
6.543725193e-21
4.147399555e-22
6.443159576e-22
1.089178088e-21
1.881651772e-21
3.20138956e-21
5.223521906e-21
7.976643802e-21
1.108825787e-20
1.350651087e-20
8.513705057e-22
1.324752318e-21
2.242819552e-21
3.879182479e-21
6.604672129e-21
1.077951761e-20
1.645992129e-20
2.287454575e-20
2.7855339e-20
1.748226247e-21
2.723949254e-21
4.617504329e-21
7.993988896e-21
1.361803011e-20
2.222985048e-20
3.393955265e-20
4.715140292e-20
5.740070859e-20
3.590489066e-21
5.600856789e-21
9.504307138e-21
1.646665719e-20
2.806266737e-20
4.581145181e-20
6.99273746e-20
9.711168924e-20
1.181794586e-19
7.374341556e-21
1.151478419e-20
1.955710152e-20
3.390371085e-20
5.779370573e-20
9.433939445e-20
1.439531247e-19
1.998204277e-19
2.4306848e-19
1.514369188e-20
2.366688291e-20
4.022611107e-20
6.976599099e-20
1.189394237e-19
1.94110108e-19
2.96055161e-19
4.107048864e-19
4.993378628e-19
3.108825624e-20
4.862269766e-20
8.269302485e-20
1.434617105e-19
2.445690808e-19
3.989930619e-19
6.081564534e-19
8.430246071e-19
1.024296546e-18
6.378540365e-20
9.983054467e-20
1.698662414e-19
2.947439297e-19
5.023683746e-19
8.191158017e-19
1.247475072e-18
1.727572368e-18
2.097363677e-18
1.307653042e-19
2.047886183e-19
3.485913154e-19
6.048692205e-19
1.030555007e-18
1.679030367e-18
2.554314988e-18
3.533046575e-18
4.285031748e-18
2.67779819e-19
4.196015433e-19
7.144436404e-19
1.239513431e-18
2.110584061e-18
3.435127953e-18
5.218677103e-18
7.207352226e-18
8.730661102e-18
5.475531548e-19
8.584326852e-19
1.461863867e-18
2.5354295e-18
4.313606176e-18
7.011379613e-18
1.063341936e-17
1.465808257e-17
1.772963123e-17
1.117557322e-18
1.752839137e-18
2.985076634e-18
5.174556362e-18
8.793849199e-18
1.426966551e-17
2.159547807e-17
2.970186236e-17
3.586148913e-17
2.275755189e-18
3.570712465e-18
6.080142925e-18
1.053177882e-17
1.787249439e-17
2.894134796e-17
4.36870222e-17
5.992371594e-17
7.219804655e-17
4.621675248e-18
7.253374601e-18
1.234705718e-17
2.13649365e-17
3.619115327e-17
5.845736899e-17
8.797141334e-17
1.202835905e-16
1.44566553e-16
9.356008748e-18
1.46852883e-17
2.498457089e-17
4.317378435e-17
7.297196816e-17
1.17511032e-16
1.762037827e-16
2.400383491e-16
2.876913172e-16
1.887107235e-17
2.961836964e-17
5.034978098e-17
8.685475124e-17
1.464063493e-16
2.349257599e-16
3.507949056e-16
4.758788311e-16
5.685645096e-16
3.790690552e-17
5.947783778e-17
1.009940994e-16
1.738416741e-16
2.920950125e-16
4.667547621e-16
6.93651357e-16
9.365724317e-16
1.115122992e-15
7.579935287e-17
1.188636094e-16
2.01523489e-16
3.459677629e-16
5.791135194e-16
9.209928214e-16
1.361387274e-15
1.828639834e-15
2.169113042e-15
1.508205444e-16
2.362854147e-16
3.9981029e-16
6.841999735e-16
1.140267915e-15
1.803666479e-15
2.650363291e-15
3.540018891e-15
4.182399417e-15
2.984979786e-16
4.670115026e-16
7.882462856e-16
1.343867447e-15
2.228452538e-15
3.503814768e-15
5.115422109e-15
6.791539855e-15
7.99043171e-15
5.874386989e-16
9.173709952e-16
1.543645363e-15
2.620215116e-15
4.320466962e-15
6.748393946e-15
9.784199655e-15
1.290815497e-14
1.512134377e-14
1.149192256e-15
1.790310006e-15
3.001417344e-15
5.06907939e-15
8.306120713e-15
1.288147604e-14
1.853974563e-14
2.429960196e-14
2.834133815e-14
2.234135672e-15
3.469981788e-15
5.79200749e-15
9.726565525e-15
1.582878102e-14
2.436190102e-14
3.479655608e-14
4.530416547e-14
5.260859003e-14
4.315102908e-15
6.677207716e-15
1.108905333e-14
1.8504228e-14
2.989140255e-14
4.564036738e-14
6.468298247e-14
8.365697271e-14
9.672919486e-14
8.277602458e-15
1.275194434e-14
2.105514622e-14
3.489077472e-14
5.592117538e-14
8.468674523e-14
1.190877261e-13
1.530237465e-13
1.762136882e-13
1.576500876e-14
2.4159998e-14
3.963143002e-14
6.517987936e-14
1.036125118e-13
1.556127705e-13
2.171587359e-13
2.773318839e-13
3.181739499e-13
2.979714264e-14
4.538927227e-14
7.39146531e-14
1.20583079e-13
1.900628064e-13
2.830985553e-13
3.921879019e-13
4.980701536e-13
5.696303081e-13
5.586414651e-14
8.451166811e-14
1.365195603e-13
2.208010713e-13
3.450048717e-13
5.097064241e-13
7.01279205e-13
8.862775736e-13
1.011213718e-12
1.038361256e-13
1.558668103e-13
2.49569342e-13
3.9995885e-13
6.193753149e-13
9.076982982e-13
1.240759299e-12
1.561300049e-12
1.777960372e-12
1.912604408e-13
2.846202045e-13
4.5135542e-13
7.163497503e-13
1.099174846e-12
1.597869583e-12
2.170151952e-12
2.717936611e-12
3.082057686e-12
3.490113873e-13
5.144471896e-13
8.073740942e-13
1.268337156e-12
1.927811983e-12
2.779640811e-12
3.7498889e-12
4.665206932e-12
5.254609374e-12
6.3094112e-13
9.204574571e-13
1.42858265e-12
2.22022065e-12
3.341771947e-12
4.777683173e-12
6.395182066e-12
7.864555487e-12
8.791415574e-12
1.130414166e-12
1.631049388e-12
2.501831118e-12
3.844634579e-12
5.727126336e-12
8.106821096e-12
1.070384563e-11
1.298892779e-11
1.435709755e-11
2.008866713e-12
2.865309486e-12
4.341542946e-12
6.594339632e-12
9.714783607e-12
1.357009028e-11
1.757682519e-11
2.091732714e-11
2.268767028e-11
3.545566348e-12
4.997547573e-12
7.477491556e-12
1.12199135e-11
1.631842564e-11
2.230787453e-11
2.822459636e-11
3.261813934e-11
3.4288068e-11
6.224411177e-12
8.667687832e-12
1.279982367e-11
1.894339521e-11
2.7014002e-11
3.602485972e-11
4.416475219e-11
4.886655073e-11
4.893192609e-11
1.088513939e-11
1.497358464e-11
2.181112738e-11
3.173902904e-11
4.407775916e-11
5.705198695e-11
6.704143373e-11
6.981188485e-11
6.532405321e-11
1.898254928e-11
2.577984402e-11
3.696047847e-11
5.239731447e-11
7.078408148e-11
8.828350309e-11
9.81703225e-11
9.460203888e-11
8.158643903e-11
3.300001192e-11
4.413184332e-11
6.1752047e-11
8.525383679e-11
1.11487276e-10
1.326804829e-10
1.377164195e-10
1.213928776e-10
9.653461257e-11
5.700972947e-11
7.457178016e-11
1.016680005e-10
1.362713784e-10
1.711779546e-10
1.920761811e-10
1.838088121e-10
1.480599776e-10
1.104473931e-10
9.676408353e-11
1.239332575e-10
1.644622792e-10
2.127566424e-10
2.541130937e-10
2.654476495e-10
2.326183999e-10
1.73449011e-10
1.245596784e-10
1.61428302e-10
2.021598754e-10
2.599600861e-10
3.218781117e-10
3.612918857e-10
3.477729192e-10
2.802340416e-10
1.980742034e-10
1.402108239e-10
2.636643526e-10
3.217463076e-10
3.982834114e-10
4.673259582e-10
4.87595548e-10
4.31347204e-10
3.251084194e-10
2.236076182e-10
1.585703687e-10
4.18405949e-10
4.951586394e-10
5.854211547e-10
6.445192229e-10
6.212542599e-10
5.098809744e-10
3.686184846e-10
2.520330426e-10
1.808060814e-10
6.382044229e-10
7.285391813e-10
8.162684391e-10
8.375464167e-10
7.484615175e-10
5.819675891e-10
4.136724912e-10
2.852963832e-10
2.082633303e-10
9.23746551e-10
1.012228683e-09
1.069194659e-09
1.023259773e-09
8.609769412e-10
6.505936563e-10
4.63349961e-10
3.253308163e-10
2.425276442e-10
1.252607936e-09
1.314554942e-09
1.310356491e-09
1.183129154e-09
9.594170309e-10
7.203431769e-10
5.204305594e-10
3.741355063e-10
2.854255026e-10
1.577862559e-09
1.590316862e-09
1.510573655e-09
1.312657387e-09
1.049874974e-09
7.95450643e-10
5.873806115e-10
4.337855708e-10
3.38997138e-10
1.848207001e-09
1.804925519e-09
1.660965674e-09
1.419200442e-09
1.139170828e-09
8.792239777e-10
6.663871807e-10
5.063868172e-10
4.054373257e-10
2.037718311e-09
1.952354393e-09
1.771457569e-09
1.513568799e-09
1.232540375e-09
9.740549606e-10
7.593150312e-10
5.939748482e-10
4.869879146e-10
2.154289447e-09
2.048890488e-09
1.858052923e-09
1.604465642e-09
1.33323389e-09
1.081468087e-09
8.67608817e-10
6.983623968e-10
5.857738377e-10
2.222309538e-09
2.11562479e-09
1.933696805e-09
1.697113206e-09
1.442832765e-09
1.202138724e-09
9.921552235e-10
8.209410447e-10
7.035853987e-10
2.264365239e-09
2.168206156e-09
2.006033269e-09
1.793853898e-09
1.561525085e-09
1.33587711e-09
1.133126491e-09
9.624558993e-10
8.416238786e-10
2.294853017e-09
2.215328566e-09
2.078460575e-09
1.894972757e-09
1.688376126e-09
1.481616347e-09
1.28983763e-09
1.122786255e-09
1.000243181e-09
2.320885708e-09
2.260723549e-09
2.151705407e-09
1.999380659e-09
1.821553326e-09
1.637434068e-09
1.460655806e-09
1.300776444e-09
1.178733758e-09
2.345312653e-09
2.305285135e-09
2.224931248e-09
2.105139681e-09
1.958551082e-09
1.800641573e-09
1.643001738e-09
1.494164823e-09
1.375201276e-09
2.368593756e-09
2.348414113e-09
2.296540581e-09
2.209881999e-09
2.096445166e-09
1.967962818e-09
1.83347235e-09
1.69964988e-09
1.58658571e-09
2.390144937e-09
2.388940287e-09
2.364729382e-09
2.311173422e-09
2.232186456e-09
2.13580474e-09
2.028091104e-09
1.913108966e-09
1.80884393e-09
2.409139303e-09
2.425700986e-09
2.427891049e-09
2.406839968e-09
2.362918983e-09
2.300594209e-09
2.222661749e-09
2.129950712e-09
2.037283337e-09
2.424989624e-09
2.457914652e-09
2.484914007e-09
2.495247231e-09
2.48628628e-09
2.459133138e-09
2.413171329e-09
2.345546686e-09
2.266995486e-09
2.437630892e-09
2.485410214e-09
2.535380181e-09
2.575506163e-09
2.600679326e-09
2.608910462e-09
2.596170265e-09
2.555663964e-09
2.493310923e-09
2.447654556e-09
2.508732573e-09
2.579656395e-09
2.647577391e-09
2.705382882e-09
2.748313552e-09
2.76905871e-09
2.756817684e-09
2.712189836e-09
2.456316772e-09
2.529131382e-09
2.618872312e-09
2.712257454e-09
2.800594302e-09
2.876702556e-09
2.930229756e-09
2.946476907e-09
2.92045227e-09
2.465436368e-09
2.548442914e-09
2.654790346e-09
2.771049923e-09
2.887316098e-09
2.994347732e-09
3.079071847e-09
3.123137809e-09
3.116035761e-09
2.477203099e-09
2.568884795e-09
2.689588137e-09
2.825944479e-09
2.967148528e-09
3.102260666e-09
3.215876872e-09
3.28640383e-09
3.297910146e-09
2.493925913e-09
2.592794545e-09
2.725586968e-09
2.87914009e-09
3.042019538e-09
3.201949167e-09
3.341620355e-09
3.43682196e-09
3.466448379e-09
2.517759449e-09
2.622351467e-09
2.764967253e-09
2.932753814e-09
3.113892651e-09
3.295160089e-09
3.457936836e-09
3.576159293e-09
3.625155022e-09
2.550451605e-09
2.659326008e-09
2.809517037e-09
2.988559079e-09
3.184463747e-09
3.383413385e-09
3.566145474e-09
3.705369843e-09
3.772485937e-09
2.593152039e-09
2.704898048e-09
2.860463014e-09
3.047835199e-09
3.255050452e-09
3.468261889e-09
3.668021821e-09
3.827256426e-09
3.909073617e-09
2.646307463e-09
2.75956504e-09
2.918394885e-09
3.111319242e-09
3.326659643e-09
3.550852067e-09
3.765181169e-09
3.940799254e-09
4.034749412e-09
2.709653094e-09
2.823144346e-09
2.983271518e-09
3.179163362e-09
3.399801298e-09
3.632213701e-09
3.859210276e-09
4.046339442e-09
4.149731438e-09
2.78229009e-09
2.894863237e-09
3.054530892e-09
3.251330228e-09
3.475040983e-09
3.714363478e-09
3.949160388e-09
4.143824714e-09
4.254212958e-09
2.862797223e-09
2.973500335e-09
3.131392273e-09
3.327411892e-09
3.552788205e-09
3.796412844e-09
4.034561221e-09
4.233272978e-09
4.348431898e-09
2.949705195e-09
3.057822583e-09
3.212929854e-09
3.407217045e-09
3.633884085e-09
3.877201327e-09
4.114983686e-09
4.314730457e-09
4.432660921e-09
3.041468926e-09
3.146707561e-09
3.298869347e-09
3.492289635e-09
3.716088518e-09
3.955618557e-09
4.190035096e-09
4.388264287e-09
4.507200305e-09
3.137235012e-09
3.240127406e-09
3.390351003e-09
3.579594655e-09
3.797592173e-09
4.030729266e-09
4.259391586e-09
4.453972119e-09
4.572378126e-09
3.238166183e-09
3.338652688e-09
3.484201941e-09
3.666873419e-09
3.876989109e-09
4.101784369e-09
4.322810089e-09
4.511988694e-09
4.628550291e-09
3.342153926e-09
3.438528513e-09
3.577796848e-09
3.752389712e-09
3.953183939e-09
4.168198149e-09
4.380127356e-09
4.562487189e-09
4.676098167e-09
3.445742576e-09
3.53718097e-09
3.669262717e-09
3.83483938e-09
4.025334351e-09
4.229527714e-09
4.431255328e-09
4.605677291e-09
4.715424233e-09
3.546759115e-09
3.632860145e-09
3.757258422e-09
3.913250826e-09
4.092805223e-09
4.285454976e-09
4.476174697e-09
4.641801222e-09
4.746946607e-09
3.643773458e-09
3.724355197e-09
3.840818235e-09
3.986907943e-09
4.155132186e-09
4.335770274e-09
4.514927275e-09
4.671128546e-09
4.771093147e-09
3.735812126e-09
3.810817125e-09
3.919249537e-09
4.055294878e-09
4.211992631e-09
4.380357279e-09
4.547607707e-09
4.693950454e-09
4.788295734e-09
3.822205347e-09
3.891653581e-09
3.992066422e-09
4.118056065e-09
4.263182035e-09
4.419179018e-09
4.574355094e-09
4.710574082e-09
4.798985117e-09
3.902500608e-09
3.966463974e-09
4.058944548e-09
4.174965957e-09
4.308594059e-09
4.452265069e-09
4.595344937e-09
4.721317236e-09
4.803586537e-09
3.976409127e-09
4.034996239e-09
4.119688321e-09
4.225905016e-09
4.348203512e-09
4.479699983e-09
4.610781721e-09
4.726503724e-09
4.802516202e-09
4.04376935e-09
4.09711566e-09
4.174205636e-09
4.270840055e-09
4.382051689e-09
4.501613011e-09
4.620892292e-09
4.726459392e-09
4.796178599e-09
4.10452014e-09
4.152781061e-09
4.22248772e-09
4.309807893e-09
4.410233807e-09
4.518169118e-09
4.625920094e-09
4.721508858e-09
4.784964546e-09
4.158680112e-09
4.202025993e-09
4.264592732e-09
4.342901709e-09
4.432888291e-09
4.52956126e-09
4.626120256e-09
4.71197289e-09
4.769249883e-09
4.206331291e-09
4.244943601e-09
4.300632314e-09
4.37025965e-09
4.450187711e-09
4.536003795e-09
4.621755445e-09
4.698166351e-09
4.749394668e-09
4.247605999e-09
4.281674334e-09
4.330760521e-09
4.392055332e-09
4.462331151e-09
4.537726937e-09
4.613092428e-09
4.680396614e-09
4.725742777e-09
4.282676243e-09
4.312395917e-09
4.355164695e-09
4.408489933e-09
4.469537823e-09
4.534972088e-09
4.600399218e-09
4.658962366e-09
4.698621801e-09
4.311745071e-09
4.337315127e-09
4.374057924e-09
4.419785618e-09
4.472041716e-09
4.527987946e-09
4.583942732e-09
4.63415272e-09
4.668343144e-09
4.335039477e-09
4.356661017e-09
4.387672793e-09
4.426180062e-09
4.470087133e-09
4.517027247e-09
4.563986869e-09
4.606246561e-09
4.635202278e-09
4.352804561e-09
4.370679305e-09
4.396256196e-09
4.427921878e-09
4.463924955e-09
4.502344056e-09
4.540790931e-09
4.575512086e-09
4.599479078e-09
4.365298653e-09
4.379627701e-09
4.400064992e-09
4.425266797e-09
4.453809514e-09
4.484191503e-09
4.514608333e-09
4.542206473e-09
4.561438219e-09
4.37278925e-09
4.383771991e-09
4.399362375e-09
4.418474457e-09
4.439995978e-09
4.462819892e-09
4.485685552e-09
4.506575674e-09
4.521329594e-09
4.375549579e-09
4.383382738e-09
4.394414808e-09
4.407805709e-09
4.422738146e-09
4.438475132e-09
4.454261268e-09
4.468854284e-09
4.479388752e-09
4.373855688e-09
4.378732483e-09
4.385489439e-09
4.393520343e-09
4.402286613e-09
4.411397428e-09
4.420565671e-09
4.429265482e-09
4.435837326e-09
4.367983963e-09
4.370093375e-09
4.372851904e-09
4.375875174e-09
4.378887223e-09
4.381820202e-09
4.38481992e-09
4.38802103e-09
4.390883469e-09
4.358209007e-09
4.357735149e-09
4.356764482e-09
4.35512243e-09
4.352779785e-09
4.349969211e-09
4.347235711e-09
4.345321325e-09
4.344722282e-09
4.344801835e-09
4.341923403e-09
4.337484516e-09
4.331508406e-09
4.324197013e-09
4.316061836e-09
4.308014968e-09
4.301355492e-09
4.297536237e-09
4.328028328e-09
4.322918146e-09
4.315263106e-09
4.305272347e-09
4.293363664e-09
4.280306517e-09
4.267349623e-09
4.25630152e-09
4.249495596e-09
4.308147924e-09
4.300972571e-09
4.290344013e-09
4.276645525e-09
4.260495841e-09
4.242902334e-09
4.225421487e-09
4.210326442e-09
4.200758844e-09
4.285412523e-09
4.276332037e-09
4.262962752e-09
4.245850508e-09
4.225800459e-09
4.204038695e-09
4.182402203e-09
4.163586544e-09
4.151473107e-09
4.260065585e-09
4.249233235e-09
4.233345881e-09
4.213100582e-09
4.189474844e-09
4.163895147e-09
4.138453269e-09
4.116227614e-09
4.101774589e-09
4.232341389e-09
4.219903523e-09
4.201710428e-09
4.178599317e-09
4.151706459e-09
4.122641265e-09
4.093726124e-09
4.068385224e-09
4.051789004e-09
4.202464468e-09
4.188560416e-09
4.168263476e-09
4.142540263e-09
4.112672736e-09
4.08043665e-09
4.048362298e-09
4.020185036e-09
4.001632022e-09
4.170649167e-09
4.155411207e-09
4.13320187e-09
4.10510677e-09
4.072541011e-09
4.037430983e-09
4.002493613e-09
3.971743138e-09
3.951409714e-09
4.13709935e-09
4.120652723e-09
4.096712043e-09
4.066471896e-09
4.031468544e-09
3.993764162e-09
3.956242422e-09
3.923166402e-09
3.901219004e-09
4.102008213e-09
4.084471185e-09
4.058969946e-09
4.026798424e-09
3.989602617e-09
3.949566485e-09
3.909721898e-09
3.874552862e-09
3.851148125e-09
4.065558207e-09
4.047042174e-09
4.020141066e-09
3.986238946e-09
3.947080694e-09
3.904958899e-09
3.863036347e-09
3.825992101e-09
3.801277069e-09
4.027921056e-09
4.008530681e-09
3.98038053e-09
3.944936023e-09
3.904030647e-09
3.860053274e-09
3.816281554e-09
3.777565656e-09
3.751678043e-09
3.989257856e-09
3.969091236e-09
3.939833276e-09
3.903022405e-09
3.86057102e-09
3.814952725e-09
3.769545146e-09
3.729347431e-09
3.702415922e-09
3.949719247e-09
3.928868111e-09
3.898634281e-09
3.860621301e-09
3.81681134e-09
3.769751956e-09
3.722906969e-09
3.681404105e-09
3.653548689e-09
3.909445643e-09
3.887995563e-09
3.856908844e-09
3.817846685e-09
3.772852455e-09
3.724537628e-09
3.676439486e-09
3.633795551e-09
3.605127873e-09
3.868567517e-09
3.846598143e-09
3.814772907e-09
3.774803645e-09
3.728786902e-09
3.679388738e-09
3.630208168e-09
3.586575244e-09
3.557198977e-09
3.827205731e-09
3.80479103e-09
3.772333406e-09
3.731588749e-09
3.684699284e-09
3.634377015e-09
3.584271893e-09
3.539790671e-09
3.509801894e-09
3.78547189e-09
3.7626804e-09
3.729688655e-09
3.688290435e-09
3.640666669e-09
3.589567316e-09
3.538683348e-09
3.493483725e-09
3.462971308e-09
3.743468731e-09
3.720363818e-09
3.686928736e-09
3.644989411e-09
3.596758992e-09
3.545018023e-09
3.493489418e-09
3.447691096e-09
3.416737081e-09
3.701290525e-09
3.677930643e-09
3.644135916e-09
3.601759063e-09
3.553039456e-09
3.500781439e-09
3.448731569e-09
3.402444642e-09
3.371124626e-09
3.659023499e-09
3.63546245e-09
3.601385053e-09
3.558665865e-09
3.509564933e-09
3.456904178e-09
3.404446226e-09
3.357771755e-09
3.326155264e-09
3.616746257e-09
3.593033447e-09
3.558744026e-09
3.515769797e-09
3.466386372e-09
3.413427549e-09
3.36066514e-09
3.313695708e-09
3.281846562e-09
3.574530209e-09
3.550710902e-09
3.516274141e-09
3.473124739e-09
3.423549183e-09
3.370387936e-09
3.317415741e-09
3.270235996e-09
3.238212662e-09
3.53244e-09
3.508555569e-09
3.474030555e-09
3.430778883e-09
3.381093615e-09
3.327817139e-09
3.274721467e-09
3.22740864e-09
3.195264576e-09
3.490533909e-09
3.466622079e-09
3.432062659e-09
3.388775108e-09
3.33905513e-09
3.285742734e-09
3.232602087e-09
3.185226491e-09
3.153010475e-09
3.44886427e-09
3.424959349e-09
3.390414464e-09
3.347151337e-09
3.297464731e-09
3.244188375e-09
3.191073995e-09
3.143699503e-09
3.111455953e-09
3.407477868e-09
3.383610975e-09
3.349124992e-09
3.305940918e-09
3.256349324e-09
3.203174138e-09
3.150150512e-09
3.102835008e-09
3.070604279e-09
3.366416337e-09
3.342615615e-09
3.308228639e-09
3.26517297e-09
3.215732038e-09
3.162716803e-09
3.109842153e-09
3.062637965e-09
3.030456638e-09
3.32571652e-09
3.302007347e-09
3.267755521e-09
3.224872704e-09
3.175632527e-09
3.122830143e-09
3.070156882e-09
3.023111188e-09
2.991012342e-09
3.28541083e-09
3.261816014e-09
3.227731804e-09
3.18506174e-09
3.136067263e-09
3.083525182e-09
3.031100354e-09
2.984255567e-09
2.952269033e-09
3.245527583e-09
3.222067552e-09
3.188180019e-09
3.145758402e-09
3.097049808e-09
3.044810452e-09
2.992676137e-09
2.946070267e-09
2.914222874e-09
3.206091327e-09
3.182784304e-09
3.14911936e-09
3.106977993e-09
3.058591071e-09
3.006692216e-09
2.95488592e-09
2.908552912e-09
2.876868718e-09
3.167123143e-09
3.143985316e-09
3.110565963e-09
3.068733062e-09
3.020699546e-09
2.969174693e-09
2.917729704e-09
2.871699766e-09
2.840200266e-09
3.128640932e-09
3.105686611e-09
3.072533172e-09
3.03103365e-09
2.983381545e-09
2.932260257e-09
2.881205988e-09
2.83550588e-09
2.804210212e-09
3.090659689e-09
3.067901455e-09
3.035031786e-09
2.993887514e-09
2.946641396e-09
2.895949624e-09
2.845311928e-09
2.799965247e-09
2.76889038e-09
3.053191753e-09
3.0306406e-09
2.99807029e-09
2.95730035e-09
2.910481649e-09
2.860242027e-09
2.81004349e-09
2.765070933e-09
2.734231839e-09
3.016247049e-09
2.99391251e-09
2.961655071e-09
2.921275986e-09
2.87490325e-09
2.825135375e-09
2.775395595e-09
2.730815197e-09
2.700225021e-09
2.979833306e-09
2.95772358e-09
2.925790619e-09
2.885816571e-09
2.839905709e-09
2.790626403e-09
2.741362244e-09
2.697189606e-09
2.666859815e-09
2.943956265e-09
2.922078329e-09
2.890479712e-09
2.850922742e-09
2.805487258e-09
2.756710806e-09
2.707936635e-09
2.664185137e-09
2.634125661e-09
2.908619871e-09
2.886979585e-09
2.855723591e-09
2.81659379e-09
2.771644989e-09
2.723383367e-09
2.675111275e-09
2.631792265e-09
2.602011633e-09
2.873826451e-09
2.85242866e-09
2.821522118e-09
2.782827797e-09
2.738374987e-09
2.690638066e-09
2.642878073e-09
2.600001052e-09
2.570506511e-09
2.839576876e-09
2.818425498e-09
2.787873924e-09
2.749621779e-09
2.70567245e-09
2.65846819e-09
2.611228434e-09
2.568801222e-09
2.539598851e-09
2.805870717e-09
2.784968831e-09
2.754776542e-09
2.716971802e-09
2.673531796e-09
2.626866426e-09
2.580153335e-09
2.538182224e-09
2.50927704e-09
2.772706381e-09
2.752056303e-09
2.722226536e-09
2.684873102e-09
2.641946769e-09
2.595824947e-09
2.549643403e-09
2.508133301e-09
2.479529356e-09
2.740081242e-09
2.719684599e-09
2.690219611e-09
2.653320184e-09
2.610910526e-09
2.565335492e-09
2.519688979e-09
2.478643541e-09
2.450344008e-09
2.707991757e-09
2.687849555e-09
2.65875072e-09
2.622306916e-09
2.58041572e-09
2.535389437e-09
2.490280177e-09
2.449701925e-09
2.421709186e-09
2.676433577e-09
2.656546263e-09
2.627814158e-09
2.59182662e-09
2.550454579e-09
2.505977861e-09
2.461406941e-09
2.421297375e-09
2.393613093e-09
2.645401644e-09
2.62576916e-09
2.597403651e-09
2.561872148e-09
2.521018973e-09
2.4770916e-09
2.433059087e-09
2.393418792e-09
2.366043982e-09
2.614890282e-09
2.595512121e-09
2.567512432e-09
2.53243595e-09
2.492100475e-09
2.448721305e-09
2.405226354e-09
2.366055089e-09
2.338990183e-09
2.584893278e-09
2.56576853e-09
2.538133317e-09
2.503510144e-09
2.46369042e-09
2.420857487e-09
2.377898435e-09
2.339195221e-09
2.312440128e-09
2.555403958e-09
2.536531356e-09
2.509258765e-09
2.475086568e-09
2.435779949e-09
2.393490554e-09
2.351065015e-09
2.312828216e-09
2.286382376e-09
2.526415252e-09
2.507793212e-09
2.48088094e-09
2.447156834e-09
2.40836006e-09
2.366610855e-09
2.324715798e-09
2.286943194e-09
2.260805628e-09
2.497919754e-09
2.479546409e-09
2.452991756e-09
2.419712373e-09
2.381421637e-09
2.340208704e-09
2.298840531e-09
2.261529385e-09
2.235698743e-09
2.469909772e-09
2.45178301e-09
2.425582925e-09
2.39274447e-09
2.354955489e-09
2.314274407e-09
2.273429021e-09
2.236576143e-09
2.211050746e-09
2.442377368e-09
2.42449486e-09
2.398645987e-09
2.36624429e-09
2.328952364e-09
2.288798274e-09
2.248471145e-09
2.212072948e-09
2.186850833e-09
2.415314393e-09
2.397673619e-09
2.372172334e-09
2.340202899e-09
2.303402964e-09
2.263770626e-09
2.223956847e-09
2.188009401e-09
2.163088354e-09
2.388712499e-09
2.371310772e-09
2.346153214e-09
2.314611259e-09
2.278297933e-09
2.239181776e-09
2.199876115e-09
2.164375194e-09
2.139752788e-09
2.362563142e-09
2.345397626e-09
2.320579722e-09
2.289460209e-09
2.253627828e-09
2.215021989e-09
2.176218929e-09
2.141160057e-09
2.116833685e-09
2.336857553e-09
2.319925274e-09
2.295442757e-09
2.264740414e-09
2.229383055e-09
2.191281409e-09
2.15297518e-09
2.118353654e-09
2.094320554e-09
2.311586681e-09
2.29488453e-09
2.270732947e-09
2.240442273e-09
2.205553759e-09
2.167949918e-09
2.130134504e-09
2.095945416e-09
2.072202692e-09
2.286741098e-09
2.270265824e-09
2.246440516e-09
2.216555759e-09
2.182129639e-09
2.145016933e-09
2.107686056e-09
2.073924285e-09
2.050468904e-09
2.26231083e-09
2.246059014e-09
2.22255508e-09
2.193070191e-09
2.159099676e-09
2.122471091e-09
2.085618152e-09
2.052278316e-09
2.029107093e-09
2.238285118e-09
2.222253128e-09
2.199065357e-09
2.169973895e-09
2.136451748e-09
2.100299802e-09
2.063917758e-09
2.030994115e-09
2.008103652e-09
2.214652088e-09
2.198835999e-09
2.175958753e-09
2.147253731e-09
2.114172087e-09
2.078488623e-09
2.042569778e-09
2.010056043e-09
1.987442617e-09
2.191398283e-09
2.175793765e-09
2.153220802e-09
2.124894461e-09
2.092244542e-09
2.057020414e-09
2.021556098e-09
1.989445155e-09
1.967104526e-09
2.168508062e-09
2.153110211e-09
2.13083444e-09
2.102877915e-09
2.070649627e-09
2.035874243e-09
2.00085433e-09
1.969137795e-09
1.947064917e-09
2.145962811e-09
2.130765926e-09
2.108779058e-09
2.081181922e-09
2.049363301e-09
2.015023985e-09
1.98043623e-09
1.949103835e-09
1.927292425e-09
2.123739969e-09
2.108737245e-09
2.08702934e-09
2.059778999e-09
2.028355466e-09
1.994436611e-09
1.960265749e-09
1.9293045e-09
1.90774646e-09
2.101811818e-09
2.086994961e-09
2.065553839e-09
2.038634754e-09
2.007588163e-09
1.974070137e-09
1.94029672e-09
1.909689807e-09
1.888374441e-09
2.080144059e-09
2.065502798e-09
2.044313309e-09
2.017706027e-09
1.987013478e-09
1.953871258e-09
1.9204702e-09
1.890195613e-09
1.869108652e-09
2.058694146e-09
2.044215647e-09
2.023258785e-09
1.996938769e-09
1.966571171e-09
1.9337727e-09
1.900711522e-09
1.870740383e-09
1.849862782e-09
2.037409417e-09
2.023077584e-09
2.002329445e-09
1.976265706e-09
1.946186112e-09
1.913690379e-09
1.880927154e-09
1.851221768e-09
1.830528299e-09
2.016225056e-09
2.002019746e-09
1.981450338e-09
1.955603862e-09
1.925765566e-09
1.893520452e-09
1.861001521e-09
1.831513179e-09
1.810970849e-09
1.995061925e-09
1.980958071e-09
1.960530012e-09
1.934852066e-09
1.905196543e-09
1.873136468e-09
1.840793948e-09
1.811460593e-09
1.791026938e-09
1.973824372e-09
1.959791048e-09
1.939458187e-09
1.913888522e-09
1.884343282e-09
1.852386793e-09
1.820136037e-09
1.790879848e-09
1.770501216e-09
1.952398112e-09
1.938397588e-09
1.918103602e-09
1.892568662e-09
1.863045126e-09
1.831092545e-09
1.798829696e-09
1.769554812e-09
1.749164723e-09
1.930648329e-09
1.916635154e-09
1.896312221e-09
1.87072346e-09
1.841115013e-09
1.809046316e-09
1.776646167e-09
1.747236727e-09
1.726754501e-09
1.908418163e-09
1.894338348e-09
1.87390598e-09
1.848158436e-09
1.818338827e-09
1.78601199e-09
1.753326386e-09
1.723645149e-09
1.702974979e-09
1.885527753e-09
1.871318139e-09
1.850682312e-09
1.824653594e-09
1.794475901e-09
1.761725948e-09
1.72858302e-09
1.698470842e-09
1.677501549e-09
1.86177405e-09
1.847361939e-09
1.826414648e-09
1.79996453e-09
1.769260926e-09
1.735899973e-09
1.702104507e-09
1.671380988e-09
1.64998667e-09
1.836931606e-09
1.822234762e-09
1.800854149e-09
1.77382497e-09
1.742407522e-09
1.70822609e-09
1.673561355e-09
1.642026962e-09
1.620068808e-09
1.810754527e-09
1.795681647e-09
1.773732865e-09
1.745950929e-09
1.713613693e-09
1.678383577e-09
1.642614907e-09
1.610054875e-09
1.587384327e-09
1.782979804e-09
1.767431555e-09
1.744768501e-09
1.716046674e-09
1.6825693e-09
1.646048248e-09
1.608928631e-09
1.575118869e-09
1.551582337e-09
1.753332157e-09
1.737202873e-09
1.713670931e-09