/*--------------------------------*- C++ -*----------------------------------*\
| =========                 |                                                 |
| \\      /  F ield         | OpenFOAM: The Open Source CFD Toolbox           |
|  \\    /   O peration     | Version:  2212                                  |
|   \\  /    A nd           | Website:  www.openfoam.com                      |
|    \\/     M anipulation  |                                                 |
\*---------------------------------------------------------------------------*/
FoamFile
{
    version     2.0;
    format      ascii;
    arch        "LSB;label=32;scalar=64";
    class       volVectorField;
    location    "20.00000000";
    object      U_0;
}
// * * * * * * * * * * * * * * * * * * * * * * * * * * * * * * * * * * * * * //

dimensions      [0 1 -1 0 0 0 0];

internalField   nonuniform List<vector> 
3000
(
(0.1151153889 -0.002164523924 3.801043164e-12)
(0.1153219889 -0.003796905006 9.506157675e-12)
(0.1157699953 -0.006036967819 2.598889019e-11)
(0.1165914351 -0.009281702127 7.424774932e-11)
(0.1179248177 -0.01349737551 2.134893724e-10)
(0.1197915852 -0.01991268046 5.421282439e-11)
(0.1208859003 -0.02525648474 1.4300462e-11)
(0.1154924352 -0.03273718948 5.870916165e-12)
(0.0817246251 -0.01686403625 1.235057831e-12)
(0.1214540649 -0.004774074797 2.735312678e-11)
(0.1229300446 -0.008021004948 5.863700514e-11)
(0.1251360651 -0.01191809996 1.172625684e-10)
(0.1282788163 -0.01644376697 2.277784033e-10)
(0.1320099782 -0.02102344812 4.347748076e-10)
(0.1343157817 -0.02552160156 1.719475792e-10)
(0.1319178326 -0.02596782223 6.940293947e-11)
(0.1145351167 -0.02359296573 2.443849889e-11)
(0.06684903525 -0.006950436834 6.319025605e-12)
(0.132544608 -0.007013221596 6.448309402e-11)
(0.1345382136 -0.0113586259 1.271062174e-10)
(0.1372722799 -0.01607781252 2.278743345e-10)
(0.1402157092 -0.02071272718 3.882371096e-10)
(0.1418385916 -0.02417784532 5.945926397e-10)
(0.1393479297 -0.02586879432 2.679445278e-10)
(0.1280471205 -0.02316041098 1.104493966e-10)
(0.09805310286 -0.01637436913 4.629361563e-11)
(0.04295421199 -0.003263025223 1.285343296e-11)
(0.1458655832 -0.007405266556 1.230684029e-10)
(0.147948132 -0.01166126412 2.233447168e-10)
(0.1504008057 -0.0159235385 3.418620911e-10)
(0.1519413396 -0.0192654984 5.019000258e-10)
(0.1506011289 -0.02099548808 7.047897879e-10)
(0.1428509818 -0.0204098762 3.465228176e-10)
(0.1244402228 -0.01592563819 1.66568756e-10)
(0.08907526452 -0.008774260858 7.613850101e-11)
(0.03584022044 -0.001178435509 2.132036777e-11)
(0.1582336656 -0.007145117558 -1.300596101e-10)
(0.1595943319 -0.01101426155 -3.850359725e-10)
(0.1605579576 -0.01450261309 1.639157449e-10)
(0.159509081 -0.01673778131 3.911601529e-10)
(0.1541349064 -0.01716769441 4.606584072e-10)
(0.1411084483 -0.01532189695 3.150021006e-10)
(0.1172827076 -0.01085565308 1.840691044e-10)
(0.07981403232 -0.005108473967 9.372437531e-11)
(0.02968190811 -0.0004741206747 2.716089291e-11)
(0.1698184806 -0.006287939935 -4.270484501e-11)
(0.1701388276 -0.009489256199 -2.488785481e-11)
(0.1693186198 -0.01214203498 2.377210184e-10)
(0.1655477026 -0.0134383129 4.672899968e-10)
(0.1565746279 -0.01308353026 6.774751707e-10)
(0.1396942361 -0.01088505617 3.888695225e-10)
(0.1128507566 -0.007142575933 2.20330178e-10)
(0.07494926949 -0.00299179704 1.127423621e-10)
(0.02735552594 -0.000214041398 3.279672213e-11)
(0.1791981352 -0.005340578454 -2.385652391e-10)
(0.1782750899 -0.007927716073 -5.045092862e-10)
(0.1754876737 -0.009899672573 6.809725675e-11)
(0.1690534633 -0.01057969231 3.467458956e-10)
(0.1569709577 -0.009877897965 4.544091149e-10)
(0.1372001843 -0.007796004389 3.442482608e-10)
(0.1085194228 -0.004831729532 2.227375522e-10)
(0.07079124637 -0.001875200537 1.236160758e-10)
(0.0253666912 -8.871756999e-05 3.762511248e-11)
(0.1871665156 -0.004396397618 -1.37907606e-10)
(0.1850213769 -0.006427042731 -1.407712991e-10)
(0.1804102616 -0.00785866646 1.839255598e-10)
(0.171696431 -0.008154752664 4.457248112e-10)
(0.1572056346 -0.007358097818 6.750233498e-10)
(0.1354584787 -0.005576612255 4.165905581e-10)
(0.1057810121 -0.003322337682 2.743487962e-10)
(0.06840813484 -0.001237669427 1.706309489e-10)
(0.02442620616 -5.748191172e-05 5.48261869e-11)
(0.1933937927 -0.003574328443 -1.385182144e-10)
(0.1901051946 -0.005163174887 -2.288917227e-10)
(0.1838606664 -0.006204486278 -3.8258468e-10)
(0.1732305217 -0.006287934171 -9.54134381e-11)
(0.156865087 -0.005525342853 3.719062663e-10)
(0.1337172939 -0.004066056607 4.638802864e-10)
(0.1034536101 -0.002356269642 5.859760268e-10)
(0.06645233841 -0.000852779511 4.58481491e-10)
(0.02360570332 -2.999738712e-05 1.189273833e-10)
(0.1984850879 -0.002882880009 -1.681036705e-10)
(0.1941898672 -0.004120209601 -2.560180283e-10)
(0.1865588025 -0.00487992582 -2.393788029e-10)
(0.1743847664 -0.004852613614 -2.723106855e-11)
(0.1566040973 -0.004178558106 2.432955131e-10)
(0.1324830234 -0.003011920394 3.669700407e-10)
(0.1018842587 -0.001717431021 3.918705213e-10)
(0.06520093418 -0.0006169926992 2.769661908e-10)
(0.02313245377 -2.506369945e-05 8.496461053e-11)
(0.2024649905 -0.002321900364 1.124293514e-10)
(0.1973015925 -0.003291649228 4.797879406e-10)
(0.1885088299 -0.00385397903 9.078352024e-11)
(0.1750927225 -0.00377713122 1.97568859e-10)
(0.1562277546 -0.003204450299 5.128075585e-10)
(0.1314038821 -0.002277287475 3.961261066e-10)
(0.1005968585 -0.001284671586 3.188685388e-10)
(0.0641786862 -0.000458045632 2.052187378e-10)
(0.02272153491 -1.647787201e-05 6.423855861e-11)
(0.2056850064 -0.001872460183 1.612612401e-10)
(0.1997895566 -0.002636342422 3.077673059e-10)
(0.1900407627 -0.003058718157 2.551739685e-10)
(0.1756361863 -0.00296498032 3.07352973e-10)
(0.1559419904 -0.002489085477 4.011112772e-10)
(0.1306062392 -0.00175328571 3.570919314e-10)
(0.0996670578 -0.0009846761138 2.949579394e-10)
(0.06345827835 -0.0003523767803 2.016481174e-10)
(0.02244628104 -1.461260598e-05 6.545678736e-11)
(0.2082334278 -0.001514812712 7.064411239e-11)
(0.2017257228 -0.002122137186 2.098551115e-11)
(0.191192535 -0.002445269868 -3.024740399e-10)
(0.1759971863 -0.002351620662 -1.882267241e-10)
(0.1556582898 -0.001960032796 2.229371814e-10)
(0.1299371461 -0.001373062438 3.882484576e-10)
(0.09890725278 -0.0007691517725 5.518231836e-10)
(0.06286694248 -0.0002753588933 4.514577881e-10)
(0.02221043566 -1.096777906e-05 1.194732842e-10)
(0.2102987229 -0.001230699435 1.001646752e-11)
(0.203283124 -0.001717244134 -4.419397222e-11)
(0.192109322 -0.001968621578 -1.519260282e-10)
(0.1762809673 -0.001882704677 -6.167391909e-11)
(0.1554372354 -0.001561996017 1.543037863e-10)
(0.1294215394 -0.001091188964 2.943101776e-10)
(0.09832708169 -0.0006114220004 3.389010312e-10)
(0.06241980759 -0.0002200748676 2.32917933e-10)
(0.02203608303 -9.57982942e-06 6.866602001e-11)
(0.2119564396 -0.001004341404 -8.135247194e-12)
(0.2045205209 -0.001397548443 -2.847136521e-11)
(0.1928228736 -0.001596346223 -2.243987797e-11)
(0.1764843479 -0.001521022534 1.285894492e-10)
(0.1552397874 -0.001258400855 4.485540897e-10)
(0.1289935702 -0.0008779347391 2.958745895e-10)
(0.09785055669 -0.0004921738755 1.739344162e-10)
(0.06205059169 -0.0001774814703 -5.880695669e-11)
(0.02188824823 -7.560715355e-06 -1.780516334e-12)
(0.2133078213 -0.0008235511885 -3.284020688e-12)
(0.2055248439 -0.00114364532 2.162735961e-12)
(0.1933986883 -0.001303102816 4.42515029e-11)
(0.1766473976 -0.001238738789 1.560990101e-10)
(0.1550820659 -0.001023394111 2.818279145e-10)
(0.1286532178 -0.0007138767282 2.318856291e-10)
(0.09747274928 -0.0004008106432 1.420831109e-10)
(0.0617589114 -0.0001449972855 4.39154857e-11)
(0.02177252422 -6.352157993e-06 1.174258049e-11)
(0.2144061442 -0.0006785136176 8.856047538e-12)
(0.2063365365 -0.0009410606751 2.79680141e-11)
(0.1938589239 -0.001070645283 7.43530815e-11)
(0.1767716449 -0.001016496473 1.480137601e-10)
(0.1549470287 -0.0008393764577 2.038746122e-10)
(0.1283713084 -0.0005857378462 1.807134424e-10)
(0.09716106722 -0.0003292648934 1.222359613e-10)
(0.06151737832 -0.0001190511702 6.045979566e-11)
(0.02167507159 -4.950290585e-06 1.708293857e-11)
(0.2153084757 -0.0005619579449 2.032765703e-11)
(0.2070020936 -0.0007788380821 4.509216107e-11)
(0.1942356565 -0.0008854483909 8.596519676e-11)
(0.176873773 -0.0008403964258 1.338742395e-10)
(0.1548382719 -0.0006942874 1.607525566e-10)
(0.1281434832 -0.0004850937752 1.447339566e-10)
(0.09690926939 -0.0002734133941 1.036048278e-10)
(0.06132264584 -9.902399953e-05 5.733069449e-11)
(0.02159664477 -4.492214813e-06 1.680813828e-11)
(0.2160512055 -0.0004682067569 2.796850438e-11)
(0.2075489832 -0.0006488255841 5.399213074e-11)
(0.1945445381 -0.0007376943528 8.782479419e-11)
(0.1769571976 -0.0007005863726 1.196417588e-10)
(0.1547490859 -0.0005796561804 1.326465263e-10)
(0.1279569726 -0.0004058814343 1.185891191e-10)
(0.09670310866 -0.000229722568 8.679286555e-11)
(0.06116287504 -8.33507343e-05 4.964653775e-11)
(0.02153254999 -4.45637067e-06 1.471375459e-11)
(0.2166692374 -0.0003930838298 3.420777077e-11)
(0.2080048358 -0.0005449545696 5.976146345e-11)
(0.1948038112 -0.0006201624168 8.589154037e-11)
(0.1770307341 -0.0005899207773 1.047778013e-10)
(0.1546806967 -0.0004894132691 1.105697633e-10)
(0.1278085346 -0.0003437709753 9.778186738e-11)
(0.0965381942 -0.0001956509996 7.126411082e-11)
(0.06103518389 -7.09055147e-05 4.036642058e-11)
(0.02148192112 -4.420114489e-06 1.174716351e-11)
(0.2171884059 -0.0003333761325 2.562789432e-11)
(0.2083894117 -0.0004627101244 4.365510802e-11)
(0.1950255086 -0.0005276001725 6.729435682e-11)
(0.1770987468 -0.0005033466904 1.181371845e-10)
(0.1546313279 -0.0004194269113 1.155005928e-10)
(0.1276927259 -0.0002960367565 8.210597834e-11)
(0.09640811301 -0.0001698665523 4.834327025e-11)
(0.060934283 -6.131342636e-05 2.296064481e-11)
(0.02144214507 -4.589213387e-06 5.743049651e-12)
(0.2176325846 -0.0002868710677 6.311948707e-11)
(0.2087216966 -0.0003989879904 1.406313357e-10)
(0.1952225372 -0.0004564844091 3.482420845e-10)
(0.1771682865 -0.00043757146 -2.916382331e-10)
(0.1546035091 -0.0003670693647 -4.121353543e-10)
(0.1276094327 -0.0002608269312 -3.645586879e-10)
(0.09631162254 -0.00015142902 -1.260326707e-10)
(0.06085927163 -5.432373041e-05 -4.573228482e-11)
(0.02141320843 -5.158388413e-06 -1.1698837e-11)
(0.2180224047 -0.0002518080693 6.460689225e-11)
(0.2090182085 -0.0003513084165 9.906451674e-11)
(0.1954062315 -0.0004039198133 7.815642987e-11)
(0.1772455251 -0.0003897529432 -1.893219711e-10)
(0.1545990721 -0.0003300359987 -2.906013818e-10)
(0.1275577625 -0.0002372491882 -2.601262893e-10)
(0.09624754993 -0.0001404579995 -1.483410304e-10)
(0.06080917212 -5.004528263e-05 -7.111276493e-11)
(0.02139467726 -6.225642772e-06 -1.979925869e-11)
(0.2183766451 -0.0002270992062 4.648541995e-11)
(0.2092943002 -0.0003182808478 5.121567697e-11)
(0.195587847 -0.000368589483 -3.635595265e-12)
(0.1773381497 -0.0003591358093 -1.413234999e-10)
(0.1546242351 -0.0003080027385 -2.077221204e-10)
(0.1275434555 -0.0002236989287 -1.880303028e-10)
(0.09621804827 -0.0001352506158 -1.276456426e-10)
(0.06078452436 -4.781791326e-05 -6.91041004e-11)
(0.02138658716 -7.860081701e-06 -2.01427847e-11)
(0.2187147155 -0.0002125241158 2.428106285e-11)
(0.2095669349 -0.0002998206914 1.424243323e-11)
(0.195781247 -0.0003508868052 -3.685274353e-11)
(0.177456338 -0.0003466616485 -1.176077836e-10)
(0.1546829069 -0.0003031247107 -1.612470653e-10)
(0.1275659331 -0.0002233620306 -1.532910652e-10)
(0.09622727399 -0.0001372424756 -1.102935166e-10)
(0.06079004769 -4.747935485e-05 -6.219900022e-11)
(0.02139113265 -9.776748733e-06 -1.839011106e-11)
(0.2190562667 -0.0002068494951 6.023001265e-12)
(0.2098536027 -0.0002939150117 -1.010487948e-11)
(0.1960012584 -0.0003477709594 -5.119294912e-11)
(0.1776127799 -0.0003483333972 -1.01974017e-10)
(0.1547881009 -0.0003100665491 -1.291325855e-10)
(0.1276335032 -0.0002329697264 -1.235096651e-10)
(0.09627459381 -0.0001473281681 -9.252486564e-11)
(0.06082484389 -5.049593679e-05 -5.352469611e-11)
(0.02140914767 -1.286366088e-05 -1.591643035e-11)
(0.2194192663 -0.0002099391106 -7.098949136e-12)
(0.2101699631 -0.0003005201146 -2.508015899e-11)
(0.1962606348 -0.0003594124826 -5.671727604e-11)
(0.1778171936 -0.000364861931 -8.957219141e-11)
(0.1549475374 -0.00032974976 -1.055452642e-10)
(0.1277612011 -0.0002519506333 -9.875115985e-11)
(0.09637645009 -0.0001642056261 -7.484171123e-11)
(0.06089825087 -5.662271182e-05 -4.389736418e-11)
(0.02144164855 -1.706959034e-05 -1.314901552e-11)
(0.2198252158 -0.0002219807729 -1.181667053e-11)
(0.2105361754 -0.0003200518405 -2.834649582e-11)
(0.19657797 -0.0003868284971 -5.337788121e-11)
(0.1780865849 -0.0003977649016 -7.810437742e-11)
(0.1551758048 -0.0003652814873 -8.771182674e-11)
(0.1279549262 -0.0002828448488 -8.043012349e-11)
(0.09653678196 -0.0001878992771 -6.086799885e-11)
(0.06101348531 -6.438581099e-05 -3.590864503e-11)
(0.02149086695 -2.186161077e-05 -1.080467378e-11)
(0.220296519 -0.0002427746046 -3.048565289e-11)
(0.2109735126 -0.0003521928098 -5.712966024e-11)
(0.19697312 -0.0004294380065 -8.102096762e-11)
(0.1784394059 -0.0004462287664 -6.434992639e-11)
(0.1554897282 -0.0004148198296 -7.057522814e-11)
(0.1282313134 -0.0003245424853 -6.585220715e-11)
(0.09676869816 -0.0002187055842 -5.051910675e-11)
(0.06118025164 -7.4497686e-05 -3.012719443e-11)
(0.02156080492 -2.774675769e-05 -9.132746695e-12)
(0.2208576966 -0.0002723602199 1.597254192e-11)
(0.2115054431 -0.0003970110067 7.3061375e-11)
(0.1974681345 -0.0004873296472 2.567331671e-10)
(0.1788959079 -0.000510304042 -2.755956534e-10)
(0.1559074551 -0.0004784678492 -1.353639884e-10)
(0.1286054899 -0.0003768885987 -8.160906923e-11)
(0.09708429688 -0.00025637736 -5.236610686e-11)
(0.06140622997 -8.682397263e-05 -2.924053141e-11)
(0.02165393513 -3.466674066e-05 -8.696072895e-12)
(0.2215355462 -0.000310487225 3.008694106e-11)
(0.2121579722 -0.0004540929757 6.255717417e-11)
(0.1980879371 -0.0005598825605 7.375786545e-11)
(0.1794796538 -0.0005891886698 -1.172325015e-10)
(0.1564507551 -0.000555275082 -1.078159337e-10)
(0.1290968438 -0.0004390130188 -7.810406059e-11)
(0.0974991526 -0.0003002404907 -5.146091476e-11)
(0.0617018895 -0.0001010190531 -2.850155682e-11)
(0.02177412545 -4.265134094e-05 -8.413537856e-12)
(0.2223588199 -0.0003568130173 2.48364231e-11)
(0.2129591334 -0.0005228805061 3.511012447e-11)
(0.1988595211 -0.0006462828544 1.44808118e-11)
(0.1802161828 -0.0006818448783 -6.661611853e-11)
(0.1571431003 -0.0006440359607 -8.080026566e-11)
(0.1297258293 -0.0005097242436 -6.714203872e-11)
(0.09802941351 -0.0003492742128 -4.669871484e-11)
(0.06207767805 -0.0001165644562 -2.633240381e-11)
(0.02192494814 -5.161948315e-05 -7.805715791e-12)
(0.223358595 -0.0004107129707 1.722597453e-11)
(0.2139394338 -0.0006023692994 1.610704319e-11)
(0.1998125054 -0.0007451181635 -6.949902038e-12)
(0.1811337414 -0.0007865494619 -4.836064445e-11)
(0.1580105788 -0.0007428332399 -6.222097931e-11)
(0.1305152289 -0.0005872458483 -5.56092352e-11)
(0.09869304353 -0.0004020784944 -4.062965876e-11)
(0.06254528271 -0.0001328405167 -2.37540579e-11)
(0.02211052569 -6.149280357e-05 -7.170709924e-12)
(0.2245677897 -0.0004712912542 -5.683582285e-12)
(0.2151312935 -0.0006911425402 -7.16020852e-12)
(0.2009784567 -0.0008544338291 -2.088167918e-11)
(0.1822624396 -0.0009009707922 -4.201825438e-11)
(0.1590808833 -0.0008491472014 -5.093258058e-11)
(0.1314889737 -0.0006693094737 -4.765049849e-11)
(0.0995086254 -0.0004569188611 -3.835791437e-11)
(0.06311652958 -0.0001491133819 -2.535627451e-11)
(0.02233488705 -7.213582653e-05 -7.753961744e-12)
(0.2260211783 -0.0005373152303 8.918006162e-11)
(0.2165690649 -0.0007872720378 3.930541115e-11)
(0.2023909086 -0.0009716224819 -2.871886747e-12)
(0.1836342662 -0.001022071748 -3.006307867e-11)
(0.1603833243 -0.0009598020945 -4.48266779e-11)
(0.1326721821 -0.0007531632605 -5.503688853e-11)
(0.1004954436 -0.0005117854298 -6.62530188e-11)
(0.06380354439 -0.0001645926595 -5.64559068e-11)
(0.0226021515 -8.339512962e-05 -1.142260258e-11)
(0.2277549261 -0.0006072034816 -6.770653308e-10)
(0.2182885265 -0.0008883162785 -1.944393259e-10)
(0.204084791 -0.00109344481 -7.409197811e-11)
(0.1852824309 -0.001146162894 -6.469149263e-11)
(0.1619480837 -0.001071056002 -9.840655994e-11)
(0.134090365 -0.0008356771561 -1.803160768e-10)
(0.1016727316 -0.0005644856793 -3.498292949e-10)
(0.06461815011 -0.0001784630892 -2.784260325e-10)
(0.02291623298 -9.508676965e-05 2.373695478e-11)
(0.2298063356 -0.0006790204588 -3.628249907e-10)
(0.2203266028 -0.000991321083 -2.102313832e-10)
(0.2060961042 -0.001216055254 -1.168767865e-10)
(0.1872409802 -0.001268968753 -9.833883343e-11)
(0.1638057786 -0.001178711613 -1.224326784e-10)
(0.1357689861 -0.000913468135 -1.682335491e-10)
(0.1030593129 -0.0006127634667 -2.044130766e-10)
(0.06557166641 -0.0001899477881 -1.451919039e-10)
(0.02328081476 -0.0001070180282 -3.230569395e-11)
(0.2322133749 -0.0007505028067 -2.141477486e-10)
(0.2227208487 -0.001092871316 -1.799123558e-10)
(0.2084613282 -0.001335094319 -1.316285312e-10)
(0.1895441187 -0.0013857668 -1.164848505e-10)
(0.1659867148 -0.001278290941 -1.261236514e-10)
(0.1377327148 -0.0009830675384 -1.398910711e-10)
(0.104672957 -0.000654425825 -1.334895035e-10)
(0.06667446895 -0.0001983506647 -8.817062083e-11)
(0.02369917527 -0.0001189895581 -2.569732044e-11)
(0.2350142746 -0.0008191051808 -1.411368113e-10)
(0.225508996 -0.001189173617 -1.491655374e-10)
(0.2112168845 -0.001445822648 -1.307458773e-10)
(0.1922255817 -0.001491567433 -1.206276508e-10)
(0.1685202059 -0.00136524838 -1.198095148e-10)
(0.1400047813 -0.001041113904 -1.158166688e-10)
(0.106529877 -0.0006874761228 -9.669785688e-11)
(0.06793570174 -0.0002030999489 -6.043435404e-11)
(0.0241741106 -0.0001308062494 -1.820160973e-11)
(0.2382470332 -0.0008820687709 -1.023939094e-10)
(0.2287283827 -0.001276179253 -1.24286062e-10)
(0.2143984638 -0.001543302728 -1.218362256e-10)
(0.1953178618 -0.001581340297 -1.156147166e-10)
(0.1714337609 -0.001435212407 -1.091467199e-10)
(0.1426062417 -0.001084548425 -9.702971062e-11)
(0.1086441756 -0.0007102309487 -7.509349153e-11)
(0.0693629546 -0.0002037743877 -4.521476108e-11)
(0.02470782871 -0.000142280445 -1.358773947e-11)
(0.241948931 -0.0009365187374 -8.080042163e-11)
(0.2324153757 -0.001349741264 -1.066161754e-10)
(0.2180403312 -0.001622618878 -1.118291144e-10)
(0.1988514214 -0.001650271273 -1.074817566e-10)
(0.1747522941 -0.001484231045 -9.801507561e-11)
(0.1455553148 -0.001110793838 -8.327092019e-11)
(0.1110273938 -0.0007214129084 -6.236135264e-11)
(0.07096203937 -0.0002001189738 -3.713230193e-11)
(0.02530189534 -0.0001532372415 -1.12047481e-11)
(0.2461559925 -0.0009795839007 -6.09464698e-11)
(0.2366047275 -0.001405801609 -8.165756736e-11)
(0.222174558 -0.00167912579 -8.548445283e-11)
(0.2028538534 -0.001694030874 -8.339462079e-11)
(0.1784973282 -0.001509002554 -8.662541578e-11)
(0.1488667566 -0.001117899468 -8.126346176e-11)
(0.1136881182 -0.0007202063589 -6.275388457e-11)
(0.07273680564 -0.0001920422413 -3.774369427e-11)
(0.02595718623 -0.0001635153357 -1.149402423e-11)
(0.250902416 -0.001008534953 -6.336336068e-11)
(0.2413288898 -0.001440601537 -1.066994425e-10)
(0.2268302199 -0.001708709776 -1.738661619e-10)
(0.2073490493 -0.001709034052 -3.246264079e-10)
(0.1826862663 -0.001507074447 -3.443034079e-12)
(0.1525513511 -0.001104643918 -2.515179854e-10)
(0.1166317062 -0.0007062813873 -1.200227679e-10)
(0.07468903698 -0.0001796069591 -5.735189863e-11)
(0.02667386857 -0.0001729683655 -1.595918723e-11)
(0.256219951 -0.001020931166 -6.778887374e-11)
(0.2466172749 -0.001450898794 -1.152949994e-10)
(0.2320325741 -0.001708041352 -1.670734761e-10)
(0.2123564004 -0.001692665514 -2.013576888e-10)
(0.1873317604 -0.001476985382 -1.172527192e-10)
(0.1566155264 -0.001070582165 -1.464048005e-10)
(0.1198601198 -0.0006797841528 -1.00550531e-10)
(0.07681841322 -0.0001630137397 -5.415681266e-11)
(0.02745140247 -0.0001814653702 -1.552606683e-11)
(0.2621371974 -0.001014770371 -6.78632108e-11)
(0.2524954605 -0.001434178868 -1.109438662e-10)
(0.237802233 -0.001674801264 -1.465890839e-10)
(0.2178900721 -0.001643455117 -1.574339692e-10)
(0.1924412148 -0.001418343484 -1.271389797e-10)
(0.1610611155 -0.001016042023 -1.131930098e-10)
(0.1233718721 -0.0006412994848 -8.09708617e-11)
(0.07912253582 -0.0001425803052 -4.54446562e-11)
(0.02828856433 -0.0001888917471 -1.323565129e-11)
(0.2686788597 -0.0009886303134 -6.413231501e-11)
(0.2589843882 -0.001388835544 -1.009812013e-10)
(0.2441543976 -0.001607849528 -1.261302944e-10)
(0.2239584164 -0.001561175308 -1.306612413e-10)
(0.1980164677 -0.001331829363 -1.138544071e-10)
(0.1658852805 -0.0009420677559 -9.329972897e-11)
(0.1271620842 -0.0005917863568 -6.597910387e-11)
(0.08159700555 -0.0001187107554 -3.72969819e-11)
(0.02918348462 -0.0001951452005 -1.091628979e-11)
(0.2758648893 -0.0009417942364 -5.844190379e-11)
(0.2660995162 -0.001314316747 -8.949492108e-11)
(0.2510981387 -0.001507331093 -1.080227291e-10)
(0.2305635114 -0.001446862283 -1.099401684e-10)
(0.2040536305 -0.001219137661 -9.731049611e-11)
(0.1710805663 -0.0008503337769 -7.789504283e-11)
(0.1312226197 -0.0005325119527 -5.46524381e-11)
(0.08423553074 -9.186867811e-05 -3.100704806e-11)
(0.030133692 -0.0002001284651 -9.121848726e-12)
(0.2837096357 -0.0008743274084 -5.102099498e-11)
(0.2738500594 -0.00121119822 -7.739661561e-11)
(0.2586358564 -0.001374686476 -9.200584813e-11)
(0.2377009284 -0.001302737561 -9.28900333e-11)
(0.2105431427 -0.001082841619 -8.26415752e-11)
(0.1766351176 -0.0007430162678 -6.62896349e-11)
(0.1355423223 -0.0004649725933 -4.722816008e-11)
(0.08703010022 -6.253894326e-05 -2.749918999e-11)
(0.03113614747 -0.0002037342025 -8.228795912e-12)
(0.2922208666 -0.0007871133395 -5.1247862e-11)
(0.282238196 -0.00108119033 -7.123487512e-11)
(0.2667628046 -0.001212586891 -8.065969378e-11)
(0.2453596113 -0.001132068804 -8.038918537e-11)
(0.217469921 -0.0009262233588 -7.289083327e-11)
(0.182532943 -0.000622664894 -6.167419556e-11)
(0.140107269 -0.000390828165 -4.831497909e-11)
(0.08997115003 -3.127271688e-05 -3.088497284e-11)
(0.03218732773 -0.0002058716802 -9.257822966e-12)
(0.301398996 -0.0006818273807 1.701024029e-11)
(0.2912585607 -0.0009270462227 -3.135136919e-11)
(0.2754669524 -0.001024760383 -5.96919413e-11)
(0.2535220837 -0.0009389441149 -7.07147655e-11)
(0.224813771 -0.0007530538368 -7.470416408e-11)
(0.1887543776 -0.0004920380296 -7.8639067e-11)
(0.1449011557 -0.0003118250536 -8.151409174e-11)
(0.09304809718 1.386604323e-06 -5.909044617e-11)
(0.03328288431 -0.0002064636939 -1.224227062e-11)
(0.311236149 -0.0005608612805 -6.649006436e-10)
(0.3008976564 -0.0007524093454 -2.171819593e-10)
(0.2847288153 -0.0008157692723 -1.143747544e-10)
(0.2621646298 -0.0007280336621 -9.957937986e-11)
(0.2325497373 -0.0005673778906 -1.170059729e-10)
(0.1952764106 -0.0003539932353 -1.662416791e-10)
(0.1499055626 -0.0002294040085 -2.836214301e-10)
(0.09624906173 3.379487088e-05 -2.069512903e-10)
(0.03441834292 -0.000206630303 2.238045199e-11)
(0.3217158557 -0.00042718988 -3.113321631e-10)
(0.3111339419 -0.0005615875381 -2.052191269e-10)
(0.2945219387 -0.0005906973789 -1.390261002e-10)
(0.2712580082 -0.0005042692257 -1.204276248e-10)
(0.2406488608 -0.0003732796367 -1.276907637e-10)
(0.2020732436 -0.0002112318418 -1.452290864e-10)
(0.1551007232 -0.0001450131267 -1.529327457e-10)
(0.09956002957 6.492143747e-05 -1.016474451e-10)
(0.03558968108 -0.0002068450457 -2.229919571e-11)
(0.3328124882 -0.0002841417595 -1.781431167e-10)
(0.3219375718 -0.0003592521741 -1.682010769e-10)
(0.3048129538 -0.0003548701867 -1.3940051e-10)
(0.280767769 -0.0002726279072 -1.244707327e-10)
(0.2490784808 -0.0001748513729 -1.206047002e-10)
(0.209116991 -6.56701491e-05 -1.166133598e-10)
(0.1604623518 -6.139428955e-05 -1.001787313e-10)
(0.1029698588 9.429578369e-05 -6.322652812e-11)
(0.03679242742 -0.0002058347105 -1.836968924e-11)
(0.3444921316 -0.0001354634316 -1.177900681e-10)
(0.3332718947 -0.0001504301438 -1.353255548e-10)
(0.3155634661 -0.0001136274361 -1.274189117e-10)
(0.2906560128 -3.794020098e-05 -1.167990102e-10)
(0.2578036095 2.461852661e-05 -1.069230715e-10)
(0.2163780299 7.648235054e-05 -9.345856501e-11)
(0.1659691042 2.507035531e-05 -7.22385153e-11)
(0.1064628943 0.0001261451053 -4.349480724e-11)
(0.03802117106 -0.0002056865894 -1.297608324e-11)
(0.3567136624 1.555524868e-05 -8.527369125e-11)
(0.345094148 6.038282052e-05 -1.089229477e-10)
(0.3267302176 0.0001279298745 -1.107246306e-10)
(0.3008810379 0.0001947298401 -1.033962032e-10)
(0.2667869106 0.0002209120892 -9.159146099e-11)
(0.2238247036 0.0002150800074 -7.53484078e-11)
(0.171600691 0.0001092862298 -5.470808633e-11)
(0.1100216604 0.0001567466995 -3.166055756e-11)
(0.03927074579 -0.0002048678264 -9.339039224e-12)
(0.36942683 0.0001652103067 -6.488726618e-11)
(0.3573534891 0.0002679379836 -8.777111334e-11)
(0.3382634403 0.0003637718367 -9.324059524e-11)
(0.3113966743 0.0004201651692 -8.791439705e-11)
(0.2759883872 0.0004098318613 -7.601467057e-11)
(0.2314247538 0.0003486844341 -5.964908951e-11)
(0.1773314503 0.000189554494 -4.080293494e-11)
(0.1136340126 0.0001850378355 -2.225860061e-11)
(0.0405359176 -0.0002031003291 -6.312299939e-12)
(0.38257243 0.000309616487 -5.054832081e-11)
(0.3699924125 0.0004671432984 -7.037841448e-11)
(0.3501093838 0.0005889309509 -7.616126703e-11)
(0.3221550983 0.0006346018369 -7.104040732e-11)
(0.2853674137 0.0005888934361 -5.84276503e-11)
(0.2391460615 0.0004752629271 -4.173829656e-11)
(0.183137108 0.0002656071024 -2.319275373e-11)
(0.1172854763 0.0002100234378 -8.760168366e-12)
(0.04181222013 -0.000201825929 -1.691241225e-12)
(0.3960856501 0.000445946078 -3.922101715e-11)
(0.3829495863 0.0006545143858 -5.446207451e-11)
(0.3622121993 0.0007999583825 -5.663200558e-11)
(0.3331073991 0.0008351324227 -4.594334194e-11)
(0.2948829423 0.0007559653002 -2.586050362e-11)
(0.2469560757 0.0005933884391 -1.311002291e-11)
(0.1889942629 0.0003363635851 1.756870054e-11)
(0.1209611435 0.0002329696693 2.797622065e-11)
(0.04309516751 -0.0001996027813 1.028305447e-11)
(0.4098980926 0.0005720492988 -2.471802146e-11)
(0.3961611486 0.0008274514868 -2.829721781e-11)
(0.374514511 0.0009943494949 -1.037981716e-11)
(0.3442040229 0.001019716827 4.305810403e-11)
(0.3044940219 0.0009096199268 1.569023853e-10)
(0.2548227798 0.0007021392157 -3.264611643e-11)
(0.1948799665 0.0004014082257 1.55578907e-10)
(0.1246475005 0.000253972295 1.66189644e-10)
(0.04437951386 -0.0001963824371 4.116411111e-11)
(0.4239389601 0.0006864822763 -1.166834857e-11)
(0.409561809 0.000984225346 -8.647728606e-12)
(0.3869584761 0.001170456341 9.696747383e-12)
(0.3553956596 0.001187017638 4.2920725e-11)
(0.3141603397 0.001048933904 7.573020695e-11)
(0.2627149194 0.0008009157488 5.096247021e-11)
(0.2007719586 0.000460536438 8.028647581e-11)
(0.1283312133 0.0002729715817 6.842181788e-11)
(0.04566072563 -0.0001923431166 2.135108597e-11)
(0.4381367095 0.0007883770917 -2.278047539e-12)
(0.423086181 0.00112381888 3.369716936e-12)
(0.3994867809 0.001327337142 1.747642659e-11)
(0.3666339739 0.001336287568 3.618150421e-11)
(0.3238427729 0.001173410135 4.978453354e-11)
(0.270602434 0.0008893896635 4.780068734e-11)
(0.2066489991 0.0005136433349 4.758961239e-11)
(0.131999591 0.0002898910899 3.42399909e-11)
(0.0469345884 -0.0001876489347 1.088528125e-11)
(0.4524205354 0.0008773554404 3.405011942e-12)
(0.4366699883 0.001245817414 9.686790285e-12)
(0.4120435491 0.001464641139 1.989821219e-11)
(0.3778722521 0.00146726739 3.065290004e-11)
(0.3335038266 0.001282901313 3.699535275e-11)
(0.2784567383 0.0009674599418 3.609369925e-11)
(0.2124910304 0.0005607183634 3.086091915e-11)
(0.1356407291 0.0003046919921 2.009530459e-11)
(0.04819719023 -0.0001824349494 6.253783664e-12)
(0.4667217616 0.0009534330018 6.221614625e-12)
(0.4502511797 0.001350292512 1.219907738e-11)
(0.4245751649 0.001582495788 1.950071696e-11)
(0.389065976 0.001580093225 2.578422135e-11)
(0.3431080171 0.001377542997 2.850623617e-11)
(0.2862509671 0.001035207564 2.666874269e-11)
(0.2182793226 0.0006018305561 2.121686752e-11)
(0.1392435864 0.0003173735019 1.308803383e-11)
(0.04944492615 -0.0001768130586 3.99566158e-12)
(0.4809750214 0.001016933122 7.168855907e-12)
(0.463770876 0.001437695826 1.244954995e-11)
(0.4370309673 0.001681405449 1.766892494e-11)
(0.4001732972 0.001675214844 2.133774299e-11)
(0.3526221777 0.001457695611 2.21689395e-11)
(0.2939601601 0.001092858493 1.988460386e-11)
(0.2239965769 0.0006371166525 1.518451536e-11)
(0.1427980296 0.0003279685545 9.097994884e-12)
(0.05067450769 -0.0001708769184 2.746150962e-12)
(0.4951192151 0.001068408582 7.054081129e-12)
(0.4771741385 0.001508763071 1.153660903e-11)
(0.4493638141 0.001762160101 1.5298005e-11)
(0.4111554193 0.001753324145 1.74338371e-11)
(0.3620157009 0.001523895654 1.734142056e-11)
(0.3015614027 0.001140753325 1.507633624e-11)
(0.2296269984 0.0006667674207 1.124313126e-11)
(0.1462948598 0.0003365347253 6.640685365e-12)
(0.05188296642 -0.0001647067541 1.995510816e-12)
(0.5090982252 0.001108573928 6.4227668e-12)
(0.4904105476 0.001564432751 1.01536013e-11)
(0.4615305081 0.001825758229 1.292479497e-11)
(0.4219768831 0.001815295407 1.420702174e-11)
(0.3712607118 0.001576815384 1.37652934e-11)
(0.3090339174 0.00117932149 1.178140423e-11)
(0.2351563348 0.0006910156084 8.73003651e-12)
(0.1497258212 0.0003431470605 5.163261419e-12)
(0.05306765281 -0.0001583726688 1.559561674e-12)
(0.5228614043 0.001138249634 5.631381145e-12)
(0.5034345986 0.001605781839 8.751253476e-12)
(0.4734920885 0.001873343603 1.093205433e-11)
(0.4326057586 0.001862133522 1.188235689e-11)
(0.380332178 0.001617227337 1.153697864e-11)
(0.3163591148 0.001209059731 1.00402361e-11)
(0.240571891 0.000710127751 7.649239929e-12)
(0.1530835971 0.0003478948678 4.669362893e-12)
(0.05422623086 -0.000151936155 1.445510369e-12)
(0.5363638536 0.001158318878 5.010036149e-12)
(0.5162059301 0.001633973209 7.8364113e-12)
(0.4852139954 0.001906152855 9.995317339e-12)
(0.4430137485 0.001894929894 1.136225197e-11)
(0.3892079606 0.001645974314 1.183984149e-11)