/*--------------------------------*- C++ -*----------------------------------*\
| =========                 |                                                 |
| \\      /  F ield         | OpenFOAM: The Open Source CFD Toolbox           |
|  \\    /   O peration     | Version:  2106                                  |
|   \\  /    A nd           | Website:  www.openfoam.com                      |
|    \\/     M anipulation  |                                                 |
\*---------------------------------------------------------------------------*/
FoamFile
{
    version     2.0;
    format      ascii;
    arch        "LSB;label=32;scalar=64";
    class       volScalarField;
    location    "49.99987";
    object      A2CH3-2_0;
}
// * * * * * * * * * * * * * * * * * * * * * * * * * * * * * * * * * * * * * //

dimensions      [0 0 0 0 0 0 0];

internalField   nonuniform List<scalar> 
3360
(
4.32659e-18
4.46584e-18
4.65962e-18
4.89665e-18
5.16705e-18
5.46195e-18
5.77334e-18
6.094e-18
6.41747e-18
6.73807e-18
7.05088e-18
7.35172e-18
7.63712e-18
7.90434e-18
8.15128e-18
8.37649e-18
8.57905e-18
8.75859e-18
8.91517e-18
9.04927e-18
9.16169e-18
9.2535e-18
9.32603e-18
9.38073e-18
9.41922e-18
9.44316e-18
9.45427e-18
1.89806e-17
1.96784e-17
2.0663e-17
2.18892e-17
2.33193e-17
2.49208e-17
2.66641e-17
2.85227e-17
3.04715e-17
3.24871e-17
3.45467e-17
3.66285e-17
3.87108e-17
4.0772e-17
4.27912e-17
4.47476e-17
4.66211e-17
4.83918e-17
5.00409e-17
5.15509e-17
5.29054e-17
5.40902e-17
5.5093e-17
5.5904e-17
5.6516e-17
5.69247e-17
5.71285e-17
5.95568e-17
6.21711e-17
6.58859e-17
7.05538e-17
7.60527e-17
8.22725e-17
8.91088e-17
9.64585e-17
1.04218e-16
1.12279e-16
1.20535e-16
1.28878e-16
1.37199e-16
1.45394e-16
1.5336e-16
1.61001e-16
1.68226e-16
1.74956e-16
1.8112e-16
1.8666e-16
1.91532e-16
1.95704e-16
1.99158e-16
2.01888e-16
2.03901e-16
2.05213e-16
2.05852e-16
1.73456e-16
1.82073e-16
1.944e-16
2.09996e-16
2.28493e-16
2.49545e-16
2.72807e-16
2.97921e-16
3.24512e-16
3.52186e-16
3.80534e-16
4.09143e-16
4.376e-16
4.65504e-16
4.92474e-16
5.18161e-16
5.42255e-16
5.64493e-16
5.84663e-16
6.02607e-16
6.1822e-16
6.31446e-16
6.42279e-16
6.50751e-16
6.56934e-16
6.60926e-16
6.62852e-16
5.06802e-16
5.33987e-16
5.72951e-16
6.22362e-16
6.81092e-16
7.48054e-16
8.22134e-16
9.02148e-16
9.86837e-16
1.07487e-15
1.16488e-15
1.25547e-15
1.34528e-15
1.43303e-15
1.5175e-15
1.59762e-15
1.67245e-15
1.74124e-15
1.80339e-15
1.85847e-15
1.90623e-15
1.94655e-15
1.97948e-15
2.00516e-15
2.02385e-15
2.03589e-15
2.04168e-15
1.49444e-15
1.57793e-15
1.69775e-15
1.84983e-15
2.03069e-15
2.23695e-15
2.46514e-15
2.71154e-15
2.97219e-15
3.2429e-15
3.51938e-15
3.7973e-15
4.07244e-15
4.3408e-15
4.59869e-15
4.84285e-15
5.07051e-15
5.27938e-15
5.46775e-15
5.63441e-15
5.77865e-15
5.90026e-15
5.9994e-15
6.07662e-15
6.13275e-15
6.16888e-15
6.18624e-15
4.43956e-15
4.69328e-15
5.05737e-15
5.51951e-15
6.06908e-15
6.69571e-15
7.38866e-15
8.13649e-15
8.92698e-15
9.74732e-15
1.05844e-14
1.1425e-14
1.22564e-14
1.30665e-14
1.38443e-14
1.458e-14
1.52654e-14
1.58939e-14
1.64602e-14
1.6961e-14
1.73943e-14
1.77594e-14
1.8057e-14
1.82886e-14
1.8457e-14
1.85653e-14
1.86174e-14
1.32327e-14
1.39963e-14
1.50925e-14
1.64844e-14
1.814e-14
2.00282e-14
2.21162e-14
2.43695e-14
2.67509e-14
2.92217e-14
3.17421e-14
3.42724e-14
3.67739e-14
3.92104e-14
4.15487e-14
4.37596e-14
4.58184e-14
4.77052e-14
4.94048e-14
5.0907e-14
5.22061e-14
5.33003e-14
5.41917e-14
5.48856e-14
5.53896e-14
5.57138e-14
5.58696e-14
3.95466e-14
4.18415e-14
4.51357e-14
4.9318e-14
5.42921e-14
5.99636e-14
6.62342e-14
7.29991e-14
8.01466e-14
8.75597e-14
9.5119e-14
1.02705e-13
1.10203e-13
1.17503e-13
1.24507e-13
1.31128e-13
1.37291e-13
1.42939e-13
1.48026e-13
1.52521e-13
1.56409e-13
1.59683e-13
1.6235e-13
1.64426e-13
1.65934e-13
1.66904e-13
1.6737e-13
1.18195e-13
1.25069e-13
1.34939e-13
1.4747e-13
1.62373e-13
1.79367e-13
1.98154e-13
2.18421e-13
2.39831e-13
2.62035e-13
2.84673e-13
3.07387e-13
3.29832e-13
3.51682e-13
3.7264e-13
3.92448e-13
4.10884e-13
4.27773e-13
4.42981e-13
4.56417e-13
4.68032e-13
4.77813e-13
4.8578e-13
4.91978e-13
4.96481e-13
4.99376e-13
5.00767e-13
3.53434e-13
3.74016e-13
4.0356e-13
4.41063e-13
4.85658e-13
5.36494e-13
5.92682e-13
6.53277e-13
7.17272e-13
7.83617e-13
8.51237e-13
9.19064e-13
9.86065e-13
1.05127e-12
1.1138e-12
1.17288e-12
1.22786e-12
1.27821e-12
1.32354e-12
1.36358e-12
1.39819e-12
1.42734e-12
1.45107e-12
1.46954e-12
1.48295e-12
1.49158e-12
1.49572e-12
1.05587e-12
1.11733e-12
1.20555e-12
1.31753e-12
1.45065e-12
1.60236e-12
1.77e-12
1.95073e-12
2.14154e-12
2.33929e-12
2.54077e-12
2.74279e-12
2.94228e-12
3.13635e-12
3.32239e-12
3.49809e-12
3.66154e-12
3.81118e-12
3.94585e-12
4.06478e-12
4.16754e-12
4.25404e-12
4.32446e-12
4.37925e-12
4.41902e-12
4.44459e-12
4.45688e-12
3.15103e-12
3.33426e-12
3.59716e-12
3.9307e-12
4.32705e-12
4.7785e-12
5.27705e-12
5.81421e-12
6.38097e-12
6.96794e-12
7.5656e-12
8.16447e-12
8.75546e-12
9.33004e-12
9.88051e-12
1.04001e-11
1.08832e-11
1.13253e-11
1.1723e-11
1.2074e-11
1.23772e-11
1.26324e-11
1.284e-11
1.30015e-11
1.31187e-11
1.31941e-11
1.32303e-11
9.37682e-12
9.92058e-12
1.07005e-11
1.16895e-11
1.2864e-11
1.42009e-11
1.56762e-11
1.72644e-11
1.89386e-11
2.06711e-11
2.24334e-11
2.41978e-11
2.59373e-11
2.7627e-11
2.92443e-11
3.07696e-11
3.21866e-11
3.34822e-11
3.46469e-11
3.56742e-11
3.6561e-11
3.73067e-11
3.79132e-11
3.83847e-11
3.87268e-11
3.89466e-11
3.90521e-11
2.78041e-11
2.9409e-11
3.17092e-11
3.46236e-11
3.80813e-11
4.20125e-11
4.63453e-11
5.10036e-11
5.59076e-11
6.09749e-11
6.61223e-11
7.12682e-11
7.63345e-11
8.1249e-11
8.59469e-11
9.03721e-11
9.44779e-11
9.82279e-11
1.01595e-10
1.04563e-10
1.07122e-10
1.09272e-10
1.1102e-10
1.12378e-10
1.13362e-10
1.13995e-10
1.14298e-10
8.19634e-11
8.66545e-11
9.33724e-11
1.01874e-10
1.11947e-10
1.23382e-10
1.35963e-10
1.49466e-10
1.63654e-10
1.78287e-10
1.93123e-10
2.07925e-10
2.22472e-10
2.36556e-10
2.49996e-10
2.62633e-10
2.74339e-10
2.85013e-10
2.94584e-10
3.03007e-10
3.10262e-10
3.1635e-10
3.21293e-10
3.25129e-10
3.27909e-10
3.29692e-10
3.30547e-10
2.39757e-10
2.53292e-10
2.72648e-10
2.97105e-10
3.26023e-10
3.58779e-10
3.94734e-10
4.33224e-10
4.73563e-10
5.15056e-10
5.57012e-10
5.98765e-10
6.39688e-10
6.79212e-10
7.16834e-10
7.52129e-10
7.84751e-10
8.14438e-10
8.41005e-10
8.64342e-10
8.84409e-10
9.01225e-10
9.14859e-10
9.25427e-10
9.33074e-10
9.37976e-10
9.40324e-10
6.93943e-10
7.32271e-10
7.86994e-10
8.55979e-10
9.37333e-10
1.02921e-09
1.12974e-09
1.23699e-09
1.34901e-09
1.46384e-09
1.57954e-09
1.69428e-09
1.80637e-09
1.91428e-09
2.01668e-09
2.11247e-09
2.20076e-09
2.2809e-09
2.35244e-09
2.41515e-09
2.46895e-09
2.51396e-09
2.55039e-09
2.57858e-09
2.59896e-09
2.612e-09
2.61825e-09
1.98067e-09
2.08655e-09
2.23737e-09
2.42693e-09
2.64971e-09
2.90033e-09
3.17343e-09
3.46356e-09
3.76525e-09
4.07314e-09
4.38205e-09
4.68713e-09
4.98393e-09
5.26855e-09
5.53765e-09
5.78849e-09
6.01895e-09
6.22749e-09
6.41315e-09
6.57546e-09
6.71441e-09
6.83039e-09
6.92409e-09
6.99647e-09
7.0487e-09
7.08209e-09
7.09805e-09
5.5505e-09
5.83362e-09
6.23577e-09
6.7394e-09
7.32878e-09
7.98874e-09
8.7043e-09
9.46061e-09
1.0243e-08
1.10374e-08
1.18304e-08
1.26098e-08
1.33646e-08
1.40851e-08
1.47636e-08
1.53935e-08
1.59702e-08
1.64903e-08
1.69519e-08
1.73543e-08
1.76979e-08
1.79841e-08
1.82148e-08
1.83927e-08
1.85208e-08
1.86027e-08
1.86417e-08
1.51938e-08
1.5921e-08
1.69506e-08
1.82346e-08
1.97299e-08
2.13953e-08
2.31909e-08
2.50779e-08
2.7019e-08
2.89786e-08
3.09243e-08
3.28265e-08
3.46594e-08
3.64012e-08
3.8034e-08
3.9544e-08
4.09211e-08
4.21589e-08
4.3254e-08
4.4206e-08
4.50168e-08
4.56904e-08
4.62324e-08
4.66495e-08
4.69495e-08
4.71408e-08
4.7232e-08
4.03888e-08
4.21703e-08
4.46836e-08
4.7804e-08
5.1419e-08
5.5423e-08
5.97148e-08
6.41984e-08
6.87833e-08
7.3386e-08
7.79306e-08
8.23507e-08
8.65888e-08
9.05978e-08
9.43399e-08
9.77869e-08
1.00919e-07
1.03725e-07
1.062e-07
1.08346e-07
1.1017e-07
1.11681e-07
1.12895e-07
1.13827e-07
1.14497e-07
1.14923e-07
1.15126e-07
1.03655e-07
1.07797e-07
1.13621e-07
1.20819e-07
1.29116e-07
1.38257e-07
1.47999e-07
1.5812e-07
1.68413e-07
1.78689e-07
1.88785e-07
1.98556e-07
2.07884e-07
2.16669e-07
2.24838e-07
2.32336e-07
2.39128e-07
2.45194e-07
2.5053e-07
2.55146e-07
2.59059e-07
2.62296e-07
2.64891e-07
2.66881e-07
2.68309e-07
2.69217e-07
2.69649e-07
2.55578e-07
2.64705e-07
2.77498e-07
2.93248e-07
3.11323e-07
3.31138e-07
3.52156e-07
3.73882e-07
3.95869e-07
4.17723e-07
4.39096e-07
4.59698e-07
4.79288e-07
4.97674e-07
5.14714e-07
5.30308e-07
5.44393e-07
5.56942e-07
5.67957e-07
5.77464e-07
5.85509e-07
5.92154e-07
5.97473e-07
6.01548e-07
6.04467e-07
6.06321e-07
6.07203e-07
6.03663e-07
6.22769e-07
6.49482e-07
6.82265e-07
7.19749e-07
7.60685e-07
8.03931e-07
8.48458e-07
8.93349e-07
9.378e-07
9.81124e-07
1.02275e-06
1.0622e-06
1.09913e-06
1.13327e-06
1.16443e-06
1.19252e-06
1.2175e-06
1.23939e-06
1.25825e-06
1.27418e-06
1.28733e-06
1.29784e-06
1.30588e-06
1.31164e-06
1.31529e-06
1.31703e-06
1.36506e-06
1.40327e-06
1.45658e-06
1.52185e-06
1.59628e-06
1.67733e-06
1.76269e-06
1.85032e-06
1.93841e-06
2.0254e-06
2.10995e-06
2.19098e-06
2.26761e-06
2.33918e-06
2.4052e-06
2.46537e-06
2.5195e-06
2.56756e-06
2.60962e-06
2.64581e-06
2.67635e-06
2.70152e-06
2.72163e-06
2.73701e-06
2.748e-06
2.75498e-06
2.75829e-06
2.95935e-06
3.03282e-06
3.13521e-06
3.26034e-06
3.40273e-06
3.55745e-06
3.72006e-06
3.88663e-06
4.05372e-06
4.21837e-06
4.37812e-06
4.53093e-06
4.67521e-06
4.80975e-06
4.93369e-06
5.04648e-06
5.14785e-06
5.23774e-06
5.31632e-06
5.38389e-06
5.44087e-06
5.4878e-06
5.52525e-06
5.55388e-06
5.57433e-06
5.58731e-06
5.59346e-06
6.16234e-06
6.29909e-06
6.4895e-06
6.72194e-06
6.98614e-06
7.27284e-06
7.57377e-06
7.88162e-06
8.19004e-06
8.4936e-06
8.78779e-06
9.0689e-06
9.33406e-06
9.58108e-06
9.80843e-06
1.00152e-05
1.02008e-05
1.03654e-05
1.05091e-05
1.06326e-05
1.07368e-05
1.08225e-05
1.08908e-05
1.0943e-05
1.09804e-05
1.1004e-05
1.10152e-05
1.2344e-05
1.25919e-05
1.2937e-05
1.3358e-05
1.38363e-05
1.43551e-05
1.48993e-05
1.54557e-05
1.60129e-05
1.6561e-05
1.7092e-05
1.75992e-05
1.80773e-05
1.85226e-05
1.89324e-05
1.93048e-05
1.96392e-05
1.99354e-05
2.01941e-05
2.04163e-05
2.06036e-05
2.07577e-05
2.08806e-05
2.09744e-05
2.10415e-05
2.10839e-05
2.11041e-05
2.37831e-05
2.42213e-05
2.48312e-05
2.55754e-05
2.64208e-05
2.73378e-05
2.82999e-05
2.92838e-05
3.02692e-05
3.12389e-05
3.21784e-05
3.3076e-05
3.39226e-05
3.47111e-05
3.54368e-05
3.60967e-05
3.66892e-05
3.72142e-05
3.76727e-05
3.80666e-05
3.83986e-05
3.86717e-05
3.88896e-05
3.90559e-05
3.91747e-05
3.925e-05
3.92857e-05
4.39421e-05
4.46906e-05
4.57324e-05
4.70039e-05
4.84488e-05
5.00164e-05
5.16617e-05
5.33449e-05
5.50314e-05
5.66917e-05
5.83011e-05
5.98395e-05
6.1291e-05
6.26437e-05
6.38891e-05
6.50218e-05
6.60393e-05
6.69412e-05
6.77291e-05
6.84062e-05
6.89768e-05
6.94464e-05
6.9821e-05
7.0107e-05
7.03113e-05
7.04407e-05
7.0502e-05
7.74456e-05
7.86576e-05
8.03441e-05
8.24015e-05
8.47384e-05
8.72726e-05
8.99308e-05
9.26488e-05
9.53706e-05
9.80487e-05
0.000100643
0.000103122
0.00010546
0.000107637
0.000109641
0.000111462
0.000113098
0.000114547
0.000115813
0.0001169
0.000117816
0.000118569
0.00011917
0.000119629
0.000119956
0.000120164
0.000120262
0.000129475
0.000131296
0.000133827
0.00013691
0.000140406
0.00014419
0.000148152
0.000152195
0.000156234
0.000160201
0.000164036
0.000167692
0.000171133
0.000174332
0.000177271
0.000179939
0.00018233
0.000184445
0.000186289
0.000187872
0.000189203
0.000190298
0.00019117
0.000191835
0.00019231
0.000192611
0.000192753
0.000204561
0.000207071
0.000210555
0.000214791
0.000219583
0.000224757
0.000230158
0.000235655
0.000241132
0.000246495
0.000251667
0.000256584
0.000261201
0.000265484
0.000269412
0.00027297
0.000276157
0.000278973
0.000281427
0.000283532
0.000285302
0.000286758
0.000287917
0.000288802
0.000289434
0.000289834
0.000290024
0.000305266
0.000308458
0.000312881
0.000318249
0.000324308
0.000330834
0.000337632
0.000344533
0.000351398
0.000358107
0.000364567
0.000370702
0.000376458
0.000381793
0.000386682
0.00039111
0.000395073
0.000398576
0.000401628
0.000404245
0.000406448
0.000408259
0.000409702
0.000410804
0.000411591
0.00041209
0.000412326
0.000431597
0.000435404
0.000440677
0.00044707
0.000454282
0.000462043
0.000470121
0.000478316
0.000486461
0.000494415
0.00050207
0.000509336
0.00051615
0.000522464
0.000528249
0.000533489
0.000538179
0.000542324
0.000545937
0.000549037
0.000551646
0.000553792
0.000555503
0.00055681
0.000557745
0.000558337
0.000558618
0.000581992
0.000586348
0.00059238
0.000599691
0.000607933
0.0006168
0.000626026
0.000635381
0.000644674
0.000653749
0.000662479
0.000670766
0.000678535
0.000685735
0.000692332
0.000698307
0.000703657
0.000708386
0.000712509
0.000716047
0.000719027
0.000721478
0.000723434
0.000724929
0.000725998
0.000726676
0.000726998
0.000754161
0.000758999
0.000765696
0.000773813
0.000782962
0.000792802
0.000803037
0.000813415
0.000823723
0.000833787
0.000843468
0.000852657
0.000861273
0.000869258
0.000876574
0.000883203
0.000889138
0.000894385
0.000898962
0.00090289
0.000906199
0.000908922
0.000911096
0.000912757
0.000913946
0.0009147
0.000915059
0.00094543
0.000950687
0.000957962
0.000966778
0.000976714
0.000987399
0.000998513
0.00100978
0.00102097
0.00103189
0.0010424
0.00105238
0.00106173
0.0010704
0.00107834
0.00108554
0.00109198
0.00109768
0.00110265
0.00110692
0.00111051
0.00111347
0.00111583
0.00111764
0.00111893
0.00111975
0.00112014
0.00115304
0.00115865
0.00116642
0.00117584
0.00118645
0.00119786
0.00120972
0.00122175
0.0012337
0.00124536
0.00125657
0.00126722
0.0012772
0.00128645
0.00129492
0.0013026
0.00130948
0.00131556
0.00132087
0.00132542
0.00132926
0.00133242
0.00133494
0.00133687
0.00133825
0.00133913
0.00133955
0.0013743
0.00138021
0.0013884
0.00139832
0.0014095
0.00142152
0.00143402
0.00144668
0.00145926
0.00147154
0.00148335
0.00149455
0.00150506
0.0015148
0.00152372
0.0015318
0.00153904
0.00154544
0.00155102
0.00155582
0.00155986
0.00156318
0.00156584
0.00156787
0.00156932
0.00157024
0.00157068
0.00160669
0.00161286
0.00162139
0.00163173
0.00164337
0.00165589
0.00166891
0.0016821
0.0016952
0.00170798
0.00172028
0.00173194
0.00174287
0.00175301
0.00176229
0.0017707
0.00177823
0.00178489
0.0017907
0.00179569
0.00179989
0.00180335
0.00180611
0.00180822
0.00180973
0.00181069
0.00181115
0.00184793
0.0018543
0.00186311
0.00187378
0.0018858
0.00189872
0.00191216
0.00192577
0.00193928
0.00195246
0.00196514
0.00197717
0.00198844
0.00199889
0.00200845
0.00201712
0.00202488
0.00203175
0.00203773
0.00204287
0.0020472
0.00205076
0.00205361
0.00205579
0.00205734
0.00205833
0.0020588
0.00209597
0.00210249
0.00211152
0.00212245
0.00213476
0.00214799
0.00216175
0.00217568
0.00218951
0.002203
0.00221597
0.00222828
0.00223981
0.00225049
0.00226028
0.00226914
0.00227708
0.00228409
0.00229021
0.00229546
0.00229989
0.00230353
0.00230644
0.00230867
0.00231026
0.00231127
0.00231175
0.002349
0.00235564
0.00236483
0.00237595
0.00238848
0.00240194
0.00241593
0.0024301
0.00244416
0.00245788
0.00247106
0.00248357
0.00249529
0.00250614
0.00251608
0.00252509
0.00253315
0.00254027
0.00254649
0.00255182
0.00255632
0.00256001
0.00256297
0.00256523
0.00256684
0.00256787
0.00256835
0.00260548
0.0026122
0.00262149
0.00263274
0.00264542
0.00265904
0.00267319
0.00268752
0.00270174
0.00271561
0.00272893
0.00274158
0.00275342
0.00276439
0.00277443
0.00278353
0.00279167
0.00279887
0.00280514
0.00281053
0.00281507
0.0028188
0.00282178
0.00282406
0.00282569
0.00282673
0.00282722
0.00286404
0.00287081
0.00288017
0.00289151
0.00290427
0.00291798
0.00293223
0.00294665
0.00296096
0.00297492
0.00298833
0.00300105
0.00301296
0.00302399
0.00303409
0.00304324
0.00305143
0.00305866
0.00306497
0.00307039
0.00307495
0.0030787
0.0030817
0.00308399
0.00308563
0.00308667
0.00308716
0.00312357
0.00313035
0.00313974
0.00315111
0.00316391
0.00317766
0.00319195
0.00320641
0.00322075
0.00323474
0.00324819
0.00326093
0.00327287
0.00328392
0.00329404
0.0033032
0.0033114
0.00331865
0.00332496
0.00333039
0.00333495
0.00333871
0.00334171
0.003344
0.00334565
0.00334669
0.00334718
0.00338307
0.00338986
0.00339925
0.00341061
0.00342341
0.00343715
0.00345142
0.00346587
0.0034802
0.00349418
0.00350761
0.00352033
0.00353225
0.00354329
0.00355339
0.00356254
0.00357073
0.00357796
0.00358427
0.00358968
0.00359424
0.00359799
0.00360098
0.00360327
0.00360491
0.00360595
0.00360644
0.00364176
0.00364852
0.00365788
0.00366921
0.00368196
0.00369565
0.00370987
0.00372427
0.00373855
0.00375247
0.00376584
0.00377852
0.00379039
0.00380138
0.00381144
0.00382054
0.00382869
0.00383589
0.00384217
0.00384756
0.00385209
0.00385582
0.0038588
0.00386108
0.00386271
0.00386374
0.00386424
0.00389893
0.00390566
0.00391496
0.00392623
0.0039389
0.00395251
0.00396665
0.00398096
0.00399515
0.00400898
0.00402227
0.00403486
0.00404665
0.00405757
0.00406756
0.00407661
0.0040847
0.00409185
0.00409808
0.00410343
0.00410794
0.00411164
0.0041146
0.00411686
0.00411848
0.00411951
0.00411999
0.00415404
0.00416072
0.00416995
0.00418112
0.00419369
0.00420719
0.00422121
0.0042354
0.00424948
0.00426319
0.00427637
0.00428885
0.00430055
0.00431137
0.00432127
0.00433024
0.00433826
0.00434534
0.00435152
0.00435682
0.00436128
0.00436496
0.00436789
0.00437013
0.00437173
0.00437275
0.00437323
0.00440661
0.00441322
0.00442236
0.00443342
0.00444587
0.00445924
0.00447312
0.00448717
0.0045011
0.00451468
0.00452772
0.00454007
0.00455164
0.00456235
0.00457215
0.00458102
0.00458896
0.00459597
0.00460208
0.00460733
0.00461174
0.00461537
0.00461827
0.00462049
0.00462207
0.00462308
0.00462356
0.00465625
0.00466278
0.00467182
0.00468276
0.00469507
0.00470828
0.004722
0.00473589
0.00474966
0.00476308
0.00477596
0.00478817
0.00479961
0.00481019
0.00481987
0.00482864
0.00483648
0.0048434
0.00484944
0.00485462
0.00485898
0.00486257
0.00486543
0.00486762
0.00486918
0.00487018
0.00487065
0.00490265
0.0049091
0.00491802
0.00492882
0.00494097
0.00495402
0.00496756
0.00498127
0.00499486
0.0050081
0.00502082
0.00503287
0.00504415
0.0050546
0.00506415
0.0050728
0.00508053
0.00508737
0.00509332
0.00509843
0.00510273
0.00510627
0.0051091
0.00511125
0.0051128
0.00511378
0.00511425
0.00514555
0.00515191
0.00516071
0.00517135
0.00518334
0.0051962
0.00520956
0.00522307
0.00523647
0.00524952
0.00526206
0.00527394
0.00528506
0.00529535
0.00530477
0.00531329
0.00532091
0.00532765
0.00533352
0.00533855
0.00534279
0.00534628
0.00534906
0.00535119
0.00535271
0.00535368
0.00535413
0.00538474
0.00539101
0.00539967
0.00541016
0.00542197
0.00543464
0.00544779
0.0054611
0.0054743
0.00548715
0.0054995
0.0055112
0.00552215
0.00553228
0.00554155
0.00554994
0.00555745
0.00556408
0.00556985
0.00557481
0.00557898
0.00558242
0.00558516
0.00558725
0.00558875
0.0055897
0.00559015
0.00562006
0.00562623
0.00563476
0.00564508
0.0056567
0.00566916
0.00568211
0.00569521
0.00570819
0.00572084
0.00573299
0.0057445
0.00575527
0.00576524
0.00577436
0.00578261
0.00578999
0.00579652
0.0058022
0.00580707
0.00581118
0.00581455
0.00581725
0.00581931
0.00582078
0.00582172
0.00582216
0.00585138
0.00585744
0.00586583
0.00587598
0.0058874
0.00589966
0.00591239
0.00592527
0.00593803
0.00595047
0.00596241
0.00597372
0.00598431
0.00599411
0.00600308
0.00601119
0.00601845
0.00602486
0.00603044
0.00603523
0.00603927
0.00604259
0.00604523
0.00604726
0.00604871
0.00604962
0.00605006
0.00607859
0.00608455
0.0060928
0.00610277
0.00611399
0.00612604
0.00613854
0.00615119
0.00616373
0.00617595
0.00618768
0.0061988
0.0062092
0.00621883
0.00622763
0.0062356
0.00624273
0.00624902
0.00625451
0.00625921
0.00626318
0.00626644
0.00626904
0.00627102
0.00627245
0.00627335
0.00627378
0.00630163
0.00630748
0.00631558
0.00632537
0.00633639
0.00634822
0.00636049
0.00637292
0.00638523
0.00639722
0.00640874
0.00641965
0.00642986
0.00643931
0.00644796
0.00645578
0.00646277
0.00646895
0.00647434
0.00647896
0.00648284
0.00648604
0.0064886
0.00649055
0.00649194
0.00649283
0.00649325
0.00652043
0.00652617
0.00653411
0.00654372
0.00655454
0.00656614
0.00657819
0.00659038
0.00660246
0.00661423
0.00662553
0.00663623
0.00664625
0.00665552
0.006664
0.00667168
0.00667854
0.0066846
0.00668988
0.00669441
0.00669823
0.00670137
0.00670387
0.00670578
0.00670715
0.00670802
0.00670843
0.00673495
0.00674058
0.00674837
0.0067578
0.0067684
0.00677978
0.0067916
0.00680355
0.0068154
0.00682694
0.00683802
0.00684852
0.00685834
0.00686743
0.00687575
0.00688327
0.00689
0.00689594
0.00690112
0.00690556
0.0069093
0.00691238
0.00691483
0.00691671
0.00691805
0.0069189
0.00691931
0.00694516
0.00695068
0.00695832
0.00696756
0.00697795
0.00698911
0.00700069
0.0070124
0.00702402
0.00703533
0.00704619
0.00705648
0.0070661
0.00707501
0.00708316
0.00709053
0.00709713
0.00710295
0.00710803
0.00711238
0.00711604
0.00711906
0.00712146
0.0071233
0.00712461
0.00712545
0.00712584
0.00715104
0.00715645
0.00716393
0.00717299
0.00718317
0.0071941
0.00720545
0.00721692
0.0072283
0.00723938
0.00725002
0.00726009
0.00726953
0.00727825
0.00728623
0.00729345
0.00729991
0.00730562
0.00731059
0.00731485
0.00731844
0.00732139
0.00732375
0.00732555
0.00732683
0.00732765
0.00732804
0.00735259
0.00735789
0.00736521
0.00737408
0.00738405
0.00739475
0.00740586
0.0074171
0.00742823
0.00743908
0.0074495
0.00745937
0.0074686
0.00747714
0.00748496
0.00749203
0.00749835
0.00750393
0.0075088
0.00751297
0.00751648
0.00751937
0.00752168
0.00752344
0.0075247
0.0075255
0.00752588
0.00754978
0.00755497
0.00756214
0.00757081
0.00758057
0.00759105
0.00760192
0.00761292
0.00762382
0.00763444
0.00764463
0.00765428
0.00766332
0.00767167
0.00767932
0.00768624
0.00769243
0.00769789
0.00770265
0.00770673
0.00771017
0.007713
0.00771525
0.00771698
0.00771821
0.00771899
0.00771936
0.00774262
0.00774769
0.00775471
0.00776319
0.00777274
0.00778299
0.00779362
0.00780438
0.00781504
0.00782542
0.00783539
0.00784483
0.00785367
0.00786185
0.00786932
0.00787609
0.00788214
0.00788748
0.00789214
0.00789613
0.00789949
0.00790226
0.00790446
0.00790615
0.00790735
0.00790812
0.00790848
0.00793109
0.00793605
0.00794291
0.00795121
0.00796054
0.00797056
0.00798095
0.00799147
0.00800189
0.00801204
0.00802179
0.00803102
0.00803965
0.00804764
0.00805495
0.00806157
0.00806748
0.0080727
0.00807725
0.00808115
0.00808444
0.00808714
0.0080893
0.00809094
0.00809212
0.00809287
0.00809322
0.00811519
0.00812004
0.00812674
0.00813484
0.00814396
0.00815375
0.0081639
0.00817418
0.00818436
0.00819427
0.00820379
0.00821281
0.00822125
0.00822905
0.00823619
0.00824265
0.00824843
0.00825353
0.00825797
0.00826178
0.00826499
0.00826763
0.00826974
0.00827135
0.0082725
0.00827323
0.00827357
0.00829488
0.00829962
0.00830616
0.00831407
0.00832298
0.00833253
0.00834245
0.00835248
0.00836241
0.0083721
0.00838139
0.00839019
0.00839843
0.00840604
0.00841301
0.00841932
0.00842496
0.00842994
0.00843427
0.00843799
0.00844112
0.0084437
0.00844575
0.00844733
0.00844845
0.00844916
0.0084495
0.00847015
0.00847476
0.00848115
0.00848887
0.00849755
0.00850687
0.00851655
0.00852633
0.00853603
0.00854547
0.00855453
0.00856312
0.00857115
0.00857858
0.00858538
0.00859153
0.00859703
0.00860188
0.00860611
0.00860974
0.00861279
0.0086153
0.00861731
0.00861884
0.00861993
0.00862063
0.00862096
0.00864093
0.00864543
0.00865165
0.00865917
0.00866764
0.00867672
0.00868615
0.00869568
0.00870513
0.00871434
0.00872317
0.00873153
0.00873936
0.0087466
0.00875322
0.00875921
0.00876457
0.0087693
0.00877342
0.00877695
0.00877993
0.00878238
0.00878433
0.00878582
0.00878689
0.00878756
0.00878789
0.00880715
0.00881153
0.00881759
0.00882492
0.00883316
0.008842
0.00885118
0.00886046
0.00886965
0.00887861
0.00888721
0.00889535
0.00890296
0.00891001
0.00891646
0.00892228
0.0089275
0.0089321
0.00893611
0.00893955
0.00894244
0.00894482
0.00894672
0.00894817
0.00894921
0.00894987
0.00895018
0.00896872
0.00897298
0.00897886
0.00898599
0.008994
0.00900259
0.00901151
0.00902053
0.00902947
0.00903818
0.00904653
0.00905444
0.00906184
0.00906869
0.00907495
0.00908061
0.00908568
0.00909015
0.00909404
0.00909738
0.0091002
0.00910251
0.00910435
0.00910576
0.00910677
0.00910741
0.00910772
0.00912548
0.00912961
0.00913532
0.00914223
0.00915001
0.00915835
0.009167
0.00917575
0.00918442
0.00919287
0.00920097
0.00920864
0.00921582
0.00922246
0.00922853
0.00923402
0.00923893
0.00924327
0.00924704
0.00925028
0.00925301
0.00925525
0.00925704
0.0092584
0.00925938
0.00926
0.0092603
0.00927723
0.00928123
0.00928676
0.00929345
0.00930098
0.00930905
0.00931743
0.0093259
0.00933428
0.00934246
0.00935029
0.00935772
0.00936466
0.00937108
0.00937696
0.00938227
0.00938702
0.00939121
0.00939486
0.00939799
0.00940063
0.0094028
0.00940452
0.00940585
0.00940679
0.00940739
0.00940767
0.00942372
0.00942758
0.00943292
0.00943937
0.00944663
0.00945442
0.0094625
0.00947067
0.00947877
0.00948665
0.00949421
0.00950136
0.00950806
0.00951425
0.00951991
0.00952503
0.00952961
0.00953365
0.00953717
0.00954019
0.00954273
0.00954482
0.00954648
0.00954775
0.00954866
0.00954924
0.00954952
0.00956458
0.0095683
0.00957343
0.00957963
0.00958661
0.0095941
0.00960186
0.00960971
0.00961748
0.00962505
0.00963231
0.00963918
0.00964561
0.00965156
0.00965699
0.0096619
0.0096663
0.00967017
0.00967355
0.00967644
0.00967888
0.00968088
0.00968248
0.0096837
0.00968457
0.00968513
0.00968539
0.00969939
0.00970294
0.00970784
0.00971378
0.00972045
0.0097276
0.00973502
0.00974253
0.00974995
0.00975718
0.00976411
0.00977068
0.00977681
0.00978248
0.00978767
0.00979236
0.00979655
0.00980025
0.00980347
0.00980623
0.00980855
0.00981046
0.00981198
0.00981315
0.00981398
0.00981451
0.00981476
0.00982757
0.00983095
0.00983561
0.00984124
0.00984758
0.00985437
0.00986141
0.00986853
0.00987557
0.00988243
0.009889
0.00989522
0.00990104
0.00990641
0.00991132
0.00991576
0.00991973
0.00992323
0.00992628
0.00992889
0.00993109
0.0099329
0.00993434
0.00993544
0.00993623
0.00993672
0.00993696
0.00994847
0.00995165
0.00995604
0.00996134
0.0099673
0.00997369
0.00998032
0.00998701
0.00999363
0.0100001
0.0100062
0.0100121
0.0100175
0.0100226
0.0100272
0.0100314
0.0100351
0.0100384
0.0100412
0.0100437
0.0100457
0.0100474
0.0100488
0.0100498
0.0100505
0.010051
0.0100512
0.0100613
0.0100643
0.0100684
0.0100733
0.0100788
0.0100848
0.0100909
0.0100972
0.0101033
0.0101093
0.010115
0.0101204
0.0101255
0.0101302
0.0101344
0.0101383
0.0101417
0.0101448
0.0101474
0.0101497
0.0101516
0.0101531
0.0101544
0.0101553
0.010156
0.0101565
0.0101567
0.0101652
0.010168
0.0101717
0.0101762
0.0101813
0.0101867
0.0101924
0.0101981
0.0102037
0.0102091
0.0102144
0.0102193
0.0102239
0.0102282
0.0102321
0.0102356
0.0102387
0.0102415
0.0102439
0.0102459
0.0102477
0.0102491
0.0102502
0.0102511
0.0102517
0.0102521
0.0102523
0.0102593
0.0102618
0.0102651
0.0102692
0.0102738
0.0102787
0.0102837
0.0102888
0.0102939
0.0102988
0.0103034
0.0103079
0.010312
0.0103158
0.0103193
0.0103224
0.0103252
0.0103277
0.0103298
0.0103316
0.0103332
0.0103344
0.0103354
0.0103362
0.0103368
0.0103371
0.0103373
0.0103429
0.010345
0.010348
0.0103516
0.0103556
0.0103599
0.0103643
0.0103688
0.0103733
0.0103776
0.0103817
0.0103855
0.0103891
0.0103925
0.0103955
0.0103982
0.0104007
0.0104028
0.0104047
0.0104063
0.0104077
0.0104088
0.0104096
0.0104103
0.0104108
0.0104111
0.0104112
0.0104154
0.0104173
0.0104199
0.010423
0.0104264
0.0104301
0.0104339
0.0104378
0.0104416
0.0104453
0.0104488
0.0104521
0.0104552
0.0104581
0.0104606
0.010463
0.0104651
0.0104669
0.0104685
0.0104699
0.010471
0.0104719
0.0104727
0.0104733
0.0104737
0.0104739
0.010474
0.0104771
0.0104786
0.0104808
0.0104834
0.0104863
0.0104894
0.0104926
0.0104958
0.010499
0.0105021
0.010505
0.0105078
0.0105104
0.0105128
0.0105149
0.0105169
0.0105186
0.0105201
0.0105214
0.0105226
0.0105235
0.0105243
0.0105249
0.0105254
0.0105257
0.0105259
0.0105261
0.0105281
0.0105294
0.0105312
0.0105333
0.0105357
0.0105382
0.0105408
0.0105435
0.0105461
0.0105486
0.010551
0.0105532
0.0105553
0.0105572
0.010559
0.0105606
0.010562
0.0105632
0.0105643
0.0105652
0.010566
0.0105666
0.0105671
0.0105675
0.0105678
0.0105679
0.010568
0.0105693
0.0105704
0.0105718
0.0105735
0.0105754
0.0105774
0.0105795
0.0105816
0.0105837
0.0105857
0.0105876
0.0105894
0.010591
0.0105926
0.010594
0.0105952
0.0105963
0.0105973
0.0105982
0.0105989
0.0105995
0.0106
0.0106004
0.0106007
0.0106009
0.010601
0.0106011
0.0106019
0.0106027
0.0106038
0.0106052
0.0106066
0.0106082
0.0106099
0.0106115
0.0106131
0.0106147
0.0106161
0.0106175
0.0106188
0.01062
0.0106211
0.0106221
0.0106229
0.0106237
0.0106244
0.0106249
0.0106254
0.0106258
0.0106261
0.0106263
0.0106265
0.0106266
0.0106266
0.0106271
0.0106277
0.0106286
0.0106296
0.0106307
0.010632
0.0106332
0.0106345
0.0106357
0.0106369
0.010638
0.0106391
0.0106401
0.010641
0.0106418
0.0106425
0.0106432
0.0106438
0.0106443
0.0106447
0.0106451
0.0106454
0.0106456
0.0106458
0.0106459
0.010646
0.010646
0.0106463
0.0106468
0.0106474
0.0106482
0.010649
0.01065
0.0106509
0.0106518
0.0106528
0.0106537
0.0106545
0.0106553
0.0106561
0.0106567
0.0106574
0.0106579
0.0106584
0.0106589
0.0106592
0.0106596
0.0106598
0.01066
0.0106602
0.0106604
0.0106605
0.0106605
0.0106605
0.0106607
0.0106611
0.0106616
0.0106621
0.0106628
0.0106635
0.0106642
0.0106649
0.0106655
0.0106662
0.0106668
0.0106674
0.010668
0.0106685
0.010669
0.0106694
0.0106697
0.0106701
0.0106703
0.0106706
0.0106708
0.010671
0.0106711
0.0106712
0.0106713
0.0106713
0.0106713
0.0106715
0.0106717
0.0106721
0.0106725
0.010673
0.0106735
0.010674
0.0106745
0.010675
0.0106755
0.010676
0.0106764
0.0106768
0.0106772
0.0106775
0.0106778
0.0106781
0.0106783
0.0106785
0.0106787
0.0106789
0.010679
0.0106791
0.0106792
0.0106792
0.0106792
0.0106793
0.0106794
0.0106796
0.0106798
0.0106801
0.0106805
0.0106809
0.0106812
0.0106816
0.010682
0.0106823
0.0106827
0.010683
0.0106833
0.0106836
0.0106838
0.010684
0.0106842
0.0106844
0.0106846
0.0106847
0.0106848
0.0106849
0.010685
0.010685
0.0106851
0.0106851
0.0106851
0.0106852
0.0106854
0.0106856
0.0106858
0.010686
0.0106863
0.0106866
0.0106869
0.0106871
0.0106874
0.0106877
0.0106879
0.0106881
0.0106883
0.0106885
0.0106887
0.0106888
0.010689
0.0106891
0.0106892
0.0106892
0.0106893
0.0106894
0.0106894