/*--------------------------------*- C++ -*----------------------------------*\
| =========                 |                                                 |
| \\      /  F ield         | OpenFOAM: The Open Source CFD Toolbox           |
|  \\    /   O peration     | Version:  2106                                  |
|   \\  /    A nd           | Website:  www.openfoam.com                      |
|    \\/     M anipulation  |                                                 |
\*---------------------------------------------------------------------------*/
FoamFile
{
    version     2.0;
    format      ascii;
    arch        "LSB;label=32;scalar=64";
    class       volScalarField;
    location    "49.99987";
    object      A2CH2-2_0;
}
// * * * * * * * * * * * * * * * * * * * * * * * * * * * * * * * * * * * * * //

dimensions      [0 0 0 0 0 0 0];

internalField   nonuniform List<scalar> 
3360
(
1.26459e-18
1.30529e-18
1.36193e-18
1.43121e-18
1.51024e-18
1.59644e-18
1.68745e-18
1.78117e-18
1.87572e-18
1.96943e-18
2.06086e-18
2.14878e-18
2.2322e-18
2.31031e-18
2.38248e-18
2.44831e-18
2.50751e-18
2.55999e-18
2.60576e-18
2.64495e-18
2.67781e-18
2.70464e-18
2.72584e-18
2.74183e-18
2.75308e-18
2.76008e-18
2.76333e-18
5.54772e-18
5.75166e-18
6.03945e-18
6.39784e-18
6.81585e-18
7.28391e-18
7.79347e-18
8.3367e-18
8.90632e-18
9.49543e-18
1.00974e-17
1.07059e-17
1.13145e-17
1.1917e-17
1.25071e-17
1.3079e-17
1.36265e-17
1.41441e-17
1.46261e-17
1.50674e-17
1.54634e-17
1.58096e-17
1.61027e-17
1.63398e-17
1.65187e-17
1.66381e-17
1.66977e-17
1.74074e-17
1.81715e-17
1.92573e-17
2.06217e-17
2.22289e-17
2.40468e-17
2.6045e-17
2.81931e-17
3.0461e-17
3.28173e-17
3.52304e-17
3.76686e-17
4.01008e-17
4.2496e-17
4.48244e-17
4.70576e-17
4.91695e-17
5.11365e-17
5.29381e-17
5.45575e-17
5.59815e-17
5.72009e-17
5.82104e-17
5.90083e-17
5.95966e-17
5.99802e-17
6.01669e-17
5.06981e-17
5.32168e-17
5.68197e-17
6.13782e-17
6.67843e-17
7.29374e-17
7.97364e-17
8.70769e-17
9.4849e-17
1.02938e-16
1.11223e-16
1.19585e-16
1.27902e-16
1.36058e-16
1.43941e-16
1.51449e-16
1.58491e-16
1.64991e-16
1.70886e-16
1.76131e-16
1.80694e-16
1.8456e-16
1.87726e-16
1.90203e-16
1.9201e-16
1.93177e-16
1.93739e-16
1.48129e-16
1.56075e-16
1.67463e-16
1.81905e-16
1.9907e-16
2.18642e-16
2.40294e-16
2.63681e-16
2.88434e-16
3.14164e-16
3.40471e-16
3.66949e-16
3.93201e-16
4.18847e-16
4.43536e-16
4.66953e-16
4.88826e-16
5.08932e-16
5.27097e-16
5.43196e-16
5.57154e-16
5.6894e-16
5.78563e-16
5.86068e-16
5.91531e-16
5.95051e-16
5.96745e-16
4.36796e-16
4.61199e-16
4.9622e-16
5.40669e-16
5.9353e-16
6.53817e-16
7.20513e-16
7.92531e-16
8.68712e-16
9.47837e-16
1.02865e-15
1.10988e-15
1.19029e-15
1.26873e-15
1.3441e-15
1.41547e-15
1.48201e-15
1.54306e-15
1.59811e-15
1.64682e-15
1.68899e-15
1.72453e-15
1.75351e-15
1.77608e-15
1.79248e-15
1.80304e-15
1.80811e-15
1.29759e-15
1.37175e-15
1.47817e-15
1.61324e-15
1.77387e-15
1.95702e-15
2.15955e-15
2.37813e-15
2.60917e-15
2.84894e-15
3.09359e-15
3.33929e-15
3.58228e-15
3.81906e-15
4.04639e-15
4.26143e-15
4.46177e-15
4.64545e-15
4.81099e-15
4.95736e-15
5.08399e-15
5.1907e-15
5.27767e-15
5.34539e-15
5.3946e-15
5.42626e-15
5.44148e-15
3.86765e-15
4.09081e-15
4.41121e-15
4.81804e-15
5.30194e-15
5.8538e-15
6.4641e-15
7.12268e-15
7.81872e-15
8.54089e-15
9.27754e-15
1.00171e-14
1.07482e-14
1.14603e-14
1.21438e-14
1.279e-14
1.33917e-14
1.39432e-14
1.444e-14
1.4879e-14
1.52587e-14
1.55785e-14
1.58391e-14
1.60419e-14
1.61892e-14
1.62839e-14
1.63295e-14
1.15586e-14
1.22294e-14
1.31922e-14
1.44146e-14
1.58684e-14
1.7526e-14
1.93588e-14
2.1336e-14
2.3425e-14
2.55918e-14
2.78012e-14
3.00184e-14
3.22097e-14
3.43434e-14
3.63905e-14
3.83256e-14
4.01272e-14
4.17779e-14
4.32647e-14
4.45786e-14
4.57147e-14
4.66716e-14
4.74511e-14
4.80579e-14
4.84987e-14
4.87822e-14
4.89184e-14
3.45457e-14
3.65549e-14
3.94395e-14
4.3102e-14
4.7458e-14
5.24247e-14
5.79159e-14
6.38393e-14
7.00972e-14
7.65868e-14
8.32033e-14
8.98421e-14
9.64022e-14
1.02788e-13
1.08914e-13
1.14703e-13
1.20092e-13
1.25028e-13
1.29473e-13
1.334e-13
1.36795e-13
1.39654e-13
1.41982e-13
1.43794e-13
1.4511e-13
1.45956e-13
1.46363e-13
1.033e-13
1.09316e-13
1.17951e-13
1.28912e-13
1.41946e-13
1.56804e-13
1.73227e-13
1.90937e-13
2.09641e-13
2.29032e-13
2.48796e-13
2.6862e-13
2.88203e-13
3.07261e-13
3.25537e-13
3.42804e-13
3.58873e-13
3.73589e-13
3.86838e-13
3.98542e-13
4.08658e-13
4.17176e-13
4.24113e-13
4.2951e-13
4.3343e-13
4.35951e-13
4.37162e-13
3.08604e-13
3.26569e-13
3.52353e-13
3.8508e-13
4.23988e-13
4.68329e-13
5.17326e-13
5.70149e-13
6.25919e-13
6.83716e-13
7.42603e-13
8.01649e-13
8.59955e-13
9.16677e-13
9.7105e-13
1.0224e-12
1.07018e-12
1.11391e-12
1.15327e-12
1.18803e-12
1.21807e-12
1.24335e-12
1.26393e-12
1.27994e-12
1.29157e-12
1.29904e-12
1.30263e-12
9.20963e-13
9.74517e-13
1.05136e-12
1.14884e-12
1.26468e-12
1.39663e-12
1.54234e-12
1.69934e-12
1.86499e-12
2.03655e-12
2.21123e-12
2.38626e-12
2.55899e-12
2.72693e-12
2.88782e-12
3.03968e-12
3.18088e-12
3.31009e-12
3.42632e-12
3.52892e-12
3.61754e-12
3.69211e-12
3.7528e-12
3.8e-12
3.83427e-12
3.85629e-12
3.86686e-12
2.74058e-12
2.89951e-12
3.12746e-12
3.41652e-12
3.75979e-12
4.15053e-12
4.58171e-12
5.0459e-12
5.53524e-12
6.04159e-12
6.55668e-12
7.07235e-12
7.58076e-12
8.07461e-12
8.54731e-12
8.99313e-12
9.40727e-12
9.78595e-12
1.01263e-11
1.04266e-11
1.06858e-11
1.09037e-11
1.1081e-11
1.12188e-11
1.13188e-11
1.1383e-11
1.14139e-11
8.12631e-12
8.59536e-12
9.26766e-12
1.01195e-11
1.113e-11
1.2279e-11
1.35454e-11
1.49069e-11
1.63402e-11
1.78212e-11
1.93256e-11
2.08296e-11
2.23104e-11
2.37468e-11
2.51198e-11
2.64132e-11
2.76132e-11
2.87092e-11
2.96934e-11
3.05607e-11
3.13087e-11
3.19372e-11
3.2448e-11
3.28449e-11
3.31326e-11
3.33174e-11
3.34061e-11
2.39552e-11
2.53263e-11
2.72897e-11
2.97746e-11
3.27185e-11
3.60606e-11
3.97378e-11
4.36842e-11
4.7831e-11
5.21078e-11
5.64438e-11
6.07703e-11
6.50218e-11
6.91382e-11
7.30661e-11
7.67596e-11
8.01809e-11
8.33008e-11
8.60982e-11
8.856e-11
9.06803e-11
9.24597e-11
9.39045e-11
9.50256e-11
9.58379e-11
9.63591e-11
9.6609e-11
7.00718e-11
7.40275e-11
7.96849e-11
8.68328e-11
9.52847e-11
1.04858e-10
1.15367e-10
1.26616e-10
1.38406e-10
1.50533e-10
1.62796e-10
1.74999e-10
1.8696e-10
1.98511e-10
2.09507e-10
2.19823e-10
2.29357e-10
2.38034e-10
2.45799e-10
2.5262e-10
2.58485e-10
2.63399e-10
2.67384e-10
2.70473e-10
2.72708e-10
2.74141e-10
2.74827e-10
2.02806e-10
2.14008e-10
2.30002e-10
2.50164e-10
2.73941e-10
3.00794e-10
3.30175e-10
3.61522e-10
3.94263e-10
4.27822e-10
4.61638e-10
4.95174e-10
5.27935e-10
5.59474e-10
5.89403e-10
6.17399e-10
6.43204e-10
6.66625e-10
6.87535e-10
7.05863e-10
7.2159e-10
7.34744e-10
7.45392e-10
7.53632e-10
7.59587e-10
7.63399e-10
7.65224e-10
5.78819e-10
6.09763e-10
6.53841e-10
7.09244e-10
7.74353e-10
8.47604e-10
9.27421e-10
1.01222e-09
1.10039e-09
1.19038e-09
1.28067e-09
1.36983e-09
1.45658e-09
1.53977e-09
1.61842e-09
1.69173e-09
1.75909e-09
1.82004e-09
1.8743e-09
1.92175e-09
1.96236e-09
1.99626e-09
2.02364e-09
2.0448e-09
2.06006e-09
2.06982e-09
2.07449e-09
1.62186e-09
1.7046e-09
1.82213e-09
1.96932e-09
2.14157e-09
2.33445e-09
2.54359e-09
2.76463e-09
2.9933e-09
3.22548e-09
3.45727e-09
3.68506e-09
3.90565e-09
4.11626e-09
4.31456e-09
4.49868e-09
4.66724e-09
4.81926e-09
4.95418e-09
5.0718e-09
5.17224e-09
5.25588e-09
5.32332e-09
5.37531e-09
5.41277e-09
5.43668e-09
5.4481e-09
4.43874e-09
4.65125e-09
4.95213e-09
5.32736e-09
5.76433e-09
6.25105e-09
6.77583e-09
7.32733e-09
7.89462e-09
8.46737e-09
9.03604e-09
9.59202e-09
1.01278e-08
1.06369e-08
1.11141e-08
1.15555e-08
1.1958e-08
1.23198e-08
1.26399e-08
1.29182e-08
1.31552e-08
1.33521e-08
1.35106e-08
1.36325e-08
1.37202e-08
1.37761e-08
1.38028e-08
1.1795e-08
1.23155e-08
1.30499e-08
1.39616e-08
1.50179e-08
1.61879e-08
1.7442e-08
1.87523e-08
2.00921e-08
2.14373e-08
2.27655e-08
2.40573e-08
2.5296e-08
2.64678e-08
2.75616e-08
2.85692e-08
2.94848e-08
3.0305e-08
3.10286e-08
3.16559e-08
3.21889e-08
3.26307e-08
3.29855e-08
3.32581e-08
3.34539e-08
3.35785e-08
3.36379e-08
3.02526e-08
3.14623e-08
3.31632e-08
3.52656e-08
3.76892e-08
4.03591e-08
4.3205e-08
4.61616e-08
4.91685e-08
5.21709e-08
5.51206e-08
5.79756e-08
6.0701e-08
6.32683e-08
6.56555e-08
6.78468e-08
6.98316e-08
7.16044e-08
7.31641e-08
7.45131e-08
7.56568e-08
7.6603e-08
7.73616e-08
7.79434e-08
7.83607e-08
7.86261e-08
7.87523e-08
7.45188e-08
7.71821e-08
8.09152e-08
8.55115e-08
9.07862e-08
9.65692e-08
1.02703e-07
1.09044e-07
1.15462e-07
1.21841e-07
1.28079e-07
1.34093e-07
1.39812e-07
1.45179e-07
1.50154e-07
1.54706e-07
1.58819e-07
1.62482e-07
1.65699e-07
1.68474e-07
1.70824e-07
1.72764e-07
1.74317e-07
1.75507e-07
1.7636e-07
1.76901e-07
1.77158e-07
1.75728e-07
1.81295e-07
1.89078e-07
1.9863e-07
2.09551e-07
2.21478e-07
2.34079e-07
2.47052e-07
2.60131e-07
2.73082e-07
2.85705e-07
2.97831e-07
3.09326e-07
3.20084e-07
3.30029e-07
3.39107e-07
3.4729e-07
3.54565e-07
3.6094e-07
3.66434e-07
3.71076e-07
3.74905e-07
3.77966e-07
3.80309e-07
3.81986e-07
3.83051e-07
3.83556e-07
3.96339e-07
4.07448e-07
4.2295e-07
4.41931e-07
4.63576e-07
4.87148e-07
5.1198e-07
5.37476e-07
5.63112e-07
5.88433e-07
6.13055e-07
6.36659e-07
6.58992e-07
6.79858e-07
6.99115e-07
7.16671e-07
7.32474e-07
7.46511e-07
7.58798e-07
7.69376e-07
7.78308e-07
7.8567e-07
7.91553e-07
7.96052e-07
7.99271e-07
8.01313e-07
8.02282e-07
8.55816e-07
8.77163e-07
9.06923e-07
9.43315e-07
9.84759e-07
1.02983e-06
1.07724e-06
1.12586e-06
1.17469e-06
1.22286e-06
1.26965e-06
1.31446e-06
1.35681e-06
1.39635e-06
1.43281e-06
1.46603e-06
1.49592e-06
1.52244e-06
1.54565e-06
1.56562e-06
1.58247e-06
1.59636e-06
1.60745e-06
1.61594e-06
1.622e-06
1.62585e-06
1.62767e-06
1.77509e-06
1.8149e-06
1.87037e-06
1.93814e-06
2.01526e-06
2.09906e-06
2.18713e-06
2.27737e-06
2.36791e-06
2.45716e-06
2.54379e-06
2.6267e-06
2.70502e-06
2.77808e-06
2.84543e-06
2.90676e-06
2.9619e-06
3.01083e-06
3.05362e-06
3.09043e-06
3.12149e-06
3.14707e-06
3.16751e-06
3.18312e-06
3.19429e-06
3.20137e-06
3.20474e-06
3.54465e-06
3.61638e-06
3.71626e-06
3.8382e-06
3.97681e-06
4.12723e-06
4.28515e-06
4.44672e-06
4.60861e-06
4.76798e-06
4.92242e-06
5.07e-06
5.20919e-06
5.33883e-06
5.45812e-06
5.56655e-06
5.66388e-06
5.75009e-06
5.82534e-06
5.88996e-06
5.94439e-06
5.98914e-06
6.02481e-06
6.05203e-06
6.07146e-06
6.08376e-06
6.08959e-06
6.80415e-06
6.92739e-06
7.09871e-06
7.30743e-06
7.54407e-06
7.80012e-06
8.06797e-06
8.34096e-06
8.61331e-06
8.88014e-06
9.1374e-06
9.38188e-06
9.61109e-06
9.82323e-06
1.00171e-05
1.01922e-05
1.03481e-05
1.04852e-05
1.0604e-05
1.07052e-05
1.07897e-05
1.08586e-05
1.09131e-05
1.09544e-05
1.09835e-05
1.10019e-05
1.10105e-05
1.24779e-05
1.26751e-05
1.29482e-05
1.32795e-05
1.3653e-05
1.40544e-05
1.44711e-05
1.48921e-05
1.5308e-05
1.57113e-05
1.60957e-05
1.64565e-05
1.67902e-05
1.70948e-05
1.7369e-05
1.76127e-05
1.78261e-05
1.80105e-05
1.81673e-05
1.82982e-05
1.84055e-05
1.84911e-05
1.85573e-05
1.86063e-05
1.86402e-05
1.8661e-05
1.86705e-05
2.1622e-05
2.1908e-05
2.23023e-05
2.27774e-05
2.33086e-05
2.38741e-05
2.44548e-05
2.50344e-05
2.55996e-05
2.61396e-05
2.66463e-05
2.71139e-05
2.75388e-05
2.79191e-05
2.82545e-05
2.8546e-05
2.87953e-05
2.90053e-05
2.91789e-05
2.93197e-05
2.94313e-05
2.95174e-05
2.95814e-05
2.96267e-05
2.96566e-05
2.96739e-05
2.96814e-05
3.50197e-05
3.53927e-05
3.59044e-05
3.6517e-05
3.71968e-05
3.79141e-05
3.86437e-05
3.93645e-05
4.00596e-05
4.07161e-05
4.13248e-05
4.18795e-05
4.23771e-05
4.28164e-05
4.31984e-05
4.35255e-05
4.3801e-05
4.40291e-05
4.42145e-05
4.43619e-05
4.4476e-05
4.45616e-05
4.46231e-05
4.4665e-05
4.46914e-05
4.47057e-05
4.47115e-05
5.28614e-05
5.33094e-05
5.39226e-05
5.46546e-05
5.54643e-05
5.6316e-05
5.71797e-05
5.80308e-05
5.88499e-05
5.96227e-05
6.0339e-05
6.09925e-05
6.15801e-05
6.21004e-05
6.25542e-05
6.2944e-05
6.32736e-05
6.35476e-05
6.3771e-05
6.39494e-05
6.40882e-05
6.4193e-05
6.4269e-05
6.43214e-05
6.43547e-05
6.43733e-05
6.43808e-05
7.49118e-05
7.54326e-05
7.61465e-05
7.70007e-05
7.79488e-05
7.89507e-05
7.99724e-05
8.09853e-05
8.19665e-05
8.28989e-05
8.37701e-05
8.45718e-05
8.52992e-05
8.59505e-05
8.65258e-05
8.70273e-05
8.74585e-05
8.78237e-05
8.81281e-05
8.83771e-05
8.85765e-05
8.87318e-05
8.88488e-05
8.89326e-05
8.89888e-05
8.9022e-05
8.90367e-05
0.000100961
0.000101569
0.000102406
0.000103409
0.000104528
0.000105716
0.000106934
0.00010815
0.000109338
0.000110478
0.000111554
0.000112557
0.000113478
0.000114314
0.000115064
0.000115729
0.00011631
0.000116813
0.00011724
0.000117597
0.00011789
0.000118125
0.000118307
0.000118442
0.000118536
0.000118593
0.00011862
0.000130803
0.000131511
0.000132486
0.000133662
0.000134979
0.000136385
0.000137836
0.000139295
0.000140731
0.000142121
0.000143445
0.00014469
0.000145846
0.000146906
0.000147868
0.000148729
0.000149492
0.000150159
0.000150734
0.000151221
0.000151627
0.000151956
0.000152215
0.000152411
0.000152549
0.000152635
0.000152675
0.000164179
0.000164995
0.000166124
0.000167489
0.000169022
0.000170667
0.000172373
0.000174096
0.000175802
0.000177462
0.000179053
0.000180558
0.000181964
0.000183262
0.000184447
0.000185516
0.000186469
0.000187308
0.000188037
0.000188659
0.000189181
0.000189608
0.000189948
0.000190205
0.000190389
0.000190504
0.000190559
0.000200778
0.000201706
0.00020299
0.000204545
0.000206298
0.000208182
0.000210141
0.000212127
0.000214099
0.000216024
0.000217876
0.000219634
0.000221282
0.000222809
0.000224208
0.000225476
0.000226611
0.000227615
0.000228489
0.00022924
0.000229872
0.000230392
0.000230807
0.000231123
0.00023135
0.000231493
0.000231561
0.000240204
0.000241236
0.000242666
0.0002444
0.000246356
0.000248462
0.000250656
0.000252884
0.0002551
0.000257267
0.000259357
0.000261344
0.000263211
0.000264945
0.000266537
0.000267984
0.000269282
0.000270432
0.000271437
0.000272302
0.000273033
0.000273635
0.000274117
0.000274486
0.000274751
0.000274919
0.000274999
0.000281987
0.000283112
0.00028467
0.000286561
0.000288696
0.000290997
0.000293396
0.000295833
0.000298261
0.000300639
0.000302933
0.000305117
0.000307173
0.000309085
0.000310843
0.000312442
0.00031388
0.000315156
0.000316273
0.000317236
0.00031805
0.000318723
0.000319263
0.000319677
0.000319974
0.000320163
0.000320254
0.000325634
0.000326836
0.000328502
0.000330525
0.000332809
0.000335272
0.000337841
0.000340453
0.000343057
0.000345608
0.000348071
0.000350419
0.000352631
0.000354689
0.000356584
0.00035831
0.000359862
0.000361242
0.000362452
0.000363495
0.00036438
0.000365111
0.000365698
0.000366149
0.000366474
0.000366681
0.00036678
0.000370661
0.000371925
0.000373678
0.000375806
0.000378209
0.000380801
0.000383506
0.000386258
0.000389001
0.00039169
0.000394289
0.000396767
0.000399102
0.000401277
0.000403281
0.000405107
0.000406751
0.000408214
0.000409497
0.000410606
0.000411546
0.000412324
0.000412949
0.000413431
0.000413777
0.000413998
0.000414104
0.000416624
0.000417936
0.000419754
0.000421962
0.000424457
0.000427147
0.000429955
0.000432813
0.000435663
0.000438458
0.000441159
0.000443736
0.000446165
0.00044843
0.000450517
0.00045242
0.000454135
0.000455662
0.000457002
0.00045816
0.000459143
0.000459958
0.000460613
0.000461118
0.000461481
0.000461714
0.000461825
0.000463127
0.000464472
0.000466338
0.000468604
0.000471164
0.000473926
0.000476809
0.000479743
0.000482669
0.00048554
0.000488316
0.000490965
0.000493463
0.000495792
0.00049794
0.000499899
0.000501666
0.000503239
0.000504622
0.000505817
0.000506832
0.000507674
0.000508351
0.000508873
0.00050925
0.00050949
0.000509606
0.000509828
0.000511197
0.000513094
0.000515398
0.000518001
0.00052081
0.000523742
0.000526726
0.000529704
0.000532625
0.00053545
0.000538147
0.000540692
0.000543065
0.000545254
0.000547252
0.000549054
0.000550659
0.000552071
0.000553292
0.000554329
0.00055519
0.000555883
0.000556417
0.000556803
0.00055705
0.000557168
0.00055644
0.000557821
0.000559736
0.000562061
0.000564688
0.000567523
0.000570482
0.000573495
0.000576502
0.000579452
0.000582306
0.000585031
0.000587602
0.000590001
0.000592215
0.000594236
0.000596059
0.000597684
0.000599114
0.000600351
0.000601403
0.000602276
0.000602979
0.000603521
0.000603912
0.000604163
0.000604283
0.000602722
0.000604106
0.000606026
0.000608358
0.000610994
0.000613837
0.000616806
0.000619829
0.000622846
0.000625806
0.000628671
0.000631406
0.000633988
0.000636398
0.000638622
0.000640653
0.000642486
0.000644121
0.000645559
0.000646804
0.000647863
0.000648742
0.000649451
0.000649997
0.000650392
0.000650645
0.000650767
0.000648473
0.000649855
0.000651771
0.000654097
0.000656727
0.000659564
0.000662527
0.000665544
0.000668555
0.000671511
0.000674371
0.000677103
0.000679682
0.00068209
0.000684313
0.000686343
0.000688176
0.000689812
0.00069125
0.000692497
0.000693557
0.000694438
0.000695147
0.000695695
0.000696091
0.000696345
0.000696467
0.000693532
0.000694905
0.000696808
0.000699119
0.000701732
0.000704551
0.000707495
0.000710493
0.000713486
0.000716424
0.000719267
0.000721984
0.000724548
0.000726943
0.000729155
0.000731176
0.000733001
0.000734629
0.000736062
0.000737304
0.00073836
0.000739238
0.000739946
0.000740493
0.000740888
0.000741141
0.000741263
0.000737766
0.000739124
0.000741008
0.000743296
0.000745882
0.000748672
0.000751587
0.000754555
0.000757518
0.000760428
0.000763244
0.000765935
0.000768476
0.00077085
0.000773042
0.000775045
0.000776855
0.00077847
0.000779892
0.000781125
0.000782173
0.000783045
0.000783748
0.000784292
0.000784684
0.000784936
0.000785057
0.000781067
0.000782407
0.000784265
0.000786523
0.000789074
0.000791828
0.000794704
0.000797633
0.000800558
0.00080343
0.000806211
0.000808868
0.000811378
0.000813722
0.000815888
0.000817868
0.000819657
0.000821254
0.00082266
0.000823879
0.000824917
0.00082578
0.000826476
0.000827014
0.000827403
0.000827652
0.000827772
0.000823349
0.000824667
0.000826496
0.000828717
0.000831227
0.000833937
0.000836767
0.00083965
0.000842529
0.000845357
0.000848094
0.000850711
0.000853182
0.000855492
0.000857626
0.000859577
0.00086134
0.000862914
0.000864301
0.000865504
0.000866527
0.000867379
0.000868066
0.000868597
0.000868981
0.000869228
0.000869346
0.000864543
0.000865837
0.000867631
0.000869811
0.000872275
0.000874935
0.000877714
0.000880544
0.000883371
0.000886148
0.000888836
0.000891406
0.000893835
0.000896104
0.000898202
0.000900119
0.000901853
0.000903401
0.000904765
0.000905948
0.000906956
0.000907794
0.000908471
0.000908994
0.000909372
0.000909615
0.000909732
0.000904595
0.000905862
0.000907619
0.000909754
0.000912167
0.000914773
0.000917494
0.000920267
0.000923037
0.000925757
0.000928392
0.000930912
0.000933292
0.000935517
0.000937574
0.000939455
0.000941156
0.000942675
0.000944014
0.000945176
0.000946165
0.000946988
0.000947653
0.000948167
0.000948539
0.000948777
0.000948892
0.000943462
0.000944701
0.000946418
0.000948505
0.000950864
0.000953411
0.000956072
0.000958783
0.000961491
0.000964152
0.000966729
0.000969193
0.000971523
0.0009737
0.000975713
0.000977555
0.00097922
0.000980708
0.00098202
0.000983158
0.000984127
0.000984934
0.000985586
0.00098609
0.000986455
0.000986689
0.000986801
0.000981115
0.000982323
0.000983999
0.000986035
0.000988336
0.000990822
0.000993418
0.000996064
0.000998708
0.00100131
0.00100382
0.00100623
0.0010085
0.00101063
0.0010126
0.0010144
0.00101603
0.00101748
0.00101876
0.00101988
0.00102082
0.00102161
0.00102225
0.00102275
0.0010231
0.00102333
0.00102344
0.00101753
0.00101871
0.00102034
0.00102232
0.00102457
0.00102699
0.00102952
0.00103209
0.00103467
0.0010372
0.00103966
0.001042
0.00104422
0.0010463
0.00104822
0.00104997
0.00105156
0.00105298
0.00105423
0.00105532
0.00105625
0.00105702
0.00105764
0.00105812
0.00105847
0.0010587
0.0010588
0.0010527
0.00105384
0.00105543
0.00105736
0.00105954
0.00106189
0.00106436
0.00106687
0.00106937
0.00107184
0.00107423
0.00107651
0.00107867
0.00108069
0.00108256
0.00108427
0.00108582
0.00108721
0.00108843
0.00108949
0.00109039
0.00109114
0.00109175
0.00109222
0.00109256
0.00109278
0.00109289
0.00108661
0.00108772
0.00108926
0.00109114
0.00109326
0.00109554
0.00109794
0.00110037
0.00110281
0.00110521
0.00110753
0.00110975
0.00111185
0.00111382
0.00111564
0.00111731
0.00111881
0.00112016
0.00112135
0.00112238
0.00112327
0.001124
0.00112459
0.00112505
0.00112538
0.0011256
0.0011257
0.00111927
0.00112035
0.00112184
0.00112366
0.00112572
0.00112794
0.00113026
0.00113263
0.001135
0.00113732
0.00113958
0.00114174
0.00114378
0.00114569
0.00114746
0.00114908
0.00115055
0.00115186
0.00115302
0.00115402
0.00115488
0.0011556
0.00115617
0.00115662
0.00115695
0.00115715
0.00115726
0.00115069
0.00115174
0.00115319
0.00115495
0.00115694
0.0011591
0.00116135
0.00116365
0.00116594
0.0011682
0.00117039
0.00117249
0.00117447
0.00117633
0.00117805
0.00117962
0.00118105
0.00118232
0.00118345
0.00118443
0.00118526
0.00118596
0.00118652
0.00118696
0.00118728
0.00118748
0.00118758
0.00118089
0.00118191
0.00118331
0.00118502
0.00118695
0.00118904
0.00119123
0.00119345
0.00119568
0.00119787
0.0012
0.00120203
0.00120396
0.00120576
0.00120743
0.00120896
0.00121035
0.00121159
0.00121268
0.00121363
0.00121445
0.00121512
0.00121567
0.0012161
0.0012164
0.0012166
0.0012167
0.00120991
0.00121089
0.00121225
0.00121391
0.00121578
0.0012178
0.00121992
0.00122208
0.00122424
0.00122636
0.00122843
0.0012304
0.00123227
0.00123402
0.00123564
0.00123713
0.00123848
0.00123969
0.00124075
0.00124168
0.00124247
0.00124313
0.00124366
0.00124408
0.00124438
0.00124457
0.00124466
0.00123778
0.00123873
0.00124005
0.00124165
0.00124346
0.00124543
0.00124748
0.00124957
0.00125167
0.00125373
0.00125573
0.00125765
0.00125947
0.00126117
0.00126275
0.00126419
0.0012655
0.00126668
0.00126772
0.00126862
0.00126939
0.00127003
0.00127055
0.00127096
0.00127125
0.00127144
0.00127153
0.00126455
0.00126547
0.00126675
0.00126831
0.00127007
0.00127197
0.00127396
0.00127599
0.00127803
0.00128003
0.00128198
0.00128384
0.00128561
0.00128727
0.0012888
0.00129021
0.00129149
0.00129263
0.00129364
0.00129453
0.00129528
0.00129591
0.00129642
0.00129681
0.0012971
0.00129728
0.00129737
0.0012903
0.0012912
0.00129244
0.00129395
0.00129566
0.00129751
0.00129944
0.00130142
0.0013034
0.00130535
0.00130724
0.00130906
0.00131078
0.00131239
0.00131389
0.00131527
0.00131652
0.00131763
0.00131862
0.00131949
0.00132022
0.00132084
0.00132134
0.00132172
0.001322
0.00132218
0.00132227
0.00131511
0.00131598
0.00131719
0.00131866
0.00132032
0.00132212
0.00132401
0.00132594
0.00132787
0.00132977
0.00133162
0.00133339
0.00133508
0.00133666
0.00133812
0.00133947
0.00134069
0.00134179
0.00134276
0.00134361
0.00134433
0.00134493
0.00134542
0.00134581
0.00134608
0.00134626
0.00134635
0.00133908
0.00133993
0.00134111
0.00134255
0.00134417
0.00134593
0.00134778
0.00134966
0.00135155
0.00135342
0.00135523
0.00135697
0.00135862
0.00136017
0.00136162
0.00136294
0.00136415
0.00136523
0.00136618
0.00136702
0.00136773
0.00136833
0.00136881
0.00136919
0.00136946
0.00136964
0.00136972
0.00136235
0.00136318
0.00136433
0.00136574
0.00136734
0.00136907
0.00137088
0.00137273
0.00137459
0.00137643
0.00137822
0.00137993
0.00138157
0.0013831
0.00138452
0.00138584
0.00138703
0.0013881
0.00138905
0.00138988
0.00139059
0.00139118
0.00139166
0.00139204
0.00139231
0.00139248
0.00139257
0.00138505
0.00138588
0.00138702
0.00138841
0.00138998
0.00139169
0.00139348
0.00139532
0.00139716
0.00139898
0.00140076
0.00140246
0.00140408
0.00140561
0.00140703
0.00140834
0.00140953
0.0014106
0.00141155
0.00141238
0.00141309
0.00141368
0.00141416
0.00141454
0.00141481
0.00141499
0.00141508
0.0014074
0.00140821
0.00140935
0.00141073
0.0014123
0.001414
0.00141579
0.00141762
0.00141946
0.00142128
0.00142306
0.00142477
0.00142639
0.00142793
0.00142935
0.00143067
0.00143187
0.00143295
0.00143391
0.00143474
0.00143546
0.00143606
0.00143655
0.00143693
0.00143721
0.00143739
0.00143748
0.00142959
0.00143041
0.00143155
0.00143294
0.00143452
0.00143623
0.00143803
0.00143988
0.00144173
0.00144357
0.00144537
0.0014471
0.00144875
0.00145031
0.00145176
0.0014531
0.00145432
0.00145542
0.00145639
0.00145725
0.00145798
0.0014586
0.0014591
0.00145949
0.00145977
0.00145996
0.00146005
0.00145191
0.00145274
0.0014539
0.00145531
0.00145692
0.00145866
0.00146049
0.00146238
0.00146428
0.00146616
0.00146799
0.00146977
0.00147146
0.00147306
0.00147455
0.00147593
0.00147719
0.00147832
0.00147933
0.00148022
0.00148098
0.00148161
0.00148213
0.00148254
0.00148283
0.00148303
0.00148312
0.00147467
0.00147553
0.00147672
0.00147817
0.00147982
0.00148162
0.00148351
0.00148546
0.00148743
0.00148937
0.00149128
0.00149312
0.00149489
0.00149655
0.0014981
0.00149954
0.00150086
0.00150204
0.0015031
0.00150403
0.00150482
0.00150549
0.00150604
0.00150646
0.00150677
0.00150697
0.00150707
0.00149825
0.00149914
0.00150038
0.00150189
0.00150362
0.0015055
0.00150748
0.00150952
0.00151159
0.00151363
0.00151564
0.00151758
0.00151944
0.00152119
0.00152284
0.00152436
0.00152575
0.00152701
0.00152813
0.00152911
0.00152996
0.00153067
0.00153125
0.00153171
0.00153204
0.00153225
0.00153236
0.00152306
0.001524
0.00152532
0.00152692
0.00152875
0.00153075
0.00153285
0.00153502
0.00153722
0.0015394
0.00154154
0.00154361
0.0015456
0.00154748
0.00154924
0.00155087
0.00155237
0.00155372
0.00155492
0.00155598
0.00155689
0.00155766
0.00155828
0.00155877
0.00155913
0.00155936
0.00155948
0.00154961
0.00155062
0.00155203
0.00155376
0.00155573
0.00155787
0.00156014
0.00156248
0.00156485
0.00156721
0.00156952
0.00157176
0.00157391
0.00157595
0.00157786
0.00157963
0.00158126
0.00158272
0.00158404
0.00158519
0.00158618
0.00158702
0.0015877
0.00158823
0.00158862
0.00158888
0.001589
0.00157845
0.00157955
0.00158108
0.00158296
0.00158511
0.00158745
0.00158992
0.00159247
0.00159506
0.00159763
0.00160016
0.00160262
0.00160497
0.00160721
0.0016093
0.00161124
0.00161303
0.00161464
0.00161608
0.00161734
0.00161844
0.00161936
0.00162011
0.00162069
0.00162112
0.0016214
0.00162154
0.00161018
0.00161139
0.00161307
0.00161514
0.0016175
0.00162007
0.0016228
0.00162561
0.00162846
0.0016313
0.0016341
0.00163681
0.00163941
0.00164187
0.00164419
0.00164633
0.0016483
0.00165009
0.00165168
0.00165308
0.00165429
0.00165531
0.00165614
0.00165678
0.00165726
0.00165757
0.00165772
0.00164542
0.00164676
0.00164863
0.00165092
0.00165353
0.00165638
0.00165941
0.00166253
0.00166569
0.00166884
0.00167194
0.00167494
0.00167783
0.00168057
0.00168313
0.00168552
0.0016877
0.00168968
0.00169145
0.001693
0.00169434
0.00169547
0.00169639
0.00169711
0.00169763
0.00169797
0.00169814
0.00168478
0.00168626
0.00168834
0.00169088
0.00169379
0.00169696
0.00170032
0.00170379
0.0017073
0.00171081
0.00171425
0.00171759
0.00172079
0.00172383
0.00172668
0.00172932
0.00173174
0.00173393
0.00173589
0.00173761
0.00173909
0.00174034
0.00174136
0.00174215
0.00174274
0.00174311
0.0017433
0.00172876
0.00173041
0.00173271
0.00173554
0.00173877
0.00174229
0.00174602
0.00174986
0.00175375
0.00175763
0.00176144
0.00176514
0.00176868
0.00177204
0.00177518
0.0017781
0.00178077
0.00178318
0.00178534
0.00178723
0.00178886
0.00179023
0.00179135
0.00179222
0.00179286
0.00179327
0.00179347
0.00177769
0.00177951
0.00178206
0.00178518
0.00178874
0.00179262
0.00179673
0.00180096
0.00180524
0.00180951
0.00181369
0.00181774
0.00182162
0.0018253
0.00182874
0.00183193
0.00183484
0.00183748
0.00183983
0.00184189
0.00184366
0.00184515
0.00184636
0.00184731
0.001848
0.00184845
0.00184866
0.00183159
0.00183359
0.00183637
0.00183977
0.00184365
0.00184787
0.00185233
0.00185693
0.00186157
0.00186618
0.0018707
0.00187507
0.00187925
0.0018832
0.00188689
0.0018903
0.00189342
0.00189624
0.00189875
0.00190094
0.00190283
0.00190441
0.0019057
0.0019067
0.00190743
0.00190791
0.00190814
0.00188986
0.00189199
0.00189495
0.00189857
0.0019027
0.00190719
0.00191191
0.00191677
0.00192167
0.00192653
0.00193128
0.00193587
0.00194024
0.00194437
0.00194823
0.00195178
0.00195503
0.00195795
0.00196054
0.00196281
0.00196476
0.00196639
0.00196772
0.00196875
0.00196951
0.00196999
0.00197023
0.00195099
0.00195319
0.00195626
0.00195999
0.00196424
0.00196885
0.00197369
0.00197866
0.00198366
0.0019886
0.00199342
0.00199807
0.00200249
0.00200665
0.00201052
0.00201409
0.00201733
0.00202025
0.00202283
0.00202509
0.00202703
0.00202864
0.00202996
0.00203098
0.00203172
0.0020322
0.00203243
0.00201272
0.0020149
0.00201794
0.00202164
0.00202583
0.00203037
0.00203512
0.00203999
0.00204487
0.00204968
0.00205435
0.00205884
0.00206311
0.0020671
0.00207082
0.00207423
0.00207732
0.00208009
0.00208255
0.00208469
0.00208651
0.00208804
0.00208928
0.00209023
0.00209093
0.00209138
0.00209159
0.00207211
0.00207417
0.00207703
0.00208051
0.00208443
0.00208867
0.0020931
0.00209762
0.00210213
0.00210656
0.00211085
0.00211495
0.00211884
0.00212247
0.00212582
0.0021289
0.00213168
0.00213417
0.00213636
0.00213827
0.00213989
0.00214124
0.00214234
0.00214318
0.0021438
0.00214419
0.00214438
0.002126
0.00212783
0.00213036
0.00213343
0.00213689
0.00214061
0.00214448
0.00214841
0.00215232
0.00215614
0.00215982
0.00216333
0.00216663
0.00216971
0.00217254
0.00217513
0.00217746
0.00217953
0.00218136
0.00218294
0.00218428
0.0021854
0.0021863
0.00218699
0.0021875
0.00218782
0.00218797
0.0021716
0.00217312
0.00217521
0.00217773
0.00218056
0.00218359
0.00218672
0.00218989
0.00219302
0.00219607
0.002199
0.00220177
0.00220436
0.00220677
0.00220898
0.00221098
0.00221277
0.00221437
0.00221577
0.00221697
0.00221799
0.00221884
0.00221952
0.00222004
0.00222042
0.00222066
0.00222078
0.00220717
0.00220832
0.0022099
0.0022118
0.00221393
0.00221619
0.00221852
0.00222086
0.00222316
0.00222539
0.00222751
0.00222951
0.00223136
0.00223308
0.00223464
0.00223605
0.00223731
0.00223842
0.00223939
0.00224022
0.00224092
0.0022415
0.00224197
0.00224233
0.00224258
0.00224275
0.00224282
0.00223236
0.00223315
0.00223424
0.00223554
0.00223699
0.00223852
0.00224009
0.00224165
0.00224317
0.00224463
0.00224601
0.0022473
0.00224849
0.00224958
0.00225057
0.00225146
0.00225224
0.00225293
0.00225353
0.00225404
0.00225447
0.00225482
0.0022551
0.00225532
0.00225547
0.00225557
0.00225562
0.00224825
0.00224874
0.0022494
0.0022502
0.00225107
0.00225199
0.00225292
0.00225384
0.00225473
0.00225558
0.00225637
0.0022571
0.00225777
0.00225838
0.00225892
0.00225941
0.00225983
0.0022602
0.00226052