/*--------------------------------*- C++ -*----------------------------------*\
| =========                 |                                                 |
| \\      /  F ield         | OpenFOAM: The Open Source CFD Toolbox           |
|  \\    /   O peration     | Version:  2106                                  |
|   \\  /    A nd           | Website:  www.openfoam.com                      |
|    \\/     M anipulation  |                                                 |
\*---------------------------------------------------------------------------*/
FoamFile
{
    version     2.0;
    format      ascii;
    arch        "LSB;label=32;scalar=64";
    class       volScalarField;
    location    "49.99987";
    object      C2H6;
}
// * * * * * * * * * * * * * * * * * * * * * * * * * * * * * * * * * * * * * //

dimensions      [0 0 0 0 0 0 0];

internalField   nonuniform List<scalar> 
3360
(
2.60115e-18
2.68487e-18
2.80137e-18
2.94387e-18
3.10644e-18
3.28373e-18
3.47094e-18
3.66372e-18
3.85819e-18
4.05094e-18
4.239e-18
4.41987e-18
4.59145e-18
4.7521e-18
4.90057e-18
5.03596e-18
5.15774e-18
5.26568e-18
5.35982e-18
5.44044e-18
5.50802e-18
5.56322e-18
5.60682e-18
5.63971e-18
5.66285e-18
5.67724e-18
5.68393e-18
1.14112e-17
1.18307e-17
1.24226e-17
1.31598e-17
1.40196e-17
1.49824e-17
1.60305e-17
1.71479e-17
1.83195e-17
1.95313e-17
2.07696e-17
2.20211e-17
2.3273e-17
2.45122e-17
2.57261e-17
2.69024e-17
2.80287e-17
2.90932e-17
3.00847e-17
3.09925e-17
3.18068e-17
3.25191e-17
3.3122e-17
3.36096e-17
3.39775e-17
3.42232e-17
3.43458e-17
3.58056e-17
3.73774e-17
3.96107e-17
4.24171e-17
4.5723e-17
4.94624e-17
5.35724e-17
5.7991e-17
6.26558e-17
6.75026e-17
7.24661e-17
7.74814e-17
8.24841e-17
8.74109e-17
9.22002e-17
9.67938e-17
1.01138e-16
1.05184e-16
1.08889e-16
1.1222e-16
1.15149e-16
1.17658e-16
1.19734e-16
1.21375e-16
1.22585e-16
1.23375e-16
1.23759e-16
1.04282e-16
1.09463e-16
1.16874e-16
1.2625e-16
1.3737e-16
1.50027e-16
1.64012e-16
1.79111e-16
1.95097e-16
2.11735e-16
2.28778e-16
2.45977e-16
2.63086e-16
2.79862e-16
2.96076e-16
3.11519e-16
3.26005e-16
3.39374e-16
3.515e-16
3.62288e-16
3.71675e-16
3.79626e-16
3.86139e-16
3.91233e-16
3.9495e-16
3.9735e-16
3.98508e-16
3.0469e-16
3.21034e-16
3.44459e-16
3.74165e-16
4.09473e-16
4.49731e-16
4.94268e-16
5.42373e-16
5.93288e-16
6.46214e-16
7.00325e-16
7.54789e-16
8.08786e-16
8.61538e-16
9.12322e-16
9.60489e-16
1.00548e-15
1.04684e-15
1.0842e-15
1.11732e-15
1.14603e-15
1.17027e-15
1.19006e-15
1.2055e-15
1.21674e-15
1.22398e-15
1.22746e-15
8.9846e-16
9.48657e-16
1.02069e-15
1.11212e-15
1.22085e-15
1.34486e-15
1.48205e-15
1.63018e-15
1.78689e-15
1.94964e-15
2.11586e-15
2.28295e-15
2.44836e-15
2.60969e-15
2.76474e-15
2.91153e-15
3.0484e-15
3.17397e-15
3.28722e-15
3.38741e-15
3.47414e-15
3.54725e-15
3.60685e-15
3.65328e-15
3.68702e-15
3.70874e-15
3.71918e-15
2.66907e-15
2.82161e-15
3.0405e-15
3.31834e-15
3.64874e-15
4.02547e-15
4.44208e-15
4.89167e-15
5.36691e-15
5.86011e-15
6.36334e-15
6.86872e-15
7.36855e-15
7.85559e-15
8.3232e-15
8.76553e-15
9.17761e-15
9.55543e-15
9.89593e-15
1.0197e-14
1.04575e-14
1.0677e-14
1.08559e-14
1.09952e-14
1.10964e-14
1.11615e-14
1.11928e-14
7.95555e-15
8.41458e-15
9.07363e-15
9.91044e-15
1.09058e-14
1.2041e-14
1.32963e-14
1.4651e-14
1.60827e-14
1.75682e-14
1.90834e-14
2.06046e-14
2.21085e-14
2.35733e-14
2.49791e-14
2.63083e-14
2.75461e-14
2.86804e-14
2.97022e-14
3.06054e-14
3.13864e-14
3.20442e-14
3.25802e-14
3.29973e-14
3.33003e-14
3.34952e-14
3.35889e-14
2.37755e-14
2.51552e-14
2.71357e-14
2.96501e-14
3.26405e-14
3.60502e-14
3.98201e-14
4.38872e-14
4.81842e-14
5.2641e-14
5.71857e-14
6.17465e-14
6.6254e-14
7.06429e-14
7.48537e-14
7.88341e-14
8.25398e-14
8.59353e-14
8.89935e-14
9.16961e-14
9.4033e-14
9.60014e-14
9.76049e-14
9.88529e-14
9.97596e-14
1.00343e-13
1.00623e-13
7.10591e-14
7.51919e-14
8.11254e-14
8.8659e-14
9.76191e-14
1.07836e-13
1.19131e-13
1.31315e-13
1.44187e-13
1.57536e-13
1.71146e-13
1.84802e-13
1.98295e-13
2.11432e-13
2.24032e-13
2.3594e-13
2.47024e-13
2.57178e-13
2.66321e-13
2.74399e-13
2.81382e-13
2.87262e-13
2.92051e-13
2.95778e-13
2.98485e-13
3.00226e-13
3.01062e-13
2.12485e-13
2.24859e-13
2.42621e-13
2.65168e-13
2.91979e-13
3.22541e-13
3.56322e-13
3.92751e-13
4.31225e-13
4.71112e-13
5.11765e-13
5.52543e-13
5.92824e-13
6.32026e-13
6.69618e-13
7.05137e-13
7.38189e-13
7.6846e-13
7.95713e-13
8.19788e-13
8.40597e-13
8.58118e-13
8.72386e-13
8.83489e-13
8.91552e-13
8.96737e-13
8.99228e-13
6.34791e-13
6.71742e-13
7.2478e-13
7.92099e-13
8.72131e-13
9.6334e-13
1.06413e-12
1.17278e-12
1.2875e-12
1.40639e-12
1.52751e-12
1.64897e-12
1.7689e-12
1.88558e-12
1.99742e-12
2.10306e-12
2.20132e-12
2.29129e-12
2.37225e-12
2.44375e-12
2.50553e-12
2.55754e-12
2.59987e-12
2.63281e-12
2.65672e-12
2.6721e-12
2.67948e-12
1.8944e-12
2.00456e-12
2.16262e-12
2.36314e-12
2.60143e-12
2.87284e-12
3.17257e-12
3.49551e-12
3.83625e-12
4.18914e-12
4.54845e-12
4.90849e-12
5.2638e-12
5.60924e-12
5.94018e-12
6.25257e-12
6.54301e-12
6.80879e-12
7.04788e-12
7.25893e-12
7.44122e-12
7.5946e-12
7.71944e-12
7.81653e-12
7.88701e-12
7.93231e-12
7.95406e-12
5.63735e-12
5.96426e-12
6.43315e-12
7.02773e-12
7.73385e-12
8.5376e-12
9.42453e-12
1.03794e-11
1.13859e-11
1.24275e-11
1.3487e-11
1.45477e-11
1.55935e-11
1.66094e-11
1.75817e-11
1.84987e-11
1.93506e-11
2.01296e-11
2.08298e-11
2.14474e-11
2.19805e-11
2.24288e-11
2.27935e-11
2.30769e-11
2.32826e-11
2.34147e-11
2.34782e-11
1.67158e-11
1.76807e-11
1.90636e-11
2.08158e-11
2.28945e-11
2.5258e-11
2.78628e-11
3.06634e-11
3.36117e-11
3.66581e-11
3.97528e-11
4.28465e-11
4.58924e-11
4.8847e-11
5.16714e-11
5.43318e-11
5.68002e-11
5.90547e-11
6.10792e-11
6.28633e-11
6.44018e-11
6.56946e-11
6.67455e-11
6.75617e-11
6.81536e-11
6.85337e-11
6.87161e-11
4.92764e-11
5.20966e-11
5.61354e-11
6.12468e-11
6.73025e-11
7.41771e-11
8.17411e-11
8.98588e-11
9.83888e-11
1.07186e-10
1.16105e-10
1.25005e-10
1.3375e-10
1.42218e-10
1.50297e-10
1.57895e-10
1.64933e-10
1.7135e-10
1.77104e-10
1.82168e-10
1.8653e-10
1.9019e-10
1.93162e-10
1.95468e-10
1.97139e-10
1.98211e-10
1.98725e-10
1.44141e-10
1.52278e-10
1.63916e-10
1.78619e-10
1.96004e-10
2.15697e-10
2.37313e-10
2.60453e-10
2.84705e-10
3.09651e-10
3.34875e-10
3.59976e-10
3.84579e-10
4.08341e-10
4.30959e-10
4.52179e-10
4.71791e-10
4.89639e-10
5.05611e-10
5.19641e-10
5.31705e-10
5.41815e-10
5.50012e-10
5.56365e-10
5.60963e-10
5.63909e-10
5.65321e-10
4.17194e-10
4.40237e-10
4.73136e-10
5.1461e-10
5.63519e-10
6.18755e-10
6.79192e-10
7.43673e-10
8.11019e-10
8.80049e-10
9.49607e-10
1.01859e-09
1.08598e-09
1.15085e-09
1.21242e-09
1.27e-09
1.32308e-09
1.37126e-09
1.41427e-09
1.45197e-09
1.48432e-09
1.51138e-09
1.53328e-09
1.55023e-09
1.56248e-09
1.57032e-09
1.57407e-09
1.19076e-09
1.25441e-09
1.34508e-09
1.45904e-09
1.59297e-09
1.74364e-09
1.90782e-09
2.08224e-09
2.26361e-09
2.44871e-09
2.63442e-09
2.81782e-09
2.99625e-09
3.16736e-09
3.32913e-09
3.47993e-09
3.61848e-09
3.74385e-09
3.85546e-09
3.95304e-09
4.03657e-09
4.10629e-09
4.16262e-09
4.20614e-09
4.23753e-09
4.25761e-09
4.2672e-09
3.33684e-09
3.50704e-09
3.74879e-09
4.05155e-09
4.40585e-09
4.80258e-09
5.23274e-09
5.68738e-09
6.15772e-09
6.63526e-09
7.11198e-09
7.58049e-09
8.03419e-09
8.46734e-09
8.87517e-09
9.25385e-09
9.6005e-09
9.91315e-09
1.01906e-08
1.04325e-08
1.06391e-08
1.08111e-08
1.09498e-08
1.10567e-08
1.11338e-08
1.11829e-08
1.12064e-08
9.13393e-09
9.57105e-09
1.01899e-08
1.09617e-08
1.18604e-08
1.28615e-08
1.39408e-08
1.5075e-08
1.62416e-08
1.74195e-08
1.85889e-08
1.97322e-08
2.08338e-08
2.18807e-08
2.28621e-08
2.37696e-08
2.45972e-08
2.53411e-08
2.59993e-08
2.65714e-08
2.70588e-08
2.74636e-08
2.77893e-08
2.804e-08
2.82203e-08
2.83353e-08
2.83901e-08
2.42789e-08
2.53495e-08
2.68598e-08
2.8735e-08
3.09073e-08
3.33133e-08
3.58922e-08
3.85863e-08
4.13413e-08
4.41068e-08
4.68374e-08
4.9493e-08
5.20394e-08
5.4448e-08
5.66962e-08
5.87671e-08
6.06489e-08
6.23347e-08
6.38217e-08
6.51109e-08
6.62062e-08
6.71142e-08
6.78433e-08
6.84034e-08
6.88057e-08
6.90618e-08
6.91838e-08
6.23031e-08
6.47912e-08
6.82893e-08
7.26129e-08
7.75967e-08
8.30864e-08
8.89377e-08
9.50157e-08
1.01196e-07
1.07368e-07
1.1343e-07
1.19297e-07
1.24897e-07
1.30172e-07
1.35076e-07
1.39578e-07
1.43655e-07
1.47296e-07
1.505e-07
1.53271e-07
1.55619e-07
1.57563e-07
1.5912e-07
1.60315e-07
1.61172e-07
1.61717e-07
1.61976e-07
1.53579e-07
1.59057e-07
1.66735e-07
1.76188e-07
1.87035e-07
1.98926e-07
2.11538e-07
2.24573e-07
2.37765e-07
2.50874e-07
2.63696e-07
2.76053e-07
2.87802e-07
2.98829e-07
3.09047e-07
3.18398e-07
3.26843e-07
3.34367e-07
3.40971e-07
3.46671e-07
3.51494e-07
3.55478e-07
3.58666e-07
3.61109e-07
3.62859e-07
3.6397e-07
3.64498e-07
3.62542e-07
3.73994e-07
3.90004e-07
4.09651e-07
4.32111e-07
4.56635e-07
4.82539e-07
5.09205e-07
5.36084e-07
5.62695e-07
5.88626e-07
6.13534e-07
6.37141e-07
6.59232e-07
6.7965e-07
6.98286e-07
7.15081e-07
7.30012e-07
7.43094e-07
7.54365e-07
7.63888e-07
7.71742e-07
7.78022e-07
7.82827e-07
7.86265e-07
7.88448e-07
7.89484e-07
8.18819e-07
8.41648e-07
8.73498e-07
9.1248e-07
9.56914e-07
1.00528e-06
1.05619e-06
1.10844e-06
1.16093e-06
1.21274e-06
1.26307e-06
1.31128e-06
1.35686e-06
1.3994e-06
1.43863e-06
1.47436e-06
1.5065e-06
1.53503e-06
1.55998e-06
1.58144e-06
1.59956e-06
1.61448e-06
1.6264e-06
1.63551e-06
1.64203e-06
1.64616e-06
1.64812e-06
1.77026e-06
1.81388e-06
1.87464e-06
1.94886e-06
2.03326e-06
2.1249e-06
2.22114e-06
2.31963e-06
2.41836e-06
2.51557e-06
2.60982e-06
2.6999e-06
2.78491e-06
2.86412e-06
2.93705e-06
3.00338e-06
3.06297e-06
3.11579e-06
3.16195e-06
3.20162e-06
3.23507e-06
3.26261e-06
3.28458e-06
3.30137e-06
3.31337e-06
3.32098e-06
3.32459e-06
3.66504e-06
3.74563e-06
3.85778e-06
3.99461e-06
4.15001e-06
4.31851e-06
4.49522e-06
4.67583e-06
4.85663e-06
5.03442e-06
5.20657e-06
5.37094e-06
5.52586e-06
5.67007e-06
5.80272e-06
5.92327e-06
6.03146e-06
6.1273e-06
6.21098e-06
6.28286e-06
6.34342e-06
6.39324e-06
6.43299e-06
6.46334e-06
6.48502e-06
6.49875e-06
6.50527e-06
7.27177e-06
7.41736e-06
7.61992e-06
7.86699e-06
8.14753e-06
8.45162e-06
8.77044e-06
9.09622e-06
9.42223e-06
9.74275e-06
1.0053e-05
1.03492e-05
1.06283e-05
1.0888e-05
1.11268e-05
1.13437e-05
1.15384e-05
1.17107e-05
1.18611e-05
1.19903e-05
1.20991e-05
1.21885e-05
1.22598e-05
1.23143e-05
1.23532e-05
1.23778e-05
1.23894e-05
1.38096e-05
1.40678e-05
1.44271e-05
1.48658e-05
1.53644e-05
1.59055e-05
1.64735e-05
1.70547e-05
1.7637e-05
1.82104e-05
1.87662e-05
1.92975e-05
1.97987e-05
2.02657e-05
2.06957e-05
2.10866e-05
2.14378e-05
2.17489e-05
2.20206e-05
2.2254e-05
2.24507e-05
2.26124e-05
2.27414e-05
2.28398e-05
2.29101e-05
2.29545e-05
2.29756e-05
2.49644e-05
2.54081e-05
2.60266e-05
2.6783e-05
2.76444e-05
2.85814e-05
2.95676e-05
3.05796e-05
3.15967e-05
3.26013e-05
3.35782e-05
3.4515e-05
3.54018e-05
3.62306e-05
3.69959e-05
3.7694e-05
3.83225e-05
3.88809e-05
3.93697e-05
3.97905e-05
4.01457e-05
4.04383e-05
4.06719e-05
4.08504e-05
4.09779e-05
4.10586e-05
4.10969e-05
4.25698e-05
4.32853e-05
4.42836e-05
4.55057e-05
4.68996e-05
4.84185e-05
5.00201e-05
5.16671e-05
5.33261e-05
5.49685e-05
5.65694e-05
5.81083e-05
5.95684e-05
6.09364e-05
6.22024e-05
6.33596e-05
6.44038e-05
6.53332e-05
6.61481e-05
6.68508e-05
6.74446e-05
6.79344e-05
6.83258e-05
6.86251e-05
6.88391e-05
6.89747e-05
6.9039e-05
6.78324e-05
6.88712e-05
7.03193e-05
7.20903e-05
7.4108e-05
7.63034e-05
7.86152e-05
8.09883e-05
8.33749e-05
8.57331e-05
8.80277e-05
9.02293e-05
9.23141e-05
9.42637e-05
9.60645e-05
9.77073e-05
9.91869e-05
0.000100502
0.000101652
0.000102643
0.000103478
0.000104166
0.000104716
0.000105135
0.000105435
0.000105624
0.000105714
0.000100408
0.000101729
0.000103566
0.000105804
0.000108344
0.000111095
0.000113976
0.000116919
0.000119861
0.000122751
0.000125547
0.000128214
0.000130726
0.000133061
0.000135207
0.000137154
0.0001389
0.000140444
0.000141789
0.000142943
0.000143912
0.000144708
0.000145342
0.000145825
0.000146168
0.000146386
0.000146488
0.000138002
0.000139466
0.000141495
0.000143955
0.000146731
0.000149718
0.000152827
0.000155979
0.000159109
0.000162161
0.000165093
0.000167871
0.000170469
0.000172869
0.00017506
0.000177038
0.000178801
0.000180353
0.000181699
0.000182849
0.000183812
0.0001846
0.000185225
0.0001857
0.000186037
0.00018625
0.000186351
0.000177007
0.000178441
0.00018042
0.000182811
0.000185493
0.000188364
0.000191332
0.000194322
0.000197272
0.00020013
0.000202858
0.000205426
0.000207814
0.000210008
0.000212001
0.000213791
0.000215381
0.000216774
0.000217978
0.000219004
0.000219861
0.00022056
0.000221114
0.000221535
0.000221833
0.000222021
0.00022211
0.000213884
0.000215154
0.000216903
0.000219008
0.000221359
0.000223864
0.000226442
0.000229026
0.000231561
0.000234007
0.00023633
0.000238507
0.000240523
0.000242368
0.000244038
0.000245533
0.000246857
0.000248014
0.000249013
0.000249862
0.00025057
0.000251147
0.000251604
0.000251951
0.000252197
0.000252352
0.000252425
0.000246198
0.000247241
0.000248674
0.000250395
0.000252311
0.000254346
0.000256433
0.000258518
0.000260558
0.000262519
0.000264376
0.000266112
0.000267715
0.000269179
0.000270502
0.000271684
0.000272729
0.000273641
0.000274428
0.000275096
0.000275653
0.000276107
0.000276467
0.000276739
0.000276933
0.000277055
0.000277112
0.000272866
0.000273676
0.000274787
0.000276119
0.000277599
0.000279169
0.000280775
0.000282377
0.000283941
0.000285442
0.000286861
0.000288185
0.000289407
0.000290522
0.000291528
0.000292427
0.00029322
0.000293914
0.000294511
0.000295018
0.000295441
0.000295786
0.000296059
0.000296267
0.000296414
0.000296507
0.000296551
0.00029385
0.000294453
0.00029528
0.000296269
0.000297369
0.000298532
0.000299723
0.000300908
0.000302064
0.000303173
0.000304221
0.000305198
0.000306099
0.000306921
0.000307662
0.000308324
0.000308909
0.00030942
0.00030986
0.000310234
0.000310546
0.000310801
0.000311003
0.000311156
0.000311265
0.000311333
0.000311366
0.000309709
0.000310142
0.000310737
0.000311448
0.000312237
0.000313073
0.000313926
0.000314776
0.000315605
0.000316399
0.000317149
0.000317848
0.000318493
0.000319081
0.000319611
0.000320085
0.000320503
0.000320869
0.000321184
0.000321452
0.000321676
0.000321858
0.000322003
0.000322113
0.000322191
0.00032224
0.000322263
0.000321238
0.000321539
0.000321952
0.000322446
0.000322995
0.000323575
0.000324167
0.000324756
0.00032533
0.00032588
0.000326399
0.000326883
0.000327328
0.000327735
0.000328101
0.000328429
0.000328718
0.00032897
0.000329188
0.000329373
0.000329528
0.000329654
0.000329754
0.00032983
0.000329884
0.000329918
0.000329935
0.000329254
0.000329455
0.00032973
0.000330059
0.000330424
0.00033081
0.000331203
0.000331593
0.000331974
0.000332337
0.00033268
0.000333
0.000333294
0.000333561
0.000333803
0.000334018
0.000334208
0.000334374
0.000334517
0.000334638
0.00033474
0.000334822
0.000334888
0.000334938
0.000334973
0.000334996
0.000335007
0.000334493
0.000334619
0.000334791
0.000334996
0.000335223
0.000335462
0.000335705
0.000335946
0.00033618
0.000336404
0.000336614
0.000336809
0.000336988
0.00033715
0.000337297
0.000337427
0.000337542
0.000337641
0.000337728
0.0003378
0.000337861
0.000337911
0.00033795
0.00033798
0.000338001
0.000338015
0.000338021
0.000337574
0.000337643
0.000337738
0.000337851
0.000337975
0.000338104
0.000338236
0.000338365
0.00033849
0.000338607
0.000338718
0.000338819
0.000338912
0.000338995
0.000339069
0.000339135
0.000339193
0.000339243
0.000339286
0.000339322
0.000339352
0.000339377
0.000339396
0.000339411
0.000339421
0.000339428
0.000339431
0.000338998
0.000339026
0.000339063
0.000339107
0.000339154
0.000339203
0.00033925
0.000339296
0.000339339
0.000339378
0.000339413
0.000339444
0.000339472
0.000339496
0.000339517
0.000339534
0.000339549
0.000339561
0.000339572
0.00033958
0.000339587
0.000339592
0.000339597
0.0003396
0.000339602
0.000339603
0.000339604
0.000339164
0.000339161
0.000339155
0.000339148
0.000339138
0.000339126
0.000339111
0.000339095
0.000339076
0.000339057
0.000339036
0.000339015
0.000338994
0.000338974
0.000338954
0.000338936
0.000338918
0.000338903
0.000338889
0.000338876
0.000338866
0.000338857
0.00033885
0.000338844
0.00033884
0.000338837
0.000338836
0.000338382
0.000338355
0.000338319
0.000338273
0.000338221
0.000338164
0.000338104
0.000338041
0.000337977
0.000337914
0.000337852
0.000337793
0.000337736
0.000337682
0.000337633
0.000337587
0.000337546
0.00033751
0.000337477
0.00033745
0.000337426
0.000337406
0.000337391
0.000337379
0.00033737
0.000337365
0.000337362
0.000336893
0.00033685
0.000336791
0.000336717
0.000336635
0.000336545
0.00033645
0.000336354
0.000336257
0.000336162
0.000336069
0.000335981
0.000335898
0.00033582
0.000335749
0.000335683
0.000335625
0.000335573
0.000335527
0.000335488
0.000335454
0.000335427
0.000335405
0.000335388
0.000335376
0.000335369
0.000335365
0.000334887
0.000334832
0.000334755
0.000334662
0.000334556
0.000334442
0.000334323
0.000334202
0.000334082
0.000333963
0.000333849
0.00033374
0.000333637
0.000333542
0.000333454
0.000333375
0.000333303
0.00033324
0.000333185
0.000333137
0.000333097
0.000333064
0.000333038
0.000333017
0.000333003
0.000332994
0.000332989
0.000332506
0.000332442
0.000332354
0.000332246
0.000332125
0.000331994
0.000331857
0.000331719
0.000331581
0.000331446
0.000331316
0.000331192
0.000331076
0.000330968
0.000330869
0.000330779
0.000330699
0.000330628
0.000330565
0.000330512
0.000330467
0.00033043
0.0003304
0.000330378
0.000330361
0.000330351
0.000330346
0.000329863
0.000329793
0.000329696
0.000329579
0.000329446
0.000329303
0.000329155
0.000329004
0.000328854
0.000328708
0.000328567
0.000328433
0.000328308
0.000328191
0.000328084
0.000327988
0.000327901
0.000327824
0.000327757
0.0003277
0.000327652
0.000327612
0.00032758
0.000327556
0.000327538
0.000327527
0.000327522
0.000327043
0.000326969
0.000326867
0.000326742
0.000326602
0.000326452
0.000326295
0.000326137
0.000325979
0.000325825
0.000325677
0.000325537
0.000325405
0.000325283
0.000325171
0.00032507
0.000324979
0.000324899
0.000324829
0.000324769
0.000324719
0.000324677
0.000324644
0.000324618
0.0003246
0.000324589
0.000324583
0.000324112
0.000324035
0.000323929
0.000323801
0.000323657
0.000323501
0.00032334
0.000323177
0.000323014
0.000322856
0.000322704
0.000322559
0.000322424
0.000322299
0.000322184
0.00032208
0.000321987
0.000321905
0.000321833
0.000321772
0.00032172
0.000321677
0.000321643
0.000321617
0.000321599
0.000321587
0.000321581
0.00032112
0.000321042
0.000320934
0.000320804
0.000320657
0.0003205
0.000320336
0.00032017
0.000320005
0.000319845
0.000319691
0.000319544
0.000319407
0.000319281
0.000319164
0.000319059
0.000318965
0.000318882
0.00031881
0.000318747
0.000318695
0.000318652
0.000318617
0.000318591
0.000318572
0.00031856
0.000318555
0.000318105
0.000318027
0.000317919
0.000317788
0.00031764
0.000317482
0.000317318
0.000317151
0.000316986
0.000316825
0.000316671
0.000316524
0.000316387
0.00031626
0.000316144
0.000316038
0.000315944
0.000315861
0.000315788
0.000315726
0.000315674
0.000315631
0.000315596
0.00031557
0.000315551
0.000315539
0.000315534
0.000315097
0.000315019
0.000314911
0.000314781
0.000314634
0.000314477
0.000314313
0.000314147
0.000313983
0.000313823
0.000313669
0.000313524
0.000313387
0.000313261
0.000313146
0.000313041
0.000312948
0.000312865
0.000312793
0.000312731
0.000312679
0.000312636
0.000312602
0.000312576
0.000312557
0.000312546
0.00031254
0.000312117
0.00031204
0.000311933
0.000311804
0.000311659
0.000311503
0.000311342
0.000311178
0.000311016
0.000310858
0.000310706
0.000310562
0.000310427
0.000310303
0.000310188
0.000310085
0.000309993
0.000309911
0.00030984
0.000309779
0.000309728
0.000309686
0.000309652
0.000309626
0.000309608
0.000309596
0.000309591
0.000309182
0.000309106
0.000309001
0.000308874
0.000308731
0.000308578
0.000308419
0.000308258
0.000308098
0.000307943
0.000307793
0.000307652
0.00030752
0.000307397
0.000307285
0.000307184
0.000307093
0.000307013
0.000306943
0.000306883
0.000306833
0.000306791
0.000306758
0.000306733
0.000306715
0.000306703
0.000306698
0.000306303
0.000306229
0.000306126
0.000306002
0.000305862
0.000305712
0.000305556
0.000305398
0.000305242
0.000305089
0.000304943
0.000304804
0.000304675
0.000304555
0.000304445
0.000304346
0.000304257
0.000304179
0.00030411
0.000304052
0.000304002
0.000303962
0.000303929
0.000303905
0.000303887
0.000303876
0.00030387
0.00030349
0.000303418
0.000303317
0.000303196
0.000303059
0.000302912
0.00030276
0.000302606
0.000302453
0.000302304
0.000302162
0.000302026
0.0003019
0.000301783
0.000301676
0.000301579
0.000301492
0.000301416
0.000301349
0.000301292
0.000301244
0.000301204
0.000301172
0.000301148
0.000301131
0.00030112
0.000301115
0.000300749
0.000300678
0.000300581
0.000300462
0.000300329
0.000300186
0.000300037
0.000299887
0.000299739
0.000299594
0.000299455
0.000299323
0.0002992
0.000299086
0.000298981
0.000298887
0.000298803
0.000298728
0.000298663
0.000298608
0.000298561
0.000298522
0.000298491
0.000298468
0.000298451
0.00029844
0.000298435
0.000298084
0.000298015
0.00029792
0.000297805
0.000297675
0.000297536
0.000297392
0.000297246
0.000297102
0.000296961
0.000296826
0.000296698
0.000296578
0.000296467
0.000296366
0.000296274
0.000296192
0.00029612
0.000296057
0.000296003
0.000295957
0.00029592
0.00029589
0.000295867
0.000295851
0.00029584
0.000295835
0.000295498
0.000295431
0.000295339
0.000295227
0.000295101
0.000294966
0.000294826
0.000294685
0.000294545
0.000294408
0.000294277
0.000294153
0.000294037
0.000293929
0.000293831
0.000293742
0.000293662
0.000293592
0.000293531
0.000293479
0.000293435
0.000293398
0.000293369
0.000293347
0.000293331
0.000293321
0.000293316
0.000292993
0.000292928
0.000292839
0.000292731
0.000292609
0.000292478
0.000292343
0.000292205
0.00029207
0.000291937
0.00029181
0.00029169
0.000291578
0.000291473
0.000291378
0.000291292
0.000291215
0.000291147
0.000291088
0.000291037
0.000290995
0.00029096
0.000290931
0.00029091
0.000290895
0.000290885
0.00029088
0.000290571
0.000290508
0.000290422
0.000290317
0.000290199
0.000290073
0.000289941
0.000289809
0.000289678
0.00028955
0.000289427
0.000289311
0.000289202
0.000289101
0.000289009
0.000288926
0.000288852
0.000288786
0.000288729
0.00028868
0.000288638
0.000288604
0.000288577
0.000288557
0.000288542
0.000288532
0.000288528
0.000288232
0.000288172
0.000288088
0.000287987
0.000287873
0.000287751
0.000287624
0.000287496
0.000287369
0.000287246
0.000287127
0.000287015
0.00028691
0.000286813
0.000286724
0.000286644
0.000286572
0.000286509
0.000286454
0.000286406
0.000286367
0.000286334
0.000286308
0.000286288
0.000286273
0.000286264
0.00028626
0.000285978
0.000285919
0.000285839
0.000285741
0.000285632
0.000285514
0.000285392
0.000285268
0.000285146
0.000285027
0.000284913
0.000284805
0.000284704
0.00028461
0.000284525
0.000284447
0.000284378
0.000284317
0.000284264
0.000284218
0.00028418
0.000284148
0.000284123
0.000284104
0.00028409
0.000284081
0.000284077
0.000283809
0.000283752
0.000283675
0.000283581
0.000283475
0.000283362
0.000283245
0.000283126
0.000283009
0.000282894
0.000282784
0.00028268
0.000282583
0.000282493
0.000282411
0.000282336
0.00028227
0.000282211
0.00028216
0.000282116
0.000282079
0.000282049
0.000282025
0.000282006
0.000281993
0.000281985
0.000281981
0.000281726
0.000281672
0.000281597
0.000281507
0.000281406
0.000281297
0.000281185
0.000281071
0.000280958
0.000280848
0.000280743
0.000280643
0.000280549
0.000280463
0.000280384
0.000280313
0.000280249
0.000280193
0.000280144
0.000280102
0.000280066
0.000280037
0.000280014
0.000279996
0.000279984
0.000279976
0.000279972
0.000279731
0.000279679
0.000279608
0.000279522
0.000279425
0.00027932
0.000279213
0.000279103
0.000278995
0.00027889
0.000278789
0.000278694
0.000278605
0.000278522
0.000278447
0.000278378
0.000278317
0.000278264
0.000278217
0.000278176
0.000278143
0.000278115
0.000278093
0.000278076
0.000278064
0.000278056
0.000278052
0.000277825
0.000277776
0.000277708
0.000277626
0.000277533
0.000277434
0.000277331
0.000277226
0.000277123
0.000277023
0.000276927
0.000276836
0.000276751
0.000276672
0.0002766
0.000276535
0.000276477
0.000276425
0.000276381
0.000276342
0.00027631
0.000276284
0.000276262
0.000276246
0.000276235
0.000276227
0.000276224
0.000276012
0.000275965
0.0002759
0.000275822
0.000275734
0.000275639
0.000275541
0.000275442
0.000275344
0.000275249
0.000275157
0.000275071
0.00027499
0.000274915
0.000274847
0.000274785
0.00027473
0.000274681
0.000274639
0.000274602
0.000274572
0.000274546
0.000274526
0.000274511
0.0002745
0.000274493
0.00027449
0.000274293
0.000274248
0.000274187
0.000274113
0.000274029
0.00027394
0.000273847
0.000273753
0.000273661
0.00027357
0.000273484
0.000273402
0.000273326
0.000273255
0.00027319
0.000273132
0.00027308
0.000273034
0.000272993
0.000272959
0.00027293
0.000272906
0.000272887
0.000272873
0.000272863
0.000272856
0.000272853
0.000272671
0.00027263
0.000272572
0.000272502
0.000272423
0.000272339
0.000272252
0.000272164
0.000272076
0.000271992
0.00027191
0.000271833
0.000271761
0.000271695
0.000271634
0.000271579
0.00027153
0.000271487
0.000271449
0.000271417
0.00027139
0.000271367
0.00027135
0.000271336
0.000271326
0.00027132
0.000271317
0.000271152
0.000271113
0.000271059
0.000270993
0.00027092
0.000270841
0.000270759
0.000270677
0.000270595
0.000270516
0.00027044
0.000270368
0.000270301
0.000270239
0.000270182
0.000270131
0.000270085
0.000270045
0.00027001
0.00026998
0.000269955
0.000269934
0.000269917
0.000269904
0.000269895
0.00026989
0.000269887
0.000269738
0.000269702
0.000269651
0.000269591
0.000269523
0.000269449
0.000269374
0.000269297
0.000269222
0.000269148
0.000269078
0.000269011
0.000268949
0.000268892
0.000268839
0.000268792
0.00026875
0.000268712
0.00026868
0.000268652
0.000268629
0.000268609
0.000268594
0.000268582
0.000268574
0.000268569
0.000268566
0.000268434
0.000268401
0.000268355
0.000268299
0.000268236
0.000268169
0.0002681
0.000268029
0.00026796
0.000267893
0.000267828
0.000267767
0.00026771
0.000267657
0.000267609
0.000267566
0.000267527
0.000267493
0.000267463
0.000267438
0.000267417
0.000267399
0.000267385
0.000267374
0.000267367
0.000267362
0.00026736
0.000267245
0.000267215
0.000267173
0.000267122
0.000267065
0.000267004
0.000266941
0.000266877
0.000266814
0.000266753
0.000266694
0.000266639
0.000266588
0.00026654
0.000266497
0.000266457
0.000266422
0.000266391
0.000266365
0.000266342
0.000266322
0.000266306
0.000266294
0.000266284
0.000266277
0.000266273
0.000266271
0.000266174
0.000266146
0.000266109
0.000266063
0.000266012
0.000265957
0.000265901
0.000265844
0.000265788
0.000265733
0.000265681
0.000265631
0.000265585
0.000265543
0.000265504
0.000265469
0.000265438
0.00026541
0.000265387
0.000265366
0.000265349
0.000265335
0.000265324
0.000265315
0.000265309
0.000265305
0.000265303
0.000265223
0.000265199
0.000265165
0.000265125
0.00026508
0.000265032
0.000264982
0.000264932
0.000264883
0.000264835
0.000264789
0.000264745
0.000264705
0.000264668
0.000264634
0.000264603
0.000264576
0.000264552
0.000264531
0.000264513
0.000264498
0.000264486
0.000264476
0.000264468
0.000264463
0.00026446
0.000264458
0.000264394
0.000264373
0.000264344
0.00026431
0.000264271
0.000264229
0.000264186
0.000264143
0.0002641
0.000264059
0.000264019
0.000263982
0.000263947
0.000263915
0.000263886
0.00026386
0.000263837
0.000263816
0.000263798
0.000263783
0.00026377
0.000263759
0.000263751
0.000263745
0.00026374
0.000263737
0.000263736
0.000263687
0.000263669
0.000263645
0.000263615
0.000263583
0.000263547
0.000263511
0.000263475
0.000263439
0.000263404
0.000263371
0.00026334
0.00026331
0.000263284
0.000263259
0.000263237
0.000263218
0.000263201
0.000263186
0.000263173
0.000263162
0.000263153
0.000263146
0.000263141
0.000263137
0.000263135
0.000263134
0.000263098
0.000263084
0.000263064
0.000263039
0.000263012
0.000262984
0.000262954
0.000262924
0.000262895
0.000262866
0.000262839
0.000262814
0.00026279
0.000262768
0.000262749
0.000262731
0.000262715
0.000262701
0.000262689
0.000262679
0.00026267
0.000262663
0.000262657
0.000262653
0.00026265
0.000262648
0.000262647
0.000262623
0.000262611
0.000262595
0.000262576
0.000262554
0.000262532
0.000262508
0.000262484
0.000262461
0.000262439
0.000262417
0.000262397
0.000262379
0.000262362
0.000262346
0.000262332
0.00026232
0.000262309
0.0002623
0.000262292
0.000262285
0.000262279
0.000262275
0.000262272
0.000262269
0.000262268
0.000262267
0.000262251
0.000262242
0.00026223
0.000262215
0.000262199
0.000262181
0.000262163
0.000262145
0.000262128
0.000262111
0.000262095
0.000262079
0.000262065
0.000262052
0.000262041
0.00026203
0.000262021
0.000262013
0.000262006
0.000262
0.000261995
0.00026199
0.000261987
0.000261985
0.000261983
0.000261982
0.000261981
0.000261971
0.000261965
0.000261956
0.000261945
0.000261933
0.00026192
0.000261907
0.000261894
0.000261881
0.000261868
0.000261857
0.000261846
0.000261835
0.000261826
0.000261818
0.00026181
0.000261803
0.000261797
0.000261792
0.000261788
0.000261784
0.000261781
0.000261779
0.000261777
0.000261776
0.000261775
0.000261775
0.000261769
0.000261764
0.000261758
0.00026175
0.000261742
0.000261733
0.000261724
0.000261714
0.000261705
0.000261697
0.000261689
0.000261681
0.000261674
0.000261667
0.000261662
0.000261656
0.000261652
0.000261648
0.000261644
0.000261641
0.000261639
0.000261637
0.000261635
0.000261634
0.000261633
0.000261633
0.000261632
0.000261629
0.000261625
0.000261621
0.000261616
0.00026161
0.000261604
0.000261598
0.000261592
0.000261586
0.00026158
0.000261575
0.00026157
0.000261565
0.000261561
0.000261557
0.000261554
0.000261551
0.000261548
0.000261546
0.000261544
0.000261543
0.000261541
0.00026154
0.00026154
0.000261539
0.000261539
0.000261539
0.000261536
0.000261534
0.000261531
0.000261528
0.000261524
0.00026152
0.000261516
0.000261513
0.000261509
0.000261505
0.000261502
0.000261499
0.000261496
0.000261494
0.000261491
0.000261489
0.000261487
0.000261486
0.000261484
0.000261483
0.000261482
0.000261482
0.000261481
0.000261481
0.00026148
0.00026148
0.00026148
0.000261477
0.000261476
0.000261474
0.000261472
0.00026147
0.000261468
0.000261466
0.000261463
0.000261461
0.000261459
0.000261457
0.000261456
0.000261454
0.000261453
0.000261451
0.00026145