/*--------------------------------*- C++ -*----------------------------------*\
| =========                 |                                                 |
| \\      /  F ield         | OpenFOAM: The Open Source CFD Toolbox           |
|  \\    /   O peration     | Version:  2106                                  |
|   \\  /    A nd           | Website:  www.openfoam.com                      |
|    \\/     M anipulation  |                                                 |
\*---------------------------------------------------------------------------*/
FoamFile
{
    version     2.0;
    format      ascii;
    arch        "LSB;label=32;scalar=64";
    class       volScalarField;
    location    "49.99987";
    object      C3H3_0;
}
// * * * * * * * * * * * * * * * * * * * * * * * * * * * * * * * * * * * * * //

dimensions      [0 0 0 0 0 0 0];

internalField   nonuniform List<scalar> 
3360
(
4.16452e-19
4.29856e-19
4.48508e-19
4.71322e-19
4.9735e-19
5.25736e-19
5.55708e-19
5.86572e-19
6.17708e-19
6.48567e-19
6.78677e-19
7.07633e-19
7.35105e-19
7.60825e-19
7.84595e-19
8.06272e-19
8.25769e-19
8.43051e-19
8.58122e-19
8.7103e-19
8.8185e-19
8.90688e-19
8.97669e-19
9.02934e-19
9.06639e-19
9.08943e-19
9.10013e-19
1.82696e-18
1.89413e-18
1.9889e-18
2.10692e-18
2.24458e-18
2.39873e-18
2.56653e-18
2.74543e-18
2.93301e-18
3.12702e-18
3.32527e-18
3.52565e-18
3.72607e-18
3.92447e-18
4.11883e-18
4.30715e-18
4.48747e-18
4.65791e-18
4.81665e-18
4.96199e-18
5.09237e-18
5.20641e-18
5.30293e-18
5.38099e-18
5.4399e-18
5.47924e-18
5.49886e-18
5.73259e-18
5.98422e-18
6.34179e-18
6.7911e-18
7.32039e-18
7.91907e-18
8.57709e-18
9.28453e-18
1.00314e-17
1.08074e-17
1.1602e-17
1.2405e-17
1.3206e-17
1.39947e-17
1.47615e-17
1.5497e-17
1.61925e-17
1.68402e-17
1.74335e-17
1.79668e-17
1.84358e-17
1.88374e-17
1.91698e-17
1.94326e-17
1.96263e-17
1.97526e-17
1.98141e-17
1.66959e-17
1.75253e-17
1.87118e-17
2.0213e-17
2.19934e-17
2.40197e-17
2.62588e-17
2.86761e-17
3.12356e-17
3.38993e-17
3.6628e-17
3.93817e-17
4.21208e-17
4.48066e-17
4.74026e-17
4.98751e-17
5.21943e-17
5.43348e-17
5.62763e-17
5.80034e-17
5.95062e-17
6.07793e-17
6.1822e-17
6.26375e-17
6.32326e-17
6.36169e-17
6.38023e-17
4.87818e-17
5.13985e-17
5.51489e-17
5.99049e-17
6.55579e-17
7.20033e-17
7.91338e-17
8.68355e-17
9.49871e-17
1.03461e-16
1.12124e-16
1.20844e-16
1.29489e-16
1.37935e-16
1.46065e-16
1.53777e-16
1.60981e-16
1.67602e-16
1.73584e-16
1.78886e-16
1.83482e-16
1.87364e-16
1.90533e-16
1.93004e-16
1.94804e-16
1.95963e-16
1.9652e-16
1.43846e-16
1.51883e-16
1.63416e-16
1.78054e-16
1.95462e-16
2.15316e-16
2.3728e-16
2.60997e-16
2.86086e-16
3.12143e-16
3.38755e-16
3.65506e-16
3.91989e-16
4.1782e-16
4.42643e-16
4.66145e-16
4.88057e-16
5.08162e-16
5.26293e-16
5.42335e-16
5.56219e-16
5.67924e-16
5.77467e-16
5.849e-16
5.90303e-16
5.9378e-16
5.95451e-16
4.27326e-16
4.51748e-16
4.86793e-16
5.31276e-16
5.84174e-16
6.4449e-16
7.11189e-16
7.8317e-16
8.59258e-16
9.3822e-16
1.01879e-15
1.0997e-15
1.17973e-15
1.2577e-15
1.33257e-15
1.40339e-15
1.46936e-15
1.52985e-15
1.58437e-15
1.63257e-15
1.67427e-15
1.70942e-15
1.73806e-15
1.76036e-15
1.77656e-15
1.78699e-15
1.792e-15
1.27371e-15
1.3472e-15
1.45271e-15
1.58669e-15
1.74605e-15
1.92779e-15
2.12878e-15
2.34566e-15
2.57489e-15
2.81271e-15
3.05531e-15
3.29886e-15
3.53964e-15
3.77416e-15
3.99923e-15
4.21204e-15
4.41021e-15
4.59182e-15
4.75542e-15
4.90001e-15
5.02505e-15
5.13037e-15
5.21618e-15
5.28296e-15
5.33148e-15
5.36268e-15
5.37768e-15
3.80653e-15
4.02742e-15
4.3445e-15
4.74706e-15
5.22584e-15
5.77174e-15
6.37532e-15
7.02646e-15
7.71444e-15
8.42799e-15
9.1556e-15
9.88579e-15
1.06075e-14
1.13101e-14
1.19843e-14
1.26216e-14
1.32149e-14
1.37585e-14
1.42481e-14
1.46808e-14
1.5055e-14
1.53701e-14
1.56268e-14
1.58266e-14
1.59718e-14
1.60652e-14
1.611e-14
1.13768e-14
1.20384e-14
1.29884e-14
1.41946e-14
1.56291e-14
1.72648e-14
1.90732e-14
2.10239e-14
2.30848e-14
2.5222e-14
2.74009e-14
2.95873e-14
3.17477e-14
3.38508e-14
3.58682e-14
3.77747e-14
3.95493e-14
4.11749e-14
4.26387e-14
4.3932e-14
4.505e-14
4.59915e-14
4.67583e-14
4.7355e-14
4.77883e-14
4.8067e-14
4.82009e-14
3.40195e-14
3.60006e-14
3.88443e-14
4.24542e-14
4.67466e-14
5.16398e-14
5.70481e-14
6.28806e-14
6.90404e-14
7.54264e-14
8.19351e-14
8.84637e-14
9.49128e-14
1.01189e-13
1.07208e-13
1.12895e-13
1.18186e-13
1.23033e-13
1.27396e-13
1.3125e-13
1.34582e-13
1.37387e-13
1.39672e-13
1.41449e-13
1.4274e-13
1.4357e-13
1.43969e-13
1.01632e-13
1.07548e-13
1.1604e-13
1.26817e-13
1.39631e-13
1.54234e-13
1.7037e-13
1.87766e-13
2.06132e-13
2.25166e-13
2.4456e-13
2.64005e-13
2.83207e-13
3.01887e-13
3.19794e-13
3.36706e-13
3.52438e-13
3.66842e-13
3.79805e-13
3.91252e-13
4.01143e-13
4.09469e-13
4.16248e-13
4.2152e-13
4.25349e-13
4.2781e-13
4.28993e-13
3.033e-13
3.20937e-13
3.46242e-13
3.78347e-13
4.16497e-13
4.59951e-13
5.07939e-13
5.59642e-13
6.14195e-13
6.70694e-13
7.2822e-13
7.85865e-13
8.4275e-13
8.98056e-13
9.5104e-13
1.00106e-12
1.04756e-12
1.09011e-12
1.12839e-12
1.16218e-12
1.19136e-12
1.21592e-12
1.23591e-12
1.25145e-12
1.26273e-12
1.26999e-12
1.27347e-12
9.02561e-13
9.54901e-13
1.02997e-12
1.12517e-12
1.23822e-12
1.3669e-12
1.5089e-12
1.66177e-12
1.82292e-12
1.98968e-12
2.15931e-12
2.32914e-12
2.49657e-12
2.65921e-12
2.81489e-12
2.96171e-12
3.0981e-12
3.22281e-12
3.33491e-12
3.43379e-12
3.51915e-12
3.59092e-12
3.64931e-12
3.69469e-12
3.72762e-12
3.74877e-12
3.75893e-12
2.67628e-12
2.83076e-12
3.05217e-12
3.33269e-12
3.66551e-12
4.0439e-12
4.46095e-12
4.90933e-12
5.38136e-12
5.86911e-12
6.36457e-12
6.85988e-12
7.34753e-12
7.82058e-12
8.27276e-12
8.6987e-12
9.09391e-12
9.45486e-12
9.77898e-12
1.00646e-11
1.03109e-11
1.05179e-11
1.06862e-11
1.08169e-11
1.09116e-11
1.09725e-11
1.10017e-11
7.88947e-12
8.34101e-12
8.98764e-12
9.80599e-12
1.07755e-11
1.18762e-11
1.30872e-11
1.43869e-11
1.57526e-11
1.7161e-11
1.8589e-11
2.00139e-11
2.1414e-11
2.27697e-11
2.40633e-11
2.52796e-11
2.64064e-11
2.74339e-11
2.83551e-11
2.91659e-11
2.98641e-11
3.04502e-11
3.0926e-11
3.12952e-11
3.15627e-11
3.17344e-11
3.18167e-11
2.30786e-11
2.43813e-11
2.62445e-11
2.85986e-11
3.13821e-11
3.4535e-11
3.79959e-11
4.17007e-11
4.55836e-11
4.95774e-11
5.36159e-11
5.76348e-11
6.15739e-11
6.53782e-11
6.89995e-11
7.23968e-11
7.55369e-11
7.83944e-11
8.09515e-11
8.31979e-11
8.51294e-11
8.6748e-11
8.80604e-11
8.90776e-11
8.98137e-11
9.02855e-11
9.05115e-11
6.68004e-11
7.04898e-11
7.57573e-11
8.23977e-11
9.02286e-11
9.90726e-11
1.08749e-10
1.19073e-10
1.29856e-10
1.40908e-10
1.52045e-10
1.6309e-10
1.7388e-10
1.84267e-10
1.94124e-10
2.03344e-10
2.11842e-10
2.19556e-10
2.26443e-10
2.32479e-10
2.37658e-10
2.4199e-10
2.45497e-10
2.48211e-10
2.50172e-10
2.51428e-10
2.52029e-10
1.9068e-10
2.00872e-10
2.1539e-10
2.33638e-10
2.55084e-10
2.7921e-10
3.055e-10
3.33428e-10
3.62471e-10
3.92109e-10
4.21846e-10
4.51214e-10
4.79786e-10
5.07185e-10
5.33089e-10
5.57236e-10
5.79421e-10
5.99497e-10
6.17369e-10
6.32994e-10
6.46371e-10
6.57536e-10
6.66556e-10
6.73524e-10
6.78552e-10
6.81766e-10
6.83303e-10
5.34435e-10
5.61694e-10
6.00413e-10
6.48904e-10
7.05649e-10
7.6919e-10
8.38086e-10
9.10904e-10
9.86236e-10
1.06272e-09
1.13908e-09
1.21412e-09
1.28679e-09
1.35617e-09
1.42149e-09
1.48215e-09
1.53767e-09
1.58775e-09
1.6322e-09
1.67095e-09
1.70404e-09
1.73159e-09
1.75381e-09
1.77094e-09
1.78328e-09
1.79115e-09
1.79491e-09
1.46342e-09
1.53346e-09
1.63263e-09
1.7563e-09
1.90033e-09
2.06074e-09
2.23371e-09
2.41547e-09
2.60244e-09
2.79121e-09
2.97864e-09
3.16188e-09
3.33845e-09
3.50625e-09
3.66355e-09
3.80902e-09
3.94169e-09
4.06094e-09
4.16644e-09
4.25817e-09
4.33629e-09
4.40119e-09
4.45341e-09
4.4936e-09
4.52251e-09
4.54094e-09
4.54972e-09
3.89253e-09
4.06426e-09
4.30656e-09
4.60739e-09
4.95591e-09
5.34194e-09
5.75575e-09
6.18806e-09
6.63017e-09
7.074e-09
7.51227e-09
7.93853e-09
8.34728e-09
8.73393e-09
9.09487e-09
9.42736e-09
9.72951e-09
1.00002e-08
1.0239e-08
1.0446e-08
1.06219e-08
1.07677e-08
1.08848e-08
1.09748e-08
1.10394e-08
1.10805e-08
1.11001e-08
1.00019e-08
1.04019e-08
1.09644e-08
1.16597e-08
1.24612e-08
1.33443e-08
1.42856e-08
1.52635e-08
1.62581e-08
1.72513e-08
1.82271e-08
1.91717e-08
2.00734e-08
2.09228e-08
2.17127e-08
2.24377e-08
2.30945e-08
2.36812e-08
2.41973e-08
2.46438e-08
2.50223e-08
2.53354e-08
2.55865e-08
2.5779e-08
2.59172e-08
2.6005e-08
2.60468e-08
2.4718e-08
2.5603e-08
2.68437e-08
2.83713e-08
3.01246e-08
3.2047e-08
3.40863e-08
3.61947e-08
3.83288e-08
4.04502e-08
4.25254e-08
4.4526e-08
4.64286e-08
4.82146e-08
4.98701e-08
5.13853e-08
5.27541e-08
5.39738e-08
5.50445e-08
5.59688e-08
5.6751e-08
5.73972e-08
5.79144e-08
5.83108e-08
5.85947e-08
5.8775e-08
5.88608e-08
5.86304e-08
6.04993e-08
6.31128e-08
6.63212e-08
6.99909e-08
7.39999e-08
7.82369e-08
8.26013e-08
8.70031e-08
9.13636e-08
9.56154e-08
9.9702e-08
1.03577e-07
1.07206e-07
1.10562e-07
1.13626e-07
1.16389e-07
1.18847e-07
1.21001e-07
1.22858e-07
1.24427e-07
1.25722e-07
1.26758e-07
1.2755e-07
1.28118e-07
1.28478e-07
1.28649e-07
1.33581e-07
1.37394e-07
1.42718e-07
1.49242e-07
1.56689e-07
1.64808e-07
1.73372e-07
1.82175e-07
1.91037e-07
1.99801e-07
2.08333e-07
2.16522e-07
2.24278e-07
2.31532e-07
2.38233e-07
2.44347e-07
2.49855e-07
2.54751e-07
2.59039e-07
2.62732e-07
2.65852e-07
2.68425e-07
2.70482e-07
2.72055e-07
2.73181e-07
2.73895e-07
2.74234e-07
2.93506e-07
3.01161e-07
3.11848e-07
3.2494e-07
3.39881e-07
3.56166e-07
3.73339e-07
3.90992e-07
4.08763e-07
4.26337e-07
4.43446e-07
4.59867e-07
4.75421e-07
4.89968e-07
5.03406e-07
5.15668e-07
5.26713e-07
5.3653e-07
5.45128e-07
5.52533e-07
5.58788e-07
5.63945e-07
5.68066e-07
5.71218e-07
5.73474e-07
5.74904e-07
5.75583e-07
6.26083e-07
6.4146e-07
6.62942e-07
6.89284e-07
7.19382e-07
7.52232e-07
7.86925e-07
8.22643e-07
8.58659e-07
8.94337e-07
9.2913e-07
9.62581e-07
9.94316e-07
1.02404e-06
1.05154e-06
1.07667e-06
1.09933e-06
1.1195e-06
1.13718e-06
1.15241e-06
1.1653e-06
1.17592e-06
1.18442e-06
1.19092e-06
1.19557e-06
1.19853e-06
1.19993e-06
1.30208e-06
1.33316e-06
1.37667e-06
1.43015e-06
1.49142e-06
1.55852e-06
1.62962e-06
1.70311e-06
1.77749e-06
1.85147e-06
1.92391e-06
1.99384e-06
2.06044e-06
2.12308e-06
2.18124e-06
2.23457e-06
2.28284e-06
2.32593e-06
2.36382e-06
2.39658e-06
2.42435e-06
2.44731e-06
2.46572e-06
2.47983e-06
2.48995e-06
2.49638e-06
2.49943e-06
2.63643e-06
2.69916e-06
2.78719e-06
2.89577e-06
3.0207e-06
3.15816e-06
3.30461e-06
3.45683e-06
3.61187e-06
3.76704e-06
3.91996e-06
4.06855e-06
4.21102e-06
4.34587e-06
4.47192e-06
4.58825e-06
4.69422e-06
4.78943e-06
4.87367e-06
4.94694e-06
5.0094e-06
5.06136e-06
5.10322e-06
5.1355e-06
5.15875e-06
5.17359e-06
5.18068e-06
5.14736e-06
5.26986e-06
5.44218e-06
5.65541e-06
5.90173e-06
6.17397e-06
6.46552e-06
6.77028e-06
7.0826e-06
7.39727e-06
7.70955e-06
8.01518e-06
8.31043e-06
8.59204e-06
8.8573e-06
9.10401e-06
9.33046e-06
9.53543e-06
9.71812e-06
9.87816e-06
1.00155e-05
1.01306e-05
1.02239e-05
1.02962e-05
1.03487e-05
1.03824e-05
1.03985e-05
9.52423e-06
9.7445e-06
1.00547e-05
1.04391e-05
1.0884e-05
1.13767e-05
1.19057e-05
1.246e-05
1.30295e-05
1.36048e-05
1.41773e-05
1.47391e-05
1.52833e-05
1.58038e-05
1.62955e-05
1.6754e-05
1.7176e-05
1.75591e-05
1.79015e-05
1.82023e-05
1.84613e-05
1.86789e-05
1.8856e-05
1.89939e-05
1.90942e-05
1.91588e-05
1.919e-05
1.64376e-05
1.67871e-05
1.72783e-05
1.78858e-05
1.85868e-05
1.93608e-05
2.01888e-05
2.10532e-05
2.19378e-05
2.28278e-05
2.37098e-05
2.45719e-05
2.54038e-05
2.61965e-05
2.69427e-05
2.76365e-05
2.82735e-05
2.88502e-05
2.93643e-05
2.98147e-05
3.02017e-05
3.05261e-05
3.07896e-05
3.09943e-05
3.1143e-05
3.12387e-05
3.12848e-05
2.61593e-05
2.6634e-05
2.72986e-05
2.81159e-05
2.90531e-05
3.00805e-05
3.1171e-05
3.23003e-05
3.34465e-05
3.45903e-05
3.57148e-05
3.68046e-05
3.78469e-05
3.88317e-05
3.9751e-05
4.0599e-05
4.13716e-05
4.20663e-05
4.26819e-05
4.32185e-05
4.36773e-05
4.40603e-05
4.43701e-05
4.461e-05
4.47838e-05
4.48954e-05
4.4949e-05
3.81679e-05
3.87189e-05
3.94867e-05
4.04249e-05
4.1492e-05
4.26507e-05
4.38681e-05
4.51158e-05
4.6369e-05
4.76063e-05
4.88098e-05
4.99649e-05
5.10597e-05
5.20851e-05
5.30345e-05
5.39035e-05
5.46892e-05
5.53908e-05
5.60084e-05
5.65436e-05
5.69987e-05
5.73766e-05
5.7681e-05
5.79158e-05
5.80851e-05
5.81935e-05
5.82455e-05
5.12009e-05
5.17523e-05
5.25166e-05
5.34447e-05
5.4493e-05
5.56231e-05
5.68012e-05
5.79986e-05
5.91908e-05
6.03575e-05
6.14824e-05
6.25527e-05
6.35587e-05
6.44933e-05
6.53519e-05
6.61318e-05
6.68322e-05
6.74534e-05
6.79969e-05
6.8465e-05
6.88609e-05
6.9188e-05
6.94501e-05
6.96514e-05
6.97961e-05
6.98883e-05
6.99323e-05
6.37707e-05
6.42624e-05
6.49415e-05
6.57618e-05
6.6683e-05
6.76696e-05
6.8691e-05
6.97214e-05
7.07396e-05
7.17286e-05
7.2675e-05
7.35688e-05
7.44028e-05
7.51722e-05
7.58743e-05
7.6508e-05
7.70736e-05
7.75723e-05
7.80063e-05
7.83782e-05
7.86912e-05
7.89486e-05
7.9154e-05
7.93112e-05
7.94237e-05
7.94952e-05
7.95292e-05
7.48127e-05
7.52121e-05
7.57618e-05
7.64231e-05
7.71621e-05
7.79491e-05
7.8759e-05
7.9571e-05
8.03684e-05
8.11379e-05
8.18695e-05
8.25561e-05
8.31928e-05
8.37767e-05
8.43064e-05
8.47819e-05
8.52039e-05
8.55742e-05
8.58948e-05
8.61683e-05
8.63974e-05
8.65851e-05
8.67343e-05
8.6848e-05
8.69291e-05
8.69805e-05
8.70049e-05
8.37894e-05
8.40886e-05
8.44994e-05
8.49917e-05
8.55393e-05
8.61198e-05
8.6714e-05
8.73064e-05
8.78848e-05
8.84397e-05
8.89642e-05
8.94535e-05
8.99046e-05
9.0316e-05
9.06871e-05
9.10184e-05
9.13109e-05
9.15662e-05
9.17862e-05
9.19729e-05
9.21287e-05
9.22557e-05
9.23563e-05
9.24326e-05
9.24869e-05
9.25211e-05
9.25373e-05
9.06018e-05
9.0809e-05
9.10926e-05
9.14313e-05
9.18063e-05
9.22017e-05
9.26042e-05
9.30032e-05
9.33902e-05
9.37592e-05
9.41056e-05
9.44267e-05
9.47207e-05
9.4987e-05
9.52256e-05
9.54372e-05
9.56228e-05
9.57838e-05
9.59216e-05
9.60379e-05
9.61342e-05
9.62124e-05
9.62739e-05
9.63204e-05
9.63532e-05
9.63738e-05
9.63835e-05
9.54218e-05
9.55521e-05
9.57297e-05
9.59407e-05
9.61729e-05
9.64161e-05
9.66617e-05
9.6903e-05
9.7135e-05
9.73541e-05
9.75577e-05
9.77445e-05
9.79136e-05
9.80652e-05
9.81994e-05
9.83171e-05
9.84192e-05
9.85067e-05
9.85808e-05
9.86425e-05
9.86932e-05
9.87337e-05
9.87653e-05
9.87889e-05
9.88054e-05
9.88156e-05
9.88204e-05
9.85446e-05
9.86143e-05
9.87086e-05
9.88195e-05
9.89401e-05
9.90646e-05
9.91883e-05
9.93076e-05
9.942e-05
9.95238e-05
9.9618e-05
9.97021e-05
9.97762e-05
9.98406e-05
9.98959e-05
9.99428e-05
9.9982e-05
0.000100014
0.000100041
0.000100062
0.000100078
0.000100091
0.0001001
0.000100107
0.000100111
0.000100114
0.000100115
0.000100293
0.000100317
0.000100349
0.000100384
0.000100421
0.000100456
0.000100489
0.000100517
0.00010054
0.000100558
0.000100571
0.00010058
0.000100584
0.000100584
0.000100581
0.000100576
0.000100569
0.000100562
0.000100553
0.000100545
0.000100536
0.000100529
0.000100522
0.000100517
0.000100512
0.00010051
0.000100508
0.000100969
0.000100959
0.000100944
0.000100925
0.0001009
0.000100871
0.000100837
0.000100799
0.000100758
0.000100714
0.000100668
0.000100622
0.000100575
0.00010053
0.000100486
0.000100444
0.000100404
0.000100368
0.000100335
0.000100305
0.00010028
0.000100258
0.00010024
0.000100226
0.000100216
0.000100209
0.000100206
0.000100828
0.000100794
0.000100747
0.000100688
0.00010062
0.000100545
0.000100464
0.000100379
0.000100292
0.000100205
0.000100118
0.000100033
9.99516e-05
9.98739e-05
9.98009e-05
9.97332e-05
9.96711e-05
9.9615e-05
9.9565e-05
9.95213e-05
9.94837e-05
9.94522e-05
9.94266e-05
9.94067e-05
9.93922e-05
9.93829e-05
9.93784e-05
0.000100081
0.00010003
9.99604e-05
9.98744e-05
9.97762e-05
9.96689e-05
9.95556e-05
9.94387e-05
9.93206e-05
9.92034e-05
9.90887e-05
9.89781e-05
9.88726e-05
9.87733e-05
9.86809e-05
9.85959e-05
9.85187e-05
9.84494e-05
9.83882e-05
9.83349e-05
9.82894e-05
9.82515e-05
9.82209e-05
9.81972e-05
9.818e-05
9.8169e-05
9.81638e-05
9.88924e-05
9.88311e-05
9.87458e-05
9.86416e-05
9.85233e-05
9.83949e-05
9.82601e-05
9.8122e-05
9.79833e-05
9.78465e-05
9.77135e-05
9.75859e-05
9.7465e-05
9.73517e-05
9.72468e-05
9.71507e-05
9.70639e-05
9.69863e-05
9.69179e-05
9.68587e-05
9.68083e-05
9.67664e-05
9.67326e-05
9.67066e-05
9.66878e-05
9.66758e-05
9.667e-05
9.73913e-05
9.73228e-05
9.72278e-05
9.71121e-05
9.69811e-05
9.68393e-05
9.66909e-05
9.65395e-05
9.63881e-05
9.62392e-05
9.60949e-05
9.59569e-05
9.58266e-05
9.57049e-05
9.55926e-05
9.549e-05
9.53974e-05
9.5315e-05
9.52425e-05
9.51799e-05
9.51267e-05
9.50826e-05
9.50471e-05
9.50198e-05
9.50001e-05
9.49875e-05
9.49815e-05
9.56748e-05
9.56022e-05
9.55014e-05
9.53789e-05
9.52405e-05
9.5091e-05
9.49349e-05
9.4776e-05
9.46174e-05
9.44618e-05
9.43113e-05
9.41678e-05
9.40324e-05
9.39064e-05
9.37902e-05
9.36843e-05
9.35889e-05
9.35041e-05
9.34297e-05
9.33654e-05
9.3311e-05
9.32659e-05
9.32297e-05
9.32018e-05
9.31817e-05
9.31689e-05
9.31628e-05
9.38166e-05
9.37418e-05
9.36382e-05
9.35125e-05
9.33704e-05
9.32173e-05
9.30576e-05
9.28953e-05
9.27335e-05
9.2575e-05
9.24221e-05
9.22764e-05
9.21392e-05
9.20115e-05
9.18941e-05
9.17872e-05
9.1691e-05
9.16056e-05
9.15308e-05
9.14662e-05
9.14115e-05
9.13663e-05
9.133e-05
9.13021e-05
9.12821e-05
9.12693e-05
9.12632e-05
9.18716e-05
9.17962e-05
9.16918e-05
9.15652e-05
9.14223e-05
9.12684e-05
9.11081e-05
9.09453e-05
9.07832e-05
9.06246e-05
9.04717e-05
9.03262e-05
9.01894e-05
9.00622e-05
8.99452e-05
8.98389e-05
8.97434e-05
8.96586e-05
8.95844e-05
8.95204e-05
8.94663e-05
8.94216e-05
8.93857e-05
8.93582e-05
8.93384e-05
8.93258e-05
8.93197e-05
8.98807e-05
8.98057e-05
8.9702e-05
8.95762e-05
8.94344e-05
8.92818e-05
8.91229e-05
8.89616e-05
8.88012e-05
8.86444e-05
8.84934e-05
8.83497e-05
8.82148e-05
8.80894e-05
8.79742e-05
8.78696e-05
8.77757e-05
8.76924e-05
8.76195e-05
8.75567e-05
8.75036e-05
8.74598e-05
8.74246e-05
8.73977e-05
8.73783e-05
8.7366e-05
8.73601e-05
8.78738e-05
8.78001e-05
8.7698e-05
8.75743e-05
8.74348e-05
8.72848e-05
8.71288e-05
8.69705e-05
8.68131e-05
8.66594e-05
8.65114e-05
8.63708e-05
8.62387e-05
8.61161e-05
8.60036e-05
8.59014e-05
8.58097e-05
8.57284e-05
8.56573e-05
8.55961e-05
8.55444e-05
8.55017e-05
8.54676e-05
8.54413e-05
8.54225e-05
8.54105e-05
8.54048e-05
8.5873e-05
8.58009e-05
8.57011e-05
8.55803e-05
8.54441e-05
8.52976e-05
8.51454e-05
8.4991e-05
8.48376e-05
8.46878e-05
8.45437e-05
8.44068e-05
8.42783e-05
8.41591e-05
8.40497e-05
8.39504e-05
8.38614e-05
8.37825e-05
8.37135e-05
8.36541e-05
8.3604e-05
8.35627e-05
8.35296e-05
8.35042e-05
8.3486e-05
8.34744e-05
8.34688e-05
8.38939e-05
8.38238e-05
8.37268e-05
8.36093e-05
8.34769e-05
8.33347e-05
8.31868e-05
8.30369e-05
8.28881e-05
8.27428e-05
8.2603e-05
8.24703e-05
8.23458e-05
8.22303e-05
8.21244e-05
8.20283e-05
8.19421e-05
8.18658e-05
8.17992e-05
8.17418e-05
8.16934e-05
8.16535e-05
8.16215e-05
8.1597e-05
8.15794e-05
8.15682e-05
8.15629e-05
8.19477e-05
8.18798e-05
8.17858e-05
8.1672e-05
8.15438e-05
8.14061e-05
8.12629e-05
8.11179e-05
8.09739e-05
8.08334e-05
8.06982e-05
8.057e-05
8.04497e-05
8.03382e-05
8.02359e-05
8.01432e-05
8.006e-05
7.99864e-05
7.99221e-05
7.98669e-05
7.98202e-05
7.97817e-05
7.97509e-05
7.97273e-05
7.97104e-05
7.96997e-05
7.96945e-05
8.0042e-05
7.99764e-05
7.98855e-05
7.97756e-05
7.96517e-05
7.95187e-05
7.93805e-05
7.92404e-05
7.91015e-05
7.89659e-05
7.88355e-05
7.87118e-05
7.85958e-05
7.84883e-05
7.83898e-05
7.83004e-05
7.82204e-05
7.81495e-05
7.80876e-05
7.80344e-05
7.79895e-05
7.79525e-05
7.79229e-05
7.79002e-05
7.78839e-05
7.78736e-05
7.78687e-05
7.81818e-05
7.81185e-05
7.80308e-05
7.79248e-05
7.78054e-05
7.76771e-05
7.75438e-05
7.74088e-05
7.72749e-05
7.71442e-05
7.70187e-05
7.68995e-05
7.67878e-05
7.66843e-05
7.65895e-05
7.65035e-05
7.64265e-05
7.63583e-05
7.62988e-05
7.62476e-05
7.62045e-05
7.61689e-05
7.61404e-05
7.61186e-05
7.6103e-05
7.60931e-05
7.60884e-05
7.637e-05
7.6309e-05
7.62245e-05
7.61223e-05
7.60073e-05
7.58837e-05
7.57553e-05
7.56253e-05
7.54964e-05
7.53706e-05
7.52497e-05
7.5135e-05
7.50276e-05
7.4928e-05
7.48368e-05
7.47541e-05
7.468e-05
7.46145e-05
7.45573e-05
7.45081e-05
7.44666e-05
7.44324e-05
7.44051e-05
7.43842e-05
7.43692e-05
7.43597e-05
7.43551e-05
7.46079e-05
7.45491e-05
7.44678e-05
7.43694e-05
7.42586e-05
7.41396e-05
7.4016e-05
7.38909e-05
7.37668e-05
7.36457e-05
7.35294e-05
7.34191e-05
7.33157e-05
7.32199e-05
7.31321e-05
7.30526e-05
7.29814e-05
7.29184e-05
7.28634e-05
7.28162e-05
7.27763e-05
7.27435e-05
7.27172e-05
7.26972e-05
7.26828e-05
7.26736e-05
7.26692e-05
7.28957e-05
7.28391e-05
7.27607e-05
7.2666e-05
7.25593e-05
7.24447e-05
7.23257e-05
7.22052e-05
7.20858e-05
7.19692e-05
7.18573e-05
7.17511e-05
7.16516e-05
7.15595e-05
7.14751e-05
7.13986e-05
7.13301e-05
7.12695e-05
7.12166e-05
7.11712e-05
7.11329e-05
7.11013e-05
7.10761e-05
7.10568e-05
7.1043e-05
7.10342e-05
7.103e-05
7.12323e-05
7.11777e-05
7.11023e-05
7.1011e-05
7.09082e-05
7.07978e-05
7.06832e-05
7.05672e-05
7.04521e-05
7.03399e-05
7.02321e-05
7.01299e-05
7.00341e-05
6.99454e-05
6.98641e-05
6.97905e-05
6.97245e-05
6.96662e-05
6.96153e-05
6.95716e-05
6.95348e-05
6.95044e-05
6.94801e-05
6.94616e-05
6.94483e-05
6.94398e-05
6.94358e-05
6.9616e-05
6.95634e-05
6.94907e-05
6.94026e-05
6.93035e-05
6.91971e-05
6.90866e-05
6.89748e-05
6.88638e-05
6.87556e-05
6.86517e-05
6.85532e-05
6.84608e-05
6.83753e-05
6.8297e-05
6.8226e-05
6.81625e-05
6.81063e-05
6.80573e-05
6.80152e-05
6.79797e-05
6.79504e-05
6.79271e-05
6.79092e-05
6.78963e-05
6.78882e-05
6.78843e-05
6.80443e-05
6.79935e-05
6.79233e-05
6.78383e-05
6.77426e-05
6.76399e-05
6.75332e-05
6.74252e-05
6.73181e-05
6.72137e-05
6.71133e-05
6.70182e-05
6.69291e-05
6.68465e-05
6.67709e-05
6.67024e-05
6.66411e-05
6.65869e-05
6.65395e-05
6.64989e-05
6.64646e-05
6.64364e-05
6.64139e-05
6.63966e-05
6.63842e-05
6.63764e-05
6.63726e-05
6.65139e-05
6.64648e-05
6.63969e-05
6.63147e-05
6.62221e-05
6.61228e-05
6.60196e-05
6.59152e-05
6.58116e-05
6.57105e-05
6.56135e-05
6.55215e-05
6.54353e-05
6.53554e-05
6.52823e-05
6.5216e-05
6.51567e-05
6.51042e-05
6.50585e-05
6.50191e-05
6.4986e-05
6.49587e-05
6.49369e-05
6.49202e-05
6.49082e-05
6.49006e-05
6.4897e-05
6.5021e-05
6.49734e-05
6.49076e-05
6.48279e-05
6.47382e-05
6.46419e-05
6.45419e-05
6.44406e-05
6.43401e-05
6.42422e-05
6.41481e-05
6.40588e-05
6.39752e-05
6.38978e-05
6.38268e-05
6.37626e-05
6.37051e-05
6.36542e-05
6.36098e-05
6.35716e-05
6.35395e-05
6.3513e-05
6.34919e-05
6.34757e-05
6.34641e-05
6.34567e-05
6.34532e-05
6.35611e-05
6.35148e-05
6.34508e-05
6.33734e-05
6.32862e-05
6.31925e-05
6.30953e-05
6.29968e-05
6.28991e-05
6.28038e-05
6.27123e-05
6.26255e-05
6.25441e-05
6.24688e-05
6.23998e-05
6.23372e-05
6.22812e-05
6.22317e-05
6.21885e-05
6.21514e-05
6.21201e-05
6.20943e-05
6.20738e-05
6.2058e-05
6.20467e-05
6.20395e-05
6.20361e-05
6.21289e-05
6.20838e-05
6.20214e-05
6.19458e-05
6.18608e-05
6.17694e-05
6.16745e-05
6.15784e-05
6.1483e-05
6.139e-05
6.13006e-05
6.12159e-05
6.11364e-05
6.10628e-05
6.09954e-05
6.09343e-05
6.08796e-05
6.08312e-05
6.0789e-05
6.07527e-05
6.07222e-05
6.0697e-05
6.06769e-05
6.06614e-05
6.06504e-05
6.06434e-05
6.06401e-05
6.07187e-05
6.06745e-05
6.06133e-05
6.05393e-05
6.0456e-05
6.03664e-05
6.02734e-05
6.01792e-05
6.00857e-05
5.99945e-05
5.99068e-05
5.98237e-05
5.97457e-05
5.96735e-05
5.96074e-05
5.95474e-05
5.94937e-05
5.94462e-05
5.94048e-05
5.93692e-05
5.93391e-05
5.93144e-05
5.92946e-05
5.92795e-05
5.92687e-05
5.92618e-05
5.92585e-05
5.93235e-05
5.928e-05
5.92198e-05
5.9147e-05
5.90649e-05
5.89767e-05
5.88851e-05
5.87923e-05
5.87001e-05
5.86103e-05
5.85238e-05
5.84418e-05
5.8365e-05
5.82937e-05
5.82285e-05
5.81693e-05
5.81163e-05
5.80694e-05
5.80285e-05
5.79933e-05
5.79637e-05
5.79392e-05
5.79197e-05
5.79048e-05
5.78941e-05
5.78873e-05
5.7884e-05
5.7936e-05
5.7893e-05
5.78334e-05
5.77612e-05
5.768e-05
5.75926e-05
5.75018e-05
5.74098e-05
5.73185e-05
5.72294e-05
5.71436e-05
5.70623e-05
5.6986e-05
5.69153e-05
5.68505e-05
5.67918e-05
5.67391e-05
5.66926e-05
5.66519e-05
5.6617e-05
5.65875e-05
5.65632e-05
5.65438e-05
5.65289e-05
5.65183e-05
5.65115e-05
5.65083e-05
5.65476e-05
5.65047e-05
5.64454e-05
5.63735e-05
5.62925e-05
5.62054e-05
5.61148e-05
5.6023e-05
5.59319e-05
5.58429e-05
5.57573e-05
5.56761e-05
5.55999e-05
5.55292e-05
5.54644e-05
5.54057e-05
5.53531e-05
5.53065e-05
5.52658e-05
5.52308e-05
5.52013e-05
5.5177e-05
5.51576e-05
5.51427e-05
5.51321e-05
5.51253e-05
5.51221e-05
5.5149e-05
5.51059e-05
5.50463e-05
5.49742e-05
5.48928e-05
5.48054e-05
5.47144e-05
5.46221e-05
5.45305e-05
5.4441e-05
5.43549e-05
5.42732e-05
5.41965e-05
5.41253e-05
5.40601e-05
5.40009e-05
5.39479e-05
5.39009e-05
5.38599e-05
5.38246e-05
5.37949e-05
5.37704e-05
5.37508e-05
5.37358e-05
5.3725e-05
5.37182e-05
5.37149e-05
5.37295e-05
5.3686e-05
5.36257e-05
5.35527e-05
5.34704e-05
5.33819e-05
5.32898e-05
5.31963e-05
5.31035e-05
5.30128e-05
5.29255e-05
5.28426e-05
5.27647e-05
5.26925e-05
5.26263e-05
5.25662e-05
5.25123e-05
5.24646e-05
5.24229e-05
5.23871e-05
5.23568e-05
5.23319e-05
5.23119e-05
5.22967e-05
5.22857e-05
5.22788e-05
5.22755e-05
5.22778e-05
5.22335e-05
5.2172e-05
5.20976e-05
5.20136e-05
5.19233e-05
5.18292e-05
5.17338e-05
5.1639e-05
5.15463e-05
5.14571e-05
5.13723e-05
5.12926e-05
5.12187e-05
5.11509e-05
5.10894e-05
5.10342e-05
5.09853e-05
5.09426e-05
5.09059e-05
5.08748e-05
5.08493e-05
5.08288e-05
5.08132e-05
5.08019e-05
5.07948e-05
5.07914e-05
5.07816e-05
5.0736e-05
5.06728e-05
5.05963e-05
5.05099e-05
5.0417e-05
5.03202e-05
5.0222e-05
5.01243e-05
5.00288e-05
4.99368e-05
4.98494e-05
4.97673e-05
4.9691e-05
4.96211e-05
4.95575e-05
4.95005e-05
4.945e-05
4.94059e-05
4.93679e-05
4.93359e-05
4.93095e-05
4.92883e-05
4.92721e-05
4.92605e-05
4.92531e-05
4.92496e-05
4.92276e-05
4.91804e-05
4.91149e-05
4.90356e-05
4.89461e-05
4.88497e-05
4.87494e-05
4.86475e-05
4.85461e-05
4.8447e-05
4.83514e-05
4.82606e-05
4.81752e-05
4.8096e-05
4.80232e-05
4.79571e-05
4.78978e-05
4.78453e-05
4.77993e-05
4.77598e-05
4.77264e-05
4.76989e-05
4.76769e-05
4.766e-05
4.76479e-05
4.76402e-05
4.76365e-05
4.76025e-05
4.75532e-05
4.7485e-05
4.74022e-05
4.73087e-05
4.72081e-05
4.71033e-05
4.69968e-05
4.68909e-05
4.67872e-05
4.66873e-05
4.65923e-05
4.6503e-05
4.64201e-05
4.63439e-05
4.62747e-05
4.62126e-05
4.61575e-05
4.61094e-05
4.60679e-05
4.6033e-05
4.60041e-05
4.5981e-05
4.59633e-05
4.59506e-05
4.59426e-05
4.59387e-05
4.5893e-05
4.58413e-05
4.57697e-05
4.56828e-05
4.55847e-05
4.5479e-05
4.53689e-05
4.5257e-05
4.51457e-05
4.50367e-05
4.49317e-05
4.48317e-05
4.47378e-05
4.46505e-05
4.45703e-05
4.44975e-05
4.44321e-05
4.43741e-05
4.43235e-05
4.42798e-05
4.4243e-05
4.42126e-05
4.41883e-05
4.41696e-05
4.41563e-05
4.41477e-05
4.41437e-05
4.40872e-05
4.40327e-05
4.39572e-05
4.38656e-05
4.37621e-05
4.36507e-05
4.35346e-05
4.34166e-05
4.32991e-05
4.31841e-05
4.30733e-05
4.29678e-05
4.28686e-05
4.27765e-05
4.26918e-05
4.26149e-05
4.25458e-05
4.24846e-05
4.2431e-05
4.2385e-05
4.2346e-05
4.23139e-05
4.22882e-05
4.22685e-05
4.22544e-05
4.22454e-05
4.22411e-05
4.21752e-05
4.21176e-05
4.20379e-05
4.19411e-05
4.18319e-05
4.17141e-05
4.15914e-05
4.14668e-05
4.13426e-05
4.12212e-05
4.1104e-05
4.09925e-05
4.08877e-05
4.07903e-05
4.07008e-05
4.06195e-05
4.05465e-05
4.04818e-05
4.04252e-05
4.03765e-05
4.03354e-05
4.03014e-05
4.02743e-05
4.02535e-05
4.02385e-05
4.0229e-05
4.02245e-05
4.01515e-05
4.00907e-05
4.00065e-05
3.99044e-05
3.97891e-05
3.96648e-05
3.95353e-05
3.94037e-05
3.92727e-05
3.91446e-05
3.90209e-05
3.89033e-05
3.87927e-05
3.869e-05
3.85956e-05
3.85098e-05
3.84329e-05
3.83646e-05
3.83049e-05
3.82536e-05
3.82102e-05
3.81744e-05
3.81458e-05
3.81238e-05
3.81081e-05
3.80981e-05
3.80933e-05
3.80167e-05
3.79528e-05
3.78643e-05
3.77569e-05
3.76357e-05
3.75051e-05
3.73691e-05
3.72308e-05
3.70932e-05
3.69586e-05
3.68288e-05
3.67053e-05
3.65892e-05
3.64814e-05
3.63823e-05
3.62924e-05
3.62116e-05
3.61401e-05
3.60775e-05
3.60236e-05
3.59782e-05
3.59406e-05
3.59106e-05
3.58876e-05
3.58711e-05
3.58607e-05
3.58557e-05
3.57809e-05
3.57143e-05
3.5622e-05
3.55101e-05
3.53838e-05
3.52477e-05
3.5106e-05
3.49621e-05
3.48189e-05
3.46789e-05
3.45439e-05
3.44155e-05
3.42948e-05
3.41827e-05
3.40798e-05
3.39864e-05
3.39025e-05
3.38282e-05
3.37632e-05
3.37073e-05
3.36601e-05
3.36212e-05
3.359e-05
3.35662e-05
3.35491e-05
3.35382e-05
3.3533e-05
3.34671e-05
3.33987e-05
3.33039e-05
3.3189e-05
3.30596e-05
3.29204e-05
3.27756e-05
3.26289e-05
3.24832e-05
3.23411e-05
3.22046e-05
3.2075e-05
3.19535e-05
3.18409e-05
3.17376e-05
3.16439e-05
3.156e-05
3.14856e-05
3.14208e-05
3.1365e-05
3.13179e-05
3.12792e-05
3.12482e-05
3.12244e-05
3.12075e-05
3.11967e-05
3.11915e-05
3.11286e-05
3.10602e-05
3.09656e-05
3.0851e-05
3.07218e-05
3.05829e-05
3.04384e-05
3.02919e-05
3.01464e-05
3.00044e-05
2.98677e-05
2.97379e-05
2.96162e-05
2.95033e-05
2.93998e-05
2.9306e-05
2.92218e-05
2.91474e-05
2.90824e-05
2.90265e-05
2.89794e-05
2.89406e-05
2.89096e-05
2.88858e-05
2.88688e-05
2.8858e-05
2.88529e-05
2.87982e-05
2.873e-05
2.86357e-05
2.85214e-05
2.83926e-05
2.82541e-05
2.81101e-05
2.79641e-05
2.78191e-05
2.76775e-05
2.75413e-05
2.7412e-05
2.72908e-05
2.71784e-05
2.70753e-05
2.69819e-05
2.68982e-05
2.68241e-05
2.67594e-05
2.67038e-05
2.6657e-05
2.66184e-05
2.65875e-05
2.65639e-05
2.6547e-05
2.65363e-05
2.65311e-05
2.64902e-05
2.64228e-05
2.63296e-05
2.62167e-05
2.60894e-05
2.59527e-05
2.58106e-05
2.56665e-05
2.55235e-05
2.5384e-05
2.52498e-05
2.51225e-05
2.50031e-05
2.48925e-05
2.47911e-05
2.46993e-05
2.4617e-05
2.45442e-05
2.44807e-05
2.44261e-05
2.43801e-05
2.43422e-05
2.43119e-05
2.42888e-05
2.42722e-05
2.42616e-05
2.42566e-05
2.42336e-05
2.41679e-05
2.40771e-05
2.39671e-05
2.38433e-05
2.37103e-05
2.35721e-05
2.34321e-05
2.32933e-05
2.31578e-05
2.30277e-05
2.29043e-05
2.27886e-05
2.26815e-05
2.25833e-05
2.24945e-05
2.24149e-05
2.23445e-05
2.22831e-05
2.22304e-05
2.2186e-05
2.21494e-05
2.21201e-05
2.20978e-05
2.20818e-05
2.20716e-05
2.20668e-05
2.20635e-05
2.20006e-05
2.19136e-05
2.18083e-05
2.16899e-05
2.15627e-05
2.14306e-05
2.12969e-05
2.11644e-05
2.10352e-05
2.09111e-05
2.07934e-05
2.06833e-05
2.05813e-05
2.04879e-05
2.04034e-05
2.03277e-05
2.02608e-05
2.02025e-05
2.01524e-05
2.01102e-05
2.00754e-05
2.00477e-05
2.00264e-05
2.00113e-05
2.00016e-05
1.9997e-05
2.00132e-05
1.99539e-05
1.9872e-05
1.97728e-05
1.96613e-05
1.95416e-05
1.94174e-05
1.92917e-05
1.91671e-05
1.90458e-05
1.89292e-05
1.88188e-05
1.87155e-05
1.86198e-05
1.85323e-05
1.8453e-05
1.83821e-05
1.83194e-05