/*--------------------------------*- C++ -*----------------------------------*\
| =========                 |                                                 |
| \\      /  F ield         | OpenFOAM: The Open Source CFD Toolbox           |
|  \\    /   O peration     | Version:  2106                                  |
|   \\  /    A nd           | Website:  www.openfoam.com                      |
|    \\/     M anipulation  |                                                 |
\*---------------------------------------------------------------------------*/
FoamFile
{
    version     2.0;
    format      ascii;
    arch        "LSB;label=32;scalar=64";
    class       volScalarField;
    location    "49.99987";
    object      C4H4;
}
// * * * * * * * * * * * * * * * * * * * * * * * * * * * * * * * * * * * * * //

dimensions      [0 0 0 0 0 0 0];

internalField   nonuniform List<scalar> 
3360
(
1.45105e-16
1.49774e-16
1.56271e-16
1.64218e-16
1.73284e-16
1.83171e-16
1.93611e-16
2.04361e-16
2.15206e-16
2.25955e-16
2.36442e-16
2.46528e-16
2.56096e-16
2.65055e-16
2.73334e-16
2.80884e-16
2.87675e-16
2.93694e-16
2.98943e-16
3.03439e-16
3.07207e-16
3.10286e-16
3.12717e-16
3.14551e-16
3.15841e-16
3.16644e-16
3.17016e-16
6.36444e-16
6.59834e-16
6.92839e-16
7.33941e-16
7.8188e-16
8.3556e-16
8.93998e-16
9.56298e-16
1.02162e-15
1.08918e-15
1.15822e-15
1.22801e-15
1.2978e-15
1.3669e-15
1.43458e-15
1.50016e-15
1.56296e-15
1.62232e-15
1.6776e-15
1.72821e-15
1.77362e-15
1.81333e-15
1.84695e-15
1.87413e-15
1.89465e-15
1.90835e-15
1.91518e-15
1.99636e-15
2.08396e-15
2.20844e-15
2.36486e-15
2.54912e-15
2.75753e-15
2.9866e-15
3.23288e-15
3.49287e-15
3.763e-15
4.03963e-15
4.31916e-15
4.59798e-15
4.87256e-15
5.13948e-15
5.3955e-15
5.6376e-15
5.86309e-15
6.06962e-15
6.25526e-15
6.41851e-15
6.5583e-15
6.67403e-15
6.7655e-15
6.83293e-15
6.87691e-15
6.89832e-15
5.81175e-15
6.10038e-15
6.51326e-15
7.03564e-15
7.65515e-15
8.36024e-15
9.13934e-15
9.98048e-15
1.08711e-14
1.17979e-14
1.27473e-14
1.37055e-14
1.46585e-14
1.5593e-14
1.64962e-14
1.73565e-14
1.81634e-14
1.89081e-14
1.95836e-14
2.01846e-14
2.07074e-14
2.11503e-14
2.15131e-14
2.17968e-14
2.20039e-14
2.21376e-14
2.22021e-14
1.69721e-14
1.78821e-14
1.91865e-14
2.08406e-14
2.28067e-14
2.50483e-14
2.75281e-14
3.02066e-14
3.30415e-14
3.59883e-14
3.90011e-14
4.20334e-14
4.50398e-14
4.79768e-14
5.08042e-14
5.34859e-14
5.59908e-14
5.82932e-14
6.03734e-14
6.2217e-14
6.38153e-14
6.5165e-14
6.62669e-14
6.71264e-14
6.7752e-14
6.81551e-14
6.8349e-14
5.0019e-14
5.28127e-14
5.68216e-14
6.19099e-14
6.79609e-14
7.4862e-14
8.24965e-14
9.07401e-14
9.94601e-14
1.08517e-13
1.17766e-13
1.27064e-13
1.36268e-13
1.45246e-13
1.53873e-13
1.62041e-13
1.69656e-13
1.76643e-13
1.82945e-13
1.8852e-13
1.93345e-13
1.97413e-13
2.00729e-13
2.03312e-13
2.0519e-13
2.06398e-13
2.06979e-13
1.48507e-13
1.56992e-13
1.69167e-13
1.84621e-13
2.02997e-13
2.23951e-13
2.47121e-13
2.72126e-13
2.98557e-13
3.25986e-13
3.53974e-13
3.82079e-13
4.09876e-13
4.36961e-13
4.62965e-13
4.87563e-13
5.10479e-13
5.31489e-13
5.50424e-13
5.67167e-13
5.81651e-13
5.93857e-13
6.03805e-13
6.1155e-13
6.1718e-13
6.20801e-13
6.22542e-13
4.4239e-13
4.67907e-13
5.04543e-13
5.5106e-13
6.06391e-13
6.6949e-13
7.39269e-13
8.14567e-13
8.94148e-13
9.76714e-13
1.06093e-12
1.14548e-12
1.22907e-12
1.31048e-12
1.38862e-12
1.46249e-12
1.53128e-12
1.59433e-12
1.65112e-12
1.70131e-12
1.74471e-12
1.78127e-12
1.81106e-12
1.83424e-12
1.85108e-12
1.86191e-12
1.86712e-12
1.32132e-12
1.39797e-12
1.508e-12
1.64769e-12
1.81382e-12
2.00325e-12
2.21268e-12
2.43861e-12
2.67732e-12
2.92489e-12
3.17734e-12
3.43069e-12
3.68107e-12
3.92486e-12
4.15875e-12
4.37985e-12
4.58568e-12
4.77428e-12
4.94414e-12
5.09426e-12
5.22406e-12
5.33339e-12
5.42245e-12
5.49177e-12
5.54213e-12
5.57452e-12
5.59008e-12
3.94672e-12
4.1762e-12
4.50565e-12
4.92394e-12
5.42142e-12
5.98865e-12
6.61575e-12
7.29222e-12
8.00686e-12
8.74795e-12
9.50352e-12
1.02616e-11
1.10107e-11
1.174e-11
1.24395e-11
1.31005e-11
1.37158e-11
1.42795e-11
1.4787e-11
1.52354e-11
1.56231e-11
1.59495e-11
1.62153e-11
1.64222e-11
1.65725e-11
1.66691e-11
1.67155e-11
1.17944e-11
1.24811e-11
1.34667e-11
1.47178e-11
1.62055e-11
1.79014e-11
1.97758e-11
2.17971e-11
2.39318e-11
2.61449e-11
2.84005e-11
3.0663e-11
3.28978e-11
3.50728e-11
3.71585e-11
3.9129e-11
4.09627e-11
4.26421e-11
4.41541e-11
4.54897e-11
4.66441e-11
4.76161e-11
4.84077e-11
4.90236e-11
4.9471e-11
4.97586e-11
4.98968e-11
3.52128e-11
3.7262e-11
4.02033e-11
4.39365e-11
4.83747e-11
5.34326e-11
5.90215e-11
6.50467e-11
7.14079e-11
7.80003e-11
8.47169e-11
9.14516e-11
9.81016e-11
1.04571e-10
1.10772e-10
1.1663e-10
1.22078e-10
1.27066e-10
1.31555e-10
1.35519e-10
1.38945e-10
1.41828e-10
1.44175e-10
1.46001e-10
1.47327e-10
1.4818e-10
1.48589e-10
1.05013e-10
1.11118e-10
1.19878e-10
1.30991e-10
1.44197e-10
1.59238e-10
1.75849e-10
1.93745e-10
2.12628e-10
2.32183e-10
2.52095e-10
2.72046e-10
2.91735e-10
3.10877e-10
3.29215e-10
3.46526e-10
3.6262e-10
3.77347e-10
3.90595e-10
4.02289e-10
4.12389e-10
4.20889e-10
4.27806e-10
4.33185e-10
4.37091e-10
4.396e-10
4.40806e-10
3.12258e-10
3.30363e-10
3.56332e-10
3.89262e-10
4.28368e-10
4.72881e-10
5.22001e-10
5.7488e-10
6.30624e-10
6.88304e-10
7.4698e-10
8.05721e-10
8.63635e-10
9.19889e-10
9.73734e-10
1.02452e-09
1.07169e-09
1.11482e-09
1.1536e-09
1.1878e-09
1.21732e-09
1.24214e-09
1.26234e-09
1.27803e-09
1.28942e-09
1.29674e-09
1.30025e-09
9.25075e-10
9.78471e-10
1.055e-09
1.15197e-09
1.26701e-09
1.39781e-09
1.54197e-09
1.69695e-09
1.86011e-09
2.0287e-09
2.19996e-09
2.37116e-09
2.53972e-09
2.70323e-09
2.85952e-09
3.00674e-09
3.14334e-09
3.2681e-09
3.38013e-09
3.47885e-09
3.56399e-09
3.63553e-09
3.69368e-09
3.73885e-09
3.7716e-09
3.79263e-09
3.80273e-09
2.72396e-09
2.8799e-09
3.10322e-09
3.38585e-09
3.7207e-09
4.10083e-09
4.51908e-09
4.96795e-09
5.43963e-09
5.92608e-09
6.41929e-09
6.91139e-09
7.39498e-09
7.8632e-09
8.30998e-09
8.7301e-09
9.11925e-09
9.47412e-09
9.7923e-09
1.00723e-08
1.03135e-08
1.05159e-08
1.06802e-08
1.08077e-08
1.09001e-08
1.09594e-08
1.09878e-08
7.95605e-09
8.40547e-09
9.04826e-09
9.8604e-09
1.08207e-08
1.19085e-08
1.31026e-08
1.43809e-08
1.57206e-08
1.70987e-08
1.84922e-08
1.9879e-08
2.12383e-08
2.2551e-08
2.38007e-08
2.4973e-08
2.60566e-08
2.70427e-08
2.79251e-08
2.87003e-08
2.93669e-08
2.99254e-08
3.03783e-08
3.07293e-08
3.09833e-08
3.11461e-08
3.12241e-08
2.29781e-08
2.4249e-08
2.60636e-08
2.83512e-08
3.10491e-08
3.40962e-08
3.74304e-08
4.09879e-08
4.47037e-08
4.85127e-08
5.2351e-08
5.61578e-08
5.98768e-08
6.34571e-08
6.68548e-08
7.00331e-08
7.29627e-08
7.56219e-08
7.79959e-08
8.00767e-08
8.18623e-08
8.33558e-08
8.45647e-08
8.55002e-08
8.61763e-08
8.66091e-08
8.68163e-08
6.53733e-08
6.88764e-08
7.38669e-08
8.014e-08
8.75131e-08
9.5809e-08
1.0485e-07
1.14455e-07
1.24445e-07
1.34642e-07
1.44873e-07
1.54979e-07
1.64811e-07
1.7424e-07
1.83156e-07
1.91468e-07
1.99104e-07
2.06015e-07
2.12168e-07
2.17547e-07
2.22152e-07
2.25996e-07
2.29101e-07
2.315e-07
2.33231e-07
2.34337e-07
2.34866e-07
1.82284e-07
1.91619e-07
2.04882e-07
2.21495e-07
2.40939e-07
2.62717e-07
2.86335e-07
3.11304e-07
3.3714e-07
3.63378e-07
3.89576e-07
4.15328e-07
4.4027e-07
4.64087e-07
4.86515e-07
5.07342e-07
5.26409e-07
5.43608e-07
5.58874e-07
5.72183e-07
5.83549e-07
5.93013e-07
6.00644e-07
6.06528e-07
6.10767e-07
6.13473e-07
6.14764e-07
4.95071e-07
5.18915e-07
5.52681e-07
5.94801e-07
6.43867e-07
6.98537e-07
7.57502e-07
8.1949e-07
8.83275e-07
9.47695e-07
1.01167e-06
1.07424e-06
1.13455e-06
1.19188e-06
1.24562e-06
1.29534e-06
1.34069e-06
1.38145e-06
1.41752e-06
1.44888e-06
1.4756e-06
1.49779e-06
1.51565e-06
1.52939e-06
1.53928e-06
1.54558e-06
1.54858e-06
1.29977e-06
1.3576e-06
1.43922e-06
1.54059e-06
1.65808e-06
1.78827e-06
1.92789e-06
2.07381e-06
2.22311e-06
2.37305e-06
2.52116e-06
2.66526e-06
2.80349e-06
2.93428e-06
3.0564e-06
3.16891e-06
3.27117e-06
3.3628e-06
3.44363e-06
3.51372e-06
3.57327e-06
3.62264e-06
3.66228e-06
3.69274e-06
3.71461e-06
3.72854e-06
3.73517e-06
3.27094e-06
3.40301e-06
3.58876e-06
3.81846e-06
4.08335e-06
4.3753e-06
4.68665e-06
5.01025e-06
5.33949e-06
5.66838e-06
5.99161e-06
6.30457e-06
6.60339e-06
6.88494e-06
7.14678e-06
7.38716e-06
7.60491e-06
7.79941e-06
7.97053e-06
8.11852e-06
8.24399e-06
8.34779e-06
8.43098e-06
8.4948e-06
8.54056e-06
8.56965e-06
8.58349e-06
7.81957e-06
8.10107e-06
8.49571e-06
8.98171e-06
9.53959e-06
1.01514e-05
1.08005e-05
1.14716e-05
1.21511e-05
1.28265e-05
1.34872e-05
1.41242e-05
1.47299e-05
1.52986e-05
1.58256e-05
1.63078e-05
1.67435e-05
1.71316e-05
1.74722e-05
1.77662e-05
1.80149e-05
1.82203e-05
1.83847e-05
1.85106e-05
1.86008e-05
1.86581e-05
1.86853e-05
1.76039e-05
1.81579e-05
1.89322e-05
1.9882e-05
2.09672e-05
2.21515e-05
2.34017e-05
2.46878e-05
2.59833e-05
2.72651e-05
2.85132e-05
2.97114e-05
3.08462e-05
3.19075e-05
3.28877e-05
3.37819e-05
3.45873e-05
3.53028e-05
3.59293e-05
3.64688e-05
3.69244e-05
3.72999e-05
3.76e-05
3.78295e-05
3.79936e-05
3.80977e-05
3.81472e-05
3.70521e-05
3.8046e-05
3.94297e-05
4.11187e-05
4.30374e-05
4.51177e-05
4.72984e-05
4.95252e-05
5.17511e-05
5.39361e-05
5.60472e-05
5.8058e-05
5.9948e-05
6.17027e-05
6.33123e-05
6.47711e-05
6.60772e-05
6.72315e-05
6.82372e-05
6.90996e-05
6.98251e-05
7.04212e-05
7.08962e-05
7.12586e-05
7.15173e-05
7.16812e-05
7.17589e-05
7.24921e-05
7.41008e-05
7.63316e-05
7.90407e-05
8.21012e-05
8.54e-05
8.88383e-05
9.23306e-05
9.58049e-05
9.92015e-05
0.000102472
0.000105579
0.000108494
0.000111197
0.000113674
0.000115917
0.000117926
0.000119701
0.000121248
0.000122575
0.000123692
0.00012461
0.000125341
0.0001259
0.000126299
0.000126552
0.000126672
0.000131172
0.000133626
0.00013703
0.000141166
0.00014584
0.000150884
0.000156149
0.000161506
0.000166847
0.00017208
0.000177132
0.000181943
0.000186469
0.000190677
0.000194543
0.000198055
0.000201207
0.000204
0.00020644
0.000208538
0.000210307
0.000211764
0.000212929
0.000213819
0.000214456
0.000214861
0.000215053
0.000222923
0.000226646
0.000231816
0.00023811
0.000245241
0.000252956
0.000261031
0.000269272
0.000277513
0.000285614
0.000293458
0.000300952
0.000308023
0.000314616
0.000320692
0.000326225
0.000331204
0.000335627
0.0003395
0.000342837
0.000345658
0.000347986
0.000349849
0.000351277
0.0003523
0.000352951
0.00035326
0.000360424
0.00036595
0.000373631
0.000382992
0.000393613
0.00040512
0.000417182
0.000429511
0.000441859
0.000454014
0.000465802
0.000477079
0.000487734
0.00049768
0.000506858
0.000515227
0.000522765
0.000529468
0.000535342
0.000540408
0.000544694
0.000548234
0.000551069
0.000553243
0.000554801
0.000555793
0.000556265
0.000555461
0.000563202
0.000573961
0.000587068
0.000601932
0.000618028
0.000634891
0.000652114
0.000669348
0.000686297
0.000702717
0.000718409
0.000733218
0.000747027
0.000759752
0.000771343
0.000781771
0.000791033
0.000799142
0.000806129
0.000812033
0.000816907
0.000820806
0.000823794
0.000825934
0.000827295
0.000827943
0.00081365
0.000823621
0.000837457
0.000854282
0.00087332
0.000893883
0.000915366
0.000937245
0.000959072
0.000980474
0.00100114
0.00102083
0.00103936
0.00105659
0.00107242
0.00108679
0.0010997
0.00111113
0.00112111
0.00112969
0.00113693
0.00114289
0.00114766
0.0011513
0.00115391
0.00115556
0.00115635
0.0011305
0.0011422
0.0011584
0.00117805
0.00120021
0.00122407
0.00124891
0.00127411
0.00129915
0.0013236
0.00134713
0.00136945
0.00139038
0.00140976
0.00142751
0.00144358
0.00145795
0.00147064
0.0014817
0.00149118
0.00149915
0.0015057
0.00151093
0.00151491
0.00151776
0.00151957
0.00152043
0.00149213
0.00150474
0.00152218
0.00154327
0.001567
0.00159246
0.00161887
0.00164556
0.001672
0.00169772
0.00172238
0.0017457
0.00176749
0.0017876
0.00180597
0.00182255
0.00183734
0.00185037
0.0018617
0.0018714
0.00187954
0.00188623
0.00189155
0.0018956
0.0018985
0.00190033
0.0019012
0.00188031
0.00189304
0.00191063
0.00193186
0.0019557
0.00198122
0.00200762
0.00203425
0.00206056
0.0020861
0.00211052
0.00213358
0.00215508
0.0021749
0.00219296
0.00220924
0.00222375
0.00223653
0.00224762
0.0022571
0.00226505
0.00227158
0.00227677
0.00228073
0.00228355
0.00228533
0.00228618
0.00227815
0.00229048
0.0023075
0.00232802
0.00235104
0.00237565
0.0024011
0.00242674
0.00245204
0.00247658
0.00250003
0.00252215
0.00254276
0.00256175
0.00257905
0.00259463
0.00260852
0.00262074
0.00263135
0.00264042
0.00264803
0.00265427
0.00265923
0.00266302
0.00266572
0.00266743
0.00266824
0.00267389
0.00268557
0.00270169
0.00272112
0.00274292
0.00276622
0.00279031
0.00281458
0.00283852
0.00286175
0.00288394
0.00290488
0.0029244
0.00294238
0.00295876
0.00297353
0.0029867
0.00299828
0.00300835
0.00301695
0.00302417
0.0030301
0.00303482
0.00303842
0.00304098
0.00304261
0.00304338
0.0030607
0.00307168
0.00308682
0.0031051
0.00312559
0.00314752
0.00317019
0.00319304
0.00321559
0.00323749
0.00325842
0.00327818
0.00329661
0.0033136
0.00332909
0.00334307
0.00335553
0.0033665
0.00337604
0.0033842
0.00339106
0.00339669
0.00340117
0.00340459
0.00340703
0.00340857
0.00340931
0.00343524
0.00344555
0.00345979
0.00347698
0.00349626
0.0035169
0.00353826
0.00355981
0.00358109
0.00360176
0.00362154
0.00364023
0.00365767
0.00367376
0.00368844
0.00370169
0.00371352
0.00372394
0.003733
0.00374076
0.00374728
0.00375264
0.00375691
0.00376017
0.00376249
0.00376397
0.00376467
0.00379625
0.00380598
0.00381942
0.00383565
0.00385387
0.00387338
0.00389359
0.00391398
0.00393414
0.00395374
0.0039725
0.00399024
0.00400681
0.0040221
0.00403607
0.00404868
0.00405994
0.00406988
0.00407852
0.00408592
0.00409214
0.00409725
0.00410133
0.00410444
0.00410667
0.00410808
0.00410875
0.00414362
0.00415284
0.00416559
0.00418099
0.00419828
0.00421682
0.00423602
0.00425542
0.0042746
0.00429326
0.00431114
0.00432805
0.00434385
0.00435844
0.00437178
0.00438383
0.00439459
0.00440408
0.00441235
0.00441943
0.00442539
0.00443028
0.00443419
0.00443717
0.0044393
0.00444065
0.00444129
0.00447774
0.00448654
0.00449868
0.00451336
0.00452986
0.00454755
0.00456588
0.0045844
0.00460273
0.00462056
0.00463766
0.00465384
0.00466896
0.00468293
0.00469571
0.00470725
0.00471757
0.00472667
0.0047346
0.00474139
0.00474711
0.00475181
0.00475555
0.00475842
0.00476046
0.00476176
0.00476238
0.00479927
0.00480768
0.00481931
0.00483336
0.00484915
0.00486609
0.00488365
0.0049014
0.00491897
0.00493607
0.00495247
0.004968
0.00498251
0.00499593
0.0050082
0.00501929
0.0050292
0.00503795
0.00504557
0.0050521
0.00505759
0.00506211
0.00506572
0.00506847
0.00507044
0.00507169
0.00507229
0.00510889
0.00511697
0.00512813
0.00514162
0.00515678
0.00517305
0.00518993
0.00520698
0.00522387
0.00524032
0.00525609
0.00527102
0.00528498
0.00529789
0.0053097
0.00532038
0.00532992
0.00533834
0.00534568
0.00535197
0.00535727
0.00536162
0.00536509
0.00536775
0.00536965
0.00537085
0.00537142
0.00540731
0.00541508
0.00542582
0.0054388
0.0054534
0.00546907
0.00548531
0.00550174
0.00551801
0.00553385
0.00554905
0.00556344
0.0055769
0.00558934
0.00560073
0.00561102
0.00562022
0.00562835
0.00563542
0.00564149
0.0056466
0.0056508
0.00565415
0.00565671
0.00565854
0.00565971
0.00566026
0.00569518
0.00570267
0.00571302
0.00572554
0.00573963
0.00575473
0.00577041
0.00578625
0.00580195
0.00581724
0.00583191
0.00584579
0.00585879
0.0058708
0.00588179
0.00589173
0.00590061
0.00590846
0.0059153
0.00592116
0.00592609
0.00593015
0.00593338
0.00593586
0.00593763
0.00593875
0.00593928
0.00597311
0.00598034
0.00599034
0.00600244
0.00601604
0.00603063
0.00604577
0.00606108
0.00607625
0.00609102
0.00610519
0.00611861
0.00613117
0.00614278
0.00615341
0.00616301
0.0061716
0.00617919
0.00618579
0.00619146
0.00619623
0.00620015
0.00620328
0.00620568
0.00620739
0.00620847
0.00620899
0.00624167
0.00624867
0.00625834
0.00627003
0.00628318
0.0062973
0.00631194
0.00632675
0.00634142
0.00635571
0.00636942
0.0063824
0.00639455
0.00640578
0.00641606
0.00642535
0.00643367
0.006441
0.0064474
0.00645288
0.0064575
0.00646129
0.00646432
0.00646664
0.00646829
0.00646935
0.00646984
0.00650138
0.00650815
0.00651751
0.00652883
0.00654156
0.00655522
0.0065694
0.00658373
0.00659794
0.00661177
0.00662504
0.00663762
0.00664938
0.00666026
0.00667021
0.00667921
0.00668726
0.00669437
0.00670056
0.00670587
0.00671034
0.00671401
0.00671695
0.00671919
0.00672079
0.00672181
0.0067223
0.00675271
0.00675927
0.00676833
0.0067793
0.00679163
0.00680487
0.0068186
0.00683249
0.00684625
0.00685965
0.00687252
0.0068847
0.00689609
0.00690664
0.00691628
0.006925
0.0069328
0.00693969
0.00694569
0.00695084
0.00695517
0.00695873
0.00696158
0.00696375
0.0069653
0.00696629
0.00696676
0.00699608
0.00700244
0.00701123
0.00702186
0.00703382
0.00704665
0.00705996
0.00707343
0.00708677
0.00709977
0.00711224
0.00712405
0.0071351
0.00714532
0.00715467
0.00716313
0.00717069
0.00717737
0.00718319
0.00718818
0.00719238
0.00719584
0.00719859
0.0072007
0.00720221
0.00720316
0.00720362
0.0072319
0.00723807
0.00724659
0.0072569
0.0072685
0.00728095
0.00729387
0.00730693
0.00731987
0.00733248
0.00734458
0.00735604
0.00736676
0.00737667
0.00738575
0.00739395
0.00740129
0.00740777
0.00741342
0.00741826
0.00742233
0.00742569
0.00742836
0.00743041
0.00743187
0.0074328
0.00743324
0.00746052
0.0074665
0.00747478
0.00748479
0.00749604
0.00750813
0.00752066
0.00753334
0.0075459
0.00755814
0.00756988
0.00758101
0.00759141
0.00760104
0.00760984
0.00761781
0.00762493
0.00763122
0.0076367
0.0076414
0.00764536
0.00764861
0.00765121
0.00765319
0.00765461
0.00765551
0.00765594
0.00768227
0.00768808
0.00769612
0.00770584
0.00771677
0.0077285
0.00774067
0.00775299
0.00776519
0.00777707
0.00778847
0.00779927
0.00780938
0.00781873
0.00782728
0.00783501
0.00784193
0.00784804
0.00785336
0.00785792
0.00786177
0.00786493
0.00786745
0.00786938
0.00787075
0.00787163
0.00787204
0.00789747
0.00790312
0.00791092
0.00792036
0.00793098
0.00794238
0.0079542
0.00796616
0.00797802
0.00798956
0.00800064
0.00801113
0.00802095
0.00803003
0.00803834
0.00804585
0.00805257
0.00805851
0.00806368
0.00806811
0.00807184
0.00807491
0.00807736
0.00807924
0.00808058
0.00808143
0.00808183
0.00810639
0.00811188
0.00811946
0.00812864
0.00813896
0.00815003
0.00816153
0.00817315
0.00818467
0.00819589
0.00820665
0.00821685
0.00822639
0.00823522
0.00824329
0.0082506
0.00825713
0.00826289
0.00826792
0.00827223
0.00827586
0.00827884
0.00828122
0.00828304
0.00828434
0.00828517
0.00828556
0.0083093
0.00831464
0.00832201
0.00833093
0.00834096
0.00835173
0.0083629
0.0083742
0.0083854
0.00839631
0.00840678
0.00841669
0.00842597
0.00843455
0.0084424
0.0084495
0.00845585
0.00846145
0.00846634
0.00847053
0.00847406
0.00847696
0.00847927
0.00848104
0.00848231
0.00848311
0.00848349
0.00850645
0.00851164
0.00851881
0.00852749
0.00853724
0.00854771
0.00855858
0.00856957
0.00858046
0.00859107
0.00860125
0.00861089
0.00861991
0.00862825
0.00863589
0.00864279
0.00864897
0.00865442
0.00865917
0.00866325
0.00866668
0.0086695
0.00867175
0.00867347
0.0086747
0.00867548
0.00867585
0.00869808
0.00870312
0.0087101
0.00871854
0.00872803
0.00873821
0.00874878
0.00875947
0.00877007
0.00878039
0.00879029
0.00879967
0.00880845
0.00881657
0.00882399
0.00883071
0.00883672
0.00884202
0.00884664
0.00885061
0.00885395
0.00885669
0.00885888
0.00886055
0.00886175
0.00886251
0.00886287
0.00888439
0.0088893
0.00889609
0.0089043
0.00891354
0.00892345
0.00893374
0.00894414
0.00895445
0.00896449
0.00897413
0.00898326
0.0089918
0.0089997
0.00900692
0.00901346
0.00901931
0.00902447
0.00902897
0.00903283
0.00903607
0.00903875
0.00904088
0.00904251
0.00904367
0.00904441
0.00904476
0.00906561
0.00907039
0.009077
0.00908499
0.00909398
0.00910363
0.00911365
0.00912377
0.00913381
0.00914358
0.00915297
0.00916185
0.00917017
0.00917786
0.00918489
0.00919126
0.00919695
0.00920198
0.00920635
0.00921011
0.00921327
0.00921587
0.00921795
0.00921953
0.00922067
0.00922139
0.00922173
0.00924194
0.0092466
0.00925303
0.00926082
0.00926957
0.00927897
0.00928872
0.00929858
0.00930836
0.00931788
0.00932701
0.00933566
0.00934376
0.00935125
0.0093581
0.0093643
0.00936984
0.00937474
0.009379
0.00938266
0.00938574
0.00938827
0.00939029
0.00939184
0.00939294
0.00939364
0.00939398
0.00941359
0.00941813
0.00942439
0.00943198
0.00944051
0.00944966
0.00945916
0.00946877
0.00947829
0.00948756
0.00949646
0.00950489
0.00951278
0.00952008
0.00952676
0.0095328
0.0095382
0.00954296
0.00954712
0.00955068
0.00955368
0.00955615
0.00955812
0.00955962
0.0095607
0.00956138
0.00956171
0.00958076
0.00958518
0.00959129
0.00959868
0.00960699
0.00961591
0.00962517
0.00963453
0.00964381
0.00965285
0.00966153
0.00966974
0.00967743
0.00968455
0.00969105
0.00969694
0.0097022
0.00970685
0.0097109
0.00971438
0.0097173
0.00971971
0.00972162
0.00972309
0.00972414
0.00972481
0.00972512
0.00974364
0.00974795
0.00975391
0.00976111
0.00976922
0.00977792
0.00978695
0.00979608
0.00980513
0.00981395
0.00982241
0.00983042
0.00983792
0.00984486
0.0098512
0.00985694
0.00986208
0.00986661
0.00987056
0.00987395
0.0098768
0.00987915
0.00988102
0.00988245
0.00988347
0.00988412
0.00988443
0.00990246
0.00990666
0.00991247
0.0099195
0.00992741
0.0099359
0.00994471
0.00995362
0.00996245
0.00997106
0.00997931
0.00998713
0.00999445
0.0100012
0.0100074
0.010013
0.010018
0.0100225
0.0100263
0.0100296
0.0100324
0.0100347
0.0100365
0.0100379
0.0100389
0.0100395
0.0100398
0.0100574
0.0100615
0.0100672
0.0100741
0.0100818
0.0100901
0.0100987
0.0101074
0.010116
0.0101244
0.0101325
0.0101401
0.0101473
0.0101539
0.0101599
0.0101654
0.0101703
0.0101746
0.0101784
0.0101816
0.0101843
0.0101866
0.0101883
0.0101897
0.0101907
0.0101913
0.0101916
0.0102087
0.0102128
0.0102183
0.010225
0.0102326
0.0102407
0.0102491
0.0102576
0.010266
0.0102742
0.0102821
0.0102896
0.0102966
0.010303
0.0103089
0.0103143
0.0103191
0.0103233
0.010327
0.0103301
0.0103328
0.010335
0.0103367
0.0103381
0.010339
0.0103396
0.0103399
0.0103567
0.0103606
0.010366
0.0103726
0.01038
0.0103879
0.0103961
0.0104045
0.0104127
0.0104208
0.0104285
0.0104358
0.0104426
0.0104489
0.0104547
0.01046
0.0104647
0.0104688
0.0104724
0.0104755
0.0104781
0.0104802
0.0104819
0.0104833
0.0104842
0.0104848
0.0104851
0.0105015
0.0105053
0.0105107
0.0105171
0.0105243
0.0105321
0.0105402
0.0105483
0.0105564
0.0105643
0.0105718
0.010579
0.0105857
0.0105919
0.0105976
0.0106027
0.0106073
0.0106114
0.0106149
0.0106179
0.0106205
0.0106226
0.0106243
0.0106255
0.0106265
0.010627
0.0106273
0.0106435
0.0106472
0.0106525
0.0106588
0.0106659
0.0106735
0.0106814
0.0106894
0.0106973
0.0107051
0.0107125
0.0107195
0.0107261
0.0107322
0.0107378
0.0107428
0.0107473
0.0107513
0.0107548
0.0107578
0.0107603
0.0107623
0.010764
0.0107652
0.0107661
0.0107667
0.010767
0.0107829
0.0107866
0.0107917
0.0107979
0.0108049
0.0108124
0.0108202
0.010828
0.0108358
0.0108434
0.0108507
0.0108577
0.0108641
0.0108701
0.0108756
0.0108806
0.010885
0.0108889
0.0108923
0.0108953
0.0108977
0.0108998
0.0109014
0.0109026
0.0109035
0.0109041
0.0109043
0.01092
0.0109237
0.0109287
0.0109349
0.0109417
0.0109491
0.0109568
0.0109645
0.0109722
0.0109797
0.0109869
0.0109937
0.0110001
0.011006
0.0110114
0.0110163
0.0110207
0.0110245
0.0110279
0.0110308
0.0110332
0.0110352
0.0110368
0.011038
0.0110389
0.0110395
0.0110397
0.0110553
0.0110589
0.0110639
0.0110699
0.0110767
0.011084
0.0110915
0.0110992
0.0111068
0.0111142
0.0111213
0.011128
0.0111343
0.0111402
0.0111455
0.0111503
0.0111546
0.0111585
0.0111618
0.0111646
0.011167
0.011169
0.0111706
0.0111718
0.0111727
0.0111732
0.0111735
0.0111889
0.0111925
0.0111974
0.0112034
0.0112101
0.0112173
0.0112248
0.0112324
0.0112399
0.0112472
0.0112542
0.0112609
0.0112671
0.0112729
0.0112782
0.011283
0.0112873
0.011291
0.0112943
0.0112972
0.0112995
0.0113015
0.0113031
0.0113043
0.0113051
0.0113057
0.0113059
0.0113212
0.0113248
0.0113297
0.0113356
0.0113422
0.0113494
0.0113568
0.0113643
0.0113718
0.011379
0.011386
0.0113926
0.0113988
0.0114045
0.0114098
0.0114145
0.0114188
0.0114225
0.0114258
0.0114286
0.011431
0.0114329
0.0114345
0.0114357
0.0114365
0.011437
0.0114373
0.0114525
0.011456
0.0114609
0.0114667
0.0114734
0.0114805
0.0114878
0.0114953
0.0115027
0.0115099
0.0115169
0.0115234
0.0115296
0.0115353
0.0115405
0.0115452
0.0115494
0.0115532
0.0115564
0.0115592
0.0115616
0.0115635
0.011565
0.0115662
0.0115671
0.0115676
0.0115678
0.0115829
0.0115864
0.0115912
0.0115971
0.0116036
0.0116107
0.011618
0.0116255
0.0116328
0.01164
0.0116469
0.0116534
0.0116596
0.0116652
0.0116704
0.0116751
0.0116793
0.011683
0.0116863
0.011689
0.0116914
0.0116933
0.0116948
0.011696
0.0116968
0.0116974
0.0116976
0.0117125
0.011716
0.0117208
0.0117266
0.0117331
0.0117401
0.0117474
0.0117548
0.0117621
0.0117693
0.0117761
0.0117826
0.0117887
0.0117943
0.0117995
0.0118042
0.0118083
0.011812
0.0118153
0.011818
0.0118203
0.0118223
0.0118238
0.011825
0.0118258
0.0118263
0.0118266
0.0118411
0.0118446
0.0118493
0.0118551
0.0118616
0.0118686
0.0118758
0.0118831
0.0118904
0.0118975
0.0119043
0.0119107
0.0119168
0.0119224
0.0119275
0.0119321
0.0119363
0.0119399
0.0119431
0.0119459
0.0119482
0.0119501
0.0119516
0.0119528
0.0119536
0.0119541
0.0119544
0.0119684
0.0119718
0.0119765
0.0119823
0.0119887
0.0119956
0.0120027
0.01201
0.0120172
0.0120242
0.0120309
0.0120373
0.0120433
0.0120488
0.0120538
0.0120584
0.0120625
0.0120661
0.0120693
0.012072
0.0120743
0.0120762
0.0120776
0.0120788
0.0120796
0.0120801
0.0120804
0.0120938
0.0120971
0.0121017
0.0121074
0.0121137
0.0121204
0.0121275
0.0121346
0.0121417
0.0121485
0.0121552
0.0121614
0.0121673
0.0121727
0.0121777
0.0121821
0.0121862
0.0121897
0.0121928
0.0121955
0.0121977
0.0121995
0.012201
0.0122021
0.0122029
0.0122034
0.0122037
0.0122161
0.0122194
0.0122239
0.0122294
0.0122355
0.0122421
0.012249
0.0122559
0.0122628
0.0122694
0.0122759
0.0122819
0.0122876
0.0122929
0.0122977
0.0123021
0.012306
0.0123094
0.0123124
0.012315
0.0123171
0.0123189
0.0123203
0.0123214
0.0123222
0.0123227
0.0123229
0.0123342
0.0123373
0.0123417
0.0123469
0.0123528
0.0123591
0.0123657
0.0123724
0.0123789
0.0123854
0.0123915
0.0123973
0.0124028
0.0124078
0.0124124
0.0124166
0.0124203
0.0124236
0.0124264
0.0124289
0.012431
0.0124327
0.012434
0.012435
0.0124358
0.0124363
0.0124365
0.0124463
0.0124492
0.0124533
0.0124583
0.0124639
0.0124698
0.012476
0.0124823
0.0124885
0.0124945
0.0125003
0.0125057
0.0125109
0.0125156
0.0125199
0.0125238
0.0125273
0.0125303
0.012533
0.0125353
0.0125373
0.0125388
0.0125401
0.0125411
0.0125418
0.0125422
0.0125424
0.0125505
0.0125533
0.0125571
0.0125616
0.0125668
0.0125723
0.012578
0.0125837
0.0125894
0.0125949
0.0126002
0.0126053
0.0126099
0.0126143
0.0126182
0.0126218
0.0126249
0.0126277
0.0126302
0.0126323
0.012634
0.0126355
0.0126366
0.0126375
0.0126381
0.0126385
0.0126387
0.0126451
0.0126475
0.0126509
0.012655
0.0126596
0.0126646
0.0126697
0.0126748
0.0126799
0.0126848
0.0126895
0.012694
0.0126981
0.012702
0.0127055
0.0127086
0.0127114
0.0127139
0.0127161
0.0127179
0.0127195
0.0127207
0.0127217
0.0127225
0.0127231
0.0127234
0.0127236
0.0127282
0.0127303
0.0127333
0.0127368
0.0127408
0.0127451
0.0127495
0.0127539
0.0127583
0.0127625
0.0127666
0.0127704
0.0127739
0.0127772
0.0127802
0.0127829
0.0127853
0.0127874
0.0127892
0.0127908
0.0127921
0.0127932
0.012794
0.0127947
0.0127952
0.0127954
0.0127956
0.0127987
0.0128004
0.0128029
0.0128059
0.0128092
0.0128127
0.0128163
0.01282
0.0128236
0.0128271
0.0128304
0.0128335
0.0128364
0.0128391
0.0128415
0.0128437
0.0128457
0.0128474
0.0128489
0.0128501
0.0128512
0.0128521
0.0128528
0.0128533
0.0128537
0.0128539
0.012854
0.0128559
0.0128573
0.0128592
0.0128616
0.0128642
0.012867
0.0128698
0.0128727
0.0128755
0.0128783
0.0128808
0.0128833
0.0128855
0.0128876
0.0128895
0.0128912
0.0128927
0.012894
0.0128952
0.0128961
0.012897
0.0128976
0.0128982
0.0128986
0.0128988
0.012899
0.0128991
0.0129001
0.0129012
0.0129026
0.0129044
0.0129063
0.0129084
0.0129105
0.0129126
0.0129147
0.0129167
0.0129186
0.0129204
0.0129221
0.0129236
0.012925
0.0129262
0.0129273
0.0129282
0.0129291
0.0129298
0.0129304
0.0129308
0.0129312
0.0129315
0.0129317
0.0129318
0.0129319
0.0129324
0.0129332
0.0129342
0.0129354
0.0129368
0.0129382
0.0129397
0.0129412
0.0129426
0.012944
0.0129453
0.0129465
0.0129476
0.0129487
0.0129496
0.0129504
0.0129512
0.0129518
0.0129524
0.0129528
0.0129532
0.0129535
0.0129538
0.012954
0.0129541
0.0129542
0.0129543
0.0129546
0.0129551
0.0129558
0.0129566
0.0129574
0.0129584
0.0129593
0.0129603
0.0129612
0.0129621
0.0129629
0.0129636
0.0129644
0.012965
0.0129656
0.0129661
0.0129666
0.012967
0.0129673
0.0129676
0.0129678
0.012968
0.0129682
0.0129683
0.0129684
0.0129684
0.0129685
0.0129689
0.0129691
0.0129695
0.01297
0.0129705
0.0129711
0.0129716
0.0129722
0.0129727
0.0129732
0.0129737
0.0129741
0.0129745
0.0129749
0.0129752
0.0129755
0.0129758
0.012976
0.0129762
0.0129764
0.0129765
0.0129766
0.0129767
0.0129768
0.0129768
0.0129768
0.0129768
0.0129773
0.0129775
0.0129777
0.0129779
0.0129782
0.0129785
0.0129788
0.012979
0.0129793
0.0129796
0.0129798
0.0129801
0.0129803
0.0129804
0.0129806
0.0129808
0.0129809
0.012981
0.0129811
0.0129812
0.0129813
0.0129813
0.0129814
0.0129814
0.0129814
0.0129814
0.0129814
0.0129819
0.012982
0.0129821
0.0129822
0.0129824
0.0129825
0.0129826
0.0129827
0.0129829
0.012983
0.0129831
0.0129832
0.0129833
0.0129834
0.0129835
0.0129835
0.0129836
0.0129837
0.0129837
0.0129837
0.0129838
0.0129838
0.0129838
0.0129838
0.0129839
0.0129839
0.0129839
0.0129843
0.0129844
0.0129844
0.0129844
0.0129845
0.0129845
0.0129846
0.0129847
0.0129847
0.0129848
0.0129848
0.0129849
0.0129849
0.0129849
0.012985
0.012985
0.012985
0.0129851
0.0129851
0.0129851
0.0129851
0.0129851
0.0129852
0.0129852
0.0129852
0.0129852
0.0129852
0.0129855
0.0129855
0.0129856
0.0129856
0.0129856
0.0129856
0.0129857
0.0129857
0.0129857
0.0129857
0.0129858
0.0129858
0.0129858
0.0129858
0.0129859
0.0129859
0.0129859
0.0129859
0.0129859
0.0129859
0.012986
0.012986
0.012986
0.012986
0.012986
0.012986
0.012986
0.0129862
0.0129862
0.0129862
0.0129862
0.0129863
0.0129863
0.0129863
0.0129863
0.0129863
0.0129864
0.0129864
0.0129864
0.0129864
0.0129865
0.0129865
0.0129865
0.0129865
0.0129865
0.0129866
0.0129866
0.0129866
0.0129866
0.0129866
0.0129866
0.0129866
0.0129866
0.0129866
0.0129867
0.0129867
0.0129867
0.0129867
0.0129868
0.0129868