/*--------------------------------*- C++ -*----------------------------------*\
| =========                 |                                                 |
| \\      /  F ield         | OpenFOAM: The Open Source CFD Toolbox           |
|  \\    /   O peration     | Version:  2106                                  |
|   \\  /    A nd           | Website:  www.openfoam.com                      |
|    \\/     M anipulation  |                                                 |
\*---------------------------------------------------------------------------*/
FoamFile
{
    version     2.0;
    format      ascii;
    arch        "LSB;label=32;scalar=64";
    class       volScalarField;
    location    "49.99987";
    object      C4H61_0;
}
// * * * * * * * * * * * * * * * * * * * * * * * * * * * * * * * * * * * * * //

dimensions      [0 0 0 0 0 0 0];

internalField   nonuniform List<scalar> 
3360
(
1.36419e-19
1.4081e-19
1.4692e-19
1.54393e-19
1.62919e-19
1.72218e-19
1.82036e-19
1.92146e-19
2.02345e-19
2.12454e-19
2.22317e-19
2.31803e-19
2.40802e-19
2.49227e-19
2.57013e-19
2.64114e-19
2.70501e-19
2.76162e-19
2.81099e-19
2.85327e-19
2.88872e-19
2.91767e-19
2.94053e-19
2.95778e-19
2.96992e-19
2.97747e-19
2.98097e-19
5.98467e-19
6.20468e-19
6.51513e-19
6.90175e-19
7.35268e-19
7.85762e-19
8.40731e-19
8.99332e-19
9.6078e-19
1.02433e-18
1.08927e-18
1.15491e-18
1.22057e-18
1.28556e-18
1.34922e-18
1.41091e-18
1.46998e-18
1.52581e-18
1.57781e-18
1.62542e-18
1.66813e-18
1.70549e-18
1.7371e-18
1.76268e-18
1.78197e-18
1.79486e-18
1.80129e-18
1.87785e-18
1.96028e-18
2.07741e-18
2.22459e-18
2.39797e-18
2.59409e-18
2.80964e-18
3.04138e-18
3.28602e-18
3.54022e-18
3.80053e-18
4.06356e-18
4.32593e-18
4.58432e-18
4.8355e-18
5.07641e-18
5.30424e-18
5.51643e-18
5.71078e-18
5.88547e-18
6.03909e-18
6.17064e-18
6.27954e-18
6.36561e-18
6.42907e-18
6.47046e-18
6.4906e-18
5.46914e-18
5.74085e-18
6.12952e-18
6.62127e-18
7.20447e-18
7.86825e-18
8.6017e-18
9.39357e-18
1.0232e-17
1.11046e-17
1.19984e-17
1.29004e-17
1.37977e-17
1.46775e-17
1.55279e-17
1.63378e-17
1.70975e-17
1.77987e-17
1.84347e-17
1.90004e-17
1.94927e-17
1.99098e-17
2.02513e-17
2.05184e-17
2.07134e-17
2.08393e-17
2.09e-17
1.59797e-17
1.68368e-17
1.80654e-17
1.96233e-17
2.14751e-17
2.35864e-17
2.59222e-17
2.84451e-17
3.11154e-17
3.38911e-17
3.6729e-17
3.95854e-17
4.24173e-17
4.51839e-17
4.78473e-17
5.03735e-17
5.27331e-17
5.49021e-17
5.68617e-17
5.85984e-17
6.01041e-17
6.13756e-17
6.24137e-17
6.32234e-17
6.38127e-17
6.41924e-17
6.43751e-17
4.71203e-17
4.97529e-17
5.35308e-17
5.83259e-17
6.40284e-17
7.0532e-17
7.7727e-17
8.54961e-17
9.37144e-17
1.0225e-16
1.10968e-16
1.19731e-16
1.28406e-16
1.36867e-16
1.44998e-16
1.52697e-16
1.59875e-16
1.66461e-16
1.724e-16
1.77655e-16
1.82203e-16
1.86038e-16
1.89164e-16
1.91598e-16
1.93368e-16
1.94507e-16
1.95055e-16
1.39981e-16
1.47981e-16
1.59461e-16
1.74032e-16
1.9136e-16
2.11118e-16
2.32968e-16
2.56547e-16
2.81471e-16
3.07337e-16
3.3373e-16
3.60235e-16
3.86449e-16
4.11991e-16
4.36515e-16
4.59714e-16
4.81326e-16
5.01141e-16
5.18998e-16
5.34789e-16
5.48449e-16
5.59961e-16
5.69343e-16
5.76648e-16
5.81957e-16
5.85373e-16
5.87015e-16
4.17234e-16
4.41308e-16
4.75872e-16
5.19759e-16
5.71962e-16
6.31496e-16
6.97333e-16
7.6838e-16
8.43468e-16
9.21374e-16
1.00084e-15
1.08062e-15
1.1595e-15
1.23632e-15
1.31005e-15
1.37976e-15
1.44467e-15
1.50416e-15
1.55775e-15
1.60512e-15
1.64608e-15
1.68058e-15
1.70869e-15
1.73056e-15
1.74646e-15
1.75668e-15
1.76159e-15
1.24692e-15
1.31928e-15
1.42315e-15
1.55502e-15
1.71185e-15
1.89068e-15
2.08839e-15
2.30169e-15
2.52705e-15
2.76079e-15
2.99914e-15
3.23833e-15
3.47473e-15
3.70491e-15
3.92575e-15
4.13451e-15
4.32886e-15
4.50693e-15
4.66732e-15
4.80906e-15
4.93162e-15
5.03485e-15
5.11895e-15
5.18441e-15
5.23196e-15
5.26254e-15
5.27724e-15
3.72674e-15
3.94349e-15
4.25467e-15
4.64978e-15
5.1197e-15
5.6555e-15
6.24788e-15
6.8869e-15
7.56198e-15
8.26207e-15
8.97585e-15
9.69204e-15
1.03997e-14
1.10887e-14
1.17495e-14
1.2374e-14
1.29553e-14
1.34879e-14
1.39674e-14
1.4391e-14
1.47572e-14
1.50656e-14
1.53168e-14
1.55123e-14
1.56542e-14
1.57455e-14
1.57894e-14
1.11439e-14
1.17929e-14
1.27244e-14
1.39069e-14
1.5313e-14
1.69159e-14
1.86875e-14
2.05981e-14
2.26159e-14
2.47078e-14
2.68398e-14
2.89785e-14
3.1091e-14
3.3147e-14
3.51186e-14
3.69814e-14
3.87148e-14
4.03024e-14
4.17317e-14
4.29943e-14
4.40856e-14
4.50045e-14
4.57529e-14
4.63351e-14
4.6758e-14
4.703e-14
4.71606e-14
3.3292e-14
3.523e-14
3.80116e-14
4.15421e-14
4.57395e-14
5.0523e-14
5.58087e-14
6.15073e-14
6.75237e-14
7.37588e-14
8.01115e-14
8.64814e-14
9.27713e-14
9.88904e-14
1.04756e-13
1.10296e-13
1.1545e-13
1.20168e-13
1.24414e-13
1.28164e-13
1.31404e-13
1.34132e-13
1.36352e-13
1.38079e-13
1.39334e-13
1.4014e-13
1.40527e-13
9.93532e-14
1.05131e-13
1.1342e-13
1.23937e-13
1.36433e-13
1.50668e-13
1.66388e-13
1.83324e-13
2.01194e-13
2.19702e-13
2.38546e-13
2.57429e-13
2.76063e-13
2.9418e-13
3.11537e-13
3.2792e-13
3.43153e-13
3.57091e-13
3.6963e-13
3.80699e-13
3.90259e-13
3.98304e-13
4.04851e-13
4.09943e-13
4.13639e-13
4.16015e-13
4.17156e-13
2.95655e-13
3.128e-13
3.37391e-13
3.68574e-13
4.05607e-13
4.4776e-13
4.94276e-13
5.44352e-13
5.97142e-13
6.51767e-13
7.07335e-13
7.62966e-13
8.17813e-13
8.71089e-13
9.22084e-13
9.70179e-13
1.01486e-12
1.05571e-12
1.09243e-12
1.12482e-12
1.15278e-12
1.17629e-12
1.19542e-12
1.21029e-12
1.22107e-12
1.228e-12
1.23133e-12
8.76675e-13
9.27276e-13
9.99804e-13
1.0917e-12
1.20072e-12
1.32467e-12
1.46129e-12
1.60816e-12
1.76279e-12
1.92256e-12
2.08486e-12
2.24711e-12
2.40686e-12
2.56181e-12
2.70994e-12
2.84947e-12
2.97893e-12
3.09717e-12
3.20334e-12
3.29691e-12
3.3776e-12
3.4454e-12
3.50051e-12
3.54332e-12
3.57436e-12
3.5943e-12
3.60386e-12
2.58434e-12
2.73225e-12
2.94407e-12
3.21214e-12
3.52974e-12
3.89028e-12
4.28698e-12
4.71272e-12
5.16008e-12
5.62146e-12
6.08924e-12
6.55597e-12
7.01463e-12
7.45871e-12
7.88246e-12
8.28091e-12
8.65001e-12
8.98658e-12
9.28837e-12
9.55394e-12
9.78268e-12
9.97464e-12
1.01305e-11
1.02515e-11
1.03391e-11
1.03953e-11
1.04223e-11
7.55965e-12
7.9864e-12
8.59673e-12
9.36785e-12
1.02797e-11
1.13125e-11
1.24461e-11
1.36597e-11
1.49316e-11
1.62399e-11
1.75628e-11
1.88793e-11
2.01696e-11
2.14158e-11
2.26021e-11
2.37149e-11
2.47435e-11
2.56796e-11
2.65172e-11
2.72531e-11
2.78858e-11
2.8416e-11
2.88459e-11
2.91791e-11
2.94202e-11
2.95747e-11
2.96488e-11
2.18804e-11
2.30889e-11
2.48143e-11
2.69894e-11
2.95546e-11
3.24515e-11
3.56212e-11
3.9003e-11
4.2535e-11
4.61554e-11
4.98035e-11
5.34214e-11
5.69557e-11
6.03581e-11
6.35869e-11
6.6607e-11
6.93908e-11
7.19176e-11
7.41734e-11
7.61505e-11
7.78472e-11
7.92663e-11
8.04149e-11
8.13038e-11
8.19463e-11
8.23575e-11
8.25544e-11
6.24518e-11
6.57902e-11
7.05455e-11
7.65225e-11
8.35468e-11
9.14492e-11
1.0006e-10
1.09208e-10
1.1872e-10
1.28428e-10
1.38168e-10
1.47787e-10
1.57146e-10
1.6612e-10
1.74605e-10
1.82514e-10
1.8978e-10
1.96356e-10
2.02209e-10
2.07327e-10
2.11709e-10
2.15365e-10
2.1832e-10
2.20602e-10
2.22249e-10
2.23302e-10
2.23805e-10
1.75013e-10
1.83939e-10
1.96619e-10
2.12499e-10
2.31082e-10
2.51891e-10
2.74453e-10
2.983e-10
3.2297e-10
3.48017e-10
3.73022e-10
3.97596e-10
4.21393e-10
4.44113e-10
4.65504e-10
4.85367e-10
5.03549e-10
5.19948e-10
5.34503e-10
5.47191e-10
5.58027e-10
5.67049e-10
5.74323e-10
5.79932e-10
5.83973e-10
5.86552e-10
5.87784e-10
4.79084e-10
5.02014e-10
5.34477e-10
5.74962e-10
6.22108e-10
6.7462e-10
7.31238e-10
7.90736e-10
8.51938e-10
9.13727e-10
9.75075e-10
1.03505e-09
1.09285e-09
1.14777e-09
1.19925e-09
1.24686e-09
1.29028e-09
1.32931e-09
1.36384e-09
1.39385e-09
1.41942e-09
1.44066e-09
1.45775e-09
1.4709e-09
1.48036e-09
1.48639e-09
1.48927e-09
1.27357e-09
1.32974e-09
1.40899e-09
1.50738e-09
1.62136e-09
1.74761e-09
1.88294e-09
2.02431e-09
2.16888e-09
2.314e-09
2.4573e-09
2.59667e-09
2.7303e-09
2.8567e-09
2.9747e-09
3.08338e-09
3.18215e-09
3.27063e-09
3.34867e-09
3.41634e-09
3.47382e-09
3.52148e-09
3.55975e-09
3.58915e-09
3.61026e-09
3.6237e-09
3.63011e-09
3.26877e-09
3.39938e-09
3.58301e-09
3.80999e-09
4.07163e-09
4.35984e-09
4.66705e-09
4.98618e-09
5.31072e-09
5.63476e-09
5.9531e-09
6.26121e-09
6.5553e-09
6.83233e-09
7.08992e-09
7.32634e-09
7.54049e-09
7.73176e-09
7.90003e-09
8.04556e-09
8.16894e-09
8.27101e-09
8.35284e-09
8.41561e-09
8.46062e-09
8.48924e-09
8.50286e-09
8.06089e-09
8.34872e-09
8.75216e-09
9.24886e-09
9.81886e-09
1.04438e-08
1.11065e-08
1.17917e-08
1.24851e-08
1.31742e-08
1.38482e-08
1.44978e-08
1.51155e-08
1.56953e-08
1.62326e-08
1.67243e-08
1.71685e-08
1.75642e-08
1.79115e-08
1.82113e-08
1.8465e-08
1.86745e-08
1.88422e-08
1.89707e-08
1.90628e-08
1.91212e-08
1.9149e-08
1.90446e-08
1.96474e-08
2.04901e-08
2.15244e-08
2.27069e-08
2.39983e-08
2.53626e-08
2.67672e-08
2.81833e-08
2.95855e-08
3.09521e-08
3.2265e-08
3.35095e-08
3.46743e-08
3.5751e-08
3.67339e-08
3.76197e-08
3.84075e-08
3.90977e-08
3.96924e-08
4.0195e-08
4.06095e-08
4.0941e-08
4.11946e-08
4.13761e-08
4.14914e-08
4.15461e-08
4.30852e-08
4.42919e-08
4.59759e-08
4.80375e-08
5.03884e-08
5.29483e-08
5.56448e-08
5.84129e-08
6.11957e-08
6.39437e-08
6.6615e-08
6.91752e-08
7.15967e-08
7.38583e-08
7.59449e-08
7.78464e-08
7.95575e-08
8.10768e-08
8.24062e-08
8.35504e-08
8.45161e-08
8.53121e-08
8.59478e-08
8.6434e-08
8.67817e-08
8.70022e-08
8.71069e-08
9.3478e-08
9.5806e-08
9.90505e-08
1.03017e-07
1.07531e-07
1.12437e-07
1.17595e-07
1.2288e-07
1.28184e-07
1.33411e-07
1.38485e-07
1.4334e-07
1.47925e-07
1.52202e-07
1.56143e-07
1.5973e-07
1.62955e-07
1.65815e-07
1.68316e-07
1.70467e-07
1.72281e-07
1.73775e-07
1.74968e-07
1.75879e-07
1.76531e-07
1.76944e-07
1.7714e-07
1.94983e-07
1.99347e-07
2.05426e-07
2.1285e-07
2.21294e-07
2.30461e-07
2.4009e-07
2.49947e-07
2.59829e-07
2.69563e-07
2.79002e-07
2.88029e-07
2.96549e-07
3.04492e-07
3.11807e-07
3.18463e-07
3.24444e-07
3.29748e-07
3.34383e-07
3.38368e-07
3.41729e-07
3.44496e-07
3.46704e-07
3.48392e-07
3.49598e-07
3.50362e-07
3.50725e-07
3.91778e-07
3.99782e-07
4.10929e-07
4.24542e-07
4.40023e-07
4.56832e-07
4.74488e-07
4.92566e-07
5.10695e-07
5.28557e-07
5.45887e-07
5.62467e-07
5.78124e-07
5.92729e-07
6.0619e-07
6.18446e-07
6.29469e-07
6.39251e-07
6.47808e-07
6.55172e-07
6.61386e-07
6.66507e-07
6.70597e-07
6.73724e-07
6.7596e-07
6.77377e-07
6.7805e-07
7.57967e-07
7.7233e-07
7.92339e-07
8.16787e-07
8.44607e-07
8.74838e-07
9.06622e-07
9.392e-07
9.71906e-07
1.00417e-06
1.0355e-06
1.0655e-06
1.09384e-06
1.12028e-06
1.14465e-06
1.16685e-06
1.18681e-06
1.20455e-06
1.22008e-06
1.23345e-06
1.24476e-06
1.25409e-06
1.26156e-06
1.26728e-06
1.27137e-06
1.27398e-06
1.27522e-06
1.40493e-06
1.42982e-06
1.46449e-06
1.50684e-06
1.555e-06
1.60728e-06
1.66221e-06
1.71852e-06
1.7751e-06
1.831e-06
1.8854e-06
1.93765e-06
1.98719e-06
2.03362e-06
2.07662e-06
2.11598e-06
2.15157e-06
2.18333e-06
2.21127e-06
2.23545e-06
2.25598e-06
2.273e-06
2.28667e-06
2.29719e-06
2.30476e-06
2.30958e-06
2.31189e-06
2.46046e-06
2.50069e-06
2.55679e-06
2.62545e-06
2.70374e-06
2.78904e-06
2.87903e-06
2.97162e-06
3.06501e-06
3.1576e-06
3.24806e-06
3.33525e-06
3.41823e-06
3.49626e-06
3.56878e-06
3.63536e-06
3.69575e-06
3.7498e-06
3.79747e-06
3.83884e-06
3.87404e-06
3.90328e-06
3.92682e-06
3.94497e-06
3.95804e-06
3.9664e-06
3.97039e-06
4.03955e-06
4.10013e-06
4.18462e-06
4.28804e-06
4.406e-06
4.53454e-06
4.67014e-06
4.80963e-06
4.95028e-06
5.08966e-06
5.22573e-06
5.35677e-06
5.48137e-06
5.59842e-06
5.70706e-06
5.8067e-06
5.89695e-06
5.97762e-06
6.0487e-06
6.11029e-06
6.16264e-06
6.20608e-06
6.24102e-06
6.26792e-06
6.28729e-06
6.29965e-06
6.30556e-06
6.19062e-06
6.27198e-06
6.38524e-06
6.52352e-06
6.68071e-06
6.85138e-06
7.03068e-06
7.21434e-06
7.39865e-06
7.58044e-06
7.75704e-06
7.92627e-06
8.0864e-06
8.23609e-06
8.37439e-06
8.50065e-06
8.61451e-06
8.71586e-06
8.8048e-06
8.88159e-06
8.94662e-06
9.00041e-06
9.04353e-06
9.07665e-06
9.10042e-06
9.11556e-06
9.12279e-06
8.80198e-06
8.89689e-06
9.02858e-06
9.18864e-06
9.36966e-06
9.56505e-06
9.76904e-06
9.9766e-06
1.01835e-05
1.03861e-05
1.05817e-05
1.07678e-05
1.09427e-05
1.11051e-05
1.12543e-05
1.13896e-05
1.1511e-05
1.16185e-05
1.17123e-05
1.17929e-05
1.18609e-05
1.19169e-05
1.19616e-05
1.19958e-05
1.20203e-05
1.20359e-05
1.20433e-05
1.1592e-05
1.1688e-05
1.18206e-05
1.1981e-05
1.21614e-05
1.23549e-05
1.25555e-05
1.27582e-05
1.29588e-05
1.31539e-05
1.33408e-05
1.35174e-05
1.36822e-05
1.38344e-05
1.39731e-05
1.40983e-05
1.421e-05
1.43083e-05
1.43937e-05
1.44668e-05
1.45282e-05
1.45785e-05
1.46186e-05
1.46492e-05
1.4671e-05
1.46849e-05
1.46914e-05
1.42136e-05
1.42984e-05
1.44151e-05
1.45557e-05
1.47129e-05
1.48806e-05
1.50533e-05
1.52266e-05
1.53969e-05
1.55615e-05
1.5718e-05
1.5865e-05
1.60013e-05
1.61264e-05
1.62398e-05
1.63416e-05
1.6432e-05
1.65111e-05
1.65797e-05
1.6638e-05
1.66869e-05
1.67268e-05
1.67586e-05
1.67827e-05
1.67999e-05
1.68108e-05
1.68159e-05
1.63809e-05
1.64467e-05
1.65371e-05
1.66454e-05
1.67659e-05
1.68937e-05
1.70245e-05
1.71549e-05
1.72823e-05
1.74044e-05
1.752e-05
1.76277e-05
1.77271e-05
1.78177e-05
1.78995e-05
1.79725e-05
1.80369e-05
1.80932e-05
1.81417e-05
1.81828e-05
1.82171e-05
1.82451e-05
1.82673e-05
1.82841e-05
1.82961e-05
1.83036e-05
1.83072e-05
1.79375e-05
1.7982e-05
1.80427e-05
1.81151e-05
1.81952e-05
1.82796e-05
1.83653e-05
1.84501e-05
1.85323e-05
1.86105e-05
1.86839e-05
1.87518e-05
1.88139e-05
1.88702e-05
1.89206e-05
1.89653e-05
1.90045e-05
1.90386e-05
1.90678e-05
1.90924e-05
1.91129e-05
1.91295e-05
1.91426e-05
1.91525e-05
1.91596e-05
1.9164e-05
1.91661e-05
1.88558e-05
1.88802e-05
1.89133e-05
1.89524e-05
1.89952e-05
1.90398e-05
1.90844e-05
1.9128e-05
1.91696e-05
1.92086e-05
1.92446e-05
1.92774e-05
1.93069e-05
1.93332e-05
1.93563e-05
1.93766e-05
1.93941e-05
1.9409e-05
1.94217e-05
1.94322e-05
1.94409e-05
1.94479e-05
1.94533e-05
1.94574e-05
1.94602e-05
1.9462e-05
1.94629e-05
1.91966e-05
1.92043e-05
1.92145e-05
1.9226e-05
1.92381e-05
1.925e-05
1.92611e-05
1.9271e-05
1.92797e-05
1.9287e-05
1.92928e-05
1.92974e-05
1.93008e-05
1.93032e-05
1.93047e-05
1.93055e-05
1.93058e-05
1.93057e-05
1.93053e-05
1.93047e-05
1.93041e-05
1.93035e-05
1.93029e-05
1.93024e-05
1.9302e-05
1.93017e-05
1.93016e-05
1.90655e-05
1.90604e-05
1.9053e-05
1.90436e-05
1.90322e-05
1.90193e-05
1.9005e-05
1.89897e-05
1.89736e-05
1.8957e-05
1.89404e-05
1.89239e-05
1.89078e-05
1.88924e-05
1.88779e-05
1.88643e-05
1.88519e-05
1.88407e-05
1.88307e-05
1.8822e-05
1.88145e-05
1.88083e-05
1.88033e-05
1.87994e-05
1.87966e-05
1.87948e-05
1.8794e-05
1.85787e-05
1.85645e-05
1.85447e-05
1.85203e-05
1.84924e-05
1.8462e-05
1.84298e-05
1.83966e-05
1.83631e-05
1.83299e-05
1.82975e-05
1.82663e-05
1.82367e-05
1.8209e-05
1.81833e-05
1.81598e-05
1.81386e-05
1.81197e-05
1.81031e-05
1.80888e-05
1.80766e-05
1.80666e-05
1.80585e-05
1.80523e-05
1.80479e-05
1.80451e-05
1.80437e-05
1.78442e-05
1.7824e-05
1.77959e-05
1.77617e-05
1.77229e-05
1.76809e-05
1.7637e-05
1.75922e-05
1.75474e-05
1.75034e-05
1.74608e-05
1.74201e-05
1.73819e-05
1.73462e-05
1.73134e-05
1.72836e-05
1.72568e-05
1.7233e-05
1.72122e-05
1.71943e-05
1.71792e-05
1.71667e-05
1.71567e-05
1.71491e-05
1.71436e-05
1.71401e-05
1.71385e-05
1.69523e-05
1.69285e-05
1.68955e-05
1.68554e-05
1.68101e-05
1.67614e-05
1.67105e-05
1.66589e-05
1.66075e-05
1.65572e-05
1.65087e-05
1.64626e-05
1.64194e-05
1.63792e-05
1.63424e-05
1.63089e-05
1.6279e-05
1.62525e-05
1.62293e-05
1.62095e-05
1.61927e-05
1.61789e-05
1.61679e-05
1.61594e-05
1.61534e-05
1.61495e-05
1.61477e-05
1.5974e-05
1.59483e-05
1.59129e-05
1.58699e-05
1.58214e-05
1.57693e-05
1.57151e-05
1.56602e-05
1.56057e-05
1.55525e-05
1.55013e-05
1.54528e-05
1.54073e-05
1.53651e-05
1.53265e-05
1.52916e-05
1.52603e-05
1.52326e-05
1.52085e-05
1.51878e-05
1.51703e-05
1.5156e-05
1.51445e-05
1.51358e-05
1.51295e-05
1.51255e-05
1.51237e-05
1.4962e-05
1.49358e-05
1.48996e-05
1.48558e-05
1.48065e-05
1.47536e-05
1.46986e-05
1.4643e-05
1.45878e-05
1.45341e-05
1.44825e-05
1.44336e-05
1.43878e-05
1.43454e-05
1.43067e-05
1.42716e-05
1.42402e-05
1.42125e-05
1.41884e-05
1.41677e-05
1.41503e-05
1.41359e-05
1.41245e-05
1.41158e-05
1.41095e-05
1.41056e-05
1.41037e-05
1.39538e-05
1.3928e-05
1.38923e-05
1.38492e-05
1.38007e-05
1.37486e-05
1.36946e-05
1.364e-05
1.35859e-05
1.35332e-05
1.34827e-05
1.34348e-05
1.33901e-05
1.33487e-05
1.33109e-05
1.32767e-05
1.32461e-05
1.32192e-05
1.31957e-05
1.31755e-05
1.31586e-05
1.31446e-05
1.31335e-05
1.3125e-05
1.3119e-05
1.31151e-05
1.31133e-05
1.29749e-05
1.29501e-05
1.29157e-05
1.28741e-05
1.28274e-05
1.27773e-05
1.27254e-05
1.26729e-05
1.2621e-05
1.25704e-05
1.2522e-05
1.24762e-05
1.24333e-05
1.23937e-05
1.23576e-05
1.23249e-05
1.22956e-05
1.22699e-05
1.22474e-05
1.22282e-05
1.2212e-05
1.21987e-05
1.21881e-05
1.218e-05
1.21742e-05
1.21706e-05
1.21688e-05
1.20415e-05
1.20179e-05
1.19853e-05
1.19459e-05
1.19017e-05
1.18542e-05
1.18051e-05
1.17555e-05
1.17063e-05
1.16586e-05
1.16128e-05
1.15695e-05
1.15291e-05
1.14917e-05
1.14576e-05
1.14268e-05
1.13993e-05
1.1375e-05
1.13538e-05
1.13357e-05
1.13205e-05
1.1308e-05
1.1298e-05
1.12904e-05
1.12849e-05
1.12815e-05
1.12798e-05
1.1163e-05
1.11409e-05
1.11103e-05
1.10734e-05
1.1032e-05
1.09876e-05
1.09416e-05
1.08951e-05
1.08492e-05
1.08046e-05
1.07618e-05
1.07213e-05
1.06836e-05
1.06487e-05
1.06168e-05
1.05881e-05
1.05624e-05
1.05397e-05
1.052e-05
1.05031e-05
1.04889e-05
1.04773e-05
1.0468e-05
1.04609e-05
1.04558e-05
1.04526e-05
1.0451e-05
1.03439e-05
1.03234e-05
1.0295e-05
1.02607e-05
1.02223e-05
1.0181e-05
1.01383e-05
1.00952e-05
1.00526e-05
1.00112e-05
9.97155e-06
9.93406e-06
9.89906e-06
9.86674e-06
9.83723e-06
9.81058e-06
9.78679e-06
9.76581e-06
9.74756e-06
9.73193e-06
9.71878e-06
9.70798e-06
9.69937e-06
9.6928e-06
9.6881e-06
9.68512e-06
9.68371e-06
9.58571e-06
9.56673e-06
9.54054e-06
9.50889e-06
9.47337e-06
9.43532e-06
9.39593e-06
9.35617e-06
9.31687e-06
9.27868e-06
9.24211e-06
9.20756e-06
9.1753e-06
9.14551e-06
9.11832e-06
9.09377e-06
9.07186e-06
9.05254e-06
9.03573e-06
9.02134e-06
9.00924e-06
8.99929e-06
8.99137e-06
8.98532e-06
8.98099e-06
8.97825e-06
8.97695e-06
8.88731e-06
8.86987e-06
8.8458e-06
8.81672e-06
8.78407e-06
8.74912e-06
8.71293e-06
8.67642e-06
8.64033e-06
8.60526e-06
8.57168e-06
8.53996e-06
8.51035e-06
8.48302e-06
8.45806e-06
8.43554e-06
8.41543e-06
8.39771e-06
8.38229e-06
8.36909e-06
8.35799e-06
8.34887e-06
8.3416e-06
8.33605e-06
8.33209e-06
8.32957e-06
8.32838e-06
8.24641e-06
8.23043e-06
8.20838e-06
8.18174e-06
8.15184e-06
8.11983e-06
8.08669e-06
8.05326e-06
8.02022e-06
7.98812e-06
7.95738e-06
7.92835e-06
7.90125e-06
7.87623e-06
7.8534e-06
7.83279e-06
7.8144e-06
7.79818e-06
7.78408e-06
7.772e-06
7.76185e-06
7.75351e-06
7.74686e-06
7.74179e-06
7.73816e-06
7.73586e-06
7.73477e-06
7.65981e-06
7.64521e-06
7.62505e-06
7.60071e-06
7.57339e-06
7.54413e-06
7.51386e-06
7.48331e-06
7.45312e-06
7.4238e-06
7.39573e-06
7.36921e-06
7.34446e-06
7.32161e-06
7.30076e-06
7.28194e-06
7.26515e-06
7.25034e-06
7.23747e-06
7.22644e-06
7.21717e-06
7.20956e-06
7.20349e-06
7.19886e-06
7.19555e-06
7.19345e-06
7.19245e-06
7.12387e-06
7.11055e-06
7.09216e-06
7.06995e-06
7.04502e-06
7.01833e-06
6.99071e-06
6.96284e-06
6.93531e-06
6.90856e-06
6.88295e-06
6.85876e-06
6.83619e-06
6.81536e-06
6.79634e-06
6.77918e-06
6.76386e-06
6.75036e-06
6.73862e-06
6.72857e-06
6.72012e-06
6.71318e-06
6.70764e-06
6.70342e-06
6.7004e-06
6.69849e-06
6.69758e-06
6.63482e-06
6.62267e-06
6.60591e-06
6.58566e-06
6.56294e-06
6.53862e-06
6.51344e-06
6.48804e-06
6.46295e-06
6.43857e-06
6.41524e-06
6.39319e-06
6.37262e-06
6.35364e-06
6.33631e-06
6.32068e-06
6.30672e-06
6.29442e-06
6.28373e-06
6.27457e-06
6.26687e-06
6.26054e-06
6.2555e-06
6.25165e-06
6.24891e-06
6.24716e-06
6.24634e-06
6.18886e-06
6.1778e-06
6.16253e-06
6.14408e-06
6.12339e-06
6.10123e-06
6.0783e-06
6.05516e-06
6.0323e-06
6.0101e-06
5.98885e-06
5.96877e-06
5.95004e-06
5.93275e-06
5.91697e-06
5.90273e-06
5.89002e-06
5.87882e-06
5.86908e-06
5.86074e-06
5.85373e-06
5.84797e-06
5.84338e-06
5.83988e-06
5.83737e-06
5.83579e-06
5.83503e-06
5.78237e-06
5.7723e-06
5.75839e-06
5.7416e-06
5.72275e-06
5.70257e-06
5.68169e-06
5.66062e-06
5.63981e-06
5.61959e-06
5.60024e-06
5.58196e-06
5.5649e-06
5.54916e-06
5.53479e-06
5.52183e-06
5.51026e-06
5.50006e-06
5.49119e-06
5.4836e-06
5.47721e-06
5.47197e-06
5.46779e-06
5.4646e-06
5.46233e-06
5.46088e-06
5.46019e-06
5.41192e-06
5.40274e-06
5.39008e-06
5.37479e-06
5.35763e-06
5.33926e-06
5.32024e-06
5.30106e-06
5.28211e-06
5.2637e-06
5.24609e-06
5.22944e-06
5.21391e-06
5.19958e-06
5.1865e-06
5.1747e-06
5.16417e-06
5.15488e-06
5.14681e-06
5.1399e-06
5.13409e-06
5.12932e-06
5.12551e-06
5.12261e-06
5.12054e-06
5.11922e-06
5.1186e-06
5.07431e-06
5.06596e-06
5.05443e-06
5.04051e-06
5.02488e-06
5.00816e-06
4.99085e-06
4.97339e-06
4.95613e-06
4.93937e-06
4.92334e-06
4.90819e-06
4.89405e-06
4.881e-06
4.86909e-06
4.85835e-06
4.84876e-06
4.84031e-06
4.83296e-06
4.82667e-06
4.82138e-06
4.81704e-06
4.81358e-06
4.81093e-06
4.80905e-06
4.80785e-06
4.80728e-06
4.76664e-06
4.75904e-06
4.74854e-06
4.73587e-06
4.72164e-06
4.70642e-06
4.69066e-06
4.67476e-06
4.65905e-06
4.6438e-06
4.6292e-06
4.61541e-06
4.60254e-06
4.59066e-06
4.57982e-06
4.57004e-06
4.56132e-06
4.55363e-06
4.54694e-06
4.54121e-06
4.5364e-06
4.53244e-06
4.52929e-06
4.52689e-06
4.52517e-06
4.52408e-06
4.52357e-06
4.48626e-06
4.47934e-06
4.46979e-06
4.45825e-06
4.4453e-06
4.43144e-06
4.4171e-06
4.40263e-06
4.38833e-06
4.37445e-06
4.36116e-06
4.34861e-06
4.3369e-06
4.32609e-06
4.31623e-06
4.30733e-06
4.29939e-06
4.29239e-06
4.2863e-06
4.28109e-06
4.27671e-06
4.27312e-06
4.27025e-06
4.26806e-06
4.2665e-06
4.26551e-06
4.26504e-06
4.23079e-06
4.2245e-06
4.2158e-06
4.2053e-06
4.19352e-06
4.18091e-06
4.16786e-06
4.1547e-06
4.14169e-06
4.12906e-06
4.11697e-06
4.10556e-06
4.0949e-06
4.08507e-06
4.0761e-06
4.06801e-06
4.06078e-06
4.05442e-06
4.04888e-06
4.04415e-06
4.04016e-06
4.03689e-06
4.03429e-06
4.0323e-06
4.03088e-06
4.02998e-06
4.02955e-06
3.99812e-06
3.99239e-06
3.98449e-06
3.97494e-06
3.96423e-06
3.95276e-06
3.9409e-06
3.92893e-06
3.91711e-06
3.90563e-06
3.89464e-06
3.88426e-06
3.87458e-06
3.86565e-06
3.85749e-06
3.85014e-06
3.84358e-06
3.83779e-06
3.83277e-06
3.82846e-06
3.82484e-06
3.82187e-06
3.81951e-06
3.8177e-06
3.81641e-06
3.81559e-06
3.8152e-06
3.78638e-06
3.78117e-06
3.77399e-06
3.76532e-06
3.7556e-06
3.74518e-06
3.73441e-06
3.72354e-06
3.71281e-06
3.70239e-06
3.69241e-06
3.68299e-06
3.67421e-06
3.6661e-06
3.6587e-06
3.65203e-06
3.64607e-06
3.64083e-06
3.63627e-06
3.63236e-06
3.62908e-06
3.62639e-06
3.62424e-06
3.6226e-06
3.62143e-06
3.62069e-06
3.62034e-06
3.59393e-06
3.58922e-06
3.58271e-06
3.57485e-06
3.56603e-06
3.55659e-06
3.54683e-06
3.53698e-06
3.52725e-06
3.51781e-06
3.50878e-06
3.50025e-06
3.49229e-06
3.48495e-06
3.47825e-06
3.47221e-06
3.46682e-06
3.46207e-06
3.45795e-06
3.45441e-06
3.45144e-06
3.44901e-06
3.44707e-06
3.44558e-06
3.44453e-06
3.44386e-06
3.44354e-06
3.41939e-06
3.41512e-06
3.40924e-06
3.40213e-06
3.39416e-06
3.38563e-06
3.37681e-06
3.36791e-06
3.35913e-06
3.3506e-06
3.34244e-06
3.33474e-06
3.32756e-06
3.32093e-06
3.31489e-06
3.30944e-06
3.30458e-06
3.3003e-06
3.29658e-06
3.29339e-06
3.29072e-06
3.28852e-06
3.28677e-06
3.28544e-06
3.28448e-06
3.28388e-06
3.28359e-06
3.26157e-06
3.25773e-06
3.25243e-06
3.24603e-06
3.23886e-06
3.23118e-06
3.22324e-06
3.21524e-06
3.20734e-06
3.19967e-06
3.19234e-06
3.18542e-06
3.17897e-06
3.17302e-06
3.16759e-06
3.1627e-06
3.15834e-06
3.1545e-06
3.15116e-06
3.1483e-06
3.1459e-06
3.14393e-06
3.14237e-06
3.14117e-06
3.14032e-06
3.13977e-06
3.13952e-06
3.11951e-06
3.11607e-06
3.11133e-06
3.1056e-06
3.09918e-06
3.09232e-06
3.08522e-06
3.07807e-06
3.07101e-06
3.06416e-06
3.05762e-06
3.05144e-06
3.04568e-06
3.04038e-06
3.03554e-06
3.03118e-06
3.02729e-06
3.02387e-06
3.0209e-06
3.01836e-06
3.01622e-06
3.01447e-06
3.01308e-06
3.01201e-06
3.01125e-06
3.01077e-06
3.01054e-06
2.99246e-06
2.98941e-06
2.9852e-06
2.98012e-06
2.97443e-06
2.96835e-06
2.96206e-06
2.95572e-06
2.94947e-06
2.94342e-06
2.93763e-06
2.93217e-06
2.92708e-06
2.9224e-06
2.91813e-06
2.91428e-06
2.91086e-06
2.90784e-06
2.90522e-06
2.90299e-06
2.90111e-06
2.89956e-06
2.89834e-06
2.8974e-06
2.89673e-06
2.89631e-06
2.89611e-06
2.8799e-06
2.87723e-06
2.87354e-06
2.86909e-06
2.8641e-06
2.85878e-06
2.85328e-06
2.84774e-06
2.84228e-06
2.837e-06
2.83195e-06
2.82719e-06
2.82277e-06
2.81869e-06
2.81498e-06
2.81164e-06
2.80866e-06
2.80605e-06
2.80378e-06
2.80184e-06
2.80021e-06
2.79887e-06
2.79781e-06
2.797e-06
2.79643e-06
2.79606e-06
2.79589e-06
2.78152e-06
2.77921e-06
2.77604e-06
2.77221e-06
2.76792e-06
2.76335e-06
2.75863e-06
2.75389e-06
2.74922e-06
2.7447e-06
2.74039e-06
2.73633e-06
2.73256e-06
2.72909e-06
2.72593e-06
2.7231e-06
2.72057e-06
2.71835e-06
2.71643e-06
2.71479e-06
2.71341e-06
2.71229e-06
2.71139e-06
2.71071e-06
2.71022e-06
2.70991e-06
2.70977e-06
2.69723e-06
2.6953e-06
2.69264e-06
2.68944e-06
2.68586e-06
2.68205e-06
2.67812e-06
2.67417e-06
2.6703e-06
2.66655e-06
2.66299e-06
2.65964e-06
2.65653e-06
2.65367e-06
2.65108e-06
2.64876e-06
2.64669e-06
2.64488e-06
2.64331e-06
2.64197e-06
2.64085e-06
2.63993e-06
2.63921e-06
2.63865e-06
2.63826e-06
2.63801e-06
2.63789e-06
2.62721e-06
2.62566e-06
2.62353e-06
2.62097e-06
2.61812e-06
2.61509e-06
2.61197e-06
2.60885e-06
2.60579e-06
2.60284e-06
2.60005e-06
2.59743e-06
2.595e-06
2.59279e-06
2.59078e-06
2.58898e-06
2.58739e-06
2.58599e-06
2.58479e-06
2.58377e-06
2.58291e-06
2.58222e-06
2.58167e-06
2.58125e-06
2.58095e-06
2.58076e-06
2.58067e-06
2.5719e-06
2.57075e-06
2.56917e-06
2.56729e-06
2.56519e-06
2.56297e-06
2.56071e-06
2.55845e-06
2.55625e-06
2.55414e-06
2.55215e-06
2.5503e-06
2.54859e-06
2.54704e-06
2.54565e-06
2.54441e-06
2.54332e-06
2.54237e-06
2.54155e-06
2.54086e-06
2.54029e-06
2.53982e-06
2.53945e-06
2.53918e-06
2.53898e-06
2.53886e-06
2.5388e-06
2.53202e-06
2.5313e-06
2.53031e-06
2.52914e-06
2.52785e-06
2.5265e-06
2.52514e-06
2.5238e-06
2.52251e-06
2.5213e-06
2.52017e-06
2.51914e-06
2.51821e-06
2.51738e-06
2.51664e-06
2.51599e-06
2.51544e-06
2.51496e-06
2.51456e-06
2.51423e-06
2.51396e-06
2.51374e-06
2.51357e-06
2.51344e-06
2.51336e-06
2.5133e-06
2.51328e-06
2.50861e-06
2.50835e-06
2.508e-06
2.5076e-06
2.50718e-06
2.50677e-06
2.50639e-06
2.50604e-06
2.50575e-06
2.5055e-06
2.50531e-06
2.50517e-06
2.50507e-06
2.50502e-06
2.505e-06
2.505e-06
2.50503e-06
2.50507e-06
2.50512e-06
2.50517e-06
2.50523e-06
2.50528e-06
2.50533e-06
2.50537e-06
2.5054e-06
2.50542e-06
2.50543e-06
2.50302e-06
2.50326e-06
2.5036e-06
2.50405e-06
2.50458e-06
2.5052e-06
2.50588e-06
2.50662e-06
2.50741e-06
2.50823e-06
2.50906e-06
2.50989e-06
2.51071e-06
2.51151e-06
2.51227e-06
2.51299e-06
2.51365e-06
2.51426e-06
2.5148e-06
2.51528e-06
2.5157e-06
2.51605e-06
2.51633e-06
2.51655e-06
2.51671e-06
2.51682e-06
2.51687e-06
2.51685e-06
2.51764e-06
2.51874e-06
2.52011e-06
2.52169e-06
2.52343e-06
2.5253e-06
2.52723e-06
2.52921e-06
2.5312e-06
2.53315e-06
2.53506e-06
2.53689e-06
2.53862e-06
2.54024e-06
2.54174e-06
2.5431e-06
2.54433e-06
2.54542e-06
2.54637e-06
2.54718e-06
2.54785e-06
2.5484e-06
2.54882e-06
2.54912e-06
2.54932e-06
2.54941e-06
2.55187e-06
2.55325e-06
2.5552e-06
2.55758e-06
2.5603e-06
2.56328e-06
2.56642e-06
2.56967e-06
2.57295e-06
2.5762e-06
2.57939e-06
2.58246e-06
2.58539e-06
2.58814e-06
2.5907e-06
2.59305e-06
2.59518e-06
2.59709e-06
2.59877e-06
2.60023e-06
2.60147e-06
2.6025e-06
2.60333e-06
2.60397e-06
2.60443e-06
2.60472e-06
2.60486e-06
2.60975e-06
2.61178e-06
2.61462e-06
2.61809e-06
2.62204e-06
2.62633e-06
2.63085e-06
2.6355e-06
2.64016e-06
2.64478e-06
2.64927e-06
2.65359e-06
2.65769e-06
2.66153e-06
2.66508e-06
2.66833e-06
2.67128e-06
2.6739e-06
2.67621e-06
2.67821e-06
2.67991e-06
2.68131e-06
2.68244e-06
2.68331e-06
2.68394e-06
2.68434e-06
2.68453e-06
2.69162e-06
2.69432e-06
2.69808e-06
2.70267e-06
2.70788e-06
2.71352e-06
2.71945e-06
2.72552e-06
2.7316e-06
2.73759e-06
2.7434e-06
2.74897e-06
2.75424e-06
2.75916e-06
2.7637e-06
2.76785e-06
2.77159e-06
2.77493e-06
2.77785e-06
2.78038e-06
2.78253e-06
2.7843e-06
2.78572e-06
2.78682e-06
2.7876e-06
2.78811e-06
2.78834e-06
2.7974e-06
2.80075e-06
2.8054e-06
2.81107e-06
2.8175e-06
2.82445e-06
2.83174e-06
2.83918e-06
2.84662e-06
2.85394e-06
2.86104e-06
2.86782e-06
2.87422e-06
2.8802e-06
2.88571e-06
2.89074e-06
2.89526e-06
2.89929e-06
2.90282e-06
2.90587e-06
2.90846e-06
2.91059e-06
2.9123e-06
2.91362e-06
2.91456e-06
2.91517e-06
2.91545e-06
2.92604e-06
2.93002e-06
2.93553e-06
2.94224e-06
2.94984e-06
2.95805e-06
2.96664e-06
2.97539e-06
2.98414e-06
2.99274e-06
3.00105e-06
3.00899e-06
3.01647e-06
3.02345e-06
3.02988e-06
3.03573e-06
3.041e-06
3.04568e-06
3.04979e-06
3.05333e-06
3.05632e-06
3.05879e-06
3.06078e-06
3.0623e-06
3.06339e-06
3.06409e-06
3.06442e-06
3.07573e-06
3.08026e-06
3.08655e-06
3.09419e-06
3.10284e-06
3.11217e-06
3.12192e-06
3.13184e-06
3.14175e-06
3.15146e-06
3.16085e-06
3.1698e-06
3.17822e-06
3.18607e-06
3.19329e-06
3.19986e-06
3.20577e-06
3.21101e-06
3.21561e-06
3.21956e-06
3.22291e-06
3.22567e-06
3.22789e-06
3.22958e-06
3.2308e-06
3.23158e-06
3.23195e-06
3.24284e-06
3.24782e-06
3.25472e-06
3.2631e-06
3.27256e-06
3.28277e-06
3.29342e-06
3.30425e-06
3.31504e-06
3.3256e-06
3.3358e-06
3.34551e-06
3.35464e-06
3.36314e-06
3.37095e-06
3.37804e-06
3.38442e-06
3.39007e-06
3.39502e-06
3.39928e-06
3.40288e-06
3.40585e-06
3.40823e-06
3.41005e-06
3.41136e-06
3.41219e-06
3.41258e-06
3.42167e-06
3.42692e-06
3.4342e-06
3.44302e-06
3.45297e-06
3.4637e-06
3.47486e-06
3.48621e-06
3.49749e-06
3.50853e-06
3.51916e-06
3.52928e-06
3.53878e-06
3.54761e-06
3.55571e-06
3.56307e-06
3.56967e-06
3.57552e-06
3.58063e-06
3.58503e-06
3.58875e-06
3.59181e-06
3.59426e-06
3.59614e-06
3.59749e-06
3.59834e-06
3.59875e-06
3.60444e-06
3.60973e-06
3.61706e-06
3.62593e-06
3.63593e-06
3.64668e-06
3.65787e-06
3.66921e-06
3.68047e-06
3.69147e-06
3.70206e-06
3.7121e-06
3.72153e-06
3.73027e-06
3.73829e-06
3.74556e-06
3.75207e-06
3.75784e-06
3.76287e-06
3.7672e-06
3.77085e-06
3.77386e-06
3.77627e-06
3.77811e-06
3.77943e-06
3.78027e-06
3.78067e-06
3.78121e-06
3.78623e-06
3.79318e-06
3.80159e-06
3.81105e-06
3.8212e-06
3.83173e-06
3.84238e-06
3.85294e-06
3.86322e-06
3.87309e-06
3.88244e-06
3.8912e-06
3.8993e-06
3.90671e-06
3.91342e-06
3.91942e-06
3.92472e-06
3.92935e-06
3.93332e-06