/*--------------------------------*- C++ -*----------------------------------*\
| =========                 |                                                 |
| \\      /  F ield         | OpenFOAM: The Open Source CFD Toolbox           |
|  \\    /   O peration     | Version:  2106                                  |
|   \\  /    A nd           | Website:  www.openfoam.com                      |
|    \\/     M anipulation  |                                                 |
\*---------------------------------------------------------------------------*/
FoamFile
{
    version     2.0;
    format      ascii;
    arch        "LSB;label=32;scalar=64";
    class       volScalarField;
    location    "49.99987";
    object      C6H6_0;
}
// * * * * * * * * * * * * * * * * * * * * * * * * * * * * * * * * * * * * * //

dimensions      [0 0 0 0 0 0 0];

internalField   nonuniform List<scalar> 
3360
(
4.50998e-19
4.65513e-19
4.85712e-19
5.1042e-19
5.38606e-19
5.69346e-19
6.01805e-19
6.3523e-19
6.68948e-19
7.02367e-19
7.34974e-19
7.66333e-19
7.96083e-19
8.23937e-19
8.49679e-19
8.73153e-19
8.94268e-19
9.12983e-19
9.29305e-19
9.43284e-19
9.55002e-19
9.64572e-19
9.72132e-19
9.77835e-19
9.81846e-19
9.84342e-19
9.855e-19
1.97851e-18
2.05125e-18
2.15388e-18
2.2817e-18
2.43078e-18
2.5977e-18
2.77943e-18
2.97317e-18
3.17631e-18
3.38641e-18
3.60111e-18
3.81811e-18
4.03516e-18
4.25002e-18
4.4605e-18
4.66443e-18
4.85972e-18
5.04429e-18
5.2162e-18
5.37359e-18
5.51479e-18
5.63829e-18
5.74282e-18
5.82735e-18
5.89115e-18
5.93376e-18
5.955e-18
6.20812e-18
6.48063e-18
6.86785e-18
7.35443e-18
7.92763e-18
8.57598e-18
9.28858e-18
1.00547e-17
1.08635e-17
1.17039e-17
1.25644e-17
1.3434e-17
1.43014e-17
1.51556e-17
1.5986e-17
1.67825e-17
1.75357e-17
1.82371e-17
1.88797e-17
1.94572e-17
1.99651e-17
2.03999e-17
2.076e-17
2.10445e-17
2.12543e-17
2.13911e-17
2.14577e-17
1.80808e-17
1.89791e-17
2.0264e-17
2.18897e-17
2.38178e-17
2.60122e-17
2.8437e-17
3.10549e-17
3.38267e-17
3.67114e-17
3.96664e-17
4.26485e-17
4.56148e-17
4.85235e-17
5.13348e-17
5.40124e-17
5.65239e-17
5.8842e-17
6.09445e-17
6.28149e-17
6.44424e-17
6.58211e-17
6.69502e-17
6.78334e-17
6.84779e-17
6.8894e-17
6.90948e-17
5.28283e-17
5.56621e-17
5.97236e-17
6.48742e-17
7.0996e-17
7.79761e-17
8.56981e-17
9.40387e-17
1.02867e-16
1.12043e-16
1.21425e-16
1.30868e-16
1.4023e-16
1.49377e-16
1.58182e-16
1.66533e-16
1.74334e-16
1.81505e-16
1.87983e-16
1.93725e-16
1.98703e-16
2.02906e-16
2.06338e-16
2.09015e-16
2.10963e-16
2.12218e-16
2.12822e-16
1.55778e-16
1.64482e-16
1.76971e-16
1.92824e-16
2.11676e-16
2.33177e-16
2.56963e-16
2.82648e-16
3.09817e-16
3.38036e-16
3.66856e-16
3.95826e-16
4.24506e-16
4.52479e-16
4.79361e-16
5.04812e-16
5.28543e-16
5.50315e-16
5.69951e-16
5.87323e-16
6.02359e-16
6.15035e-16
6.2537e-16
6.33419e-16
6.3927e-16
6.43035e-16
6.44845e-16
4.62773e-16
4.89221e-16
5.27173e-16
5.75346e-16
6.32632e-16
6.97951e-16
7.70184e-16
8.48136e-16
9.30536e-16
1.01605e-15
1.1033e-15
1.19093e-15
1.27759e-15
1.36203e-15
1.44311e-15
1.5198e-15
1.59125e-15
1.65676e-15
1.71579e-15
1.768e-15
1.81316e-15
1.85121e-15
1.88223e-15
1.90638e-15
1.92393e-15
1.93523e-15
1.94065e-15
1.37936e-15
1.45895e-15
1.57322e-15
1.71831e-15
1.89089e-15
2.08771e-15
2.30536e-15
2.54024e-15
2.78848e-15
3.04603e-15
3.30876e-15
3.57251e-15
3.83326e-15
4.08723e-15
4.33097e-15
4.56144e-15
4.77605e-15
4.97272e-15
5.14989e-15
5.30648e-15
5.44189e-15
5.55595e-15
5.64887e-15
5.7212e-15
5.77374e-15
5.80753e-15
5.82377e-15
4.12228e-15
4.3615e-15
4.70489e-15
5.14084e-15
5.65933e-15
6.25052e-15
6.90416e-15
7.60932e-15
8.35437e-15
9.12711e-15
9.91507e-15
1.07058e-14
1.14874e-14
1.22483e-14
1.29784e-14
1.36686e-14
1.43111e-14
1.48998e-14
1.543e-14
1.58986e-14
1.63038e-14
1.66451e-14
1.69231e-14
1.71395e-14
1.72967e-14
1.73978e-14
1.74464e-14
1.23205e-14
1.30371e-14
1.40658e-14
1.5372e-14
1.69256e-14
1.86969e-14
2.06553e-14
2.27679e-14
2.49997e-14
2.73142e-14
2.96739e-14
3.20416e-14
3.43812e-14
3.66588e-14
3.88435e-14
4.09082e-14
4.283e-14
4.45905e-14
4.61757e-14
4.75763e-14
4.8787e-14
4.98066e-14
5.0637e-14
5.12832e-14
5.17525e-14
5.20543e-14
5.21993e-14
3.68414e-14
3.89869e-14
4.20665e-14
4.59758e-14
5.06244e-14
5.59234e-14
6.17804e-14
6.80967e-14
7.47675e-14
8.16831e-14
8.87318e-14
9.5802e-14
1.02786e-13
1.09583e-13
1.16101e-13
1.22259e-13
1.2799e-13
1.33239e-13
1.37964e-13
1.42138e-13
1.45746e-13
1.48784e-13
1.51258e-13
1.53183e-13
1.54581e-13
1.5548e-13
1.55912e-13
1.10062e-13
1.16469e-13
1.25665e-13
1.37337e-13
1.51213e-13
1.67028e-13
1.84502e-13
2.03341e-13
2.23231e-13
2.43844e-13
2.64846e-13
2.85905e-13
3.06699e-13
3.26929e-13
3.46321e-13
3.64637e-13
3.81674e-13
3.97272e-13
4.1131e-13
4.23707e-13
4.34419e-13
4.43436e-13
4.50776e-13
4.56487e-13
4.60633e-13
4.63298e-13
4.64579e-13
3.28459e-13
3.47559e-13
3.74963e-13
4.09731e-13
4.51045e-13
4.98104e-13
5.50073e-13
6.06065e-13
6.65143e-13
7.26329e-13
7.88627e-13
8.51053e-13
9.12657e-13
9.72551e-13
1.02993e-12
1.0841e-12
1.13445e-12
1.18053e-12
1.22199e-12
1.25858e-12
1.29019e-12
1.31678e-12
1.33843e-12
1.35526e-12
1.36748e-12
1.37533e-12
1.37911e-12
9.77427e-13
1.03411e-12
1.1154e-12
1.2185e-12
1.34093e-12
1.48028e-12
1.63406e-12
1.79961e-12
1.97414e-12
2.15472e-12
2.33843e-12
2.52234e-12
2.70367e-12
2.8798e-12
3.04838e-12
3.20739e-12
3.35509e-12
3.49014e-12
3.61154e-12
3.71863e-12
3.81106e-12
3.88879e-12
3.95202e-12
4.00117e-12
4.03683e-12
4.05974e-12
4.07074e-12
2.89826e-12
3.06555e-12
3.30532e-12
3.60912e-12
3.96954e-12
4.37933e-12
4.83097e-12
5.31654e-12
5.82773e-12
6.35594e-12
6.8925e-12
7.4289e-12
7.957e-12
8.46929e-12
8.95899e-12
9.42026e-12
9.84825e-12
1.02391e-11
1.05902e-11
1.08995e-11
1.11662e-11
1.13904e-11
1.15726e-11
1.17141e-11
1.18167e-11
1.18826e-11
1.19143e-11
8.54376e-12
9.03275e-12
9.73301e-12
1.06192e-11
1.16692e-11
1.28612e-11
1.41726e-11
1.55801e-11
1.70591e-11
1.85844e-11
2.01308e-11
2.16739e-11
2.31902e-11
2.46583e-11
2.60592e-11
2.73765e-11
2.85967e-11
2.97094e-11
3.07071e-11
3.15851e-11
3.23413e-11
3.29759e-11
3.34912e-11
3.3891e-11
3.41807e-11
3.43666e-11
3.44557e-11
2.4992e-11
2.64028e-11
2.84205e-11
3.09698e-11
3.39842e-11
3.73987e-11
4.11465e-11
4.51587e-11
4.93636e-11
5.36887e-11
5.80622e-11
6.24144e-11
6.66802e-11
7.08001e-11
7.47218e-11
7.84009e-11
8.18014e-11
8.48959e-11
8.76652e-11
9.00978e-11
9.21896e-11
9.39424e-11
9.53637e-11
9.64652e-11
9.72623e-11
9.77733e-11
9.80181e-11
7.23358e-11
7.6331e-11
8.20353e-11
8.92262e-11
9.77064e-11
1.07284e-10
1.17763e-10
1.28943e-10
1.40619e-10
1.52588e-10
1.64649e-10
1.7661e-10
1.88294e-10
1.99542e-10
2.10216e-10
2.20201e-10
2.29404e-10
2.37757e-10
2.45215e-10
2.51751e-10
2.5736e-10
2.62052e-10
2.65849e-10
2.68788e-10
2.70912e-10
2.72272e-10
2.72922e-10
2.06463e-10
2.175e-10
2.33221e-10
2.5298e-10
2.76202e-10
3.02327e-10
3.30795e-10
3.61037e-10
3.92485e-10
4.24579e-10
4.5678e-10
4.8858e-10
5.19518e-10
5.49187e-10
5.77237e-10
6.03384e-10
6.27407e-10
6.49145e-10
6.68497e-10
6.85417e-10
6.99901e-10
7.1199e-10
7.21757e-10
7.29302e-10
7.34746e-10
7.38227e-10
7.39891e-10
5.78582e-10
6.08093e-10
6.50013e-10
7.02511e-10
7.63946e-10
8.32739e-10
9.07329e-10
9.86164e-10
1.06772e-09
1.15053e-09
1.23319e-09
1.31443e-09
1.3931e-09
1.46822e-09
1.53893e-09
1.6046e-09
1.66471e-09
1.71892e-09
1.76704e-09
1.80899e-09
1.84481e-09
1.87464e-09
1.89868e-09
1.91723e-09
1.93059e-09
1.93911e-09
1.94319e-09
1.58381e-09
1.65962e-09
1.76694e-09
1.90078e-09
2.05664e-09
2.23024e-09
2.41742e-09
2.61411e-09
2.81644e-09
3.02071e-09
3.22352e-09
3.4218e-09
3.61286e-09
3.79442e-09
3.96462e-09
4.12202e-09
4.26556e-09
4.39458e-09
4.50873e-09
4.60797e-09
4.69249e-09
4.7627e-09
4.8192e-09
4.86268e-09
4.89395e-09
4.91389e-09
4.92339e-09
4.21023e-09
4.39593e-09
4.65792e-09
4.98318e-09
5.36001e-09
5.77737e-09
6.22474e-09
6.6921e-09
7.17002e-09
7.64978e-09
8.12351e-09
8.58423e-09
9.026e-09
9.44388e-09
9.83394e-09
1.01932e-08
1.05197e-08
1.08122e-08
1.10702e-08
1.12939e-08
1.1484e-08
1.16415e-08
1.1768e-08
1.18652e-08
1.1935e-08
1.19794e-08
1.20006e-08
1.08057e-08
1.12374e-08
1.18445e-08
1.25948e-08
1.34598e-08
1.44126e-08
1.54281e-08
1.64831e-08
1.7556e-08
1.86272e-08
1.96795e-08
2.0698e-08
2.16703e-08
2.2586e-08
2.34375e-08
2.42191e-08
2.4927e-08
2.55593e-08
2.61155e-08
2.65966e-08
2.70044e-08
2.73418e-08
2.76123e-08
2.78198e-08
2.79686e-08
2.80632e-08
2.81082e-08
2.66448e-08
2.75963e-08
2.893e-08
3.0572e-08
3.24563e-08
3.4522e-08
3.67131e-08
3.8978e-08
4.12701e-08
4.35482e-08
4.57763e-08
4.79239e-08
4.99659e-08
5.18825e-08
5.36587e-08
5.52842e-08
5.67523e-08
5.80604e-08
5.92086e-08
6.01995e-08
6.10381e-08
6.17308e-08
6.22852e-08
6.27099e-08
6.30142e-08
6.32074e-08
6.32993e-08
6.29393e-08
6.4932e-08
6.77181e-08
7.11373e-08
7.50469e-08
7.93163e-08
8.38268e-08
8.84708e-08
9.31527e-08
9.77887e-08
1.02307e-07
1.06648e-07
1.10763e-07
1.14615e-07
1.18175e-07
1.21425e-07
1.24354e-07
1.26959e-07
1.29242e-07
1.31208e-07
1.3287e-07
1.34241e-07
1.35337e-07
1.36176e-07
1.36776e-07
1.37157e-07
1.37338e-07
1.4234e-07
1.4633e-07
1.51898e-07
1.58716e-07
1.6649e-07
1.74956e-07
1.83874e-07
1.9303e-07
2.02235e-07
2.11326e-07
2.20164e-07
2.28635e-07
2.36647e-07
2.44132e-07
2.51037e-07
2.5733e-07
2.62994e-07
2.68023e-07
2.72423e-07
2.76211e-07
2.79409e-07
2.82044e-07
2.84149e-07
2.85758e-07
2.8691e-07
2.8764e-07
2.87987e-07
3.0864e-07
3.16339e-07
3.2707e-07
3.40188e-07
3.55122e-07
3.71355e-07
3.88424e-07
4.05917e-07
4.23474e-07
4.40785e-07
4.57589e-07
4.73672e-07
4.88867e-07
5.03042e-07
5.16108e-07
5.28005e-07
5.38701e-07
5.48192e-07
5.56492e-07
5.63631e-07
5.69654e-07
5.74615e-07
5.78577e-07
5.81605e-07
5.8377e-07
5.85143e-07
5.85795e-07
6.4317e-07
6.57597e-07
6.77693e-07
7.02242e-07
7.30167e-07
7.60496e-07
7.9236e-07
8.24992e-07
8.5772e-07
8.89968e-07
9.21255e-07
9.51187e-07
9.79452e-07
1.00581e-06
1.0301e-06
1.05221e-06
1.07209e-06
1.08972e-06
1.10514e-06
1.1184e-06
1.12959e-06
1.13881e-06
1.14616e-06
1.15179e-06
1.15581e-06
1.15836e-06
1.15957e-06
1.29083e-06
1.31723e-06
1.354e-06
1.3989e-06
1.44998e-06
1.50545e-06
1.56372e-06
1.6234e-06
1.68326e-06
1.74225e-06
1.79949e-06
1.85427e-06
1.906e-06
1.95427e-06
1.99875e-06
2.03925e-06
2.07567e-06
2.10799e-06
2.13626e-06
2.16058e-06
2.1811e-06
2.198e-06
2.21151e-06
2.22183e-06
2.22921e-06
2.23389e-06
2.23611e-06
2.49602e-06
2.54317e-06
2.60886e-06
2.6891e-06
2.7804e-06
2.87959e-06
2.98384e-06
3.09066e-06
3.19785e-06
3.30355e-06
3.40617e-06
3.50443e-06
3.59729e-06
3.68397e-06
3.7639e-06
3.83671e-06
3.90222e-06
3.96038e-06
4.01127e-06
4.05507e-06
4.09203e-06
4.1225e-06
4.14683e-06
4.16544e-06
4.17875e-06
4.1872e-06
4.1912e-06
4.63851e-06
4.7201e-06
4.83378e-06
4.97271e-06
5.13085e-06
5.30273e-06
5.4835e-06
5.66882e-06
5.85492e-06
6.03854e-06
6.21694e-06
6.38786e-06
6.5495e-06
6.70046e-06
6.83976e-06
6.96673e-06
7.08101e-06
7.1825e-06
7.27133e-06
7.34781e-06
7.41237e-06
7.46559e-06
7.5081e-06
7.54061e-06
7.56386e-06
7.57861e-06
7.58561e-06
8.24061e-06
8.3752e-06
8.56274e-06
8.79195e-06
9.05283e-06
9.33643e-06
9.63469e-06
9.9405e-06
1.02476e-05
1.05507e-05
1.08452e-05
1.11273e-05
1.13942e-05
1.16435e-05
1.18735e-05
1.20831e-05
1.22718e-05
1.24393e-05
1.2586e-05
1.27122e-05
1.28187e-05
1.29065e-05
1.29766e-05
1.30302e-05
1.30685e-05
1.30928e-05
1.31043e-05
1.39044e-05
1.41117e-05
1.44003e-05
1.47528e-05
1.51536e-05
1.55888e-05
1.60459e-05
1.65139e-05
1.69834e-05
1.7446e-05
1.78949e-05
1.83245e-05
1.87302e-05
1.91086e-05
1.94574e-05
1.97749e-05
2.00603e-05
2.03135e-05
2.05348e-05
2.07252e-05
2.08857e-05
2.10178e-05
2.11232e-05
2.12038e-05
2.12613e-05
2.12978e-05
2.13151e-05
2.21616e-05
2.24546e-05
2.28619e-05
2.33584e-05
2.39216e-05
2.45317e-05
2.51708e-05
2.58234e-05
2.6476e-05
2.71174e-05
2.77379e-05
2.83301e-05
2.8888e-05
2.9407e-05
2.98842e-05
3.03177e-05
3.07067e-05
3.10511e-05
3.13517e-05
3.16098e-05
3.18272e-05
3.2006e-05
3.21485e-05
3.22573e-05
3.2335e-05
3.23842e-05
3.24076e-05
3.32867e-05
3.36647e-05
3.41893e-05
3.48271e-05
3.55487e-05
3.63278e-05
3.71413e-05
3.79693e-05
3.87946e-05
3.96029e-05
4.03826e-05
4.11244e-05
4.18213e-05
4.24681e-05
4.30613e-05
4.35991e-05
4.40807e-05
4.45064e-05
4.48775e-05
4.51957e-05
4.54635e-05
4.56835e-05
4.58588e-05
4.59926e-05
4.6088e-05
4.61485e-05
4.61772e-05
4.71877e-05
4.76368e-05
4.8259e-05
4.9014e-05
4.9866e-05
5.07836e-05
5.17391e-05
5.27088e-05
5.36727e-05
5.46144e-05
5.55203e-05
5.63803e-05
5.71863e-05
5.7933e-05
5.86166e-05
5.92354e-05
5.97888e-05
6.02775e-05
6.07031e-05
6.10678e-05
6.13745e-05
6.16264e-05
6.18272e-05
6.19803e-05
6.20897e-05
6.21589e-05
6.21918e-05
6.34656e-05
6.39659e-05
6.46582e-05
6.5497e-05
6.64419e-05
6.74576e-05
6.85132e-05
6.95825e-05
7.06434e-05
7.1678e-05
7.26717e-05
7.36136e-05
7.44952e-05
7.5311e-05
7.60571e-05
7.67319e-05
7.7335e-05
7.78673e-05
7.83307e-05
7.87277e-05
7.90615e-05
7.93358e-05
7.95543e-05
7.97211e-05
7.98402e-05
7.99156e-05
7.99514e-05
8.1574e-05
8.21061e-05
8.2842e-05
8.37327e-05
8.47351e-05
8.58114e-05
8.69288e-05
8.80594e-05
8.91801e-05
9.02718e-05
9.13197e-05
9.23121e-05
9.32405e-05
9.40991e-05
9.48841e-05
9.55939e-05
9.62281e-05
9.67879e-05
9.72751e-05
9.76926e-05
9.80438e-05
9.83324e-05
9.85623e-05
9.87379e-05
9.88634e-05
9.89429e-05
9.89806e-05
0.000100962
0.00010151
0.000102269
0.000103187
0.00010422
0.000105328
0.000106478
0.000107641
0.000108793
0.000109915
0.000110992
0.000112012
0.000112965
0.000113847
0.000114654
0.000115383
0.000116034
0.000116609
0.00011711
0.000117539
0.000117901
0.000118197
0.000118434
0.000118615
0.000118744
0.000118826
0.000118865
0.000121156
0.000121712
0.000122479
0.000123407
0.000124452
0.000125572
0.000126735
0.000127911
0.000129076
0.00013021
0.000131299
0.00013233
0.000133294
0.000134186
0.000135002
0.000135739
0.000136399
0.000136981
0.000137488
0.000137922
0.000138288
0.000138589
0.000138829
0.000139012
0.000139143
0.000139226
0.000139266
0.000141794
0.000142349
0.000143117
0.000144045
0.00014509
0.000146211
0.000147374
0.00014855
0.000149716
0.000150851
0.00015194
0.000152972
0.000153938
0.000154831
0.000155648
0.000156387
0.000157047
0.000157631
0.000158139
0.000158575
0.000158942
0.000159244
0.000159484
0.000159668
0.0001598
0.000159883
0.000159923
0.000162613
0.000163165
0.000163927
0.00016485
0.000165888
0.000167002
0.000168158
0.000169327
0.000170486
0.000171615
0.000172699
0.000173725
0.000174686
0.000175575
0.000176388
0.000177124
0.000177782
0.000178363
0.000178869
0.000179303
0.000179669
0.00017997
0.00018021
0.000180393
0.000180525
0.000180608
0.000180647
0.000183434
0.00018398
0.000184735
0.000185649
0.000186676
0.000187779
0.000188924
0.000190083
0.000191231
0.00019235
0.000193424
0.000194441
0.000195394
0.000196275
0.000197081
0.000197811
0.000198464
0.00019904
0.000199543
0.000199974
0.000200337
0.000200635
0.000200874
0.000201056
0.000201186
0.000201269
0.000201308
0.000204143
0.000204683
0.000205429
0.000206331
0.000207347
0.000208437
0.000209569
0.000210714
0.000211849
0.000212956
0.000214018
0.000215024
0.000215966
0.000216838
0.000217636
0.000218359
0.000219004
0.000219575
0.000220073
0.000220499
0.000220859
0.000221154
0.00022139
0.000221571
0.0002217
0.000221782
0.000221821
0.00022467
0.000225202
0.000225939
0.00022683
0.000227833
0.000228909
0.000230027
0.000231158
0.00023228
0.000233373
0.000234422
0.000235417
0.000236348
0.00023721
0.000237998
0.000238712
0.000239351
0.000239915
0.000240407
0.000240829
0.000241184
0.000241476
0.00024171
0.000241888
0.000242016
0.000242097
0.000242135
0.000244975
0.000245501
0.000246228
0.000247108
0.000248098
0.000249161
0.000250265
0.000251382
0.000252489
0.000253569
0.000254605
0.000255588
0.000256507
0.000257359
0.000258138
0.000258843
0.000259474
0.000260032
0.000260518
0.000260935
0.000261286
0.000261575
0.000261805
0.000261982
0.000262108
0.000262188
0.000262226
0.000265043
0.000265563
0.00026628
0.000267149
0.000268127
0.000269177
0.000270267
0.00027137
0.000272464
0.000273531
0.000274555
0.000275525
0.000276434
0.000277275
0.000278045
0.000278742
0.000279365
0.000279916
0.000280396
0.000280808
0.000281155
0.000281441
0.000281668
0.000281843
0.000281967
0.000282046
0.000282084
0.000284872
0.000285384
0.000286094
0.000286952
0.000287918
0.000288956
0.000290033
0.000291123
0.000292204
0.000293258
0.00029427
0.000295229
0.000296127
0.000296958
0.000297719
0.000298408
0.000299024
0.000299569
0.000300044
0.000300451
0.000300794
0.000301076
0.000301301
0.000301474
0.000301597
0.000301675
0.000301712
0.000304466
0.000304973
0.000305675
0.000306523
0.000307478
0.000308504
0.000309569
0.000310647
0.000311716
0.000312758
0.000313759
0.000314708
0.000315596
0.000316418
0.000317171
0.000317852
0.000318461
0.000319
0.000319469
0.000319872
0.000320211
0.000320491
0.000320713
0.000320884
0.000321006
0.000321083
0.00032112
0.000323839
0.000324341
0.000325035
0.000325875
0.00032682
0.000327835
0.000328889
0.000329956
0.000331014
0.000332045
0.000333036
0.000333974
0.000334853
0.000335667
0.000336412
0.000337086
0.000337689
0.000338222
0.000338687
0.000339086
0.000339421
0.000339698
0.000339918
0.000340087
0.000340207
0.000340284
0.00034032
0.000343007
0.000343503
0.000344191
0.000345022
0.000345958
0.000346964
0.000348008
0.000349064
0.000350112
0.000351133
0.000352114
0.000353044
0.000353915
0.000354721
0.000355459
0.000356126
0.000356724
0.000357252
0.000357712
0.000358107
0.00035844
0.000358713
0.000358932
0.000359099
0.000359218
0.000359294
0.00035933
0.000361985
0.000362477
0.000363158
0.000363983
0.00036491
0.000365907
0.000366942
0.000367989
0.000369028
0.00037004
0.000371013
0.000371934
0.000372797
0.000373596
0.000374328
0.00037499
0.000375582
0.000376106
0.000376562
0.000376953
0.000377283
0.000377554
0.000377771
0.000377937
0.000378055
0.00037813
0.000378166
0.000380791
0.000381279
0.000381955
0.000382773
0.000383693
0.000384682
0.000385708
0.000386747
0.000387778
0.000388782
0.000389747
0.000390662
0.000391518
0.000392311
0.000393036
0.000393693
0.000394281
0.0003948
0.000395253
0.000395641
0.000395969
0.000396238
0.000396453
0.000396617
0.000396734
0.000396809
0.000396845
0.000399442
0.000399927
0.000400598
0.00040141
0.000402324
0.000403305
0.000404324
0.000405356
0.000406379
0.000407377
0.000408335
0.000409243
0.000410093
0.00041088
0.000411601
0.000412253
0.000412837
0.000413353
0.000413802
0.000414188
0.000414513
0.00041478
0.000414993
0.000415156
0.000415273
0.000415347
0.000415382
0.000417955
0.000418437
0.000419103
0.00041991
0.000420818
0.000421793
0.000422806
0.000423832
0.000424848
0.000425839
0.000426791
0.000427694
0.000428539
0.000429321
0.000430037
0.000430685
0.000431265
0.000431778
0.000432224
0.000432608
0.00043293
0.000433196
0.000433408
0.00043357
0.000433686
0.00043376
0.000433795
0.000436345
0.000436824
0.000437487
0.000438289
0.000439192
0.000440162
0.000441169
0.000442188
0.000443199
0.000444185
0.000445131
0.000446029
0.000446869
0.000447647
0.000448359
0.000449004
0.000449581
0.00045009
0.000450534
0.000450916
0.000451237
0.000451501
0.000451712
0.000451873
0.000451988
0.000452061
0.000452096
0.000454625
0.000455102
0.000455761
0.00045656
0.000457458
0.000458423
0.000459425
0.00046044
0.000461446
0.000462427
0.000463369
0.000464262
0.000465098
0.000465872
0.000466581
0.000467222
0.000467796
0.000468303
0.000468745
0.000469124
0.000469444
0.000469707
0.000469917
0.000470077
0.000470192
0.000470264
0.000470299
0.000472809
0.000473284
0.00047394
0.000474735
0.00047563
0.000476591
0.000477588
0.000478598
0.0004796
0.000480577
0.000481515
0.000482404
0.000483236
0.000484007
0.000484713
0.000485352
0.000485923
0.000486428
0.000486868
0.000487246
0.000487564
0.000487826
0.000488035
0.000488194
0.000488308
0.000488381
0.000488415
0.000490908
0.000491381
0.000492035
0.000492827
0.000493718
0.000494675
0.000495669
0.000496675
0.000497673
0.000498646
0.00049958
0.000500466
0.000501296
0.000502064
0.000502766
0.000503403
0.000503972
0.000504475
0.000504914
0.00050529
0.000505607
0.000505868
0.000506076
0.000506235
0.000506349
0.000506421
0.000506455
0.000508931
0.000509403
0.000510055
0.000510844
0.000511732
0.000512686
0.000513676
0.000514679
0.000515674
0.000516643
0.000517575
0.000518458
0.000519284
0.00052005
0.00052075
0.000521384
0.000521952
0.000522453
0.00052289
0.000523265
0.000523581
0.000523841
0.000524048
0.000524207
0.00052432
0.000524392
0.000524427
0.000526888
0.000527358
0.000528008
0.000528794
0.00052968
0.000530631
0.000531619
0.000532618
0.00053361
0.000534577
0.000535505
0.000536386
0.00053721
0.000537973
0.000538671
0.000539304
0.00053987
0.000540369
0.000540805
0.000541179
0.000541494
0.000541753
0.00054196
0.000542118
0.000542231
0.000542303
0.000542337
0.000544783
0.000545252
0.0005459
0.000546685
0.000547568
0.000548516
0.000549502
0.000550499
0.000551488
0.000552452
0.000553378
0.000554256
0.000555078
0.000555839
0.000556536
0.000557166
0.00055773
0.000558229
0.000558664
0.000559036
0.000559351
0.000559609
0.000559815
0.000559973
0.000560086
0.000560157
0.000560191
0.000562623
0.000563091
0.000563737
0.00056452
0.000565401
0.000566347
0.00056733
0.000568325
0.000569311
0.000570273
0.000571197
0.000572072
0.000572892
0.000573652
0.000574346
0.000574975
0.000575538
0.000576036
0.000576469
0.000576841
0.000577154
0.000577412
0.000577618
0.000577775
0.000577888
0.000577959
0.000577993
0.000580411
0.000580877
0.000581522
0.000582303
0.000583182
0.000584126
0.000585106
0.000586098
0.000587083
0.000588042
0.000588964
0.000589837
0.000590655
0.000591413
0.000592106
0.000592733
0.000593295
0.000593791
0.000594223
0.000594595
0.000594907
0.000595164
0.000595369
0.000595526
0.000595638
0.00059571
0.000595744
0.000598146
0.000598612
0.000599255
0.000600034
0.000600911
0.000601853
0.000602831
0.000603821
0.000604803
0.00060576
0.000606679
0.000607551
0.000608367
0.000609122
0.000609814
0.00061044
0.000611
0.000611495
0.000611926
0.000612296
0.000612608
0.000612865
0.000613069
0.000613226
0.000613338
0.000613409
0.000613443
0.00061583
0.000616294
0.000616936
0.000617713
0.000618588
0.000619527
0.000620502
0.00062149
0.000622469
0.000623424
0.000624341
0.000625211
0.000626025
0.000626778
0.000627468
0.000628092
0.000628651
0.000629145
0.000629575
0.000629944
0.000630255
0.000630511
0.000630715
0.000630871
0.000630983
0.000631053
0.000631087
0.000633457
0.00063392
0.00063456
0.000635335
0.000636208
0.000637144
0.000638117
0.000639102
0.000640079
0.000641031
0.000641945
0.000642812
0.000643624
0.000644375
0.000645063
0.000645686
0.000646243
0.000646735
0.000647164
0.000647532
0.000647842
0.000648097
0.000648301
0.000648456
0.000648568
0.000648638
0.000648672
0.000651023
0.000651485
0.000652123
0.000652895
0.000653765
0.000654699
0.000655668
0.00065665
0.000657624
0.000658573
0.000659484
0.000660348
0.000661157
0.000661906
0.000662592
0.000663212
0.000663767
0.000664258
0.000664685
0.000665052
0.000665361
0.000665615
0.000665818
0.000665973
0.000666084
0.000666155
0.000666188
0.000668518
0.000668978
0.000669614
0.000670383
0.00067125
0.00067218
0.000673146
0.000674124
0.000675094
0.000676039
0.000676947
0.000677808
0.000678614
0.00067936
0.000680043
0.000680661
0.000681214
0.000681702
0.000682128
0.000682493
0.000682801
0.000683054
0.000683256
0.000683411
0.000683521
0.000683591
0.000683625
0.00068593
0.000686388
0.000687021
0.000687787
0.000688649
0.000689575
0.000690537
0.000691511
0.000692476
0.000693417
0.000694321
0.000695177
0.000695979
0.000696722
0.000697401
0.000698016
0.000698567
0.000699053
0.000699477
0.00069984
0.000700146
0.000700398
0.000700599
0.000700753
0.000700863
0.000700933
0.000700966
0.000703242
0.000703698
0.000704327
0.000705089
0.000705947
0.000706868
0.000707824
0.000708792
0.000709752
0.000710688
0.000711586
0.000712438
0.000713235
0.000713973
0.000714649
0.00071526
0.000715807
0.000716291
0.000716712
0.000717073
0.000717378
0.000717628
0.000717828
0.000717981
0.00071809
0.000718159
0.000718192
0.000720435
0.000720887
0.000721512
0.000722269
0.000723121
0.000724036
0.000724985
0.000725947
0.0007269
0.000727829
0.000728721
0.000729567
0.000730358
0.000731091
0.000731762
0.000732369
0.000732912
0.000733391
0.000733809
0.000734168
0.00073447
0.000734719
0.000734917
0.000735069
0.000735177
0.000735246
0.000735279
0.000737482
0.00073793
0.00073855
0.000739301
0.000740145
0.000741052
0.000741994
0.000742947
0.000743892
0.000744813
0.000745697
0.000746535
0.00074732
0.000748046
0.000748711
0.000749312
0.00074985
0.000750325
0.00075074
0.000751095
0.000751394
0.000751641
0.000751837
0.000751987
0.000752095
0.000752163
0.000752195
0.000754352
0.000754796
0.000755409
0.000756152
0.000756988
0.000757885
0.000758817
0.00075976
0.000760694
0.000761605
0.00076248
0.000763309
0.000764085
0.000764803
0.00076546
0.000766055
0.000766587
0.000767057
0.000767467
0.000767818
0.000768114
0.000768357
0.000768552
0.0007687
0.000768806
0.000768874
0.000768906
0.000771008
0.000771446
0.000772052
0.000772785
0.00077361
0.000774495
0.000775415
0.000776345
0.000777268
0.000778166
0.000779029
0.000779847
0.000780613
0.000781321
0.000781969
0.000782556
0.00078308
0.000783544
0.000783948
0.000784294
0.000784586
0.000784826
0.000785017
0.000785164
0.000785269
0.000785335
0.000785367
0.000787404
0.000787836
0.000788432
0.000789153
0.000789965
0.000790837
0.000791741
0.000792657
0.000793564
0.000794448
0.000795297
0.000796101
0.000796854
0.00079755
0.000798188
0.000798764
0.00079928
0.000799736
0.000800133
0.000800473
0.00080076
0.000800996
0.000801184
0.000801328
0.000801431
0.000801496
0.000801527
0.00080349
0.000803913
0.000804498
0.000805205
0.000806001
0.000806856
0.000807742
0.00080864
0.000809529
0.000810395
0.000811227
0.000812015
0.000812752
0.000813434
0.000814058
0.000814623
0.000815128
0.000815574
0.000815963
0.000816296
0.000816577
0.000816808
0.000816992
0.000817133
0.000817233
0.000817297
0.000817327
0.000819204
0.000819617
0.000820188
0.000820879
0.000821656
0.00082249
0.000823355
0.000824231
0.000825098
0.000825944
0.000826755
0.000827523
0.000828242
0.000828907
0.000829516
0.000830066
0.000830558
0.000830993
0.000831371
0.000831696
0.00083197
0.000832194
0.000832374
0.000832511
0.000832609
0.000832671
0.000832701
0.000834478
0.000834879
0.000835434
0.000836105
0.000836859
0.000837669
0.000838509
0.000839359
0.000840201
0.000841021
0.000841808
0.000842553
0.00084325
0.000843895
0.000844485
0.000845018
0.000845495
0.000845916
0.000846283
0.000846598
0.000846863
0.000847081
0.000847255
0.000847387
0.000847482
0.000847543
0.000847571
0.000849236
0.000849623
0.000850158
0.000850806
0.000851534
0.000852315
0.000853126
0.000853945
0.000854757
0.000855547
0.000856306
0.000857024
0.000857695
0.000858316
0.000858884
0.000859398
0.000859857
0.000860263
0.000860616
0.000860919
0.000861173
0.000861383
0.00086155
0.000861678
0.000861769
0.000861827
0.000861855
0.000863393
0.000863764
0.000864277
0.000864897
0.000865595
0.000866343
0.000867119
0.000867903
0.00086868
0.000869436
0.000870161
0.000870848
0.00087149
0.000872083
0.000872626
0.000873117
0.000873555
0.000873942
0.000874279
0.000874568
0.000874812
0.000875012
0.000875171
0.000875293
0.00087538
0.000875436
0.000875462
0.000876861
0.000877214
0.000877701
0.00087829
0.000878952
0.000879662
0.000880398
0.000881142
0.000881878
0.000882595
0.000883282
0.000883933
0.000884541
0.000885103
0.000885616
0.000886081
0.000886496
0.000886862
0.000887181
0.000887454
0.000887684
0.000887873
0.000888024
0.000888139
0.000888221
0.000888274
0.000888299
0.000889547
0.000889879
0.000890337
0.00089089
0.000891512
0.000892179
0.00089287
0.000893568
0.000894259
0.000894931
0.000895576
0.000896185
0.000896755
0.000897281
0.000897762
0.000898196
0.000898585
0.000898927
0.000899225
0.000899481
0.000899696
0.000899873
0.000900014
0.000900121
0.000900198
0.000900247
0.00090027
0.00090136
0.000901668
0.000902093
0.000902607
0.000903184
0.000903803
0.000904444
0.000905091
0.000905731
0.000906353
0.00090695
0.000907514
0.000908041
0.000908527
0.000908972
0.000909373
0.000909732
0.000910048
0.000910323
0.000910559
0.000910758
0.000910921
0.000911051
0.00091115
0.000911221
0.000911266
0.000911287
0.000912213
0.000912495
0.000912884
0.000913355
0.000913883
0.000914449
0.000915034
0.000915626
0.00091621
0.000916778
0.000917322
0.000917836
0.000918317
0.00091876
0.000919164
0.00091953
0.000919856
0.000920144
0.000920394
0.000920608
0.000920789
0.000920937
0.000921055
0.000921145
0.000921209
0.00092125
0.00092127
0.000922031
0.000922285
0.000922636
0.00092306
0.000923535
0.000924044
0.00092457
0.000925101
0.000925626
0.000926136
0.000926624
0.000927085
0.000927515
0.000927911
0.000928273
0.0009286
0.000928892
0.000929149
0.000929372
0.000929564
0.000929725
0.000929857
0.000929962
0.000930042
0.0009301
0.000930136
0.000930154
0.000930757
0.000930981
0.000931291
0.000931665
0.000932085
0.000932534
0.000932998
0.000933466
0.000933928
0.000934376
0.000934805
0.00093521
0.000935587
0.000935935
0.000936252
0.000936539
0.000936794
0.000937019
0.000937215
0.000937382
0.000937522
0.000937638
0.00093773
0.0009378
0.00093785
0.000937882
0.000937897
0.000938354
0.000938548
0.000938816
0.000939139
0.000939501
0.000939888
0.000940288
0.000940691
0.000941088
0.000941474
0.000941842
0.000942189
0.000942513
0.000942811
0.000943083
0.000943328
0.000943546
0.000943738
0.000943905
0.000944048
0.000944168
0.000944266
0.000944345
0.000944404
0.000944447
0.000944474
0.000944487
0.000944815
0.000944978
0.000945204
0.000945476
0.000945781
0.000946106
0.000946442
0.00094678
0.000947113
0.000947435
0.000947743
0.000948033
0.000948303
0.000948552
0.000948778
0.000948982
0.000949163
0.000949323
0.000949461
0.00094958
0.000949679
0.000949761
0.000949826
0.000949876
0.000949911
0.000949933
0.000949944
0.000950166
0.0009503
0.000950485
0.000950707
0.000950956
0.000951221
0.000951494
0.000951769
0.00095204
0.000952302
0.000952551
0.000952786
0.000953004
0.000953205
0.000953388
0.000953552
0.000953698
0.000953827
0.000953938
0.000954033
0.000954113
0.000954179
0.000954231
0.00095427
0.000954299
0.000954317
0.000954325
0.000954468
0.000954574
0.00095472
0.000954895
0.000955091
0.0009553
0.000955516
0.000955731
0.000955944
0.000956149
0.000956344
0.000956527
0.000956698
0.000956854
0.000956996
0.000957124
0.000957237
0.000957337