/*--------------------------------*- C++ -*----------------------------------*\
| =========                 |                                                 |
| \\      /  F ield         | OpenFOAM: The Open Source CFD Toolbox           |
|  \\    /   O peration     | Version:  2106                                  |
|   \\  /    A nd           | Website:  www.openfoam.com                      |
|    \\/     M anipulation  |                                                 |
\*---------------------------------------------------------------------------*/
FoamFile
{
    version     2.0;
    format      ascii;
    arch        "LSB;label=32;scalar=64";
    class       volScalarField;
    location    "49.99987";
    object      C9H7;
}
// * * * * * * * * * * * * * * * * * * * * * * * * * * * * * * * * * * * * * //

dimensions      [0 0 0 0 0 0 0];

internalField   nonuniform List<scalar> 
3360
(
1.72362e-20
1.7791e-20
1.85631e-20
1.95074e-20
2.05848e-20
2.17597e-20
2.30004e-20
2.42779e-20
2.55667e-20
2.6844e-20
2.80904e-20
2.92889e-20
3.04261e-20
3.14907e-20
3.24746e-20
3.33719e-20
3.41789e-20
3.48943e-20
3.55181e-20
3.60524e-20
3.65003e-20
3.68661e-20
3.71551e-20
3.7373e-20
3.75264e-20
3.76218e-20
3.7666e-20
7.56194e-20
7.83996e-20
8.23227e-20
8.72083e-20
9.29067e-20
9.92874e-20
1.06234e-19
1.13639e-19
1.21404e-19
1.29435e-19
1.37641e-19
1.45936e-19
1.54233e-19
1.62445e-19
1.70491e-19
1.78286e-19
1.85751e-19
1.92806e-19
1.99377e-19
2.05393e-19
2.1079e-19
2.15511e-19
2.19506e-19
2.22737e-19
2.25176e-19
2.26805e-19
2.27617e-19
2.373e-19
2.47717e-19
2.6252e-19
2.81121e-19
3.03033e-19
3.27818e-19
3.5506e-19
3.84347e-19
4.15266e-19
4.47391e-19
4.8029e-19
5.13533e-19
5.46692e-19
5.79348e-19
6.11093e-19
6.4154e-19
6.70333e-19
6.9715e-19
7.21713e-19
7.43791e-19
7.63206e-19
7.79832e-19
7.93595e-19
8.04473e-19
8.12493e-19
8.17724e-19
8.2027e-19
6.91213e-19
7.25556e-19
7.74683e-19
8.36839e-19
9.10554e-19
9.94454e-19
1.08716e-18
1.18725e-18
1.29323e-18
1.40352e-18
1.5165e-18
1.63052e-18
1.74394e-18
1.85515e-18
1.96264e-18
2.06501e-18
2.16104e-18
2.24967e-18
2.33006e-18
2.40158e-18
2.4638e-18
2.51651e-18
2.55969e-18
2.59346e-18
2.6181e-18
2.63401e-18
2.64168e-18
2.01989e-18
2.12825e-18
2.28355e-18
2.48051e-18
2.7146e-18
2.98151e-18
3.2768e-18
3.59574e-18
3.93331e-18
4.28422e-18
4.64299e-18
5.0041e-18
5.36212e-18
5.71188e-18
6.04859e-18
6.36795e-18
6.66627e-18
6.94048e-18
7.18821e-18
7.40777e-18
7.59813e-18
7.75887e-18
7.89011e-18
7.99248e-18
8.06699e-18
8.11499e-18
8.13809e-18
5.95715e-18
6.29001e-18
6.76768e-18
7.37396e-18
8.09497e-18
8.91729e-18
9.82701e-18
1.08093e-17
1.18485e-17
1.29277e-17
1.403e-17
1.5138e-17
1.62349e-17
1.73048e-17
1.8333e-17
1.93064e-17
2.0214e-17
2.10468e-17
2.17978e-17
2.24622e-17
2.30373e-17
2.35221e-17
2.39174e-17
2.42253e-17
2.44491e-17
2.45931e-17
2.46623e-17
1.77e-17
1.87117e-17
2.01634e-17
2.20061e-17
2.41974e-17
2.6696e-17
2.94591e-17
3.2441e-17
3.5593e-17
3.8864e-17
4.22017e-17
4.55537e-17
4.88688e-17
5.20991e-17
5.52005e-17
5.81343e-17
6.08675e-17
6.33734e-17
6.56318e-17
6.76288e-17
6.93564e-17
7.08123e-17
7.19988e-17
7.29227e-17
7.35941e-17
7.40261e-17
7.42337e-17
5.27668e-17
5.58117e-17
6.01834e-17
6.57343e-17
7.2337e-17
7.98669e-17
8.81942e-17
9.71804e-17
1.06678e-16
1.16532e-16
1.26583e-16
1.36674e-16
1.46651e-16
1.56368e-16
1.65694e-16
1.74511e-16
1.82722e-16
1.90247e-16
1.97026e-16
2.03017e-16
2.08198e-16
2.12562e-16
2.16117e-16
2.18884e-16
2.20895e-16
2.22188e-16
2.22809e-16
1.57724e-16
1.66878e-16
1.80017e-16
1.96699e-16
2.16539e-16
2.39161e-16
2.64173e-16
2.91157e-16
3.19666e-16
3.49236e-16
3.79389e-16
4.09649e-16
4.39555e-16
4.68675e-16
4.96613e-16
5.23023e-16
5.4761e-16
5.70138e-16
5.90429e-16
6.08361e-16
6.23867e-16
6.36927e-16
6.47566e-16
6.55847e-16
6.61863e-16
6.65732e-16
6.67591e-16
4.71485e-16
4.98909e-16
5.38282e-16
5.88272e-16
6.47729e-16
7.15523e-16
7.90474e-16
8.71328e-16
9.56745e-16
1.04533e-15
1.13564e-15
1.22626e-15
1.31581e-15
1.40298e-15
1.48659e-15
1.56562e-15
1.63917e-15
1.70655e-15
1.76722e-15
1.82083e-15
1.86717e-15
1.90619e-15
1.93798e-15
1.96271e-15
1.98067e-15
1.99222e-15
1.99777e-15
1.41013e-15
1.49226e-15
1.61014e-15
1.75978e-15
1.93772e-15
2.14057e-15
2.36477e-15
2.60655e-15
2.8619e-15
3.12663e-15
3.39645e-15
3.6671e-15
3.93445e-15
4.19464e-15
4.44415e-15
4.67989e-15
4.89927e-15
5.10018e-15
5.28107e-15
5.44086e-15
5.57898e-15
5.69527e-15
5.78997e-15
5.86366e-15
5.91718e-15
5.9516e-15
5.96813e-15
4.21362e-15
4.45891e-15
4.81098e-15
5.25784e-15
5.7891e-15
6.39456e-15
7.06359e-15
7.78487e-15
8.54638e-15
9.33558e-15
1.01397e-14
1.09459e-14
1.17421e-14
1.25166e-14
1.32591e-14
1.39603e-14
1.46126e-14
1.52099e-14
1.57473e-14
1.6222e-14
1.66321e-14
1.69773e-14
1.72584e-14
1.7477e-14
1.76358e-14
1.77378e-14
1.77869e-14
1.25778e-14
1.33092e-14
1.43586e-14
1.56899e-14
1.7272e-14
1.9074e-14
2.1064e-14
2.32081e-14
2.54704e-14
2.78134e-14
3.0199e-14
3.25895e-14
3.49485e-14
3.72421e-14
3.94394e-14
4.15135e-14
4.34419e-14
4.52066e-14
4.6794e-14
4.81953e-14
4.94056e-14
5.04241e-14
5.1253e-14
5.18976e-14
5.23656e-14
5.26663e-14
5.28108e-14
3.7441e-14
3.96119e-14
4.27256e-14
4.6674e-14
5.1363e-14
5.67003e-14
6.25901e-14
6.89306e-14
7.56148e-14
8.25314e-14
8.95673e-14
9.66112e-14
1.03556e-13
1.10302e-13
1.16759e-13
1.22848e-13
1.28506e-13
1.33678e-13
1.38328e-13
1.42429e-13
1.4597e-13
1.48947e-13
1.51368e-13
1.53251e-13
1.54617e-13
1.55494e-13
1.55915e-13
1.11071e-13
1.1748e-13
1.26665e-13
1.38303e-13
1.52109e-13
1.67807e-13
1.85108e-13
2.03708e-13
2.2329e-13
2.43524e-13
2.64077e-13
2.84624e-13
3.04854e-13
3.24478e-13
3.43236e-13
3.60905e-13
3.773e-13
3.92273e-13
4.05719e-13
4.17569e-13
4.27787e-13
4.36374e-13
4.43353e-13
4.48774e-13
4.52706e-13
4.5523e-13
4.56442e-13
3.27669e-13
3.46405e-13
3.73236e-13
4.07192e-13
4.47422e-13
4.93089e-13
5.43336e-13
5.9726e-13
6.53921e-13
7.12357e-13
7.71603e-13
8.30716e-13
8.88805e-13
9.45048e-13
9.98715e-13
1.04918e-12
1.09592e-12
1.13855e-12
1.17677e-12
1.21041e-12
1.23938e-12
1.26369e-12
1.28343e-12
1.29875e-12
1.30985e-12
1.31697e-12
1.32038e-12
9.59734e-13
1.01381e-12
1.09114e-12
1.18883e-12
1.30435e-12
1.43519e-12
1.5788e-12
1.73253e-12
1.89363e-12
2.05934e-12
2.22689e-12
2.39362e-12
2.55704e-12
2.71486e-12
2.86509e-12
3.00602e-12
3.13628e-12
3.25481e-12
3.36089e-12
3.45408e-12
3.5342e-12
3.60134e-12
3.65579e-12
3.69798e-12
3.72852e-12
3.74809e-12
3.75747e-12
2.7845e-12
2.93768e-12
3.15637e-12
3.43202e-12
3.75706e-12
4.12409e-12
4.52563e-12
4.95398e-12
5.40131e-12
5.85978e-12
6.32171e-12
6.77978e-12
7.22723e-12
7.65795e-12
8.06666e-12
8.44895e-12
8.80131e-12
9.12113e-12
9.40664e-12
9.65689e-12
9.87163e-12
1.00512e-11
1.01966e-11
1.03091e-11
1.03904e-11
1.04425e-11
1.04674e-11
7.98397e-12
8.40739e-12
9.01041e-12
9.76815e-12
1.06584e-11
1.16597e-11
1.27504e-11
1.39087e-11
1.51129e-11
1.63415e-11
1.75739e-11
1.87907e-11
1.99742e-11
2.1109e-11
2.21817e-11
2.31814e-11
2.40999e-11
2.49309e-11
2.56707e-11
2.63174e-11
2.68711e-11
2.73332e-11
2.77065e-11
2.79949e-11
2.8203e-11
2.83361e-11
2.83997e-11
2.25688e-11
2.37026e-11
2.53124e-11
2.73273e-11
2.96838e-11
3.23207e-11
3.51779e-11
3.81957e-11
4.13155e-11
4.44811e-11
4.76393e-11
5.07415e-11
5.3744e-11
5.66093e-11
5.93059e-11
6.1809e-11
6.40996e-11
6.6165e-11
6.79977e-11
6.95952e-11
7.09592e-11
7.20949e-11
7.30105e-11
7.37165e-11
7.42251e-11
7.45498e-11
7.47048e-11
6.27896e-11
6.57122e-11
6.98462e-11
7.49959e-11
8.0985e-11
8.76464e-11
9.4818e-11
1.02343e-10
1.10073e-10
1.17865e-10
1.25592e-10
1.33136e-10
1.40396e-10
1.47288e-10
1.53743e-10
1.59706e-10
1.65141e-10
1.70023e-10
1.74339e-10
1.7809e-10
1.81283e-10
1.83935e-10
1.86069e-10
1.87711e-10
1.88892e-10
1.89644e-10
1.90003e-10
1.71881e-10
1.79107e-10
1.89286e-10
2.01894e-10
2.16466e-10
2.3256e-10
2.49762e-10
2.67679e-10
2.85947e-10
3.04233e-10
3.22238e-10
3.39702e-10
3.56406e-10
3.72169e-10
3.86852e-10
4.00351e-10
4.12597e-10
4.2355e-10
4.33199e-10
4.41556e-10
4.48649e-10
4.54524e-10
4.5924e-10
4.62861e-10
4.65461e-10
4.67115e-10
4.67903e-10
4.64096e-10
4.81314e-10
5.05455e-10
5.35187e-10
5.69315e-10
6.06735e-10
6.46424e-10
6.87445e-10
7.28947e-10
7.70178e-10
8.10481e-10
8.49306e-10
8.862e-10
9.20805e-10
9.52857e-10
9.82172e-10
1.00864e-09
1.03221e-09
1.05289e-09
1.07074e-09
1.08584e-09
1.09832e-09
1.10831e-09
1.11596e-09
1.12145e-09
1.12493e-09
1.12659e-09
1.24368e-09
1.28403e-09
1.34037e-09
1.40941e-09
1.48819e-09
1.57402e-09
1.66446e-09
1.75731e-09
1.85064e-09
1.94278e-09
2.0323e-09
2.11804e-09
2.19908e-09
2.27471e-09
2.34444e-09
2.40795e-09
2.46506e-09
2.51574e-09
2.56007e-09
2.59821e-09
2.63039e-09
2.65691e-09
2.6781e-09
2.6943e-09
2.70589e-09
2.71324e-09
2.71673e-09
3.3425e-09
3.43965e-09
3.57504e-09
3.74052e-09
3.92885e-09
4.13347e-09
4.34848e-09
4.56867e-09
4.78947e-09
5.00699e-09
5.21796e-09
5.41972e-09
5.61019e-09
5.78778e-09
5.95137e-09
6.10026e-09
6.2341e-09
6.35282e-09
6.45662e-09
6.54589e-09
6.62121e-09
6.68324e-09
6.73278e-09
6.77064e-09
6.79771e-09
6.81488e-09
6.82303e-09
9.13495e-09
9.38943e-09
9.74447e-09
1.01791e-08
1.06746e-08
1.1214e-08
1.17822e-08
1.23654e-08
1.29515e-08
1.35301e-08
1.40923e-08
1.46306e-08
1.51392e-08
1.56136e-08
1.60505e-08
1.64479e-08
1.68047e-08
1.71208e-08
1.73968e-08
1.76337e-08
1.78332e-08
1.79972e-08
1.81279e-08
1.82276e-08
1.82987e-08
1.83437e-08
1.83651e-08
2.5696e-08
2.6439e-08
2.74782e-08
2.87541e-08
3.02135e-08
3.18078e-08
3.34925e-08
3.52273e-08
3.69759e-08
3.87068e-08
4.03926e-08
4.20106e-08
4.35422e-08
4.49733e-08
4.62933e-08
4.74954e-08
4.85758e-08
4.95334e-08
5.03696e-08
5.10874e-08
5.16915e-08
5.21877e-08
5.25827e-08
5.28836e-08
5.3098e-08
5.32334e-08
5.32974e-08
7.39441e-08
7.62729e-08
7.95435e-08
8.35806e-08
8.82283e-08
9.33424e-08
9.87888e-08
1.04443e-07
1.10191e-07
1.15929e-07
1.21566e-07
1.27021e-07
1.32228e-07
1.37131e-07
1.41688e-07
1.45867e-07
1.49649e-07
1.53023e-07
1.55987e-07
1.58545e-07
1.60708e-07
1.62493e-07
1.6392e-07
1.65011e-07
1.65791e-07
1.66284e-07
1.66518e-07
2.13403e-07
2.20933e-07
2.31571e-07
2.44807e-07
2.60191e-07
2.77303e-07
2.95745e-07
3.15135e-07
3.35112e-07
3.55335e-07
3.75486e-07
3.95276e-07
4.14447e-07
4.32773e-07
4.50063e-07
4.66162e-07
4.80949e-07
4.94335e-07
5.06265e-07
5.16711e-07
5.25672e-07
5.33167e-07
5.39237e-07
5.43939e-07
5.47341e-07
5.49522e-07
5.50567e-07
6.03449e-07
6.27136e-07
6.60821e-07
7.03099e-07
7.52751e-07
8.08641e-07
8.6967e-07
9.34756e-07
1.00283e-06
1.07283e-06
1.14373e-06
1.21453e-06
1.2843e-06
1.35214e-06
1.41726e-06
1.47894e-06
1.53656e-06
1.58961e-06
1.63767e-06
1.68043e-06
1.71769e-06
1.74934e-06
1.77536e-06
1.7958e-06
1.8108e-06
1.82055e-06
1.82528e-06
1.6328e-06
1.70102e-06
1.79847e-06
1.92151e-06
2.06703e-06
2.23214e-06
2.41398e-06
2.60968e-06
2.81627e-06
3.03073e-06
3.25001e-06
3.47104e-06
3.69084e-06
3.90651e-06
4.11534e-06
4.31481e-06
4.50268e-06
4.67701e-06
4.83617e-06
4.97884e-06
5.10405e-06
5.21115e-06
5.29979e-06
5.3699e-06
5.42166e-06
5.45551e-06
5.47204e-06
4.14509e-06
4.31543e-06
4.55876e-06
4.8659e-06
5.22901e-06
5.64076e-06
6.09387e-06
6.58098e-06
7.09455e-06
7.6269e-06
8.17027e-06
8.71697e-06
9.25949e-06
9.79069e-06
1.03039e-05
1.07931e-05
1.12529e-05
1.16787e-05
1.20667e-05
1.24139e-05
1.27183e-05
1.29783e-05
1.31933e-05
1.33632e-05
1.34887e-05
1.35707e-05
1.36108e-05
9.65118e-06
1.00048e-05
1.05076e-05
1.11385e-05
1.18791e-05
1.27122e-05
1.36208e-05
1.45886e-05
1.55989e-05
1.66358e-05
1.76835e-05
1.87269e-05
1.97521e-05
2.07461e-05
2.16974e-05
2.25959e-05
2.34329e-05
2.42016e-05
2.48965e-05
2.55138e-05
2.60514e-05
2.6508e-05
2.68836e-05
2.71791e-05
2.73964e-05
2.7538e-05
2.7607e-05
2.01006e-05
2.07024e-05
2.15524e-05
2.26096e-05
2.38378e-05
2.52035e-05
2.66749e-05
2.82218e-05
2.98158e-05
3.143e-05
3.30395e-05
3.46219e-05
3.6157e-05
3.76278e-05
3.90199e-05
4.03213e-05
4.15225e-05
4.26164e-05
4.35977e-05
4.44636e-05
4.52126e-05
4.58452e-05
4.63625e-05
4.67675e-05
4.70639e-05
4.72561e-05
4.73494e-05
3.69545e-05
3.78065e-05
3.90017e-05
4.04752e-05
4.21694e-05
4.40319e-05
4.60147e-05
4.80745e-05
5.01722e-05
5.22723e-05
5.43435e-05
5.63585e-05
5.82941e-05
6.01309e-05
6.18533e-05
6.34492e-05
6.49098e-05
6.6229e-05
6.74037e-05
6.84325e-05
6.93166e-05
7.00583e-05
7.06617e-05
7.11318e-05
7.14739e-05
7.16948e-05
7.18015e-05
6.02963e-05
6.13389e-05
6.27943e-05
6.45775e-05
6.66132e-05
6.88337e-05
7.11781e-05
7.35921e-05
7.60279e-05
7.8444e-05
8.08048e-05
8.30808e-05
8.52477e-05
8.72862e-05
8.91818e-05
9.09242e-05
9.25064e-05
9.39251e-05
9.51792e-05
9.62702e-05
9.72015e-05
9.7978e-05
9.86057e-05
9.90916e-05
9.94435e-05
9.96696e-05
9.97784e-05
8.92037e-05
9.03604e-05
9.19689e-05
9.39297e-05
9.61549e-05
9.85662e-05
0.000101094
0.000103678
0.000106266
0.000108813
0.000111284
0.000113648
0.000115882
0.000117969
0.000119896
0.000121655
0.000123243
0.000124657
0.0001259
0.000126975
0.000127888
0.000128645
0.000129254
0.000129723
0.000130061
0.000130277
0.000130381
0.000122317
0.000123513
0.000125171
0.000127184
0.000129459
0.000131911
0.000134467
0.000137065
0.000139652
0.000142184
0.000144624
0.000146946
0.000149127
0.000151153
0.000153013
0.000154702
0.000156218
0.000157562
0.000158737
0.000159748
0.000160603
0.000161308
0.000161873
0.000162306
0.000162617
0.000162815
0.00016291
0.000158222
0.000159401
0.000161031
0.000163005
0.000165227
0.000167613
0.000170091
0.000172599
0.000175084
0.000177505
0.000179828
0.000182028
0.000184085
0.000185987
0.000187726
0.000189297
0.000190701
0.000191941
0.000193019
0.000193944
0.000194722
0.000195361
0.000195871
0.000196261
0.000196539
0.000196716
0.0001968
0.000195719
0.000196846
0.000198401
0.00020028
0.000202389
0.000204649
0.000206987
0.000209346
0.000211675
0.000213937
0.000216098
0.000218138
0.000220037
0.000221787
0.000223381
0.000224815
0.000226092
0.000227214
0.000228187
0.000229018
0.000229714
0.000230284
0.000230737
0.000231082
0.000231327
0.000231482
0.000231556
0.000233903
0.000234959
0.000236416
0.000238174
0.000240143
0.000242247
0.00024442
0.000246605
0.000248758
0.000250841
0.000252826
0.000254693
0.000256427
0.000258018
0.000259462
0.000260758
0.000261907
0.000262913
0.000263782
0.000264521
0.000265138
0.000265641
0.000266039
0.00026634
0.000266554
0.000266689
0.000266752
0.000272139
0.00027312
0.000274472
0.0002761
0.000277921
0.000279864
0.000281866
0.000283875
0.00028585
0.000287755
0.000289567
0.000291266
0.000292839
0.000294278
0.00029558
0.000296743
0.000297772
0.000298669
0.000299441
0.000300095
0.000300638
0.00030108
0.000301428
0.00030169
0.000301875
0.000301991
0.000302046
0.000310008
0.000310915
0.000312163
0.000313665
0.000315344
0.000317131
0.00031897
0.000320812
0.000322618
0.000324358
0.000326007
0.00032755
0.000328974
0.000330273
0.000331445
0.000332489
0.000333408
0.000334207
0.000334891
0.000335469
0.000335947
0.000336334
0.000336637
0.000336864
0.000337024
0.000337123
0.00033717
0.000347244
0.000348082
0.000349234
0.000350619
0.000352165
0.00035381
0.000355498
0.000357187
0.00035884
0.000360429
0.000361932
0.000363334
0.000364624
0.000365799
0.000366854
0.000367791
0.000368614
0.000369326
0.000369934
0.000370444
0.000370865
0.000371203
0.000371467
0.000371664
0.000371802
0.000371887
0.000371927
0.000383686
0.00038446
0.000385526
0.000386805
0.000388232
0.000389747
0.000391301
0.000392853
0.000394369
0.000395823
0.000397196
0.000398473
0.000399647
0.000400711
0.000401664
0.000402508
0.000403246
0.000403882
0.000404423
0.000404875
0.000405246
0.000405543
0.000405773
0.000405944
0.000406063
0.000406136
0.00040617
0.000419239
0.000419958
0.000420945
0.00042213
0.000423451
0.000424851
0.000426286
0.000427717
0.000429112
0.000430447
0.000431705
0.000432874
0.000433944
0.000434911
0.000435776
0.000436538
0.000437203
0.000437773
0.000438256
0.000438658
0.000438986
0.000439247
0.000439449
0.000439597
0.0004397
0.000439762
0.000439791
0.000453855
0.000454523
0.000455441
0.000456543
0.000457769
0.000459068
0.000460397
0.00046172
0.000463009
0.00046424
0.000465397
0.00046647
0.000467449
0.000468333
0.00046912
0.000469812
0.000470412
0.000470926
0.000471359
0.000471718
0.000472009
0.000472239
0.000472416
0.000472545
0.000472634
0.000472688
0.000472712
0.000487505
0.000488129
0.000488986
0.000490013
0.000491155
0.000492364
0.0004936
0.000494828
0.000496022
0.000497162
0.000498231
0.000499219
0.000500119
0.000500929
0.000501649
0.000502279
0.000502824
0.000503288
0.000503678
0.000503999
0.000504258
0.000504462
0.000504617
0.000504731
0.000504807
0.000504853
0.000504874
0.00052018
0.000520764
0.000521566
0.000522526
0.000523593
0.000524722
0.000525874
0.000527019
0.000528129
0.000529187
0.000530178
0.000531091
0.000531922
0.000532667
0.000533327
0.000533903
0.000534399
0.00053482
0.000535172
0.000535461
0.000535692
0.000535873
0.00053601
0.000536109
0.000536176
0.000536215
0.000536233
0.000551874
0.000552422
0.000553174
0.000554075
0.000555075
0.000556132
0.000557209
0.000558278
0.000559314
0.000560298
0.000561219
0.000562066
0.000562834
0.000563522
0.000564129
0.000564657
0.000565111
0.000565494
0.000565812
0.000566072
0.00056628
0.000566441
0.000566561
0.000566648
0.000566706
0.00056674
0.000566754
0.000582587
0.000583103
0.00058381
0.000584656
0.000585595
0.000586586
0.000587596
0.000588596
0.000589564
0.000590483
0.00059134
0.000592127
0.00059284
0.000593476
0.000594035
0.000594521
0.000594936
0.000595285
0.000595574
0.000595808
0.000595994
0.000596138
0.000596244
0.00059632
0.00059637
0.000596399
0.000596412
0.00061232
0.000612806
0.000613472
0.000614268
0.00061515
0.000616082
0.000617029
0.000617966
0.000618872
0.000619731
0.00062053
0.000621263
0.000621924
0.000622513
0.00062303
0.000623476
0.000623857
0.000624175
0.000624438
0.000624649
0.000624816
0.000624944
0.000625038
0.000625104
0.000625147
0.000625171
0.000625182
0.000641072
0.00064153
0.000642157
0.000642907
0.000643737
0.000644613
0.000645502
0.000646381
0.00064723
0.000648032
0.000648778
0.000649461
0.000650075
0.000650621
0.000651098
0.000651509
0.000651857
0.000652148
0.000652386
0.000652577
0.000652726
0.00065284
0.000652922
0.00065298
0.000653017
0.000653037
0.000653046
0.000668842
0.000669274
0.000669865
0.000670571
0.000671352
0.000672175
0.00067301
0.000673834
0.000674629
0.000675379
0.000676075
0.00067671
0.000677281
0.000677786
0.000678226
0.000678604
0.000678923
0.000679188
0.000679404
0.000679575
0.000679708
0.000679809
0.000679881
0.00067993
0.000679962
0.000679979
0.000679985
0.000695627
0.000696033
0.00069659
0.000697254
0.000697988
0.000698761
0.000699545
0.000700317
0.00070106
0.00070176
0.000702409
0.000702999
0.000703528
0.000703995
0.000704401
0.000704747
0.000705039
0.000705279
0.000705474
0.000705627
0.000705746
0.000705833
0.000705896
0.000705938
0.000705964
0.000705978
0.000705983
0.00072142
0.000721802
0.000722325
0.000722949
0.000723638
0.000724363
0.000725097
0.000725819
0.000726512
0.000727165
0.000727768
0.000728315
0.000728804
0.000729234
0.000729606
0.000729923
0.000730188
0.000730405
0.00073058
0.000730716
0.00073082
0.000730896
0.00073095
0.000730985
0.000731006
0.000731016
0.00073102
0.000746212
0.000746571
0.000747061
0.000747646
0.000748291
0.000748968
0.000749654
0.000750327
0.000750972
0.000751578
0.000752136
0.000752642
0.000753092
0.000753486
0.000753826
0.000754114
0.000754353
0.000754547
0.000754702
0.000754822
0.000754912
0.000754977
0.000755022
0.00075505
0.000755066
0.000755074
0.000755076
0.00076999
0.000770326
0.000770784
0.00077133
0.000771932
0.000772563
0.0007732
0.000773824
0.000774422
0.000774982
0.000775496
0.00077596
0.000776372
0.000776731
0.000777039
0.000777298
0.000777511
0.000777683
0.000777819
0.000777923
0.000777999
0.000778053
0.000778089
0.00077811
0.000778122
0.000778126
0.000778127
0.000792738
0.00079305
0.000793476
0.000793983
0.000794541
0.000795126
0.000795715
0.000796291
0.000796841
0.000797354
0.000797824
0.000798247
0.00079862
0.000798944
0.000799219
0.000799449
0.000799637
0.000799787
0.000799903
0.000799991
0.000800053
0.000800096
0.000800123
0.000800138
0.000800145
0.000800146
0.000800146
0.000814431
0.000814719
0.000815113
0.000815581
0.000816095
0.000816632
0.000817172
0.000817699
0.000818201
0.000818667
0.000819092
0.000819473
0.000819806
0.000820094
0.000820337
0.000820537
0.000820699
0.000820826
0.000820922
0.000820993
0.000821042
0.000821073
0.000821091
0.000821099
0.000821101
0.0008211
0.000821098
0.00083504
0.000835304
0.000835664
0.000836091
0.00083656
0.000837049
0.000837539
0.000838015
0.000838467
0.000838885
0.000839264
0.0008396
0.000839893
0.000840143
0.000840352
0.000840522
0.000840657
0.00084076
0.000840836
0.000840889
0.000840923
0.000840942
0.00084095
0.000840952
0.000840948
0.000840944
0.000840941
0.000854525
0.000854765
0.00085509
0.000855475
0.000855897
0.000856335
0.000856773
0.000857196
0.000857595
0.000857962
0.000858293
0.000858584
0.000858834
0.000859045
0.000859217
0.000859355
0.000859461
0.000859539
0.000859593
0.000859628
0.000859646
0.000859653
0.000859651
0.000859644
0.000859636
0.000859628
0.000859623
0.000872839
0.000873052
0.00087334
0.000873681
0.000874053
0.000874438
0.00087482
0.000875188
0.000875531
0.000875845
0.000876123
0.000876365
0.00087657
0.000876739
0.000876873
0.000876976
0.000877051
0.000877102
0.000877133
0.000877147
0.000877149
0.000877141
0.000877129
0.000877114
0.000877099
0.000877088
0.000877081
0.000889919
0.000890103
0.000890353
0.000890647
0.000890965
0.000891293
0.000891615
0.000891923
0.000892207
0.000892462
0.000892685
0.000892874
0.000893029
0.000893152
0.000893245
0.00089331
0.000893352
0.000893373
0.000893377
0.00089337
0.000893353
0.00089333
0.000893306
0.000893282
0.000893261
0.000893245
0.000893236
0.000905688
0.000905842
0.000906049
0.000906292
0.000906552
0.000906818
0.000907076
0.000907317
0.000907536
0.000907728
0.00090789
0.000908021
0.000908122
0.000908195
0.000908241
0.000908265
0.000908269
0.000908257
0.000908233
0.0009082
0.000908163
0.000908123
0.000908085
0.000908051
0.000908022
0.000908002
0.000907991
0.000920052
0.000920172
0.000920333
0.000920519
0.000920716
0.000920913
0.0009211
0.000921269
0.000921416
0.000921537
0.000921631
0.000921698
0.000921738
0.000921755
0.00092175
0.000921727
0.000921689
0.00092164
0.000921584
0.000921523
0.000921462
0.000921403
0.00092135
0.000921303
0.000921266
0.00092124
0.000921227
0.000932892
0.000932975
0.000933085
0.000933208
0.000933335
0.000933455
0.000933563
0.000933651
0.000933718
0.00093376
0.000933778
0.000933772
0.000933745
0.000933698
0.000933634
0.000933558
0.000933473
0.000933382
0.000933288
0.000933196
0.000933108
0.000933027
0.000932955
0.000932895
0.000932848
0.000932816
0.0009328
0.000944068
0.00094411
0.000944161
0.000944214
0.000944261
0.000944296
0.000944314
0.000944312
0.000944287
0.00094424
0.000944172
0.000944084
0.000943978
0.000943859
0.000943729
0.000943592
0.000943452
0.000943312
0.000943176
0.000943047
0.000942928
0.000942821
0.000942729
0.000942653
0.000942595
0.000942555
0.000942536
0.000953407
0.000953401
0.000953387
0.000953361
0.000953318
0.000953255
0.000953171
0.000953065
0.000952937
0.000952788
0.000952621
0.000952438
0.000952244
0.000952041
0.000951835
0.000951628
0.000951424
0.000951228
0.000951043
0.000950871
0.000950716
0.000950579
0.000950462
0.000950368
0.000950296
0.000950248
0.000950224
0.000960702
0.000960642
0.000960554
0.000960436
0.00096029
0.000960117
0.000959916
0.000959691
0.000959443
0.000959177
0.000958897
0.000958605
0.000958308
0.00095801
0.000957714
0.000957426
0.000957149
0.000956887
0.000956644
0.000956422
0.000956225
0.000956052
0.000955908
0.000955791
0.000955704
0.000955646
0.000955617
0.000965708
0.000965587
0.000965412
0.000965191
0.000964927
0.000964625
0.00096429
0.000963928
0.000963543
0.000963142
0.000962729
0.000962312
0.000961896
0.000961485
0.000961086
0.000960703
0.000960341
0.000960003
0.000959693
0.000959412
0.000959165
0.000958951
0.000958773
0.000958631
0.000958525
0.000958455
0.000958421
0.000968136
0.000967944
0.000967671
0.00096733
0.000966929
0.00096648
0.00096599
0.000965469
0.000964925
0.000964367
0.000963802
0.000963239
0.000962684
0.000962144
0.000961624
0.000961131
0.000960668
0.000960241
0.000959852
0.000959503
0.000959197
0.000958935
0.000958718
0.000958545
0.000958417
0.000958334
0.000958292
0.000967651
0.000967377
0.000966991
0.00096651
0.000965952
0.000965332
0.000964663
0.000963959
0.000963231
0.000962491
0.000961749
0.000961016
0.000960299
0.000959608
0.000958948
0.000958326
0.000957747
0.000957215
0.000956733
0.000956304
0.00095593
0.000955611
0.000955348
0.00095514
0.000954986
0.000954886
0.000954837
0.000963866
0.000963498
0.00096298
0.000962339
0.0009616
0.000960782
0.000959906
0.000958989
0.000958048
0.000957097
0.00095615
0.00095522
0.000954316
0.000953449
0.000952626
0.000951854
0.000951139
0.000950485
0.000949896
0.000949374
0.000948919
0.000948534
0.000948216
0.000947967
0.000947783
0.000947663
0.000947605
0.000956344
0.000955866
0.000955197
0.000954372
0.000953423
0.000952377
0.000951262
0.0009501
0.000948913
0.000947719
0.000946535
0.000945376
0.000944256
0.000943185
0.000942173
0.000941227
0.000940355
0.000939559
0.000938845
0.000938214
0.000937666
0.000937203
0.000936823
0.000936525
0.000936306
0.000936164
0.000936094
0.000944595
0.000943993
0.00094315
0.000942113
0.000940923
0.000939617
0.000938227
0.000936783
0.000935312
0.000933838
0.000932382
0.000930961
0.000929591
0.000928286
0.000927056
0.00092591
0.000924855
0.000923897
0.000923038
0.000922281
0.000921626
0.000921073
0.000920621
0.000920267
0.000920007
0.000919838
0.000919756
0.000928089
0.000927345
0.000926304
0.000925025
0.00092356
0.000921955
0.000920252
0.000918487
0.000916693
0.000914899
0.000913131
0.00091141
0.000909755
0.000908182
0.000906702
0.000905328
0.000904065
0.00090292
0.000901896
0.000900995
0.000900217
0.000899562
0.000899026
0.000898607
0.000898301
0.000898102
0.000898006
0.000906261
0.000905356
0.000904091
0.000902539
0.000900763
0.000898821
0.000896763
0.000894634
0.000892474
0.000890319
0.000888198
0.000886138
0.00088416
0.000882284
0.000880522
0.000878888
0.00087739
0.000876033
0.000874822
0.000873759
0.000872842
0.00087207
0.000871441
0.000870949
0.00087059
0.000870357
0.000870244
0.000878538
0.000877452
0.000875937
0.000874079
0.000871955
0.000869635
0.000867181
0.000864645
0.000862077
0.000859517
0.000857002
0.000854563
0.000852225
0.00085001
0.000847934
0.000846011
0.00084425
0.000842657
0.000841238
0.000839992
0.00083892
0.000838019
0.000837285
0.000836712
0.000836294
0.000836024
0.000835893
0.000844366
0.000843082
0.000841289
0.000839094
0.000836588
0.000833852
0.000830961
0.000827978
0.00082496
0.000821956
0.000819009
0.000816154
0.000813421
0.000810834
0.000808413
0.000806173
0.000804124
0.000802274
0.000800626
0.000799182
0.00079794
0.000796898
0.000796049
0.000795387
0.000794905
0.000794593
0.000794442
0.000803263
0.000801764
0.000799673
0.000797113
0.000794193
0.00079101
0.000787648
0.000784183
0.000780682
0.000777201
0.000773789
0.000770488
0.000767331
0.000764347
0.000761557
0.000758978
0.000756622
0.000754496
0.000752606
0.00075095
0.000749528
0.000748335
0.000747365
0.000746609
0.000746059
0.000745703
0.000745531
0.000754889
0.000753164
0.000750758
0.000747816
0.000744463
0.000740809
0.000736955
0.000732987
0.000728981
0.000725003
0.000721108
0.000717343
0.000713747
0.000710352
0.000707181
0.000704252
0.00070158
0.000699171
0.000697031
0.000695158
0.000693551
0.000692205
0.00069111
0.000690258
0.000689638
0.000689238
0.000689045
0.00069914
0.000697186
0.000694463
0.000691135
0.000687344
0.000683218
0.00067887
0.000674399
0.000669889
0.000665416
0.000661042
0.000656818
0.000652789
0.000648988
0.000645442
0.000642172
0.00063919
0.000636505
0.000634122
0.000632039
0.000630253
0.000628757
0.000627543
0.000626598
0.000625912
0.000625469
0.000625255
0.000636275
0.000634102
0.000631077
0.000627382
0.000623178
0.000618606
0.000613794
0.000608851
0.000603872
0.00059894
0.000594123
0.000589478
0.000585052
0.000580882
0.000576997
0.000573418
0.000570158
0.000567227
0.000564627
0.000562357
0.000560413
0.000558787
0.000557467
0.000556442
0.000555697
0.000555217
0.000554986
0.000567059
0.000564697
0.00056141
0.000557399
0.000552839
0.000547888
0.000542682
0.000537342
0.000531971
0.000526657
0.000521475
0.000516485
0.000511737
0.000507271
0.000503114
0.00049929
0.000495813
0.000492689
0.000489922
0.000487509
0.000485445
0.000483719
0.000482321
0.000481236
0.000480448
0.000479941
0.000479696
0.000492867
0.000490365
0.000486885
0.000482644
0.00047783
0.000472608
0.000467128
0.000461515
0.000455879
0.000450313
0.000444894
0.000439685
0.000434738
0.000430091
0.000425775
0.00042181
0.000418209
0.00041498
0.000412123
0.000409636
0.000407511
0.000405737
0.0004043
0.000403187
0.00040238
0.00040186
0.00040161
0.000415783
0.000413216
0.000409651
0.00040531
0.000400391
0.000395066
0.000389486
0.000383784
0.000378071
0.00037244
0.00036697
0.000361724
0.000356751
0.00035209
0.000347769
0.000343807
0.000340216
0.000337001
0.000334163
0.000331695
0.000329589
0.000327834
0.000326415
0.000325316
0.000324521
0.000324009
0.000323763
0.00033864
0.000336109
0.000332597
0.000328329
0.000323502
0.000318287
0.000312837
0.00030728
0.000301727
0.000296269
0.00029098
0.000285921
0.000281137
0.000276665
0.000272529
0.000268746
0.000265325
0.000262268
0.000259575
0.000257237
0.000255247
0.000253591
0.000252254
0.00025122
0.000250473
0.000249993
0.000249762
0.000264811
0.00026243
0.000259133
0.000255133
0.000250619
0.000245756
0.000240688
0.000235537
0.000230405
0.000225376
0.000220519
0.000215887
0.000211522
0.000207452
0.0002037
0.000200277
0.000197189
0.000194438
0.00019202
0.000189926
0.000188146
0.000186668
0.000185478
0.000184559
0.000183895
0.00018347
0.000183266
0.000197757
0.000195639
0.00019271
0.000189166
0.000185178
0.000180895
0.000176446
0.00017194
0.000167468
0.000163101
0.0001589
0.000154908
0.000151159
0.000147677
0.000144477
0.000141567
0.000138951
0.000136626
0.000134589
0.000132829
0.000131338
0.000130102
0.000129109
0.000128343
0.000127792
0.000127439
0.00012727
0.000140397
0.000138628
0.000136187
0.000133241
0.000129936
0.0001264
0.000122742
0.000119051
0.000115403
0.000111858
0.00010846
0.000105246
0.00010224
9.94586e-05
9.69128e-05
9.46069e-05