/*--------------------------------*- C++ -*----------------------------------*\
| =========                 |                                                 |
| \\      /  F ield         | OpenFOAM: The Open Source CFD Toolbox           |
|  \\    /   O peration     | Version:  2106                                  |
|   \\  /    A nd           | Website:  www.openfoam.com                      |
|    \\/     M anipulation  |                                                 |
\*---------------------------------------------------------------------------*/
FoamFile
{
    version     2.0;
    format      ascii;
    arch        "LSB;label=32;scalar=64";
    class       volScalarField;
    location    "49.99987";
    object      CH2CO;
}
// * * * * * * * * * * * * * * * * * * * * * * * * * * * * * * * * * * * * * //

dimensions      [0 0 0 0 0 0 0];

internalField   nonuniform List<scalar> 
3360
(
5.00065e-17
5.16159e-17
5.38556e-17
5.65951e-17
5.97204e-17
6.31289e-17
6.67279e-17
7.0434e-17
7.41727e-17
7.78782e-17
8.14937e-17
8.49707e-17
8.82694e-17
9.13579e-17
9.4212e-17
9.68149e-17
9.91561e-17
1.01231e-16
1.03041e-16
1.04591e-16
1.0589e-16
1.06951e-16
1.0779e-16
1.08422e-16
1.08867e-16
1.09143e-16
1.09272e-16
2.19377e-16
2.27442e-16
2.38822e-16
2.52994e-16
2.69523e-16
2.88032e-16
3.08182e-16
3.29664e-16
3.52188e-16
3.75484e-16
3.99289e-16
4.2335e-16
4.47416e-16
4.7124e-16
4.94578e-16
5.1719e-16
5.38843e-16
5.59309e-16
5.7837e-16
5.95822e-16
6.11478e-16
6.25171e-16
6.36761e-16
6.46135e-16
6.53209e-16
6.57933e-16
6.60288e-16
6.88354e-16
7.18569e-16
7.61505e-16
8.15457e-16
8.79013e-16
9.50901e-16
1.02991e-15
1.11486e-15
1.20454e-15
1.29772e-15
1.39314e-15
1.48956e-15
1.58573e-15
1.68045e-15
1.77252e-15
1.86083e-15
1.94435e-15
2.02213e-15
2.09337e-15
2.15741e-15
2.21372e-15
2.26194e-15
2.30186e-15
2.33341e-15
2.35667e-15
2.37184e-15
2.37923e-15
2.00479e-15
2.10439e-15
2.24687e-15
2.42712e-15
2.64091e-15
2.88422e-15
3.15308e-15
3.44335e-15
3.75069e-15
4.07054e-15
4.39819e-15
4.72885e-15
5.05775e-15
5.38026e-15
5.69198e-15
5.98887e-15
6.26735e-15
6.52438e-15
6.7575e-15
6.96489e-15
7.14534e-15
7.29821e-15
7.42341e-15
7.52134e-15
7.5928e-15
7.63894e-15
7.6612e-15
5.85758e-15
6.17179e-15
6.62213e-15
7.19322e-15
7.87201e-15
8.64596e-15
9.50217e-15
1.0427e-14
1.14058e-14
1.24233e-14
1.34636e-14
1.45106e-14
1.55487e-14
1.65628e-14
1.75391e-14
1.84651e-14
1.93301e-14
2.01252e-14
2.08435e-14
2.14801e-14
2.20321e-14
2.24981e-14
2.28786e-14
2.31755e-14
2.33915e-14
2.35307e-14
2.35976e-14
1.72726e-14
1.82377e-14
1.96225e-14
2.13802e-14
2.34705e-14
2.58546e-14
2.8492e-14
3.13399e-14
3.43524e-14
3.74813e-14
4.06768e-14
4.3889e-14
4.7069e-14
5.01706e-14
5.31513e-14
5.59734e-14
5.86046e-14
6.10187e-14
6.31959e-14
6.51221e-14
6.67893e-14
6.81948e-14
6.93407e-14
7.02332e-14
7.0882e-14
7.12995e-14
7.15002e-14
5.13121e-14
5.42446e-14
5.84528e-14
6.37942e-14
7.0146e-14
7.73886e-14
8.53977e-14
9.4041e-14
1.03177e-13
1.12659e-13
1.22334e-13
1.32049e-13
1.41658e-13
1.51021e-13
1.60011e-13
1.68515e-13
1.76437e-13
1.837e-13
1.90246e-13
1.96035e-13
2.01042e-13
2.05262e-13
2.08701e-13
2.11379e-13
2.13325e-13
2.14577e-13
2.15179e-13
1.52943e-13
1.61768e-13
1.74438e-13
1.90525e-13
2.09661e-13
2.31484e-13
2.55618e-13
2.81661e-13
3.09185e-13
3.37743e-13
3.66874e-13
3.96118e-13
4.2503e-13
4.53191e-13
4.80217e-13
5.0577e-13
5.29566e-13
5.51373e-13
5.71017e-13
5.8838e-13
6.03394e-13
6.16041e-13
6.26344e-13
6.34364e-13
6.4019e-13
6.43937e-13
6.45737e-13
4.57077e-13
4.83602e-13
5.21676e-13
5.70014e-13
6.27504e-13
6.93055e-13
7.65531e-13
8.43718e-13
9.26328e-13
1.01201e-12
1.09938e-12
1.18706e-12
1.27371e-12
1.35809e-12
1.43904e-12
1.51556e-12
1.58681e-12
1.65208e-12
1.71087e-12
1.76283e-12
1.80776e-12
1.8456e-12
1.87643e-12
1.90042e-12
1.91785e-12
1.92906e-12
1.93445e-12
1.36609e-12
1.44554e-12
1.55961e-12
1.70445e-12
1.8767e-12
2.07311e-12
2.29025e-12
2.52449e-12
2.77196e-12
3.02858e-12
3.29023e-12
3.55276e-12
3.81218e-12
4.06471e-12
4.30695e-12
4.53589e-12
4.74897e-12
4.94417e-12
5.11994e-12
5.27524e-12
5.40949e-12
5.52253e-12
5.61461e-12
5.68625e-12
5.73829e-12
5.77176e-12
5.78784e-12
4.08496e-12
4.32285e-12
4.66431e-12
5.09778e-12
5.61321e-12
6.20076e-12
6.85018e-12
7.55053e-12
8.29018e-12
9.05699e-12
9.83854e-12
1.06225e-11
1.13969e-11
1.21505e-11
1.28732e-11
1.35561e-11
1.41915e-11
1.47734e-11
1.52974e-11
1.57602e-11
1.61602e-11
1.64971e-11
1.67714e-11
1.69848e-11
1.71398e-11
1.72395e-11
1.72874e-11
1.22037e-11
1.29141e-11
1.39337e-11
1.52279e-11
1.67665e-11
1.85199e-11
2.04575e-11
2.25464e-11
2.47518e-11
2.70374e-11
2.9366e-11
3.1701e-11
3.40067e-11
3.62497e-11
3.83999e-11
4.04307e-11
4.23198e-11
4.40493e-11
4.56059e-11
4.69805e-11
4.81682e-11
4.91679e-11
4.99819e-11
5.0615e-11
5.10748e-11
5.13703e-11
5.15123e-11
3.64193e-11
3.85371e-11
4.15757e-11
4.54308e-11
5.00117e-11
5.52295e-11
6.09918e-11
6.72002e-11
7.37508e-11
8.0535e-11
8.74426e-11
9.43644e-11
1.01195e-10
1.07836e-10
1.14198e-10
1.20204e-10
1.25788e-10
1.30897e-10
1.35493e-10
1.39551e-10
1.43055e-10
1.46004e-10
1.48404e-10
1.50271e-10
1.51626e-10
1.52496e-10
1.52915e-10
1.08376e-10
1.14661e-10
1.23675e-10
1.35106e-10
1.48681e-10
1.64133e-10
1.81184e-10
1.9954e-10
2.18891e-10
2.38915e-10
2.59284e-10
2.79676e-10
2.99781e-10
3.19311e-10
3.38003e-10
3.55633e-10
3.72011e-10
3.86986e-10
4.00446e-10
4.1232e-10
4.22569e-10
4.31188e-10
4.38199e-10
4.43648e-10
4.47602e-10
4.50142e-10
4.51362e-10
3.21357e-10
3.39906e-10
3.66492e-10
4.00177e-10
4.4014e-10
4.85577e-10
5.35655e-10
5.89495e-10
6.46175e-10
7.04743e-10
7.64237e-10
8.23712e-10
8.82269e-10
9.39071e-10
9.93368e-10
1.04451e-09
1.09197e-09
1.13531e-09
1.17423e-09
1.20853e-09
1.23811e-09
1.26296e-09
1.28316e-09
1.29886e-09
1.31024e-09
1.31754e-09
1.32105e-09
9.4732e-10
1.00154e-09
1.07918e-09
1.17745e-09
1.29387e-09
1.42603e-09
1.57145e-09
1.72751e-09
1.8915e-09
2.06062e-09
2.2321e-09
2.40319e-09
2.57131e-09
2.7341e-09
2.88943e-09
3.03549e-09
3.17079e-09
3.29416e-09
3.40479e-09
3.50214e-09
3.58599e-09
3.65635e-09
3.71349e-09
3.75783e-09
3.78995e-09
3.81056e-09
3.82044e-09
2.77105e-09
2.92748e-09
3.15121e-09
3.43387e-09
3.76811e-09
4.14671e-09
4.56227e-09
5.00714e-09
5.47338e-09
5.95296e-09
6.43789e-09
6.92047e-09
7.39346e-09
7.85027e-09
8.28511e-09
8.69305e-09
9.0701e-09
9.41322e-09
9.72028e-09
9.99002e-09
1.0222e-08
1.04163e-08
1.05739e-08
1.0696e-08
1.07844e-08
1.08411e-08
1.08682e-08
8.02021e-09
8.46321e-09
9.09571e-09
9.89305e-09
1.08334e-08
1.18953e-08
1.30572e-08
1.42969e-08
1.55916e-08
1.69188e-08
1.8256e-08
1.95823e-08
2.08778e-08
2.21251e-08
2.33087e-08
2.44158e-08
2.54362e-08
2.63625e-08
2.71894e-08
2.79142e-08
2.85361e-08
2.90563e-08
2.94774e-08
2.98032e-08
3.00387e-08
3.01895e-08
3.02616e-08
2.28903e-08
2.4114e-08
2.58573e-08
2.80483e-08
3.06233e-08
3.35201e-08
3.66767e-08
4.00301e-08
4.35173e-08
4.70761e-08
5.06466e-08
5.41728e-08
5.76034e-08
6.08933e-08
6.40036e-08
6.6903e-08
6.95667e-08
7.19771e-08
7.41231e-08
7.59992e-08
7.76053e-08
7.89458e-08
8.00288e-08
8.08654e-08
8.14691e-08
8.18551e-08
8.20396e-08
6.41384e-08
6.74109e-08
7.20594e-08
7.7881e-08
8.46936e-08
9.23222e-08
1.00594e-07
1.09336e-07
1.1838e-07
1.27563e-07
1.3673e-07
1.45739e-07
1.54464e-07
1.62793e-07
1.70635e-07
1.77917e-07
1.84583e-07
1.90595e-07
1.95931e-07
2.00583e-07
2.04555e-07
2.07863e-07
2.1053e-07
2.12586e-07
2.14067e-07
2.15013e-07
2.15465e-07
1.75523e-07
1.8393e-07
1.95832e-07
2.10676e-07
2.27962e-07
2.47216e-07
2.67976e-07
2.89792e-07
3.12234e-07
3.34891e-07
3.57386e-07
3.79379e-07
4.00571e-07
4.2071e-07
4.39589e-07
4.57047e-07
4.7297e-07
4.87281e-07
4.99942e-07
5.10949e-07
5.20324e-07
5.28113e-07
5.34379e-07
5.39202e-07
5.42671e-07
5.44882e-07
5.45936e-07
4.66303e-07
4.86902e-07
5.15965e-07
5.52048e-07
5.93854e-07
6.40159e-07
6.89796e-07
7.41655e-07
7.94687e-07
8.47927e-07
9.00499e-07
9.51631e-07
1.00066e-06
1.04704e-06
1.09033e-06
1.13021e-06
1.16645e-06
1.19892e-06
1.22756e-06
1.25239e-06
1.27348e-06
1.29097e-06
1.30501e-06
1.3158e-06
1.32355e-06
1.32848e-06
1.33083e-06
1.19521e-06
1.24313e-06
1.3105e-06
1.39378e-06
1.48979e-06
1.59557e-06
1.70835e-06
1.82551e-06
1.94468e-06
2.06369e-06
2.18062e-06
2.29381e-06
2.40187e-06
2.50367e-06
2.59834e-06
2.68524e-06
2.76396e-06
2.83428e-06
2.89615e-06
2.94966e-06
2.99503e-06
3.03257e-06
3.06266e-06
3.08575e-06
3.1023e-06
3.11283e-06
3.11784e-06
2.9394e-06
3.04503e-06
3.19311e-06
3.37547e-06
3.58482e-06
3.81441e-06
4.05803e-06
4.30996e-06
4.56504e-06
4.81867e-06
5.06684e-06
5.30614e-06
5.53379e-06
5.74753e-06
5.9457e-06
6.1271e-06
6.29101e-06
6.43708e-06
6.56533e-06
6.67605e-06
6.76976e-06
6.84718e-06
6.90915e-06
6.95664e-06
6.99066e-06
7.01227e-06
7.02254e-06
6.90851e-06
7.12959e-06
7.43881e-06
7.81851e-06
8.25292e-06
8.72766e-06
9.22957e-06
9.74676e-06
1.02686e-05
1.07857e-05
1.12901e-05
1.17751e-05
1.22352e-05
1.26662e-05
1.30648e-05
1.3429e-05
1.37575e-05
1.40497e-05
1.43059e-05
1.45268e-05
1.47136e-05
1.48677e-05
1.4991e-05
1.50854e-05
1.51529e-05
1.51958e-05
1.52162e-05
1.54813e-05
1.59217e-05
1.65366e-05
1.72899e-05
1.81496e-05
1.90865e-05
2.00743e-05
2.10894e-05
2.21108e-05
2.31203e-05
2.41025e-05
2.50446e-05
2.59363e-05
2.67696e-05
2.75389e-05
2.82403e-05
2.88718e-05
2.94327e-05
2.99236e-05
3.03463e-05
3.07032e-05
3.09973e-05
3.12324e-05
3.14121e-05
3.15407e-05
3.16223e-05
3.1661e-05
3.3022e-05
3.38578e-05
3.50229e-05
3.64476e-05
3.80699e-05
3.98338e-05
4.16889e-05
4.35904e-05
4.5499e-05
4.7381e-05
4.9208e-05
5.09566e-05
5.26083e-05
5.41492e-05
5.55692e-05
5.68619e-05
5.8024e-05
5.90549e-05
5.99562e-05
6.07313e-05
6.13851e-05
6.19236e-05
6.23534e-05
6.26819e-05
6.29167e-05
6.30656e-05
6.31363e-05
6.68425e-05
6.83523e-05
7.04549e-05
7.30229e-05
7.5943e-05
7.91134e-05
8.2443e-05
8.58509e-05
8.9267e-05
9.26309e-05
9.58924e-05
9.90105e-05
0.000101953
0.000104694
0.000107219
0.000109515
0.000111577
0.000113406
0.000115003
0.000116375
0.000117532
0.000118485
0.000119245
0.000119825
0.00012024
0.000120502
0.000120627
0.000127924
0.000130526
0.000134149
0.000138572
0.000143599
0.000149054
0.000154779
0.000160638
0.000166508
0.000172287
0.000177889
0.000183244
0.000188295
0.000193003
0.000197336
0.000201278
0.000204818
0.000207956
0.000210697
0.000213053
0.000215039
0.000216673
0.000217976
0.000218972
0.000219683
0.000220133
0.000220347
0.000230393
0.000234646
0.000240567
0.000247796
0.000256013
0.000264932
0.000274298
0.000283885
0.000293497
0.000302966
0.000312152
0.000320941
0.000329241
0.000336983
0.000344119
0.000350616
0.000356458
0.000361641
0.000366174
0.000370074
0.000373363
0.000376073
0.000378236
0.000379889
0.00038107
0.000381819
0.000382174
0.000388023
0.000394491
0.000403493
0.000414483
0.000426975
0.000440536
0.000454778
0.000469361
0.000483987
0.000498404
0.000512399
0.000525798
0.000538461
0.000550285
0.000561191
0.000571132
0.000580079
0.000588027
0.000594984
0.000600976
0.000606035
0.000610206
0.00061354
0.000616089
0.000617913
0.00061907
0.000619618
0.000607743
0.000616652
0.000629041
0.000644144
0.000661285
0.000679859
0.00069933
0.00071923
0.000739152
0.000758754
0.000777747
0.0007959
0.000813031
0.000829
0.000843711
0.000857102
0.000869141
0.000879823
0.000889166
0.000897204
0.000903988
0.000909576
0.000914039
0.000917451
0.000919891
0.000921438
0.000922172
0.000883536
0.000894422
0.000909525
0.00092788
0.000948637
0.00097104
0.000994423
0.00101821
0.00104192
0.00106513
0.00108751
0.0011088
0.0011288
0.00114735
0.00116437
0.00117979
0.0011936
0.00120581
0.00121644
0.00122555
0.00123321
0.00123951
0.00124453
0.00124835
0.00125108
0.00125281
0.00125363
0.00119563
0.00120738
0.00122364
0.00124332
0.00126547
0.00128925
0.00131393
0.00133889
0.0013636
0.00138765
0.0014107
0.00143249
0.00145283
0.0014716
0.00148872
0.00150416
0.00151792
0.00153004
0.00154055
0.00154954
0.00155708
0.00156326
0.00156817
0.00157191
0.00157457
0.00157626
0.00157706
0.0015165
0.00152786
0.00154353
0.00156241
0.00158357
0.00160618
0.00162951
0.00165298
0.0016761
0.00169849
0.00171984
0.00173993
0.00175862
0.00177579
0.0017914
0.00180543
0.00181789
0.00182883
0.00183831
0.00184639
0.00185315
0.00185868
0.00186307
0.0018664
0.00186878
0.00187028
0.00187099
0.00182039
0.00183047
0.00184434
0.00186103
0.00187968
0.00189955
0.00192
0.00194051
0.00196065
0.00198008
0.00199857
0.00201592
0.002032
0.00204675
0.00206012
0.00207212
0.00208276
0.00209208
0.00210014
0.002107
0.00211274
0.00211744
0.00212116
0.00212398
0.00212599
0.00212726
0.00212787
0.00209181
0.0021003
0.00211197
0.00212599
0.00214164
0.00215828
0.00217537
0.00219249
0.00220927
0.00222545
0.0022408
0.0022552
0.00226852
0.00228073
0.00229179
0.0023017
0.00231048
0.00231817
0.00232482
0.00233048
0.00233521
0.00233908
0.00234215
0.00234448
0.00234614
0.00234718
0.00234768
0.00232531
0.00233224
0.00234177
0.00235321
0.00236596
0.00237952
0.00239345
0.00240738
0.00242103
0.00243419
0.00244667
0.00245837
0.0024692
0.00247912
0.0024881
0.00249616
0.0025033
0.00250955
0.00251496
0.00251956
0.00252341
0.00252656
0.00252906
0.00253096
0.00253231
0.00253317
0.00253357
0.00252166
0.00252724
0.0025349
0.0025441
0.00255437
0.00256528
0.00257648
0.0025877
0.0025987
0.00260929
0.00261936
0.00262879
0.00263753
0.00264554
0.00265279
0.0026593
0.00266508
0.00267014
0.00267452
0.00267825
0.00268137
0.00268393
0.00268596
0.0026875
0.0026886
0.00268929
0.00268962
0.00268472
0.00268918
0.00269532
0.0027027
0.00271093
0.00271969
0.00272869
0.0027377
0.00274654
0.00275507
0.00276318
0.00277078
0.00277783
0.0027843
0.00279016
0.00279543
0.0028001
0.00280421
0.00280776
0.00281078
0.00281332
0.00281539
0.00281704
0.0028183
0.00281919
0.00281976
0.00282003
0.00281936
0.00282294
0.00282787
0.0028338
0.00284042
0.00284747
0.00285472
0.00286199
0.00286912
0.00287601
0.00288256
0.00288871
0.00289442
0.00289966
0.00290442
0.0029087
0.00291249
0.00291583
0.00291872
0.00292118
0.00292325
0.00292494
0.00292629
0.00292731
0.00292804
0.00292851
0.00292873
0.00293037
0.00293326
0.00293725
0.00294204
0.0029474
0.0029531
0.00295897
0.00296486
0.00297065
0.00297624
0.00298157
0.00298658
0.00299122
0.00299549
0.00299938
0.00300286
0.00300597
0.00300869
0.00301105
0.00301307
0.00301476
0.00301615
0.00301725
0.00301809
0.00301869
0.00301907
0.00301925
0.003022
0.00302435
0.00302759
0.00303149
0.00303585
0.0030405
0.00304529
0.00305009
0.00305482
0.00305939
0.00306375
0.00306785
0.00307165
0.00307515
0.00307834
0.0030812
0.00308375
0.00308598
0.00308793
0.00308959
0.00309098
0.00309212
0.00309303
0.00309372
0.00309421
0.00309453
0.00309467
0.00309781
0.00309974
0.00310239
0.00310559
0.00310916
0.00311297
0.0031169
0.00312085
0.00312474
0.0031285
0.00313208
0.00313545
0.00313859
0.00314148
0.0031441
0.00314646
0.00314857
0.00315041
0.00315202
0.00315339
0.00315454
0.00315549
0.00315624
0.00315681
0.00315722
0.00315748
0.0031576
0.00316073
0.00316232
0.00316451
0.00316715
0.0031701
0.00317324
0.00317649
0.00317975
0.00318296
0.00318607
0.00318904
0.00319183
0.00319443
0.00319682
0.003199
0.00320096
0.0032027
0.00320424
0.00320557
0.00320671
0.00320766
0.00320845
0.00320907
0.00320955
0.00320989
0.0032101
0.00321021
0.00321314
0.00321446
0.00321627
0.00321846
0.00322091
0.00322352
0.00322622
0.00322893
0.0032316
0.00323419
0.00323665
0.00323898
0.00324114
0.00324313
0.00324494
0.00324658
0.00324803
0.00324931
0.00325042
0.00325137
0.00325217
0.00325282
0.00325334
0.00325374
0.00325403
0.0032542
0.00325429
0.00325694
0.00325804
0.00325956
0.00326138
0.00326342
0.0032656
0.00326785
0.00327012
0.00327235
0.00327451
0.00327657
0.00327851
0.00328032
0.00328199
0.00328351
0.00328487
0.00328609
0.00328716
0.00328809
0.00328889
0.00328956
0.0032901
0.00329054
0.00329087
0.00329111
0.00329126
0.00329133
0.00329368
0.0032946
0.00329587
0.0032974
0.00329911
0.00330094
0.00330283
0.00330473
0.0033066
0.00330841
0.00331014
0.00331178
0.00331329
0.00331469
0.00331597
0.00331712
0.00331814
0.00331904
0.00331982
0.00332049
0.00332105
0.00332151
0.00332188
0.00332216
0.00332236
0.00332249
0.00332255
0.0033246
0.00332538
0.00332644
0.00332773
0.00332917
0.00333071
0.0033323
0.0033339
0.00333548
0.003337
0.00333846
0.00333984
0.00334112
0.0033423
0.00334337
0.00334434
0.00334521
0.00334597
0.00334663
0.00334719
0.00334766
0.00334805
0.00334836
0.0033486
0.00334877
0.00334888
0.00334893
0.00335071
0.00335136
0.00335226
0.00335335
0.00335457
0.00335587
0.00335721
0.00335857
0.0033599
0.00336119
0.00336242
0.00336359
0.00336467
0.00336567
0.00336658
0.0033674
0.00336813
0.00336877
0.00336933
0.00336981
0.00337021
0.00337054
0.0033708
0.003371
0.00337115
0.00337124
0.00337128
0.00337282
0.00337337
0.00337414
0.00337506
0.00337609
0.0033772
0.00337833
0.00337948
0.00338061
0.00338171
0.00338276
0.00338374
0.00338466
0.00338551
0.00338628
0.00338698
0.0033876
0.00338815
0.00338862
0.00338903
0.00338937
0.00338965
0.00338987
0.00339004
0.00339016
0.00339024
0.00339028
0.0033916
0.00339207
0.00339272
0.00339351
0.00339439
0.00339532
0.00339629
0.00339727
0.00339823
0.00339916
0.00340006
0.0034009
0.00340168
0.0034024
0.00340306
0.00340365
0.00340418
0.00340464
0.00340505
0.00340539
0.00340568
0.00340592
0.00340611
0.00340626
0.00340636
0.00340643
0.00340646
0.0034076
0.003408
0.00340856
0.00340923
0.00340998
0.00341078
0.0034116
0.00341244
0.00341326
0.00341405
0.00341481
0.00341553
0.0034162
0.00341682
0.00341738
0.00341788
0.00341833
0.00341873
0.00341908
0.00341937
0.00341962
0.00341982
0.00341999
0.00342011
0.0034202
0.00342025
0.00342028
0.00342127
0.00342161
0.00342208
0.00342266
0.0034233
0.00342398
0.00342469
0.0034254
0.0034261
0.00342678
0.00342744
0.00342805
0.00342862
0.00342915
0.00342963
0.00343006
0.00343045
0.00343079
0.00343109
0.00343134
0.00343155
0.00343172
0.00343186
0.00343197
0.00343205
0.00343209
0.00343212
0.00343297
0.00343326
0.00343367
0.00343416
0.00343471
0.00343529
0.0034359
0.00343651
0.00343711
0.0034377
0.00343826
0.00343878
0.00343927
0.00343973
0.00344014
0.00344051
0.00344084
0.00344113
0.00344139
0.00344161
0.00344179
0.00344194
0.00344206
0.00344215
0.00344221
0.00344225
0.00344227
0.00344301
0.00344326
0.00344361
0.00344403
0.0034445
0.00344501
0.00344553
0.00344605
0.00344657
0.00344707
0.00344755
0.00344801
0.00344843
0.00344882
0.00344917
0.00344949
0.00344978
0.00345003
0.00345025
0.00345043
0.00345059
0.00345072
0.00345082
0.0034509
0.00345096
0.00345099
0.00345101
0.00345164
0.00345186
0.00345216
0.00345252
0.00345293
0.00345337
0.00345381
0.00345427
0.00345471
0.00345515
0.00345556
0.00345595
0.00345631
0.00345665
0.00345696
0.00345723
0.00345748
0.00345769
0.00345788
0.00345804
0.00345818
0.00345829
0.00345838
0.00345844
0.00345849
0.00345852
0.00345854
0.00345909
0.00345927
0.00345953
0.00345985
0.0034602
0.00346057
0.00346096
0.00346135
0.00346174
0.00346211
0.00346247
0.00346281
0.00346312
0.00346341
0.00346367
0.00346391
0.00346412
0.00346431
0.00346447
0.00346461
0.00346473
0.00346482
0.0034649
0.00346496
0.003465
0.00346503
0.00346504
0.00346551
0.00346568
0.0034659
0.00346617
0.00346648
0.0034668
0.00346714
0.00346747
0.00346781
0.00346813
0.00346844
0.00346873
0.003469
0.00346925
0.00346948
0.00346969
0.00346987
0.00347003
0.00347017
0.00347029
0.0034704
0.00347048
0.00347055
0.0034706
0.00347063
0.00347065
0.00347067
0.00347108
0.00347122
0.00347141
0.00347165
0.00347191
0.00347219
0.00347248
0.00347277
0.00347306
0.00347334
0.00347361
0.00347386
0.0034741
0.00347432
0.00347452
0.00347469
0.00347485
0.00347499
0.00347512
0.00347522
0.00347531
0.00347538
0.00347544
0.00347548
0.00347551
0.00347553
0.00347554
0.0034759
0.00347602
0.00347619
0.00347639
0.00347662
0.00347687
0.00347712
0.00347737
0.00347762
0.00347787
0.0034781
0.00347832
0.00347852
0.00347871
0.00347888
0.00347904
0.00347918
0.0034793
0.0034794
0.0034795
0.00347957
0.00347963
0.00347968
0.00347972
0.00347975
0.00347977
0.00347977
0.00348009
0.00348019
0.00348034
0.00348052
0.00348071
0.00348093
0.00348115
0.00348137
0.00348158
0.0034818
0.003482
0.00348219
0.00348237
0.00348253
0.00348268
0.00348282
0.00348294
0.00348304
0.00348313
0.00348321
0.00348328
0.00348333
0.00348338
0.00348341
0.00348343
0.00348345
0.00348346
0.00348373
0.00348382
0.00348395
0.0034841
0.00348427
0.00348446
0.00348465
0.00348484
0.00348503
0.00348522
0.00348539
0.00348556
0.00348571
0.00348586
0.00348599
0.0034861
0.00348621
0.0034863
0.00348638
0.00348645
0.00348651
0.00348656
0.00348659
0.00348662
0.00348664
0.00348666
0.00348666
0.0034869
0.00348698
0.00348709
0.00348722
0.00348737
0.00348754
0.0034877
0.00348787
0.00348804
0.0034882
0.00348835
0.0034885
0.00348863
0.00348876
0.00348887
0.00348897
0.00348906
0.00348914
0.00348921
0.00348927
0.00348932
0.00348937
0.0034894
0.00348942
0.00348944
0.00348945
0.00348946
0.00348966
0.00348973
0.00348983
0.00348995
0.00349008
0.00349022
0.00349037
0.00349051
0.00349066
0.0034908
0.00349093
0.00349106
0.00349118
0.00349129
0.00349139
0.00349148
0.00349156
0.00349163
0.00349169
0.00349174
0.00349178
0.00349182
0.00349185
0.00349187
0.00349189
0.0034919
0.0034919
0.00349208
0.00349214
0.00349223
0.00349233
0.00349244
0.00349257
0.00349269
0.00349282
0.00349295
0.00349307
0.00349319
0.0034933
0.0034934
0.0034935
0.00349359
0.00349366
0.00349373
0.0034938
0.00349385
0.0034939
0.00349393
0.00349397
0.00349399
0.00349401
0.00349402
0.00349403
0.00349404
0.00349419
0.00349425
0.00349432
0.00349441
0.00349451
0.00349462
0.00349473
0.00349484
0.00349495
0.00349506
0.00349516
0.00349526
0.00349535
0.00349544
0.00349551
0.00349558
0.00349564
0.0034957
0.00349574
0.00349578
0.00349582
0.00349584
0.00349587
0.00349588
0.0034959
0.0034959
0.00349591
0.00349604
0.00349609
0.00349616
0.00349623
0.00349632
0.00349642
0.00349652
0.00349661
0.00349671
0.00349681
0.0034969
0.00349698
0.00349706
0.00349713
0.0034972
0.00349726
0.00349731
0.00349736
0.0034974
0.00349744
0.00349747
0.00349749
0.00349751
0.00349753
0.00349754
0.00349754
0.00349755
0.00349767
0.00349771
0.00349776
0.00349783
0.00349791
0.00349799
0.00349808
0.00349817
0.00349825
0.00349833
0.00349841
0.00349849
0.00349856
0.00349862
0.00349868
0.00349873
0.00349878
0.00349882
0.00349886
0.00349889
0.00349892
0.00349894
0.00349895
0.00349897
0.00349898
0.00349898
0.00349898
0.00349909
0.00349912
0.00349918
0.00349924
0.0034993
0.00349938
0.00349945
0.00349953
0.0034996
0.00349968
0.00349975
0.00349981
0.00349987
0.00349993
0.00349998
0.00350003
0.00350007
0.00350011
0.00350014
0.00350016
0.00350019
0.00350021
0.00350022
0.00350023
0.00350024
0.00350025
0.00350025
0.00350034
0.00350037
0.00350041
0.00350047
0.00350053
0.00350059
0.00350066
0.00350073
0.00350079
0.00350086
0.00350092
0.00350097
0.00350103
0.00350108
0.00350112
0.00350116
0.0035012
0.00350123
0.00350126
0.00350129
0.00350131
0.00350132
0.00350134
0.00350135
0.00350135
0.00350136
0.00350136
0.00350144
0.00350147
0.0035015
0.00350155
0.0035016
0.00350166
0.00350172
0.00350178
0.00350184
0.00350189
0.00350195
0.003502
0.00350205
0.00350209
0.00350213
0.00350217
0.0035022
0.00350223
0.00350225
0.00350227
0.00350229
0.0035023
0.00350232
0.00350233
0.00350233
0.00350234
0.00350234
0.0035024
0.00350243
0.00350246
0.00350251
0.00350255
0.0035026
0.00350265
0.00350271
0.00350276
0.00350281
0.00350285
0.0035029
0.00350294
0.00350298
0.00350302
0.00350305
0.00350308
0.0035031
0.00350312
0.00350314
0.00350316
0.00350317
0.00350318
0.00350319
0.00350319
0.0035032
0.0035032
0.00350326
0.00350328
0.00350331
0.00350334
0.00350339
0.00350343
0.00350348
0.00350352
0.00350357
0.00350361
0.00350365
0.00350369
0.00350373
0.00350376
0.0035038
0.00350382
0.00350385
0.00350387
0.00350389
0.00350391
0.00350392
0.00350393
0.00350394
0.00350395
0.00350395
0.00350396
0.00350396
0.00350401
0.00350403
0.00350405
0.00350408
0.00350412
0.00350416
0.0035042
0.00350424
0.00350428
0.00350432
0.00350436
0.00350439
0.00350442
0.00350446
0.00350448
0.00350451
0.00350453
0.00350455
0.00350457
0.00350458
0.00350459
0.0035046
0.00350461
0.00350462
0.00350462
0.00350463
0.00350463
0.00350467
0.00350468
0.00350471
0.00350474
0.00350477
0.0035048
0.00350484
0.00350487
0.00350491
0.00350494
0.00350498
0.00350501
0.00350504
0.00350506
0.00350509
0.00350511
0.00350513
0.00350515
0.00350516
0.00350518
0.00350519
0.0035052
0.0035052
0.00350521
0.00350521
0.00350522
0.00350522
0.00350525
0.00350526
0.00350529
0.00350531
0.00350534
0.00350537
0.0035054
0.00350543
0.00350547
0.0035055
0.00350552
0.00350555
0.00350558
0.0035056
0.00350562
0.00350564
0.00350566
0.00350568
0.00350569
0.0035057
0.00350571
0.00350572
0.00350573
0.00350573
0.00350573
0.00350574
0.00350574
0.00350576
0.00350578
0.0035058
0.00350582
0.00350584
0.00350587
0.0035059
0.00350593
0.00350595
0.00350598
0.00350601
0.00350603
0.00350606
0.00350608
0.0035061
0.00350611
0.00350613
0.00350614
0.00350616
0.00350617
0.00350617
0.00350618
0.00350619
0.00350619
0.00350619
0.0035062
0.0035062
0.00350622
0.00350623
0.00350624
0.00350626
0.00350629
0.00350631
0.00350634
0.00350636
0.00350639
0.00350641
0.00350643
0.00350645
0.00350648
0.00350649
0.00350651
0.00350653
0.00350654
0.00350655
0.00350656
0.00350657
0.00350658
0.00350659
0.00350659
0.0035066
0.0035066
0.0035066
0.0035066
0.00350661
0.00350662
0.00350664
0.00350666
0.00350668
0.0035067
0.00350672
0.00350674
0.00350677
0.00350679
0.00350681
0.00350683
0.00350685
0.00350686
0.00350688
0.00350689
0.00350691
0.00350692
0.00350693
0.00350693
0.00350694
0.00350695
0.00350695
0.00350696
0.00350696
0.00350696
0.00350696
0.00350696
0.00350697
0.00350699
0.003507
0.00350702
0.00350704
0.00350706
0.00350708
0.0035071
0.00350712
0.00350714
0.00350716
0.00350717
0.00350719
0.0035072
0.00350721
0.00350723
0.00350724
0.00350724
0.00350725
0.00350726
0.00350726
0.00350727
0.00350727
0.00350727
0.00350727
0.00350728
0.00350727
0.00350728
0.00350729
0.00350731
0.00350732
0.00350734
0.00350736
0.00350738
0.00350739
0.00350741
0.00350743
0.00350744
0.00350746
0.00350747
0.00350749
0.0035075
0.00350751
0.00350752
0.00350753
0.00350753
0.00350754
0.00350754
0.00350755
0.00350755
0.00350755
0.00350755
0.00350755
0.00350754
0.00350755
0.00350756
0.00350757
0.00350759
0.0035076
0.00350762
0.00350764
0.00350765
0.00350767
0.00350768
0.0035077
0.00350771
0.00350773
0.00350774
0.00350775
0.00350776
0.00350777
0.00350777
0.00350778
0.00350778
0.00350779
0.00350779
0.0035078
0.0035078
0.0035078
0.0035078
0.00350778
0.00350779
0.0035078
0.00350781
0.00350782
0.00350784
0.00350785
0.00350787
0.00350788
0.0035079
0.00350791
0.00350792
0.00350794
0.00350795
0.00350796
0.00350797
0.00350798
0.00350799
0.00350799
0.003508
0.003508
0.00350801
0.00350801
0.00350801
0.00350801
0.00350802
0.00350802
0.00350799
0.003508
0.00350801
0.00350802
0.00350803
0.00350804
0.00350806
0.00350807
0.00350808
0.0035081
0.00350811
0.00350812
0.00350814
0.00350815
0.00350816
0.00350817
0.00350817
0.00350818
0.00350819
0.00350819
0.0035082
0.0035082
0.00350821
0.00350821
0.00350821
0.00350821
0.00350821
0.00350818
0.00350818
0.00350819
0.0035082
0.00350821
0.00350823
0.00350824
0.00350825
0.00350827
0.00350828
0.00350829
0.0035083
0.00350831
0.00350832
0.00350833
0.00350834
0.00350835
0.00350836
0.00350836
0.00350837
0.00350837
0.00350838
0.00350838
0.00350838
0.00350839
0.00350839
0.00350839
0.00350835
0.00350835
0.00350836
0.00350837
0.00350838
0.00350839
0.00350841
0.00350842
0.00350843
0.00350844
0.00350846
0.00350847
0.00350848
0.00350849
0.0035085
0.00350851
0.00350852
0.00350852
0.00350853
0.00350853
0.00350854
0.00350854
0.00350855
0.00350855
0.00350855
0.00350855
0.00350855
0.0035085
0.00350851
0.00350852
0.00350853
0.00350854
0.00350855
0.00350856
0.00350857
0.00350859
0.0035086
0.00350861
0.00350862
0.00350863
0.00350864
0.00350865
0.00350866
0.00350867
0.00350868
0.00350868
0.00350869
0.0035087
0.0035087
0.0035087
0.0035087
0.00350871
0.00350871
0.00350871
0.00350865
0.00350866
0.00350867
0.00350867
0.00350869
0.0035087
0.00350871
0.00350872
0.00350874
0.00350875
0.00350876
0.00350877
0.00350879
0.0035088
0.00350881
0.00350882
0.00350882
0.00350883
0.00350884
0.00350884
0.00350885
0.00350885
0.00350886
0.00350886
0.00350886
0.00350886
0.00350886
0.0035088
0.0035088
0.00350881
0.00350882
0.00350883
0.00350885
0.00350886
0.00350887
0.00350889
0.0035089
0.00350891
0.00350892
0.00350894
0.00350895
0.00350896
0.00350897
0.00350898
0.00350899
0.00350899
0.003509
0.003509
0.00350901
0.00350901
0.00350902
0.00350902
0.00350902
0.00350902
0.00350894
0.00350895
0.00350896
0.00350897
0.00350898
0.00350899
0.00350901
0.00350902
0.00350904
0.00350905
0.00350907
0.00350908
0.00350909
0.00350911
0.00350912
0.00350913
0.00350914
0.00350915
0.00350915
0.00350916
0.00350917
0.00350917
0.00350917
0.00350918
0.00350918
0.00350918
0.00350918
0.00350909
0.0035091
0.00350911
0.00350912
0.00350913
0.00350915
0.00350916
0.00350918
0.0035092
0.00350921
0.00350923
0.00350924
0.00350926
0.00350927
0.00350928
0.00350929
0.0035093
0.00350931
0.00350932
0.00350933
0.00350933
0.00350934
0.00350934
0.00350935
0.00350935
0.00350935
0.00350935
0.00350925
0.00350926
0.00350927
0.00350928
0.0035093
0.00350931
0.00350933
0.00350934
0.00350936
0.00350938
0.0035094
0.00350941
0.00350943
0.00350944
0.00350946
0.00350947
0.00350948
0.00350949
0.0035095
0.00350951
0.00350951
0.00350952
0.00350952
0.00350953
0.00350953
0.00350953
0.00350953
0.00350942
0.00350943
0.00350944
0.00350945
0.00350947
0.00350948
0.0035095
0.00350952
0.00350954
0.00350956
0.00350957
0.00350959
0.00350961
0.00350963
0.00350964
0.00350965
0.00350967
0.00350968
0.00350969
0.0035097
0.0035097
0.00350971
0.00350972
0.00350972
0.00350972
0.00350972
0.00350972
0.00350959
0.0035096
0.00350961
0.00350963
0.00350965
0.00350966
0.00350968
0.0035097
0.00350972
0.00350975
0.00350977
0.00350978
0.0035098
0.00350982
0.00350984
0.00350985
0.00350987
0.00350988
0.00350989
0.0035099
0.00350991
0.00350991
0.00350992
0.00350992
0.00350993
0.00350993
0.00350993
0.00350978
0.00350979
0.0035098
0.00350982
0.00350984
0.00350986
0.00350988
0.0035099
0.00350992
0.00350994
0.00350997
0.00350999
0.00351001
0.00351003
0.00351004
0.00351006
0.00351008
0.00351009
0.0035101
0.00351011
0.00351012
0.00351013
0.00351013
0.00351014
0.00351014
0.00351014
0.00351015
0.00350998