/*--------------------------------*- C++ -*----------------------------------*\
| =========                 |                                                 |
| \\      /  F ield         | OpenFOAM: The Open Source CFD Toolbox           |
|  \\    /   O peration     | Version:  2106                                  |
|   \\  /    A nd           | Website:  www.openfoam.com                      |
|    \\/     M anipulation  |                                                 |
\*---------------------------------------------------------------------------*/
FoamFile
{
    version     2.0;
    format      ascii;
    arch        "LSB;label=32;scalar=64";
    class       volScalarField;
    location    "49.99987";
    object      CH3COCH2;
}
// * * * * * * * * * * * * * * * * * * * * * * * * * * * * * * * * * * * * * //

dimensions      [0 0 0 0 0 0 0];

internalField   nonuniform List<scalar> 
3360
(
5.94048e-20
6.13163e-20
6.39764e-20
6.72302e-20
7.09421e-20
7.49904e-20
7.9265e-20
8.36667e-20
8.8107e-20
9.25081e-20
9.68021e-20
1.00932e-19
1.04849e-19
1.08518e-19
1.11907e-19
1.14999e-19
1.17779e-19
1.20244e-19
1.22393e-19
1.24234e-19
1.25777e-19
1.27037e-19
1.28033e-19
1.28784e-19
1.29312e-19
1.29641e-19
1.29793e-19
2.60575e-19
2.70152e-19
2.83667e-19
3.00497e-19
3.20127e-19
3.42108e-19
3.66037e-19
3.91547e-19
4.18296e-19
4.45961e-19
4.74231e-19
5.02805e-19
5.31385e-19
5.59677e-19
5.87392e-19
6.14246e-19
6.3996e-19
6.64264e-19
6.86901e-19
7.07626e-19
7.26218e-19
7.4248e-19
7.56244e-19
7.67376e-19
7.75777e-19
7.81387e-19
7.84185e-19
8.17459e-19
8.53335e-19
9.04312e-19
9.6837e-19
1.04383e-18
1.12918e-18
1.223e-18
1.32385e-18
1.43033e-18
1.54096e-18
1.65425e-18
1.76872e-18
1.88291e-18
1.99536e-18
2.10468e-18
2.20953e-18
2.30868e-18
2.40102e-18
2.48561e-18
2.56164e-18
2.62849e-18
2.68574e-18
2.73314e-18
2.7706e-18
2.79821e-18
2.81623e-18
2.82499e-18
2.38017e-18
2.4984e-18
2.66751e-18
2.88148e-18
3.13523e-18
3.42404e-18
3.74316e-18
4.0877e-18
4.45249e-18
4.83214e-18
5.22104e-18
5.6135e-18
6.00388e-18
6.38667e-18
6.75666e-18
7.10903e-18
7.43956e-18
7.74462e-18
8.02131e-18
8.26747e-18
8.48164e-18
8.66308e-18
8.81167e-18
8.9279e-18
9.01271e-18
9.06748e-18
9.0939e-18
6.9522e-18
7.32504e-18
7.85942e-18
8.53709e-18
9.34255e-18
1.02609e-17
1.12769e-17
1.23742e-17
1.35357e-17
1.4743e-17
1.59773e-17
1.72196e-17
1.84514e-17
1.96547e-17
2.08131e-17
2.19118e-17
2.2938e-17
2.38814e-17
2.47336e-17
2.5489e-17
2.61439e-17
2.66968e-17
2.71483e-17
2.75005e-17
2.77568e-17
2.79219e-17
2.80014e-17
2.04935e-17
2.16382e-17
2.3281e-17
2.5366e-17
2.78456e-17
3.06735e-17
3.38019e-17
3.718e-17
4.07533e-17
4.44646e-17
4.8255e-17
5.2065e-17
5.58369e-17
5.95158e-17
6.30512e-17
6.63984e-17
6.95192e-17
7.23826e-17
7.49648e-17
7.72495e-17
7.92269e-17
8.08939e-17
8.2253e-17
8.33115e-17
8.4081e-17
8.45762e-17
8.48143e-17
6.0859e-17
6.43365e-17
6.93265e-17
7.56604e-17
8.31923e-17
9.17805e-17
1.01277e-16
1.11526e-16
1.2236e-16
1.33602e-16
1.45074e-16
1.56594e-16
1.67987e-16
1.79089e-16
1.89748e-16
1.9983e-16
2.09224e-16
2.17835e-16
2.25597e-16
2.3246e-16
2.38397e-16
2.434e-16
2.47477e-16
2.50652e-16
2.5296e-16
2.54444e-16
2.55158e-16
1.81334e-16
1.91795e-16
2.06814e-16
2.25884e-16
2.48567e-16
2.74435e-16
3.03042e-16
3.33912e-16
3.66537e-16
4.00387e-16
4.34915e-16
4.69578e-16
5.03848e-16
5.37225e-16
5.69258e-16
5.99546e-16
6.2775e-16
6.53596e-16
6.76879e-16
6.97458e-16
7.15253e-16
7.30243e-16
7.42454e-16
7.51959e-16
7.58864e-16
7.63305e-16
7.65439e-16
5.41725e-16
5.73156e-16
6.18274e-16
6.75553e-16
7.43675e-16
8.2135e-16
9.07228e-16
9.99874e-16
1.09776e-15
1.19928e-15
1.3028e-15
1.40669e-15
1.50937e-15
1.60934e-15
1.70526e-15
1.79592e-15
1.88033e-15
1.95767e-15
2.02733e-15
2.08889e-15
2.14212e-15
2.18695e-15
2.22347e-15
2.2519e-15
2.27255e-15
2.28584e-15
2.29222e-15
1.61847e-15
1.71258e-15
1.8477e-15
2.01926e-15
2.22331e-15
2.45595e-15
2.71316e-15
2.99062e-15
3.28373e-15
3.5877e-15
3.89761e-15
4.20856e-15
4.51582e-15
4.81494e-15
5.10185e-15
5.373e-15
5.62538e-15
5.85657e-15
6.06475e-15
6.24868e-15
6.40768e-15
6.54158e-15
6.65062e-15
6.73548e-15
6.79711e-15
6.83675e-15
6.85579e-15
4.83767e-15
5.11936e-15
5.52369e-15
6.03696e-15
6.64728e-15
7.343e-15
8.11196e-15
8.94122e-15
9.81701e-15
1.07249e-14
1.16503e-14
1.25785e-14
1.34954e-14
1.43877e-14
1.52434e-14
1.60519e-14
1.68042e-14
1.74932e-14
1.81135e-14
1.86615e-14
1.91352e-14
1.9534e-14
1.98587e-14
2.01114e-14
2.0295e-14
2.0413e-14
2.04697e-14
1.44458e-14
1.52867e-14
1.64936e-14
1.80255e-14
1.98466e-14
2.19222e-14
2.42156e-14
2.6688e-14
2.92984e-14
3.20036e-14
3.47599e-14
3.75236e-14
4.02525e-14
4.29074e-14
4.54523e-14
4.78559e-14
5.00918e-14
5.21387e-14
5.3981e-14
5.56078e-14
5.70136e-14
5.81968e-14
5.91601e-14
5.99094e-14
6.04535e-14
6.08033e-14
6.09714e-14
4.30868e-14
4.55926e-14
4.9188e-14
5.37494e-14
5.91696e-14
6.53434e-14
7.21614e-14
7.95073e-14
8.72579e-14
9.5285e-14
1.03458e-13
1.11648e-13
1.1973e-13
1.27587e-13
1.35115e-13
1.4222e-13
1.48827e-13
1.54872e-13
1.6031e-13
1.6511e-13
1.69257e-13
1.72745e-13
1.75585e-13
1.77793e-13
1.79396e-13
1.80427e-13
1.80921e-13
1.28123e-13
1.35556e-13
1.46218e-13
1.59738e-13
1.75794e-13
1.9407e-13
2.14237e-13
2.35949e-13
2.58837e-13
2.82521e-13
3.06613e-13
3.30733e-13
3.54513e-13
3.77612e-13
3.99722e-13
4.20574e-13
4.39945e-13
4.57656e-13
4.73577e-13
4.87621e-13
4.99743e-13
5.09937e-13
5.18228e-13
5.24673e-13
5.2935e-13
5.32354e-13
5.33797e-13
3.79488e-13
4.01417e-13
4.32849e-13
4.72673e-13
5.19922e-13
5.73644e-13
6.32854e-13
6.96514e-13
7.63533e-13
8.32786e-13
9.03134e-13
9.73462e-13
1.0427e-12
1.10987e-12
1.17408e-12
1.23456e-12
1.29067e-12
1.34192e-12
1.38795e-12
1.4285e-12
1.46348e-12
1.49287e-12
1.51676e-12
1.53531e-12
1.54877e-12
1.55741e-12
1.56155e-12
1.11663e-12
1.18069e-12
1.27244e-12
1.38856e-12
1.52615e-12
1.68235e-12
1.85422e-12
2.0387e-12
2.23255e-12
2.43249e-12
2.63522e-12
2.8375e-12
3.03629e-12
3.22877e-12
3.41243e-12
3.58514e-12
3.74513e-12
3.89102e-12
4.02183e-12
4.13694e-12
4.23609e-12
4.3193e-12
4.38686e-12
4.43928e-12
4.47726e-12
4.50163e-12
4.51331e-12
3.25563e-12
3.44031e-12
3.70447e-12
4.03828e-12
4.43306e-12
4.88031e-12
5.37135e-12
5.89709e-12
6.4482e-12
7.01517e-12
7.58855e-12
8.15923e-12
8.71864e-12
9.25897e-12
9.77335e-12
1.02559e-11
1.0702e-11
1.1108e-11
1.14713e-11
1.17904e-11
1.20649e-11
1.22948e-11
1.24813e-11
1.26258e-11
1.27303e-11
1.27974e-11
1.28295e-11
9.3664e-12
9.88849e-12
1.06341e-11
1.15745e-11
1.26839e-11
1.39374e-11
1.53097e-11
1.67744e-11
1.83049e-11
1.98744e-11
2.14566e-11
2.30262e-11
2.45602e-11
2.60373e-11
2.74394e-11
2.87513e-11
2.99607e-11
3.10586e-11
3.20389e-11
3.28982e-11
3.36357e-11
3.42525e-11
3.47518e-11
3.51382e-11
3.54174e-11
3.55962e-11
3.56817e-11
2.6441e-11
2.7877e-11
2.9924e-11
3.24991e-11
3.55283e-11
3.89399e-11
4.26616e-11
4.66199e-11
5.07407e-11
5.49509e-11
5.91796e-11
6.33599e-11
6.74308e-11
7.13381e-11
7.50352e-11
7.84839e-11
8.16544e-11
8.4525e-11
8.70818e-11
8.9318e-11
9.1233e-11
9.28317e-11
9.41235e-11
9.51216e-11
9.58418e-11
9.63023e-11
9.65224e-11
7.26644e-11
7.64613e-11
8.18616e-11
8.86362e-11
9.658e-11
1.05495e-10
1.15184e-10
1.25451e-10
1.36099e-10
1.46938e-10
1.57785e-10
1.68473e-10
1.78847e-10
1.88774e-10
1.98141e-10
2.06856e-10
2.14849e-10
2.2207e-10
2.28488e-10
2.34091e-10
2.38882e-10
2.42875e-10
2.46097e-10
2.48583e-10
2.50375e-10
2.51519e-10
2.52066e-10
1.92555e-10
2.0203e-10
2.15472e-10
2.3228e-10
2.51916e-10
2.73867e-10
2.97629e-10
3.22708e-10
3.48621e-10
3.74906e-10
4.01128e-10
4.26886e-10
4.51825e-10
4.75635e-10
4.98057e-10
5.18884e-10
5.37959e-10
5.55173e-10
5.70461e-10
5.83798e-10
5.95195e-10
6.04692e-10
6.12354e-10
6.18266e-10
6.22527e-10
6.25249e-10
6.26549e-10
4.87297e-10
5.08962e-10
5.39569e-10
5.77633e-10
6.21826e-10
6.7089e-10
7.23622e-10
7.78863e-10
8.35515e-10
8.92549e-10
9.49022e-10
1.00409e-09
1.05703e-09
1.10722e-09
1.15416e-09
1.19749e-09
1.23692e-09
1.2723e-09
1.30355e-09
1.33067e-09
1.35375e-09
1.3729e-09
1.3883e-09
1.40015e-09
1.40868e-09
1.41412e-09
1.41672e-09
1.1684e-09
1.21151e-09
1.27175e-09
1.34554e-09
1.42962e-09
1.52087e-09
1.61636e-09
1.71334e-09
1.80929e-09
1.90196e-09
1.98947e-09
2.07025e-09
2.14316e-09
2.20745e-09
2.26278e-09
2.30915e-09
2.34688e-09
2.37654e-09
2.39893e-09
2.41496e-09
2.42566e-09
2.43208e-09
2.43527e-09
2.43621e-09
2.4358e-09
2.43487e-09
2.43411e-09
2.58911e-09
2.65278e-09
2.73827e-09
2.83701e-09
2.94074e-09
3.04157e-09
3.13219e-09
3.20621e-09
3.25859e-09
3.28587e-09
3.28649e-09
3.26076e-09
3.21079e-09
3.1401e-09
3.05317e-09
2.95495e-09
2.85036e-09
2.74396e-09
2.63967e-09
2.54075e-09
2.44976e-09
2.36868e-09
2.299e-09
2.24184e-09
2.19808e-09
2.16839e-09
2.15332e-09
4.55164e-09
4.54885e-09
4.53104e-09
4.48773e-09
4.41106e-09
4.29751e-09
4.14862e-09
3.97056e-09
3.7726e-09
3.56511e-09
3.35761e-09
3.15753e-09
2.96975e-09
2.79685e-09
2.63971e-09
2.49814e-09
2.37141e-09
2.25863e-09
2.15893e-09
2.07159e-09
1.99603e-09
1.93185e-09
1.87873e-09
1.83649e-09
1.80496e-09
1.78405e-09
1.77364e-09
4.37367e-09
4.26828e-09
4.12323e-09
3.94961e-09
3.75767e-09
3.5561e-09
3.35155e-09
3.14862e-09
2.95033e-09
2.75871e-09
2.57534e-09
2.40153e-09
2.23845e-09
2.08702e-09
1.9479e-09
1.82144e-09
1.70768e-09
1.60645e-09
1.51739e-09
1.44007e-09
1.37398e-09
1.31863e-09
1.27355e-09
1.23827e-09
1.21237e-09
1.19547e-09
1.18718e-09
3.38407e-09
3.28951e-09
3.1594e-09
3.00331e-09
2.83007e-09
2.64768e-09
2.4631e-09
2.28194e-09
2.10844e-09
1.94547e-09
1.79475e-09
1.65708e-09
1.53249e-09
1.42059e-09
1.32078e-09
1.23233e-09
1.15446e-09
1.0864e-09
1.02743e-09
9.76876e-10
9.34145e-10
8.987e-10
8.70071e-10
8.4784e-10
8.31636e-10
8.21127e-10
8.16011e-10
2.30312e-09
2.23689e-09
2.14742e-09
2.04239e-09
1.92843e-09
1.81096e-09
1.69422e-09
1.58127e-09
1.47418e-09
1.37422e-09
1.28203e-09
1.19783e-09
1.1215e-09
1.05276e-09
9.91233e-10
9.36474e-10
8.88046e-10
8.45523e-10
8.08511e-10
7.7665e-10
7.49614e-10
7.27113e-10
7.08887e-10
6.94702e-10
6.84346e-10
6.77621e-10
6.74346e-10
1.6034e-09
1.56983e-09
1.52428e-09
1.47049e-09
1.41165e-09
1.35042e-09
1.28887e-09
1.22855e-09
1.17057e-09
1.11564e-09
1.06421e-09
1.01651e-09
9.72604e-10
9.32476e-10
8.96033e-10
8.63153e-10
8.33693e-10
8.07508e-10
7.84456e-10
7.64404e-10
7.47225e-10
7.32804e-10
7.21031e-10
7.11806e-10
7.05031e-10
7.0061e-10
6.98446e-10
1.25714e-09
1.24445e-09
1.22704e-09
1.2062e-09
1.18305e-09
1.15859e-09
1.13362e-09
1.10879e-09
1.0846e-09
1.06141e-09
1.03948e-09
1.01898e-09
9.99991e-10
9.8257e-10
9.66696e-10
9.52317e-10
9.39375e-10
9.27811e-10
9.1757e-10
9.08602e-10
9.0086e-10
8.94307e-10
8.88907e-10
8.84633e-10
8.81459e-10
8.79364e-10
8.78326e-10
1.11345e-09
1.11387e-09
1.11443e-09
1.11513e-09
1.11604e-09
1.11723e-09
1.11874e-09
1.12058e-09
1.12277e-09
1.1253e-09
1.12814e-09
1.13126e-09
1.13459e-09
1.13806e-09
1.14159e-09
1.14508e-09
1.14845e-09
1.15164e-09
1.15457e-09
1.15719e-09
1.15948e-09
1.1614e-09
1.16295e-09
1.16414e-09
1.16498e-09
1.1655e-09
1.16573e-09
1.08729e-09
1.09574e-09
1.10743e-09
1.12164e-09
1.13775e-09
1.15525e-09
1.17371e-09
1.1928e-09
1.21219e-09
1.23163e-09
1.25087e-09
1.26972e-09
1.28797e-09
1.30545e-09
1.322e-09
1.33749e-09
1.3518e-09
1.36485e-09
1.37655e-09
1.38688e-09
1.3958e-09
1.40331e-09
1.40942e-09
1.41417e-09
1.41762e-09
1.41981e-09
1.42084e-09
1.12449e-09
1.13579e-09
1.1514e-09
1.17026e-09
1.19151e-09
1.21436e-09
1.23819e-09
1.26245e-09
1.28668e-09
1.31052e-09
1.33366e-09
1.35582e-09
1.37679e-09
1.39641e-09
1.41453e-09
1.43104e-09
1.44585e-09
1.4589e-09
1.47016e-09
1.47976e-09
1.48781e-09
1.49444e-09
1.49973e-09
1.50378e-09
1.50669e-09
1.50854e-09
1.50942e-09
1.17019e-09
1.17987e-09
1.19313e-09
1.209e-09
1.2266e-09
1.24523e-09
1.26425e-09
1.28316e-09
1.30155e-09
1.31908e-09
1.33548e-09
1.35052e-09
1.36402e-09
1.3761e-09
1.38688e-09
1.39646e-09
1.4049e-09
1.41228e-09
1.41867e-09
1.42413e-09
1.42872e-09
1.43249e-09
1.4355e-09
1.4378e-09
1.43945e-09
1.4405e-09
1.441e-09
1.17543e-09
1.18088e-09
1.18818e-09
1.19663e-09
1.20559e-09
1.21449e-09
1.22293e-09
1.23084e-09
1.23818e-09
1.24491e-09
1.251e-09
1.25647e-09
1.26133e-09
1.26563e-09
1.2694e-09
1.27269e-09
1.27554e-09
1.27799e-09
1.28007e-09
1.28182e-09
1.28328e-09
1.28445e-09
1.28538e-09
1.28609e-09
1.28659e-09
1.2869e-09
1.28705e-09
1.11067e-09
1.11158e-09
1.1127e-09
1.11386e-09
1.11491e-09
1.11574e-09
1.1163e-09
1.11658e-09
1.11658e-09
1.11633e-09
1.11588e-09
1.11527e-09
1.11453e-09
1.11372e-09
1.11287e-09
1.11201e-09
1.11117e-09
1.11037e-09
1.10963e-09
1.10896e-09
1.10837e-09
1.10786e-09
1.10744e-09
1.10711e-09
1.10687e-09
1.10671e-09
1.10663e-09
9.98301e-10
9.96808e-10
9.94682e-10
9.92016e-10
9.88897e-10
9.85414e-10
9.81655e-10
9.7771e-10
9.73663e-10
9.69594e-10
9.65574e-10
9.61665e-10
9.57919e-10
9.54378e-10
9.51075e-10
9.48034e-10
9.4527e-10
9.42794e-10
9.40607e-10
9.38708e-10
9.3709e-10
9.35745e-10
9.34661e-10
9.33825e-10
9.33221e-10
9.32834e-10
9.32649e-10
8.69691e-10
8.67112e-10
8.63522e-10
8.59141e-10
8.54165e-10
8.4877e-10
8.43114e-10
8.37335e-10
8.31552e-10
8.25866e-10
8.20361e-10
8.15104e-10
8.10146e-10
8.05526e-10
8.01271e-10
7.97397e-10
7.93912e-10
7.90816e-10
7.88104e-10
7.85765e-10
7.83786e-10
7.8215e-10
7.80838e-10
7.7983e-10
7.79106e-10
7.78645e-10
7.78424e-10
7.43048e-10
7.4016e-10
7.36164e-10
7.31321e-10
7.25865e-10
7.19999e-10
7.139e-10
7.0772e-10
7.01585e-10
6.95599e-10
6.89844e-10
6.84384e-10
6.79266e-10
6.74522e-10
6.70176e-10
6.66236e-10
6.62707e-10
6.59584e-10
6.56857e-10
6.54513e-10
6.52535e-10
6.50904e-10
6.496e-10
6.486e-10
6.47884e-10
6.47428e-10
6.4721e-10
6.27666e-10
6.24882e-10
6.21037e-10
6.16393e-10
6.11177e-10
6.0559e-10
5.99803e-10
5.93961e-10
5.88183e-10
5.82565e-10
5.77181e-10
5.7209e-10
5.67331e-10
5.62933e-10
5.58912e-10
5.55277e-10
5.52026e-10
5.49155e-10
5.46653e-10
5.44506e-10
5.42696e-10
5.41207e-10
5.40017e-10
5.39106e-10
5.38454e-10
5.38039e-10
5.37842e-10
5.2712e-10
5.2462e-10
5.21172e-10
5.17013e-10
5.12351e-10
5.07365e-10
5.02211e-10
4.97017e-10
4.91889e-10
4.86912e-10
4.82151e-10
4.77655e-10
4.7346e-10
4.69587e-10
4.66052e-10
4.62859e-10
4.60007e-10
4.5749e-10
4.55299e-10
4.5342e-10
4.51838e-10
4.50537e-10
4.49498e-10
4.48703e-10
4.48134e-10
4.47773e-10
4.47601e-10
4.41741e-10
4.39581e-10
4.36602e-10
4.33012e-10
4.2899e-10
4.24693e-10
4.20255e-10
4.15787e-10
4.1138e-10
4.07107e-10
4.03022e-10
3.99167e-10
3.95573e-10
3.92258e-10
3.89233e-10
3.86502e-10
3.84065e-10
3.81915e-10
3.80044e-10
3.78441e-10
3.77091e-10
3.75981e-10
3.75095e-10
3.74417e-10
3.73932e-10
3.73624e-10
3.73478e-10
3.70298e-10
3.68469e-10
3.65947e-10
3.62909e-10
3.59506e-10
3.55872e-10
3.52121e-10
3.48346e-10
3.44624e-10
3.41015e-10
3.37568e-10
3.34316e-10
3.31284e-10
3.28489e-10
3.25939e-10
3.23638e-10
3.21585e-10
3.19774e-10
3.18198e-10
3.16848e-10
3.15711e-10
3.14776e-10
3.14031e-10
3.1346e-10
3.13052e-10
3.12793e-10
3.12669e-10
3.10972e-10
3.0944e-10
3.07328e-10
3.04783e-10
3.01933e-10
2.98891e-10
2.9575e-10
2.9259e-10
2.89474e-10
2.86455e-10
2.8357e-10
2.80849e-10
2.78313e-10
2.75975e-10
2.73842e-10
2.71917e-10
2.702e-10
2.68685e-10
2.67367e-10
2.66238e-10
2.65288e-10
2.64506e-10
2.63882e-10
2.63405e-10
2.63063e-10
2.62847e-10
2.62743e-10
2.61869e-10
2.60591e-10
2.58831e-10
2.5671e-10
2.54335e-10
2.51799e-10
2.49181e-10
2.46547e-10
2.4395e-10
2.41433e-10
2.39029e-10
2.36761e-10
2.34647e-10
2.32698e-10
2.3092e-10
2.29315e-10
2.27883e-10
2.2662e-10
2.25521e-10
2.2458e-10
2.23787e-10
2.23135e-10
2.22615e-10
2.22217e-10
2.21932e-10
2.21751e-10
2.21665e-10
2.21246e-10
2.20183e-10
2.18717e-10
2.16952e-10
2.14975e-10
2.12865e-10
2.10685e-10
2.08493e-10
2.06331e-10
2.04235e-10
2.02233e-10
2.00344e-10
1.98583e-10
1.96959e-10
1.95478e-10
1.94141e-10
1.92948e-10
1.91896e-10
1.9098e-10
1.90195e-10
1.89534e-10
1.88991e-10
1.88557e-10
1.88225e-10
1.87988e-10
1.87837e-10
1.87765e-10
1.87595e-10
1.86709e-10
1.8549e-10
1.8402e-10
1.82374e-10
1.80616e-10
1.788e-10
1.76974e-10
1.75172e-10
1.73426e-10
1.71757e-10
1.70183e-10
1.68715e-10
1.67361e-10
1.66126e-10
1.65011e-10
1.64016e-10
1.63138e-10
1.62374e-10
1.61719e-10
1.61168e-10
1.60714e-10
1.60352e-10
1.60075e-10
1.59877e-10
1.59751e-10
1.59691e-10
1.59653e-10
1.58915e-10
1.57897e-10
1.56671e-10
1.55298e-10
1.53831e-10
1.52316e-10
1.50791e-10
1.49288e-10
1.4783e-10
1.46436e-10
1.45122e-10
1.43895e-10
1.42765e-10
1.41733e-10
1.40801e-10
1.39969e-10
1.39236e-10
1.38597e-10
1.38049e-10
1.37588e-10
1.37209e-10
1.36906e-10
1.36674e-10
1.36508e-10
1.36403e-10
1.36353e-10
1.36381e-10
1.35764e-10
1.34913e-10
1.33887e-10
1.32739e-10
1.31512e-10
1.30244e-10
1.28969e-10
1.2771e-10
1.2649e-10
1.25323e-10
1.24222e-10
1.23196e-10
1.22248e-10
1.21384e-10
1.20603e-10
1.19907e-10
1.19292e-10
1.18756e-10
1.18297e-10
1.17911e-10
1.17592e-10
1.17338e-10
1.17144e-10
1.17005e-10
1.16916e-10
1.16874e-10
1.16932e-10
1.16414e-10
1.15701e-10
1.14841e-10
1.13877e-10
1.12848e-10
1.11784e-10
1.10714e-10
1.09657e-10
1.08633e-10
1.07653e-10
1.06728e-10
1.05866e-10
1.0507e-10
1.04344e-10
1.03688e-10
1.03102e-10
1.02585e-10
1.02135e-10
1.01749e-10
1.01424e-10
1.01157e-10
1.00943e-10
1.0078e-10
1.00663e-10
1.00588e-10
1.00553e-10
1.00619e-10
1.00184e-10
9.95834e-11
9.88597e-11
9.80488e-11
9.71822e-11
9.6287e-11
9.53854e-11
9.44959e-11
9.36329e-11
9.28077e-11
9.20287e-11
9.13019e-11
9.06313e-11
9.00191e-11
8.94662e-11
8.89723e-11
8.85365e-11
8.81569e-11
8.78314e-11
8.75572e-11
8.73315e-11
8.71512e-11
8.70133e-11
8.69145e-11
8.68517e-11
8.68218e-11
8.68865e-11
8.65189e-11
8.60121e-11
8.54011e-11
8.47163e-11
8.39845e-11
8.32283e-11
8.24667e-11
8.17151e-11
8.09858e-11
8.02884e-11
7.96299e-11
7.90154e-11
7.84484e-11
7.79307e-11
7.7463e-11
7.70453e-11
7.66766e-11
7.63554e-11
7.608e-11
7.58479e-11
7.56569e-11
7.55044e-11
7.53876e-11
7.53039e-11
7.52508e-11
7.52255e-11
7.52832e-11
7.49719e-11
7.45426e-11
7.4025e-11
7.34448e-11
7.28247e-11
7.21838e-11
7.15383e-11
7.09011e-11
7.02827e-11
6.96913e-11
6.91328e-11
6.86116e-11
6.81306e-11
6.76913e-11
6.72944e-11
6.69399e-11
6.6627e-11
6.63544e-11
6.61206e-11
6.59236e-11
6.57614e-11
6.56319e-11
6.55327e-11
6.54617e-11
6.54165e-11
6.5395e-11
6.54437e-11
6.51792e-11
6.48143e-11
6.43743e-11
6.38812e-11
6.33539e-11
6.2809e-11
6.226e-11
6.1718e-11
6.1192e-11
6.06888e-11
6.02136e-11
5.977e-11
5.93606e-11
5.89866e-11
5.86488e-11
5.8347e-11
5.80805e-11
5.78484e-11
5.76493e-11
5.74815e-11
5.73434e-11
5.7233e-11
5.71486e-11
5.7088e-11
5.70496e-11
5.70312e-11
5.70705e-11
5.6845e-11
5.65339e-11
5.61587e-11
5.57381e-11
5.52883e-11
5.48235e-11
5.4355e-11
5.38926e-11
5.34436e-11
5.30141e-11
5.26085e-11
5.22298e-11
5.18801e-11
5.15608e-11
5.12723e-11
5.10145e-11
5.07869e-11
5.05886e-11
5.04185e-11
5.02752e-11
5.01571e-11
5.00629e-11
4.99907e-11
4.9939e-11
4.99061e-11
4.98904e-11
4.99209e-11
4.97279e-11
4.94618e-11
4.91408e-11
4.87809e-11
4.83961e-11
4.79983e-11
4.75974e-11
4.72015e-11
4.68171e-11
4.64494e-11
4.6102e-11
4.57776e-11
4.54782e-11
4.52046e-11
4.49575e-11
4.47366e-11
4.45416e-11
4.43717e-11
4.42259e-11
4.41031e-11
4.40019e-11
4.39211e-11
4.38593e-11
4.3815e-11
4.37868e-11
4.37734e-11
4.37959e-11
4.36303e-11
4.3402e-11
4.31265e-11
4.28177e-11
4.24874e-11
4.21459e-11
4.18016e-11
4.14617e-11
4.11316e-11
4.08158e-11
4.05174e-11
4.02388e-11
3.99815e-11
3.97465e-11
3.95341e-11
3.93443e-11
3.91767e-11
3.90307e-11
3.89054e-11
3.87998e-11
3.87129e-11
3.86434e-11
3.85903e-11
3.85522e-11
3.8528e-11
3.85164e-11
3.85322e-11
3.83897e-11
3.81932e-11
3.79561e-11
3.76902e-11
3.74059e-11
3.71118e-11
3.68154e-11
3.65227e-11
3.62384e-11
3.59663e-11
3.57092e-11
3.54692e-11
3.52475e-11
3.5045e-11
3.4862e-11
3.46984e-11
3.4554e-11
3.44281e-11
3.43201e-11
3.42291e-11
3.41542e-11
3.40943e-11
3.40485e-11
3.40156e-11
3.39947e-11
3.39848e-11
3.39949e-11
3.3872e-11
3.37023e-11
3.34977e-11
3.32682e-11
3.30227e-11
3.27687e-11
3.25128e-11
3.22599e-11
3.20144e-11
3.17793e-11
3.15572e-11
3.13498e-11
3.11583e-11
3.09833e-11
3.08251e-11
3.06837e-11
3.05589e-11
3.04501e-11
3.03568e-11
3.02781e-11
3.02133e-11
3.01616e-11
3.0122e-11
3.00936e-11
3.00755e-11
3.00669e-11
3.00725e-11
2.99661e-11
2.98193e-11
2.96421e-11
2.94434e-11
2.92309e-11
2.9011e-11
2.87893e-11
2.85704e-11
2.83577e-11
2.81541e-11
2.79617e-11
2.7782e-11
2.7616e-11
2.74644e-11
2.73273e-11
2.72048e-11
2.70966e-11
2.70023e-11
2.69214e-11
2.68532e-11
2.67971e-11
2.67522e-11
2.67179e-11
2.66933e-11
2.66777e-11
2.66702e-11
2.66722e-11
2.65799e-11
2.64524e-11
2.62987e-11
2.61262e-11
2.59417e-11
2.57508e-11
2.55583e-11
2.53681e-11
2.51834e-11
2.50066e-11
2.48394e-11
2.46833e-11
2.45391e-11
2.44074e-11
2.42883e-11
2.41818e-11
2.40878e-11
2.40059e-11
2.39356e-11
2.38764e-11
2.38276e-11
2.37886e-11
2.37587e-11
2.37374e-11
2.37238e-11
2.37173e-11
2.37166e-11
2.36363e-11
2.35254e-11
2.33916e-11
2.32415e-11
2.30809e-11
2.29147e-11
2.27471e-11
2.25815e-11
2.24207e-11
2.22667e-11
2.21211e-11
2.19852e-11
2.18596e-11
2.17448e-11
2.16411e-11
2.15483e-11
2.14664e-11
2.1395e-11
2.13338e-11
2.12822e-11
2.12397e-11
2.12057e-11
2.11797e-11
2.11611e-11
2.11492e-11
2.11436e-11
2.1141e-11
2.10709e-11
2.09742e-11
2.08574e-11
2.07264e-11
2.05863e-11
2.04413e-11
2.0295e-11
2.01505e-11
2.00101e-11
1.98756e-11
1.97485e-11
1.96298e-11
1.95201e-11
1.94199e-11
1.93293e-11
1.92483e-11
1.91768e-11
1.91144e-11
1.90609e-11
1.90158e-11
1.89787e-11
1.89491e-11
1.89264e-11
1.89101e-11
1.88997e-11
1.88948e-11
1.88909e-11
1.88296e-11
1.8745e-11
1.86429e-11
1.85283e-11
1.84057e-11
1.82789e-11
1.81509e-11
1.80244e-11
1.79016e-11
1.77839e-11
1.76726e-11
1.75687e-11
1.74727e-11
1.7385e-11
1.73056e-11
1.72347e-11
1.71721e-11
1.71175e-11
1.70706e-11
1.70312e-11
1.69987e-11
1.69727e-11
1.69528e-11
1.69386e-11
1.69295e-11
1.69252e-11
1.69205e-11
1.68668e-11
1.67926e-11
1.67031e-11
1.66026e-11
1.64951e-11
1.63839e-11
1.62716e-11
1.61607e-11
1.60529e-11
1.59497e-11
1.58521e-11
1.57609e-11
1.56766e-11
1.55996e-11
1.553e-11
1.54677e-11
1.54127e-11
1.53648e-11
1.53237e-11
1.52891e-11
1.52605e-11
1.52377e-11
1.52203e-11
1.52078e-11
1.51998e-11
1.5196e-11
1.51911e-11
1.51439e-11
1.50787e-11
1.5e-11
1.49117e-11
1.48172e-11
1.47194e-11
1.46207e-11
1.45232e-11
1.44284e-11
1.43376e-11
1.42518e-11
1.41715e-11
1.40974e-11
1.40297e-11
1.39684e-11
1.39136e-11
1.38652e-11
1.38231e-11
1.37869e-11
1.37564e-11
1.37313e-11
1.37112e-11
1.36959e-11
1.36849e-11
1.36779e-11
1.36745e-11
1.36697e-11
1.36281e-11
1.35707e-11
1.35014e-11
1.34236e-11
1.33404e-11
1.32542e-11
1.31672e-11
1.30812e-11
1.29977e-11
1.29176e-11
1.28419e-11
1.27712e-11
1.27058e-11
1.2646e-11
1.2592e-11
1.25437e-11
1.2501e-11
1.24638e-11
1.24319e-11
1.2405e-11
1.23828e-11
1.23651e-11
1.23516e-11
1.23419e-11
1.23357e-11
1.23327e-11
1.23284e-11
1.22917e-11
1.2241e-11
1.21798e-11
1.21111e-11
1.20376e-11
1.19614e-11
1.18846e-11
1.18086e-11
1.17348e-11
1.1664e-11
1.15971e-11
1.15346e-11
1.14768e-11
1.14239e-11
1.13762e-11
1.13334e-11
1.12957e-11
1.12628e-11
1.12345e-11
1.12107e-11
1.11911e-11
1.11755e-11
1.11635e-11
1.11549e-11
1.11494e-11
1.11468e-11
1.11432e-11
1.11107e-11
1.10659e-11
1.10117e-11
1.09509e-11
1.08858e-11
1.08184e-11
1.07503e-11
1.0683e-11
1.06176e-11
1.05549e-11
1.04956e-11
1.04402e-11
1.03889e-11
1.03421e-11
1.02997e-11
1.02618e-11
1.02283e-11
1.01992e-11
1.01741e-11
1.0153e-11
1.01356e-11
1.01217e-11
1.01111e-11
1.01035e-11
1.00986e-11
1.00963e-11
1.00937e-11
1.00649e-11
1.00251e-11
9.97703e-12
9.92306e-12
9.86526e-12
9.8054e-12
9.74498e-12
9.68521e-12
9.62709e-12
9.57139e-12
9.5187e-12
9.46943e-12
9.42389e-12
9.38224e-12
9.34456e-12
9.31086e-12
9.28109e-12
9.25512e-12
9.23284e-12
9.21405e-12
9.19858e-12
9.18622e-12
9.17676e-12
9.16997e-12
9.16566e-12
9.16361e-12
9.16228e-12
9.13663e-12
9.10122e-12
9.05845e-12
9.01042e-12
8.95897e-12
8.90568e-12
8.85188e-12
8.79865e-12
8.74687e-12
8.69724e-12
8.65028e-12
8.60637e-12
8.56576e-12
8.52861e-12
8.49501e-12
8.46495e-12
8.43838e-12
8.41522e-12
8.39533e-12
8.37856e-12
8.36475e-12
8.35372e-12
8.34527e-12
8.33921e-12
8.33536e-12
8.33353e-12
8.33365e-12
8.31077e-12
8.27917e-12
8.241e-12
8.19813e-12
8.1522e-12
8.10462e-12
8.05656e-12
8.00901e-12
7.96274e-12
7.91838e-12
7.87639e-12
7.83712e-12
7.8008e-12
7.76756e-12
7.73749e-12
7.71058e-12
7.6868e-12
7.66606e-12
7.64824e-12
7.63323e-12
7.62086e-12
7.61097e-12
7.6034e-12
7.59797e-12
7.59453e-12
7.59288e-12
7.59462e-12
7.57414e-12
7.54586e-12
7.51169e-12
7.4733e-12
7.43217e-12
7.38954e-12
7.34647e-12
7.30384e-12
7.26235e-12
7.22256e-12
7.18489e-12
7.14964e-12
7.11703e-12
7.08718e-12
7.06017e-12
7.03599e-12
7.01462e-12
6.99597e-12
6.97996e-12
6.96645e-12
6.95532e-12
6.94643e-12
6.93962e-12
6.93474e-12
6.93164e-12
6.93016e-12
6.93368e-12
6.91528e-12
6.88988e-12
6.85918e-12
6.82468e-12
6.78769e-12
6.74935e-12
6.71061e-12
6.67225e-12
6.6349e-12
6.59906e-12
6.56512e-12
6.53335e-12
6.50395e-12
6.47704e-12
6.45267e-12
6.43085e-12
6.41156e-12
6.39472e-12
6.38026e-12
6.36806e-12
6.358e-12
6.34997e-12
6.34381e-12
6.3394e-12
6.3366e-12
6.33526e-12
6.34069e-12
6.32411e-12
6.30119e-12
6.27349e-12
6.24235e-12
6.20896e-12
6.17433e-12
6.13932e-12
6.10464e-12
6.07086e-12
6.03844e-12
6.00772e-12
5.97895e-12
5.95232e-12
5.92792e-12
5.90583e-12
5.88604e-12
5.86854e-12
5.85326e-12
5.84013e-12
5.82905e-12
5.81992e-12
5.81262e-12
5.80703e-12
5.80302e-12
5.80047e-12
5.79926e-12
5.80673e-12
5.79169e-12
5.77092e-12
5.7458e-12
5.71756e-12
5.68726e-12
5.65582e-12
5.62402e-12
5.59251e-12
5.5618e-12
5.5323e-12
5.50434e-12
5.47815e-12
5.45388e-12
5.43165e-12
5.4115e-12
5.39345e-12
5.37748e-12
5.36353e-12
5.35154e-12
5.34142e-12
5.33308e-12
5.32641e-12
5.3213e-12
5.31764e-12
5.31531e-12
5.3142e-12
5.32379e-12
5.31009e-12
5.29115e-12
5.26824e-12
5.24247e-12
5.21482e-12
5.1861e-12
5.15705e-12
5.12823e-12
5.10013e-12
5.07313e-12
5.04752e-12
5.02351e-12
5.00126e-12
4.98086e-12
4.96237e-12
4.94579e-12
4.93112e-12
4.9183e-12
4.90727e-12
4.89797e-12
4.8903e-12
4.88416e-12
4.87946e-12
4.87609e-12
4.87394e-12
4.87292e-12
4.88471e-12
4.87214e-12
4.85476e-12
4.83372e-12
4.81005e-12
4.78462e-12
4.75821e-12
4.73147e-12
4.70493e-12
4.67904e-12
4.65414e-12
4.6305e-12
4.60833e-12
4.58777e-12
4.56891e-12
4.55181e-12
4.53647e-12
4.52288e-12
4.51101e-12
4.5008e-12
4.49217e-12
4.48506e-12
4.47937e-12
4.47501e-12
4.47189e-12
4.4699e-12
4.46895e-12
4.48297e-12
4.47135e-12
4.45527e-12
4.4358e-12
4.41387e-12
4.39031e-12
4.36583e-12
4.34101e-12
4.31636e-12
4.2923e-12
4.26914e-12
4.24714e-12
4.2265e-12
4.20734e-12
4.18975e-12
4.17379e-12
4.15948e-12
4.14679e-12
4.1357e-12
4.12616e-12
4.1181e-12
4.11145e-12
4.10613e-12
4.10206e-12
4.09913e-12
4.09728e-12
4.09639e-12
4.11265e-12
4.1018e-12
4.0868e-12
4.06861e-12
4.04812e-12
4.02609e-12
4.00317e-12
3.97993e-12
3.95683e-12
3.93426e-12
3.91252e-12
3.89186e-12
3.87245e-12
3.85443e-12
3.83788e-12
3.82285e-12
3.80936e-12
3.79741e-12
3.78695e-12
3.77796e-12
3.77036e-12
3.76409e-12
3.75908e-12
3.75523e-12
3.75248e-12
3.75073e-12
3.7499e-12
3.76836e-12
3.75814e-12
3.74399e-12
3.72685e-12
3.70751e-12
3.68671e-12
3.66505e-12
3.64307e-12
3.6212e-12
3.59982e-12
3.57922e-12
3.55962e-12
3.5412e-12
3.52408e-12
3.50836e-12
3.49408e-12
3.48125e-12
3.46988e-12
3.45994e-12
3.45138e-12
3.44416e-12
3.4382e-12
3.43343e-12
3.42978e-12
3.42716e-12
3.4255e-12
3.42471e-12
3.4453e-12
3.43558e-12
3.42211e-12
3.40578e-12
3.38736e-12
3.36751e-12
3.34685e-12
3.32585e-12
3.30496e-12
3.28451e-12
3.26479e-12
3.24603e-12
3.22838e-12
3.21198e-12
3.19691e-12
3.18321e-12
3.17091e-12
3.16001e-12
3.15048e-12
3.14228e-12
3.13535e-12
3.12964e-12
3.12508e-12
3.12159e-12
3.11909e-12
3.1175e-12
3.11675e-12
3.13933e-12
3.12999e-12
3.11705e-12
3.10134e-12
3.08361e-12
3.06451e-12
3.0446e-12
3.02435e-12
3.00419e-12
2.98445e-12
2.9654e-12
2.94726e-12
2.93019e-12
2.91433e-12
2.89975e-12
2.8865e-12
2.8746e-12
2.86405e-12
2.85484e-12
2.84692e-12
2.84023e-12
2.83472e-12
2.83033e-12
2.82697e-12
2.82456e-12
2.82304e-12
2.82232e-12
2.84674e-12
2.83766e-12
2.82509e-12
2.80981e-12
2.79255e-12
2.77394e-12
2.7545e-12
2.73472e-12
2.71498e-12
2.69561e-12
2.67688e-12
2.65898e-12
2.64209e-12
2.62635e-12
2.61185e-12
2.59866e-12
2.58681e-12
2.5763e-12
2.56711e-12
2.5592e-12
2.55253e-12
2.54704e-12
2.54266e-12
2.53931e-12
2.53692e-12
2.53541e-12
2.53469e-12
2.56221e-12
2.55317e-12
2.54064e-12
2.52542e-12
2.50822e-12
2.48966e-12
2.47029e-12
2.45058e-12
2.43093e-12
2.41167e-12
2.39307e-12
2.37534e-12
2.35867e-12
2.34316e-12
2.32891e-12
2.31597e-12
2.30436e-12
2.29409e-12
2.28512e-12
2.27743e-12
2.27095e-12
2.26563e-12
2.26139e-12
2.25816e-12
2.25586e-12
2.25441e-12
2.25372e-12
2.2832e-12
2.27436e-12
2.26211e-12
2.24724e-12
2.23045e-12
2.21234e-12
2.19346e-12
2.17426e-12
2.15514e-12
2.13643e-12
2.11838e-12
2.10122e-12
2.08509e-12
2.07013e-12
2.05641e-12
2.04398e-12
2.03285e-12
2.02303e-12
2.01448e-12
2.00717e-12
2.00104e-12
1.99601e-12
1.99203e-12
1.989e-12
1.98686e-12
1.98551e-12
1.98487e-12
2.01475e-12
2.00626e-12
1.99451e-12
1.98025e-12
1.96416e-12
1.94683e-12
1.92879e-12
1.91047e-12
1.89225e-12
1.87446e-12
1.85734e-12
1.84109e-12
1.82586e-12
1.81177e-12
1.79889e-12
1.78726e-12
1.77689e-12
1.76777e-12
1.75987e-12
1.75314e-12
1.74752e-12
1.74295e-12
1.73934e-12
1.73662e-12
1.73471e-12
1.73351e-12
1.73295e-12
1.7614e-12
1.75345e-12
1.74244e-12
1.72909e-12
1.71406e-12
1.6979e-12
1.68111e-12
1.66411e-12
1.64724e-12
1.63082e-12
1.61507e-12
1.60018e-12
1.58628e-12
1.57348e-12
1.56183e-12
1.55137e-12
1.5421e-12
1.534e-12
1.52704e-12
1.52115e-12
1.51628e-12
1.51235e-12
1.50928e-12
1.507e-12
1.50541e-12
1.50443e-12
1.50398e-12
1.5286e-12
1.5214e-12
1.51144e-12
1.49941e-12
1.48588e-12
1.47139e-12
1.45637e-12
1.44123e-12
1.42629e-12
1.4118e-12
1.39799e-12
1.38501e-12
1.37298e-12
1.36199e-12
1.35207e-12
1.34325e-12
1.33552e-12
1.32884e-12
1.32317e-12
1.31845e-12
1.31461e-12
1.31157e-12
1.30925e-12
1.30755e-12
1.30641e-12
1.30572e-12
1.30542e-12
1.32289e-12
1.31671e-12
1.3082e-12
1.29793e-12
1.28645e-12
1.2742e-12
1.2616e-12
1.24898e-12
1.23663e-12
1.22476e-12
1.21356e-12
1.20315e-12
1.19364e-12
1.18508e-12
1.17749e-12
1.17087e-12
1.16519e-12
1.16042e-12
1.15649e-12
1.15333e-12
1.15087e-12
1.14901e-12
1.14768e-12
1.14678e-12
1.14623e-12
1.14594e-12
1.14583e-12
1.15151e-12
1.14666e-12
1.14001e-12
1.13204e-12
1.1232e-12
1.11388e-12
1.10441e-12
1.09505e-12
1.08605e-12
1.07758e-12
1.06977e-12
1.06272e-12
1.05648e-12
1.05109e-12
1.04653e-12
1.04278e-12
1.03979e-12
1.03752e-12