/*--------------------------------*- C++ -*----------------------------------*\
| =========                 |                                                 |
| \\      /  F ield         | OpenFOAM: The Open Source CFD Toolbox           |
|  \\    /   O peration     | Version:  2106                                  |
|   \\  /    A nd           | Website:  www.openfoam.com                      |
|    \\/     M anipulation  |                                                 |
\*---------------------------------------------------------------------------*/
FoamFile
{
    version     2.0;
    format      ascii;
    arch        "LSB;label=32;scalar=64";
    class       volScalarField;
    location    "49.99987";
    object      H;
}
// * * * * * * * * * * * * * * * * * * * * * * * * * * * * * * * * * * * * * //

dimensions      [0 0 0 0 0 0 0];

internalField   nonuniform List<scalar> 
3360
(
3.3135e-24
3.42015e-24
3.56855e-24
3.75008e-24
3.95717e-24
4.18303e-24
4.42151e-24
4.66709e-24
4.91482e-24
5.16036e-24
5.39993e-24
5.63033e-24
5.84891e-24
6.05356e-24
6.24269e-24
6.41516e-24
6.5703e-24
6.7078e-24
6.82772e-24
6.93042e-24
7.01652e-24
7.08684e-24
7.14238e-24
7.18428e-24
7.21375e-24
7.23209e-24
7.2406e-24
1.45365e-23
1.50709e-23
1.5825e-23
1.6764e-23
1.78594e-23
1.90859e-23
2.04211e-23
2.18445e-23
2.33371e-23
2.48807e-23
2.64582e-23
2.80525e-23
2.96473e-23
3.12259e-23
3.27724e-23
3.42707e-23
3.57055e-23
3.70617e-23
3.83247e-23
3.94811e-23
4.05185e-23
4.14259e-23
4.21939e-23
4.2815e-23
4.32838e-23
4.35968e-23
4.37529e-23
4.56135e-23
4.76157e-23
5.04609e-23
5.40361e-23
5.82477e-23
6.30115e-23
6.82475e-23
7.38767e-23
7.98193e-23
8.5994e-23
9.23172e-23
9.87065e-23
1.0508e-22
1.11356e-22
1.17458e-22
1.2331e-22
1.28844e-22
1.33998e-22
1.38719e-22
1.42962e-22
1.46694e-22
1.49889e-22
1.52534e-22
1.54625e-22
1.56166e-22
1.57171e-22
1.57661e-22
1.32855e-22
1.39455e-22
1.48897e-22
1.60843e-22
1.75011e-22
1.91136e-22
2.08954e-22
2.28191e-22
2.4856e-22
2.69757e-22
2.91472e-22
3.13386e-22
3.35183e-22
3.56557e-22
3.77216e-22
3.96892e-22
4.15348e-22
4.32381e-22
4.47831e-22
4.61575e-22
4.73533e-22
4.83664e-22
4.9196e-22
4.98449e-22
5.03184e-22
5.06242e-22
5.07717e-22
3.88221e-22
4.09048e-22
4.38899e-22
4.76754e-22
5.21749e-22
5.73052e-22
6.29809e-22
6.91115e-22
7.56002e-22
8.23455e-22
8.92419e-22
9.61832e-22
1.03065e-21
1.09789e-21
1.16261e-21
1.224e-21
1.28135e-21
1.33406e-21
1.38168e-21
1.42389e-21
1.46048e-21
1.49137e-21
1.5166e-21
1.53627e-21
1.55059e-21
1.55981e-21
1.56425e-21
1.14509e-21
1.20908e-21
1.30092e-21
1.41749e-21
1.55613e-21
1.71425e-21
1.8892e-21
2.07811e-21
2.27796e-21
2.48555e-21
2.69757e-21
2.91071e-21
3.12173e-21
3.32756e-21
3.52538e-21
3.71267e-21
3.88731e-21
4.04755e-21
4.19207e-21
4.31993e-21
4.4306e-21
4.52389e-21
4.59996e-21
4.6592e-21
4.70226e-21
4.72997e-21
4.74329e-21
3.40385e-21
3.59853e-21
3.87792e-21
4.23258e-21
4.6544e-21
5.13545e-21
5.66751e-21
6.24181e-21
6.84899e-21
7.47925e-21
8.12247e-21
8.76857e-21
9.40772e-21
1.00306e-20
1.06288e-20
1.11948e-20
1.17222e-20
1.22058e-20
1.26418e-20
1.30273e-20
1.33609e-20
1.36421e-20
1.38713e-20
1.40498e-20
1.41795e-20
1.4263e-20
1.43031e-20
1.01593e-20
1.07465e-20
1.15898e-20
1.26608e-20
1.39352e-20
1.53891e-20
1.69977e-20
1.87344e-20
2.05708e-20
2.24771e-20
2.44228e-20
2.63771e-20
2.83104e-20
3.01945e-20
3.20037e-20
3.37154e-20
3.53102e-20
3.67727e-20
3.80909e-20
3.92567e-20
4.02655e-20
4.11159e-20
4.18091e-20
4.23492e-20
4.27419e-20
4.29947e-20
4.31164e-20
3.04444e-20
3.22178e-20
3.47647e-20
3.80001e-20
4.1851e-20
4.62456e-20
5.11091e-20
5.63614e-20
6.1917e-20
6.7686e-20
7.35759e-20
7.94943e-20
8.53511e-20
9.10615e-20
9.65476e-20
1.01741e-19
1.06582e-19
1.11025e-19
1.15033e-19
1.1858e-19
1.21653e-19
1.24246e-19
1.26362e-19
1.28013e-19
1.29216e-19
1.29992e-19
1.30366e-19
9.14698e-20
9.68305e-20
1.04534e-19
1.14327e-19
1.25992e-19
1.39316e-19
1.54075e-19
1.70029e-19
1.86923e-19
2.04484e-19
2.22433e-19
2.4049e-19
2.5838e-19
2.75844e-19
2.92643e-19
3.08565e-19
3.2343e-19
3.3709e-19
3.4943e-19
3.60371e-19
3.69864e-19
3.77892e-19
3.8446e-19
3.89598e-19
3.93352e-19
3.95782e-19
3.9696e-19
2.76156e-19
2.92471e-19
3.1593e-19
3.45779e-19
3.81372e-19
4.22077e-19
4.67232e-19
5.16121e-19
5.67973e-19
6.2197e-19
6.77263e-19
7.32996e-19
7.88328e-19
8.42456e-19
8.94641e-19
9.44218e-19
9.90616e-19
1.03336e-18
1.07209e-18
1.10654e-18
1.13653e-18
1.16198e-18
1.18289e-18
1.19933e-18
1.21141e-18
1.21928e-18
1.22312e-18
8.38933e-19
8.89033e-19
9.61164e-19
1.05309e-18
1.16292e-18
1.28881e-18
1.4288e-18
1.58078e-18
1.74242e-18
1.91126e-18
2.0847e-18
2.2601e-18
2.43482e-18
2.60634e-18
2.77229e-18
2.93055e-18
3.07924e-18
3.2168e-18
3.34197e-18
3.45382e-18
3.55171e-18
3.63527e-18
3.70437e-18
3.75908e-18
3.79961e-18
3.82626e-18
3.8394e-18
2.57485e-18
2.73119e-18
2.95667e-18
3.24471e-18
3.58981e-18
3.98666e-18
4.42958e-18
4.91231e-18
5.42791e-18
5.96886e-18
6.52711e-18
7.09435e-18
7.66223e-18
8.22256e-18
8.76758e-18
9.29018e-18
9.78398e-18
1.02436e-17
1.06644e-17
1.10431e-17
1.13769e-17
1.16641e-17
1.19037e-17
1.20953e-17
1.22388e-17
1.23343e-17
1.2382e-17
8.01744e-18
8.516e-18
9.23702e-18
1.01614e-17
1.12736e-17
1.25589e-17
1.4001e-17
1.55819e-17
1.72807e-17
1.90743e-17
2.09375e-17
2.28434e-17
2.47646e-17
2.66735e-17
2.85436e-17
3.03499e-17
3.20697e-17
3.36827e-17
3.5172e-17
3.65234e-17
3.77258e-17
3.87706e-17
3.96515e-17
4.03638e-17
4.09038e-17
4.1268e-17
4.14527e-17
2.55203e-17
2.71616e-17
2.9544e-17
3.2613e-17
3.63274e-17
4.06479e-17
4.55307e-17
5.0924e-17
5.67663e-17
6.29857e-17
6.95009e-17
7.62229e-17
8.30577e-17
8.99087e-17
9.668e-17
1.03279e-16
1.0962e-16
1.15623e-16
1.21218e-16
1.26347e-16
1.30957e-16
1.35007e-16
1.38461e-16
1.41287e-16
1.43456e-16
1.44938e-16
1.45699e-16
8.37832e-17
8.94147e-17
9.76294e-17
1.0828e-16
1.21269e-16
1.36506e-16
1.53884e-16
1.73266e-16
1.94471e-16
2.17274e-16
2.41408e-16
2.66564e-16
2.92403e-16
3.18568e-16
3.44689e-16
3.70404e-16
3.95359e-16
4.19224e-16
4.41696e-16
4.62503e-16
4.81403e-16
4.9818e-16
5.1264e-16
5.24598e-16
5.33875e-16
5.4028e-16
5.43603e-16
2.87278e-16
3.07677e-16
3.37614e-16
3.76731e-16
4.24871e-16
4.81914e-16
5.47674e-16
6.21831e-16
7.03882e-16
7.9312e-16
8.88623e-16
9.89271e-16
1.09377e-15
1.20071e-15
1.30858e-15
1.41583e-15
1.52094e-15
1.62244e-15
1.71893e-15
1.8091e-15
1.89175e-15
1.96578e-15
2.03013e-15
2.0838e-15
2.12575e-15
2.15492e-15
2.17015e-15
1.04396e-15
1.12291e-15
1.23957e-15
1.39333e-15
1.58447e-15
1.81343e-15
2.08039e-15
2.38492e-15
2.72576e-15
3.10065e-15
3.50625e-15
3.93823e-15
4.39129e-15
4.85938e-15
5.3359e-15
5.81388e-15
6.28627e-15
6.74606e-15
7.18647e-15
7.60104e-15
7.98362e-15
8.3284e-15
8.62981e-15
8.88238e-15
9.08064e-15
9.21894e-15
9.29129e-15
4.08497e-15
4.41484e-15
4.90559e-15
5.55798e-15
6.37681e-15
7.36778e-15
8.53536e-15
9.88113e-15
1.14025e-14
1.30919e-14
1.49362e-14
1.6917e-14
1.90108e-14
2.11897e-14
2.34227e-14
2.56765e-14
2.79166e-14
3.01083e-14
3.22174e-14
3.42109e-14
3.60572e-14
3.77258e-14
3.91875e-14
4.0414e-14
4.1377e-14
4.20484e-14
4.2399e-14
1.74388e-14
1.89327e-14
2.11678e-14
2.41599e-14
2.79441e-14
3.25597e-14
3.80398e-14
4.44019e-14
5.16423e-14
5.97306e-14
6.86081e-14
7.81871e-14
8.83537e-14
9.8971e-14
1.09884e-13
1.20927e-13
1.31924e-13
1.42701e-13
1.53083e-13
1.62901e-13
1.71994e-13
1.80206e-13
1.8739e-13
1.93404e-13
1.98112e-13
2.01381e-13
2.0308e-13
8.1616e-14
8.89075e-14
9.98527e-14
1.1456e-13
1.33233e-13
1.5609e-13
1.83311e-13
2.1499e-13
2.51103e-13
2.91489e-13
3.35834e-13
3.83679e-13
4.3443e-13
4.87379e-13
5.41733e-13
5.9664e-13
6.51218e-13
7.04579e-13
7.55854e-13
8.04201e-13
8.48823e-13
8.88967e-13
9.23928e-13
9.53048e-13
9.75713e-13
9.91349e-13
9.99418e-13
4.14305e-13
4.51954e-13
5.08483e-13
5.84439e-13
6.80817e-13
7.98647e-13
9.38703e-13
1.10128e-12
1.28603e-12
1.49188e-12
1.71699e-12
1.9588e-12
2.2141e-12
2.47919e-12
2.74995e-12
3.02207e-12
3.29114e-12
3.55279e-12
3.80281e-12
4.03717e-12
4.25214e-12
4.44428e-12
4.61046e-12
4.74787e-12
4.85399e-12
4.92659e-12
4.96374e-12
2.21497e-12
2.41471e-12
2.714e-12
3.11506e-12
3.62223e-12
4.23985e-12
4.97074e-12
5.81515e-12
6.76999e-12
7.82848e-12
8.98009e-12
1.02108e-11
1.15035e-11
1.28389e-11
1.41958e-11
1.55524e-11
1.68865e-11
1.81766e-11
1.94019e-11
2.05433e-11
2.15831e-11
2.25058e-11
2.32975e-11
2.39466e-11
2.44435e-11
2.47801e-11
2.49506e-11
1.19558e-11
1.30076e-11
1.458e-11
1.66811e-11
1.93303e-11
2.25473e-11
2.63447e-11
3.07231e-11
3.56673e-11
4.11446e-11
4.7104e-11
5.34777e-11
6.0182e-11
6.71207e-11
7.4188e-11
8.1272e-11
8.82577e-11
9.50308e-11
1.0148e-10
1.07501e-10
1.12996e-10
1.17878e-10
1.2207e-10
1.25506e-10
1.28133e-10
1.2991e-10
1.30808e-10
6.28913e-11
6.82074e-11
7.61306e-11
8.66795e-11
9.99285e-11
1.15956e-10
1.34812e-10
1.56489e-10
1.80914e-10
2.07928e-10
2.37283e-10
2.68644e-10
3.01588e-10
3.35617e-10
3.70177e-10
4.04678e-10
4.38517e-10
4.71108e-10
5.01903e-10
5.30405e-10
5.56185e-10
5.78881e-10
5.98199e-10
6.13907e-10
6.25834e-10
6.33853e-10
6.37885e-10
3.18634e-10
3.43301e-10
3.79652e-10
4.27283e-10
4.85857e-10
5.54826e-10
6.33256e-10
7.19744e-10
8.12439e-10
9.09165e-10
1.00761e-09
1.10553e-09
1.20096e-09
1.29228e-09
1.3783e-09
1.45817e-09
1.53136e-09
1.59755e-09
1.65661e-09
1.70853e-09
1.75338e-09
1.79127e-09
1.82236e-09
1.84684e-09
1.86489e-09
1.87671e-09
1.88251e-09
1.41446e-09
1.49219e-09
1.60198e-09
1.73818e-09
1.89544e-09
2.06855e-09
2.25258e-09
2.44305e-09
2.63598e-09
2.82797e-09
3.01619e-09
3.19827e-09
3.37205e-09
3.53585e-09
3.6884e-09
3.82879e-09
3.95641e-09
4.07094e-09
4.1723e-09
4.26058e-09
4.33602e-09
4.39902e-09
4.45004e-09
4.48961e-09
4.51834e-09
4.53685e-09
4.54578e-09
4.13771e-09
4.29549e-09
4.51737e-09
4.79168e-09
5.10798e-09
5.45658e-09
5.82846e-09
6.21522e-09
6.60919e-09
7.00339e-09
7.39166e-09
7.76864e-09
8.12976e-09
8.47127e-09
8.7902e-09
9.0843e-09
9.352e-09
9.59236e-09
9.80496e-09
9.98985e-09
1.01475e-08
1.02787e-08
1.03845e-08
1.04661e-08
1.0525e-08
1.05626e-08
1.05807e-08
9.60728e-09
9.94204e-09
1.04147e-08
1.10022e-08
1.16845e-08
1.24425e-08
1.32588e-08
1.41166e-08
1.50001e-08
1.58946e-08
1.67866e-08
1.76638e-08
1.85151e-08
1.93309e-08
2.0103e-08
2.08244e-08
2.14898e-08
2.20949e-08
2.2637e-08
2.31143e-08
2.35261e-08
2.38727e-08
2.41554e-08
2.43759e-08
2.45367e-08
2.46406e-08
2.46909e-08
1.97787e-08
2.04837e-08
2.14848e-08
2.27393e-08
2.42102e-08
2.58637e-08
2.76678e-08
2.95917e-08
3.16052e-08
3.36792e-08
3.57854e-08
3.78965e-08
3.99868e-08
4.20322e-08
4.40089e-08
4.58947e-08
4.76698e-08
4.93169e-08
5.08214e-08
5.21717e-08
5.33586e-08
5.43758e-08
5.52195e-08
5.58885e-08
5.63839e-08
5.67087e-08
5.68678e-08
3.69502e-08
3.83155e-08
4.02637e-08
4.27211e-08
4.56264e-08
4.89253e-08
5.2563e-08
5.64843e-08
6.0634e-08
6.49564e-08
6.93951e-08
7.3893e-08
7.83933e-08
8.28399e-08
8.71784e-08
9.13572e-08
9.53278e-08
9.90463e-08
1.02474e-07
1.05576e-07
1.08326e-07
1.10703e-07
1.12689e-07
1.14276e-07
1.1546e-07
1.16241e-07
1.16626e-07
6.35314e-08
6.5825e-08
6.90958e-08
7.32173e-08
7.80828e-08
8.35944e-08
8.96585e-08
9.61818e-08
1.03071e-07
1.1023e-07
1.17565e-07
1.2498e-07
1.32379e-07
1.3967e-07
1.46765e-07
1.53581e-07
1.6004e-07
1.66076e-07
1.71626e-07
1.7664e-07
1.81076e-07
1.84902e-07
1.88096e-07
1.90643e-07
1.92539e-07
1.93786e-07
1.94397e-07
1.00723e-07
1.03887e-07
1.08373e-07
1.13983e-07
1.20548e-07
1.27909e-07
1.35918e-07
1.44432e-07
1.5331e-07
1.62418e-07
1.71623e-07
1.80802e-07
1.89834e-07
1.9861e-07
2.07027e-07
2.14994e-07
2.2243e-07
2.29262e-07
2.35432e-07
2.40918e-07
2.45706e-07
2.49787e-07
2.53159e-07
2.55825e-07
2.57796e-07
2.59088e-07
2.59721e-07
1.45488e-07
1.49018e-07
1.5398e-07
1.60117e-07
1.67199e-07
1.75018e-07
1.83381e-07
1.92109e-07
2.01035e-07
2.10002e-07
2.18867e-07
2.27497e-07
2.35773e-07
2.43638e-07
2.51044e-07
2.57947e-07
2.64314e-07
2.70114e-07
2.75327e-07
2.7994e-07
2.83946e-07
2.87343e-07
2.90136e-07
2.92334e-07
2.93952e-07
2.95008e-07
2.95524e-07
1.89427e-07
1.92585e-07
1.96973e-07
2.02311e-07
2.08347e-07
2.14848e-07
2.21614e-07
2.28524e-07
2.3546e-07
2.42322e-07
2.4902e-07
2.55479e-07
2.6164e-07
2.67454e-07
2.72885e-07
2.77906e-07
2.82496e-07
2.86643e-07
2.90342e-07
2.93589e-07
2.96389e-07
2.98748e-07
3.00676e-07
3.02186e-07
3.03291e-07
3.04009e-07
3.04358e-07
2.21173e-07
2.23379e-07
2.26429e-07
2.30117e-07
2.34266e-07
2.38721e-07
2.43349e-07
2.48042e-07
2.52709e-07
2.57277e-07
2.61686e-07
2.65893e-07
2.69861e-07
2.73567e-07
2.76992e-07
2.80127e-07
2.82965e-07
2.85506e-07
2.87753e-07
2.89709e-07
2.91383e-07
2.92784e-07
2.93921e-07
2.94807e-07
2.95451e-07
2.95868e-07
2.9607e-07
2.37784e-07
2.39131e-07
2.40984e-07
2.43209e-07
2.4569e-07
2.4833e-07
2.51044e-07
2.53765e-07
2.56437e-07
2.59019e-07
2.6148e-07
2.63798e-07
2.65956e-07
2.67947e-07
2.69765e-07
2.7141e-07
2.72884e-07
2.74191e-07
2.75335e-07
2.76323e-07
2.77162e-07
2.77859e-07
2.78422e-07
2.78857e-07
2.79173e-07
2.79376e-07
2.79475e-07
2.4223e-07
2.42893e-07
2.43795e-07
2.44867e-07
2.46047e-07
2.47281e-07
2.48527e-07
2.49752e-07
2.50931e-07
2.52046e-07
2.53085e-07
2.54043e-07
2.54915e-07
2.55703e-07
2.56407e-07
2.57031e-07
2.5758e-07
2.58057e-07
2.58469e-07
2.58819e-07
2.59113e-07
2.59354e-07
2.59546e-07
2.59694e-07
2.59801e-07
2.59869e-07
2.59902e-07
2.38037e-07
2.38215e-07
2.3845e-07
2.38717e-07
2.38993e-07
2.3926e-07
2.39507e-07
2.39725e-07
2.39908e-07
2.40054e-07
2.40166e-07
2.40245e-07
2.40295e-07
2.4032e-07
2.40325e-07
2.40314e-07
2.40292e-07
2.40263e-07
2.4023e-07
2.40195e-07
2.40161e-07
2.40131e-07
2.40104e-07
2.40082e-07
2.40065e-07
2.40055e-07
2.40049e-07
2.28452e-07
2.28322e-07
2.28133e-07
2.27891e-07
2.27601e-07
2.27267e-07
2.26898e-07
2.26498e-07
2.26077e-07
2.25641e-07
2.252e-07
2.24759e-07
2.24326e-07
2.23908e-07
2.23509e-07
2.23135e-07
2.22788e-07
2.22472e-07
2.22188e-07
2.21937e-07
2.21721e-07
2.21539e-07
2.21391e-07
2.21276e-07
2.21191e-07
2.21137e-07
2.21111e-07
2.15975e-07
2.15667e-07
2.15235e-07
2.14703e-07
2.14091e-07
2.13419e-07
2.12704e-07
2.11962e-07
2.11208e-07
2.10455e-07
2.09714e-07
2.08994e-07
2.08305e-07
2.07652e-07
2.07042e-07
2.06477e-07
2.05962e-07
2.05498e-07
2.05086e-07
2.04725e-07
2.04417e-07
2.04158e-07
2.03949e-07
2.03786e-07
2.03668e-07
2.03591e-07
2.03555e-07
2.0231e-07
2.01912e-07
2.01357e-07
2.00679e-07
1.99908e-07
1.99069e-07
1.98186e-07
1.97279e-07
1.96367e-07
1.95465e-07
1.94584e-07
1.93737e-07
1.92931e-07
1.92173e-07
1.91469e-07
1.90821e-07
1.90233e-07
1.89705e-07
1.89238e-07
1.88831e-07
1.88483e-07
1.88193e-07
1.87958e-07
1.87775e-07
1.87643e-07
1.87558e-07
1.87517e-07
1.88518e-07
1.88084e-07
1.87482e-07
1.86749e-07
1.85918e-07
1.85019e-07
1.84076e-07
1.83113e-07
1.82149e-07
1.81198e-07
1.80275e-07
1.7939e-07
1.78551e-07
1.77765e-07
1.77036e-07
1.76367e-07
1.75762e-07
1.75219e-07
1.7474e-07
1.74323e-07
1.73967e-07
1.7367e-07
1.7343e-07
1.73243e-07
1.73108e-07
1.73021e-07
1.72979e-07
1.75206e-07
1.74769e-07
1.74164e-07
1.73429e-07
1.72598e-07
1.717e-07
1.70761e-07
1.69804e-07
1.68848e-07
1.67908e-07
1.66997e-07
1.66125e-07
1.65301e-07
1.64529e-07
1.63815e-07
1.63161e-07
1.62569e-07
1.62039e-07
1.61572e-07
1.61165e-07
1.60818e-07
1.60529e-07
1.60295e-07
1.60113e-07
1.59982e-07
1.59897e-07
1.59856e-07
1.62688e-07
1.62267e-07
1.61684e-07
1.60976e-07
1.60177e-07
1.59314e-07
1.58414e-07
1.57497e-07
1.56583e-07
1.55685e-07
1.54815e-07
1.53984e-07
1.53199e-07
1.52465e-07
1.51787e-07
1.51166e-07
1.50603e-07
1.50101e-07
1.49657e-07
1.49272e-07
1.48943e-07
1.48669e-07
1.48447e-07
1.48275e-07
1.4815e-07
1.4807e-07
1.48031e-07
1.511e-07
1.50704e-07
1.50155e-07
1.49489e-07
1.48738e-07
1.47928e-07
1.47083e-07
1.46224e-07
1.45367e-07
1.44526e-07
1.43713e-07
1.42936e-07
1.42202e-07
1.41516e-07
1.40883e-07
1.40303e-07
1.39778e-07
1.3931e-07
1.38896e-07
1.38536e-07
1.38229e-07
1.37974e-07
1.37767e-07
1.37606e-07
1.3749e-07
1.37415e-07
1.37379e-07
1.4047e-07
1.40103e-07
1.39594e-07
1.38976e-07
1.38279e-07
1.37529e-07
1.36747e-07
1.35951e-07
1.35158e-07
1.3438e-07
1.33628e-07
1.3291e-07
1.32232e-07
1.31598e-07
1.31013e-07
1.30477e-07
1.29993e-07
1.2956e-07
1.29178e-07
1.28846e-07
1.28562e-07
1.28326e-07
1.28135e-07
1.27986e-07
1.27879e-07
1.27809e-07
1.27776e-07
1.30771e-07
1.30432e-07
1.29964e-07
1.29396e-07
1.28756e-07
1.28066e-07
1.27347e-07
1.26616e-07
1.25887e-07
1.25173e-07
1.24482e-07
1.23823e-07
1.232e-07
1.22618e-07
1.22081e-07
1.21589e-07
1.21144e-07
1.20747e-07
1.20396e-07
1.20091e-07
1.1983e-07
1.19613e-07
1.19437e-07
1.19301e-07
1.19202e-07
1.19138e-07
1.19107e-07
1.21943e-07
1.21633e-07
1.21204e-07
1.20685e-07
1.20098e-07
1.19467e-07
1.18809e-07
1.1814e-07
1.17473e-07
1.1682e-07
1.16188e-07
1.15585e-07
1.15015e-07
1.14483e-07
1.13991e-07
1.13541e-07
1.13134e-07
1.1277e-07
1.12449e-07
1.12169e-07
1.11931e-07
1.11732e-07
1.11571e-07
1.11446e-07
1.11355e-07
1.11297e-07
1.11268e-07
1.13915e-07
1.13633e-07
1.13241e-07
1.12767e-07
1.12231e-07
1.11655e-07
1.11054e-07
1.10443e-07
1.09834e-07
1.09238e-07
1.08661e-07
1.0811e-07
1.07589e-07
1.07103e-07
1.06654e-07
1.06243e-07
1.05871e-07
1.05538e-07
1.05245e-07
1.04989e-07
1.04771e-07
1.04589e-07
1.04442e-07
1.04327e-07
1.04244e-07
1.04191e-07
1.04165e-07
1.06615e-07
1.06357e-07
1.06e-07
1.05567e-07
1.05078e-07
1.04552e-07
1.04004e-07
1.03447e-07
1.02891e-07
1.02347e-07
1.0182e-07
1.01317e-07
1.00842e-07
1.00398e-07
9.99882e-08
9.96127e-08
9.92729e-08
9.89688e-08
9.87004e-08
9.84669e-08
9.82675e-08
9.8101e-08
9.79661e-08
9.78615e-08
9.77854e-08
9.77363e-08
9.77127e-08
9.99683e-08
9.97329e-08
9.94071e-08
9.90121e-08
9.85665e-08
9.80865e-08
9.75863e-08
9.70777e-08
9.65708e-08
9.60736e-08
9.55928e-08
9.51336e-08
9.46998e-08
9.42945e-08
9.39196e-08
9.35765e-08
9.32659e-08
9.2988e-08
9.27426e-08
9.2529e-08
9.23466e-08
9.21943e-08
9.20708e-08
9.1975e-08
9.19053e-08
9.18604e-08
9.18387e-08
9.3909e-08
9.36941e-08
9.33967e-08
9.3036e-08
9.26291e-08
9.21907e-08
9.17339e-08
9.12693e-08
9.08062e-08
9.0352e-08
8.99126e-08
8.94928e-08
8.90963e-08
8.87257e-08
8.8383e-08
8.80692e-08
8.7785e-08
8.75307e-08
8.7306e-08
8.71106e-08
8.69435e-08
8.6804e-08
8.66909e-08
8.6603e-08
8.65392e-08
8.6498e-08
8.64781e-08
8.83751e-08
8.81787e-08
8.79068e-08
8.75771e-08
8.7205e-08
8.68043e-08
8.63865e-08
8.59616e-08
8.5538e-08
8.51224e-08
8.47204e-08
8.43363e-08
8.39733e-08
8.3634e-08
8.33201e-08
8.30327e-08
8.27724e-08
8.25394e-08
8.23335e-08
8.21543e-08
8.20012e-08
8.18732e-08
8.17695e-08
8.16889e-08
8.16303e-08
8.15924e-08
8.15742e-08
8.33111e-08
8.31314e-08
8.28824e-08
8.25806e-08
8.22399e-08
8.18729e-08
8.14902e-08
8.11011e-08
8.0713e-08
8.03322e-08
7.99638e-08
7.96117e-08
7.92789e-08
7.89678e-08
7.86799e-08
7.84163e-08
7.81775e-08
7.79636e-08
7.77746e-08
7.76101e-08
7.74695e-08
7.73519e-08
7.72566e-08
7.71825e-08
7.71287e-08
7.70939e-08
7.70771e-08
7.86675e-08
7.85026e-08
7.82744e-08
7.79975e-08
7.7685e-08
7.73484e-08
7.69973e-08
7.66402e-08
7.6284e-08
7.59345e-08
7.55962e-08
7.52729e-08
7.49674e-08
7.46816e-08
7.44171e-08
7.41749e-08
7.39554e-08
7.37588e-08
7.3585e-08
7.34337e-08
7.33043e-08
7.31961e-08
7.31084e-08
7.30403e-08
7.29907e-08
7.29586e-08
7.29432e-08
7.43999e-08
7.42485e-08
7.40387e-08
7.37843e-08
7.34972e-08
7.31878e-08
7.28651e-08
7.25368e-08
7.22093e-08
7.18878e-08
7.15768e-08
7.12793e-08
7.09982e-08
7.07352e-08
7.04918e-08
7.02687e-08
7.00666e-08
6.98855e-08
6.97255e-08
6.95861e-08
6.94668e-08
6.93671e-08
6.92862e-08
6.92234e-08
6.91776e-08
6.91481e-08
6.91338e-08
7.04691e-08
7.03297e-08
7.01366e-08
6.99024e-08
6.9638e-08
6.9353e-08
6.90558e-08
6.87534e-08
6.84517e-08
6.81555e-08
6.78688e-08
6.75947e-08
6.73355e-08
6.7093e-08
6.68685e-08
6.66627e-08
6.64763e-08
6.63092e-08
6.61614e-08
6.60327e-08
6.59226e-08
6.58305e-08
6.57558e-08
6.56977e-08
6.56555e-08
6.56282e-08
6.5615e-08
6.684e-08
6.67115e-08
6.65333e-08
6.63173e-08
6.60733e-08
6.58104e-08
6.55361e-08
6.52569e-08
6.49784e-08
6.47049e-08
6.44401e-08
6.41869e-08
6.39475e-08
6.37234e-08
6.35159e-08
6.33257e-08
6.31533e-08
6.29988e-08
6.28621e-08
6.27431e-08
6.26412e-08
6.2556e-08
6.24868e-08
6.24331e-08
6.23939e-08
6.23686e-08
6.23564e-08
6.34816e-08
6.33627e-08
6.31981e-08
6.29983e-08
6.27727e-08
6.25296e-08
6.22759e-08
6.20176e-08
6.17599e-08
6.15069e-08
6.12618e-08
6.10274e-08
6.08057e-08
6.05982e-08
6.0406e-08
6.02298e-08
6.00701e-08
5.99269e-08
5.98002e-08
5.96898e-08
5.95953e-08
5.95163e-08
5.94522e-08
5.94023e-08
5.93659e-08
5.93425e-08
5.93311e-08
6.03659e-08
6.02557e-08
6.01032e-08
5.9918e-08
5.9709e-08
5.94836e-08
5.92484e-08
5.9009e-08
5.877e-08
5.85353e-08
5.83079e-08
5.80904e-08
5.78847e-08
5.76921e-08
5.75137e-08
5.73501e-08
5.72017e-08
5.70687e-08
5.6951e-08
5.68484e-08
5.67606e-08
5.66871e-08
5.66275e-08
5.65811e-08
5.65473e-08
5.65254e-08
5.65149e-08
5.74677e-08
5.73654e-08
5.72237e-08
5.70517e-08
5.68575e-08
5.66481e-08
5.64295e-08
5.6207e-08
5.59848e-08
5.57666e-08
5.55552e-08
5.53529e-08
5.51615e-08
5.49823e-08
5.48162e-08
5.46639e-08
5.45258e-08
5.44019e-08
5.42923e-08
5.41967e-08
5.41149e-08
5.40464e-08
5.39908e-08
5.39475e-08
5.3916e-08
5.38956e-08
5.38858e-08
5.47644e-08
5.46692e-08
5.45372e-08
5.43771e-08
5.41962e-08
5.40011e-08
5.37974e-08
5.359e-08
5.3383e-08
5.31795e-08
5.29824e-08
5.27937e-08
5.26152e-08
5.2448e-08
5.2293e-08
5.21508e-08
5.20219e-08
5.19062e-08
5.18038e-08
5.17145e-08
5.16381e-08
5.15741e-08
5.15221e-08
5.14816e-08
5.14521e-08
5.14331e-08
5.14239e-08
5.22354e-08
5.21464e-08
5.20232e-08
5.18736e-08
5.17047e-08
5.15224e-08
5.13321e-08
5.11383e-08
5.09447e-08
5.07545e-08
5.05702e-08
5.03937e-08
5.02266e-08
5.00701e-08
4.99251e-08
4.9792e-08
4.96712e-08
4.95629e-08
4.94669e-08
4.93833e-08
4.93116e-08
4.92516e-08
4.92028e-08
4.91649e-08
4.91372e-08
4.91193e-08
4.91107e-08
4.98615e-08
4.97782e-08
4.96628e-08
4.95226e-08
4.93643e-08
4.91935e-08
4.90151e-08
4.88334e-08
4.86519e-08
4.84735e-08
4.83005e-08
4.81349e-08
4.79781e-08
4.78312e-08
4.76949e-08
4.75699e-08
4.74564e-08
4.73546e-08
4.72644e-08
4.71857e-08
4.71182e-08
4.70618e-08
4.70159e-08
4.69802e-08
4.69541e-08
4.69373e-08
4.69291e-08
4.76251e-08
4.75468e-08
4.74383e-08
4.73066e-08
4.71577e-08
4.69971e-08
4.68293e-08
4.66583e-08
4.64875e-08
4.63196e-08
4.61567e-08
4.60007e-08
4.58529e-08
4.57145e-08
4.5586e-08
4.54681e-08
4.53611e-08
4.5265e-08
4.51798e-08
4.51055e-08
4.50418e-08
4.49885e-08
4.49452e-08
4.49114e-08
4.48868e-08
4.48708e-08
4.48631e-08
4.55097e-08
4.54358e-08
4.53335e-08
4.52091e-08
4.50686e-08
4.4917e-08
4.47585e-08
4.4597e-08
4.44356e-08
4.42768e-08
4.41228e-08
4.39752e-08
4.38354e-08
4.37044e-08
4.35828e-08
4.34711e-08
4.33697e-08
4.32786e-08
4.31979e-08
4.31274e-08
4.3067e-08
4.30164e-08
4.29752e-08
4.29431e-08
4.29197e-08
4.29046e-08
4.28973e-08
4.34995e-08
4.34295e-08
4.33325e-08
4.32146e-08
4.30814e-08
4.29376e-08
4.27872e-08
4.2634e-08
4.24807e-08
4.233e-08
4.21837e-08
4.20434e-08
4.19105e-08
4.17859e-08
4.16701e-08
4.15638e-08
4.14672e-08
4.13805e-08
4.13035e-08
4.12364e-08
4.11788e-08
4.11305e-08
4.10912e-08
4.10605e-08
4.10382e-08
4.10238e-08
4.10167e-08
4.15794e-08
4.15127e-08
4.14203e-08
4.1308e-08
4.11811e-08
4.1044e-08
4.09006e-08
4.07544e-08
4.06082e-08
4.04642e-08
4.03245e-08
4.01905e-08
4.00635e-08
3.99442e-08
3.98335e-08
3.97318e-08
3.96392e-08
3.95561e-08
3.94824e-08
3.94179e-08
3.93627e-08
3.93163e-08
3.92786e-08
3.92492e-08
3.92277e-08
3.92138e-08
3.92071e-08
3.97346e-08
3.96708e-08
3.95823e-08
3.94747e-08
3.9353e-08
3.92216e-08
3.90841e-08
3.89438e-08
3.88034e-08
3.86652e-08
3.85309e-08
3.84021e-08
3.82799e-08
3.81651e-08
3.80585e-08
3.79605e-08
3.78713e-08
3.77911e-08
3.772e-08
3.76578e-08
3.76044e-08
3.75596e-08
3.75231e-08
3.74947e-08
3.74739e-08
3.74604e-08
3.74539e-08
3.79507e-08
3.78892e-08
3.78038e-08
3.77001e-08
3.75828e-08
3.74559e-08
3.73232e-08
3.71877e-08
3.70521e-08
3.69184e-08
3.67885e-08
3.66638e-08
3.65454e-08
3.64342e-08
3.63309e-08
3.62357e-08
3.61491e-08
3.60713e-08
3.60021e-08
3.59416e-08
3.58896e-08
3.5846e-08
3.58105e-08
3.57827e-08
3.57625e-08
3.57493e-08
3.5743e-08
3.62132e-08
3.61535e-08
3.60707e-08
3.597e-08
3.5856e-08
3.57327e-08
3.56037e-08
3.54719e-08
3.53398e-08
3.52096e-08
3.5083e-08
3.49614e-08
3.48459e-08
3.47373e-08
3.46362e-08
3.45432e-08
3.44584e-08
3.43822e-08
3.43144e-08
3.42551e-08
3.42041e-08
3.41612e-08
3.41263e-08
3.40991e-08
3.40791e-08
3.40662e-08
3.40599e-08
3.45078e-08
3.44494e-08
3.43684e-08
3.42699e-08
3.41583e-08
3.40375e-08
3.39111e-08
3.37818e-08
3.36523e-08
3.35244e-08
3.34e-08
3.32804e-08
3.31668e-08
3.30598e-08
3.29602e-08
3.28685e-08
3.27849e-08
3.27095e-08
3.26425e-08
3.25838e-08
3.25334e-08
3.24909e-08
3.24563e-08
3.24293e-08
3.24095e-08
3.23967e-08
3.23904e-08
3.282e-08
3.27625e-08
3.26826e-08
3.25854e-08
3.24753e-08
3.2356e-08
3.22311e-08
3.21033e-08
3.19751e-08
3.18485e-08
3.17252e-08
3.16066e-08
3.14938e-08
3.13876e-08
3.12886e-08
3.11973e-08
3.1114e-08
3.10389e-08
3.09721e-08
3.09136e-08
3.08632e-08
3.08207e-08
3.07861e-08
3.07591e-08
3.07392e-08
3.07264e-08
3.07201e-08
3.11356e-08
3.10784e-08
3.0999e-08
3.09023e-08
3.07926e-08
3.06739e-08
3.05494e-08
3.04219e-08
3.02939e-08
3.01675e-08
3.00443e-08
2.99257e-08
2.98127e-08
2.97063e-08
2.9607e-08
2.95154e-08
2.94318e-08
2.93563e-08
2.92891e-08
2.92301e-08
2.91793e-08
2.91365e-08
2.91016e-08
2.90742e-08
2.90542e-08
2.90412e-08
2.90348e-08
2.94404e-08
2.9383e-08
2.93034e-08
2.92064e-08
2.90963e-08
2.89771e-08
2.88519e-08
2.87237e-08
2.8595e-08
2.84677e-08
2.83435e-08
2.82238e-08
2.81098e-08
2.80022e-08
2.79019e-08
2.78091e-08
2.77244e-08
2.76479e-08
2.75797e-08
2.75198e-08
2.74682e-08
2.74247e-08
2.73891e-08
2.73613e-08
2.73408e-08
2.73276e-08
2.73211e-08
2.77208e-08
2.76628e-08
2.75823e-08
2.74842e-08
2.73729e-08
2.72522e-08
2.71255e-08
2.69956e-08
2.6865e-08
2.67358e-08
2.66097e-08
2.6488e-08
2.6372e-08
2.62626e-08
2.61603e-08
2.60658e-08
2.59793e-08
2.59012e-08
2.58315e-08
2.57702e-08
2.57174e-08
2.56728e-08
2.56363e-08
2.56078e-08
2.55868e-08
2.55732e-08
2.55665e-08
2.59644e-08
2.59054e-08
2.58235e-08
2.57236e-08
2.56102e-08
2.54872e-08
2.5358e-08
2.52255e-08
2.50923e-08
2.49603e-08
2.48314e-08
2.4707e-08
2.45883e-08
2.44762e-08
2.43714e-08
2.42744e-08
2.41857e-08
2.41054e-08
2.40338e-08
2.39708e-08
2.39164e-08
2.38705e-08
2.38329e-08
2.38034e-08
2.37818e-08
2.37677e-08
2.37608e-08
2.41607e-08
2.41004e-08
2.40165e-08
2.39143e-08
2.37983e-08
2.36723e-08
2.354e-08
2.34042e-08
2.32675e-08
2.31321e-08
2.29998e-08
2.2872e-08
2.275e-08
2.26348e-08
2.25269e-08
2.24271e-08
2.23357e-08
2.2253e-08
2.2179e-08
2.2114e-08
2.20578e-08
2.20104e-08
2.19715e-08
2.19411e-08
2.19187e-08
2.19041e-08
2.18969e-08
2.23023e-08
2.22404e-08
2.21544e-08
2.20495e-08
2.19304e-08
2.1801e-08
2.16651e-08
2.15255e-08
2.13851e-08
2.12459e-08
2.11098e-08
2.09784e-08
2.08528e-08
2.07341e-08
2.0623e-08
2.05201e-08
2.04259e-08
2.03405e-08
2.02643e-08
2.01971e-08
2.01391e-08
2.009e-08
2.00499e-08
2.00183e-08
1.99951e-08
1.998e-08
1.99727e-08
2.03864e-08
2.03229e-08
2.02346e-08
2.01269e-08
2.00046e-08
1.98719e-08
1.97323e-08
1.95891e-08
1.94448e-08
1.93019e-08
1.91621e-08
1.90271e-08
1.88981e-08
1.87761e-08
1.86619e-08
1.85561e-08
1.84592e-08
1.83714e-08
1.82929e-08
1.82238e-08
1.8164e-08
1.81135e-08
1.80721e-08
1.80396e-08
1.80157e-08
1.80001e-08
1.79925e-08
1.84168e-08
1.83518e-08
1.82615e-08
1.81514e-08
1.80263e-08
1.78905e-08
1.77478e-08
1.76014e-08
1.7454e-08
1.73079e-08
1.71651e-08
1.70271e-08
1.68953e-08
1.67707e-08
1.6654e-08
1.65459e-08
1.64469e-08
1.63571e-08
1.62769e-08
1.62063e-08
1.61452e-08
1.60935e-08
1.60512e-08
1.60179e-08
1.59934e-08
1.59775e-08
1.59697e-08
1.64055e-08
1.63395e-08
1.62478e-08
1.6136e-08
1.6009e-08
1.58712e-08
1.57265e-08
1.55779e-08
1.54284e-08
1.52803e-08
1.51356e-08
1.49957e-08
1.48621e-08
1.47359e-08
1.46177e-08
1.45082e-08
1.44079e-08
1.4317e-08
1.42358e-08
1.41643e-08
1.41024e-08
1.40501e-08
1.40072e-08
1.39735e-08
1.39488e-08
1.39326e-08
1.39247e-08
1.43719e-08
1.43054e-08
1.4213e-08
1.41004e-08
1.39726e-08
1.38338e-08
1.3688e-08
1.35382e-08
1.33874e-08
1.32377e-08
1.3091e-08
1.2949e-08
1.28128e-08
1.26837e-08
1.25627e-08
1.24505e-08
1.23476e-08
1.22543e-08
1.21709e-08
1.20975e-08
1.20339e-08
1.19802e-08
1.19361e-08
1.19015e-08
1.18761e-08
1.18595e-08
1.18513e-08
1.23217e-08
1.22541e-08
1.21602e-08
1.20459e-08
1.19162e-08
1.17757e-08
1.16282e-08
1.14772e-08
1.13253e-08
1.11751e-08
1.10285e-08
1.0887e-08
1.07521e-08
1.06247e-08
1.05056e-08
1.03954e-08
1.02946e-08
1.02033e-08
1.01218e-08
1.00501e-08
9.98809e-09
9.93573e-09
9.89282e-09
9.85913e-09
9.83436e-09
9.81821e-09
9.81032e-09
1.02856e-08
1.02201e-08
1.01292e-08
1.00187e-08
9.89359e-09
9.75823e-09
9.61645e-09
9.4715e-09
9.32613e-09
9.18263e-09
9.04286e-09
8.90834e-09
8.78026e-09
8.65955e-09
8.54693e-09
8.4429e-09
8.34781e-09
8.26188e-09
8.18521e-09
8.11782e-09
8.05964e-09
8.01053e-09
7.97031e-09
7.93874e-09
7.91554e-09
7.90042e-09
7.89304e-09
8.35601e-09
8.2949e-09
8.21019e-09
8.10732e-09
7.99103e-09
7.86548e-09
7.73423e-09
7.60034e-09
7.46636e-09
7.33438e-09
7.20611e-09
7.08293e-09
6.96588e-09
6.85578e-09
6.75325e-09
6.65869e-09
6.57241e-09
6.49454e-09
6.42516e-09
6.36425e-09
6.31171e-09
6.2674e-09
6.23115e-09
6.20271e-09
6.18182e-09
6.16822e-09
6.16158e-09
6.59692e-09
6.54198e-09
6.46594e-09
6.37374e-09
6.26971e-09
6.15764e-09
6.04077e-09
5.92184e-09
5.80313e-09
5.68649e-09
5.57342e-09
5.46509e-09
5.36241e-09
5.26605e-09
5.17651e-09
5.0941e-09
5.01904e-09
4.95142e-09
4.89127e-09
4.83854e-09
4.79311e-09
4.75485e-09
4.72357e-09
4.69905e-09
4.68106e-09
4.66935e-09
4.66363e-09
5.05715e-09
5.00979e-09
4.94431e-09
4.86508e-09
4.7759e-09
4.68006e-09
4.58039e-09
4.47925e-09
4.3786e-09
4.27999e-09
4.18469e-09
4.09364e-09
4.00759e-09
3.92705e-09
3.85239e-09
3.78385e-09
3.72157e-09
3.66557e-09
3.61586e-09
3.57234e-09
3.53492e-09
3.50344e-09
3.47773e-09
3.4576e-09
3.44285e-09
3.43325e-09
3.42857e-09
3.76862e-09
3.72961e-09
3.67578e-09
3.61078e-09
3.5378e-09
3.45959e-09
3.3785e-09
3.29648e-09
3.21512e-09
3.13568e-09
3.05914e-09
2.98626e-09
2.91759e-09
2.8535e-09
2.79427e-09
2.74003e-09
2.69086e-09
2.64676e-09
2.60768e-09
2.57354e-09
2.54422e-09
2.5196e-09
2.49952e-09
2.48382e-09
2.47231e-09
2.46484e-09
2.46119e-09
2.74105e-09
2.71043e-09
2.66824e-09
2.61741e-09
2.56049e-09
2.49967e-09
2.4368e-09
2.37341e-09
2.31074e-09
2.24975e-09
2.19118e-09
2.13558e-09
2.08335e-09
2.03476e-09
1.98996e-09
1.94905e-09
1.91204e-09