/*--------------------------------*- C++ -*----------------------------------*\
| =========                 |                                                 |
| \\      /  F ield         | OpenFOAM: The Open Source CFD Toolbox           |
|  \\    /   O peration     | Version:  2106                                  |
|   \\  /    A nd           | Website:  www.openfoam.com                      |
|    \\/     M anipulation  |                                                 |
\*---------------------------------------------------------------------------*/
FoamFile
{
    version     2.0;
    format      ascii;
    arch        "LSB;label=32;scalar=64";
    class       volScalarField;
    location    "49.99987";
    object      H2;
}
// * * * * * * * * * * * * * * * * * * * * * * * * * * * * * * * * * * * * * //

dimensions      [0 0 0 0 0 0 0];

internalField   nonuniform List<scalar> 
3360
(
3.43091e-18
3.54133e-18
3.69499e-18
3.88295e-18
4.09737e-18
4.33123e-18
4.57815e-18
4.83243e-18
5.08893e-18
5.34317e-18
5.59122e-18
5.82978e-18
6.05609e-18
6.26799e-18
6.46382e-18
6.6424e-18
6.80303e-18
6.9454e-18
7.06957e-18
7.1759e-18
7.26505e-18
7.33786e-18
7.39536e-18
7.43875e-18
7.46926e-18
7.48825e-18
7.49706e-18
1.50513e-17
1.56046e-17
1.63854e-17
1.73577e-17
1.84918e-17
1.97617e-17
2.11442e-17
2.2618e-17
2.41634e-17
2.57617e-17
2.73949e-17
2.90457e-17
3.06969e-17
3.23314e-17
3.39326e-17
3.5484e-17
3.69696e-17
3.83738e-17
3.96815e-17
4.08789e-17
4.1953e-17
4.28925e-17
4.36877e-17
4.43308e-17
4.48162e-17
4.51403e-17
4.53019e-17
4.72274e-17
4.93005e-17
5.22463e-17
5.59479e-17
6.03084e-17
6.52406e-17
7.06616e-17
7.64898e-17
8.26426e-17
8.90355e-17
9.55823e-17
1.02197e-16
1.08796e-16
1.15294e-16
1.21611e-16
1.2767e-16
1.334e-16
1.38737e-16
1.43625e-16
1.48018e-16
1.51881e-16
1.5519e-16
1.57929e-16
1.60093e-16
1.61689e-16
1.6273e-16
1.63237e-16
1.37547e-16
1.44381e-16
1.54156e-16
1.66523e-16
1.8119e-16
1.97884e-16
2.1633e-16
2.36246e-16
2.57332e-16
2.79277e-16
3.01757e-16
3.24443e-16
3.47008e-16
3.69136e-16
3.90522e-16
4.10892e-16
4.29998e-16
4.47632e-16
4.63627e-16
4.77856e-16
4.90236e-16
5.00725e-16
5.09315e-16
5.16033e-16
5.20936e-16
5.24102e-16
5.25629e-16
4.01884e-16
4.23442e-16
4.54339e-16
4.93521e-16
5.40093e-16
5.93193e-16
6.51936e-16
7.15386e-16
7.82543e-16
8.52352e-16
9.23724e-16
9.95561e-16
1.06678e-15
1.13636e-15
1.20335e-15
1.26688e-15
1.32622e-15
1.38077e-15
1.43006e-15
1.47373e-15
1.5116e-15
1.54358e-15
1.56969e-15
1.59005e-15
1.60487e-15
1.61442e-15
1.61902e-15
1.18506e-15
1.25127e-15
1.34629e-15
1.46688e-15
1.6103e-15
1.77386e-15
1.95481e-15
2.1502e-15
2.35689e-15
2.57156e-15
2.7908e-15
3.01119e-15
3.22937e-15
3.44217e-15
3.64667e-15
3.84029e-15
4.02081e-15
4.18645e-15
4.33582e-15
4.46797e-15
4.58236e-15
4.67879e-15
4.75741e-15
4.81864e-15
4.86316e-15
4.8918e-15
4.90557e-15
3.52048e-15
3.72168e-15
4.0104e-15
4.37687e-15
4.81266e-15
5.30957e-15
5.85907e-15
6.45207e-15
7.07892e-15
7.72944e-15
8.39321e-15
9.05979e-15
9.71907e-15
1.03615e-14
1.09782e-14
1.15617e-14
1.21052e-14
1.26035e-14
1.30527e-14
1.34498e-14
1.37933e-14
1.40829e-14
1.43188e-14
1.45025e-14
1.46361e-14
1.4722e-14
1.47633e-14
1.04933e-14
1.10988e-14
1.1968e-14
1.30718e-14
1.43847e-14
1.58819e-14
1.75377e-14
1.93245e-14
2.1213e-14
2.31723e-14
2.51709e-14
2.71773e-14
2.9161e-14
3.1093e-14
3.29473e-14
3.47005e-14
3.63331e-14
3.78293e-14
3.9177e-14
4.03683e-14
4.13984e-14
4.22661e-14
4.2973e-14
4.35232e-14
4.39229e-14
4.418e-14
4.43035e-14
3.13597e-14
3.31795e-14
3.57917e-14
3.91082e-14
4.30525e-14
4.75499e-14
5.25224e-14
5.78868e-14
6.35546e-14
6.94331e-14
7.54275e-14
8.14431e-14
8.73885e-14
9.31774e-14
9.87315e-14
1.03982e-13
1.08869e-13
1.13348e-13
1.17382e-13
1.20946e-13
1.24029e-13
1.26625e-13
1.2874e-13
1.30386e-13
1.31582e-13
1.32351e-13
1.32721e-13
9.37264e-14
9.91775e-14
1.07004e-13
1.16941e-13
1.28759e-13
1.42234e-13
1.57132e-13
1.73203e-13
1.90182e-13
2.07789e-13
2.2574e-13
2.43752e-13
2.6155e-13
2.78877e-13
2.95496e-13
3.11203e-13
3.25823e-13
3.39215e-13
3.51275e-13
3.6193e-13
3.7114e-13
3.78896e-13
3.85213e-13
3.90129e-13
3.93699e-13
3.95995e-13
3.97098e-13
2.80266e-13
2.96587e-13
3.20015e-13
3.49754e-13
3.85117e-13
4.25429e-13
4.69985e-13
5.18035e-13
5.68782e-13
6.21392e-13
6.75014e-13
7.28799e-13
7.8193e-13
8.33637e-13
8.83221e-13
9.3007e-13
9.73665e-13
1.01359e-12
1.04954e-12
1.08129e-12
1.10874e-12
1.13185e-12
1.15067e-12
1.16531e-12
1.17595e-12
1.18279e-12
1.18607e-12
8.37283e-13
8.86022e-13
9.55979e-13
1.04477e-12
1.15033e-12
1.27064e-12
1.40357e-12
1.54689e-12
1.6982e-12
1.85501e-12
2.01478e-12
2.17498e-12
2.33317e-12
2.48706e-12
2.63459e-12
2.77392e-12
2.90353e-12
3.02219e-12
3.12898e-12
3.22329e-12
3.30478e-12
3.37337e-12
3.42921e-12
3.47265e-12
3.50419e-12
3.52447e-12
3.53421e-12
2.4987e-12
2.644e-12
2.85247e-12
3.11697e-12
3.43126e-12
3.78925e-12
4.18459e-12
4.61055e-12
5.05997e-12
5.52543e-12
5.99936e-12
6.47426e-12
6.9429e-12
7.39853e-12
7.83504e-12
8.24709e-12
8.63018e-12
8.98073e-12
9.29609e-12
9.57446e-12
9.8149e-12
1.00172e-11
1.01819e-11
1.03099e-11
1.04029e-11
1.04626e-11
1.04913e-11
7.43561e-12
7.8668e-12
8.48526e-12
9.26952e-12
1.02009e-11
1.1261e-11
1.24309e-11
1.36903e-11
1.50179e-11
1.63917e-11
1.77892e-11
1.91883e-11
2.05677e-11
2.19076e-11
2.31901e-11
2.43997e-11
2.55233e-11
2.65507e-11
2.74743e-11
2.82889e-11
2.89921e-11
2.95834e-11
3.00644e-11
3.04383e-11
3.07096e-11
3.08838e-11
3.09675e-11
2.2048e-11
2.33206e-11
2.51447e-11
2.74558e-11
3.01976e-11
3.3315e-11
3.67508e-11
4.04447e-11
4.43335e-11
4.83518e-11
5.24336e-11
5.65141e-11
6.05316e-11
6.44288e-11
6.81541e-11
7.16631e-11
7.4919e-11
7.78927e-11
8.05629e-11
8.29161e-11
8.49455e-11
8.66506e-11
8.80367e-11
8.91133e-11
8.98941e-11
9.03954e-11
9.0636e-11
6.49948e-11
6.87147e-11
7.40419e-11
8.07838e-11
8.87713e-11
9.78388e-11
1.07816e-10
1.18523e-10
1.29774e-10
1.41378e-10
1.53142e-10
1.6488e-10
1.76415e-10
1.87584e-10
1.98241e-10
2.08262e-10
2.17545e-10
2.26009e-10
2.33599e-10
2.40278e-10
2.46031e-10
2.50859e-10
2.54779e-10
2.57821e-10
2.60025e-10
2.61439e-10
2.62117e-10
1.90119e-10
2.00852e-10
2.16202e-10
2.35595e-10
2.58527e-10
2.84502e-10
3.13013e-10
3.43535e-10
3.75524e-10
4.08427e-10
4.41697e-10
4.74806e-10
5.07258e-10
5.38599e-10
5.68433e-10
5.96422e-10
6.22291e-10
6.45832e-10
6.66899e-10
6.85405e-10
7.01318e-10
7.14652e-10
7.25464e-10
7.33844e-10
7.39908e-10
7.43795e-10
7.45657e-10
5.50262e-10
5.80656e-10
6.24051e-10
6.78755e-10
7.43268e-10
8.16126e-10
8.95844e-10
9.80896e-10
1.06973e-09
1.16078e-09
1.25253e-09
1.34352e-09
1.43241e-09
1.51798e-09
1.59918e-09
1.67514e-09
1.74515e-09
1.8087e-09
1.86543e-09
1.91516e-09
1.95783e-09
1.99352e-09
2.02241e-09
2.04477e-09
2.06092e-09
2.07127e-09
2.07622e-09
1.57051e-09
1.65447e-09
1.77406e-09
1.92439e-09
2.10105e-09
2.2998e-09
2.51637e-09
2.74644e-09
2.98568e-09
3.22984e-09
3.47481e-09
3.71674e-09
3.95211e-09
4.17782e-09
4.39121e-09
4.59013e-09
4.77289e-09
4.93826e-09
5.08549e-09
5.21421e-09
5.3244e-09
5.41637e-09
5.49067e-09
5.54807e-09
5.58949e-09
5.61597e-09
5.62863e-09
4.40066e-09
4.62518e-09
4.9441e-09
5.34349e-09
5.81088e-09
6.33425e-09
6.90173e-09
7.50151e-09
8.122e-09
8.75199e-09
9.3809e-09
9.99899e-09
1.05975e-08
1.1169e-08
1.1707e-08
1.22066e-08
1.2664e-08
1.30764e-08
1.34425e-08
1.37617e-08
1.40342e-08
1.42611e-08
1.44441e-08
1.45851e-08
1.46868e-08
1.47517e-08
1.47826e-08
1.20438e-08
1.26205e-08
1.34371e-08
1.44554e-08
1.56412e-08
1.69621e-08
1.83863e-08
1.98829e-08
2.14224e-08
2.29767e-08
2.452e-08
2.60287e-08
2.74825e-08
2.88641e-08
3.01592e-08
3.13569e-08
3.24492e-08
3.3431e-08
3.42996e-08
3.50547e-08
3.56978e-08
3.62322e-08
3.6662e-08
3.69929e-08
3.72309e-08
3.73826e-08
3.74549e-08
3.20011e-08
3.34141e-08
3.54077e-08
3.78828e-08
4.07504e-08
4.39266e-08
4.73313e-08
5.08883e-08
5.45258e-08
5.81775e-08
6.17833e-08
6.52902e-08
6.8653e-08
7.1834e-08
7.48033e-08
7.75385e-08
8.0024e-08
8.22506e-08
8.42147e-08
8.59176e-08
8.73644e-08
8.85637e-08
8.95268e-08
9.02667e-08
9.0798e-08
9.11363e-08
9.12974e-08
8.20527e-08
8.53388e-08
8.99592e-08
9.56707e-08
1.02255e-07
1.09509e-07
1.17241e-07
1.25275e-07
1.33445e-07
1.41604e-07
1.4962e-07
1.57379e-07
1.64785e-07
1.71763e-07
1.78251e-07
1.84206e-07
1.896e-07
1.94419e-07
1.98658e-07
2.02324e-07
2.05432e-07
2.08004e-07
2.10065e-07
2.11647e-07
2.12781e-07
2.13502e-07
2.13845e-07
2.01938e-07
2.09181e-07
2.19334e-07
2.31837e-07
2.46187e-07
2.61923e-07
2.78618e-07
2.95879e-07
3.13354e-07
3.30725e-07
3.4772e-07
3.64104e-07
3.79687e-07
3.94316e-07
4.07877e-07
4.20288e-07
4.31501e-07
4.41492e-07
4.50263e-07
4.57835e-07
4.64242e-07
4.69535e-07
4.73772e-07
4.77018e-07
4.79344e-07
4.80821e-07
4.81523e-07
4.75254e-07
4.90413e-07
5.11612e-07
5.37638e-07
5.67408e-07
5.99934e-07
6.34313e-07
6.6973e-07
7.05454e-07
7.40849e-07
7.75365e-07
8.08544e-07
8.40013e-07
8.69482e-07
8.96737e-07
9.2163e-07
9.44078e-07
9.64047e-07
9.8155e-07
9.96639e-07
1.00939e-06
1.01992e-06
1.02833e-06
1.03478e-06
1.03939e-06
1.04232e-06
1.04371e-06
1.06759e-06
1.09783e-06
1.14006e-06
1.19178e-06
1.25079e-06
1.3151e-06
1.38288e-06
1.45251e-06
1.52256e-06
1.59178e-06
1.65912e-06
1.72369e-06
1.7848e-06
1.84191e-06
1.89461e-06
1.94267e-06
1.98592e-06
2.02434e-06
2.05797e-06
2.08692e-06
2.11136e-06
2.1315e-06
2.1476e-06
2.15991e-06
2.16871e-06
2.1743e-06
2.17695e-06
2.28759e-06
2.34531e-06
2.42577e-06
2.52416e-06
2.6362e-06
2.75801e-06
2.88613e-06
3.01745e-06
3.14928e-06
3.27928e-06
3.40549e-06
3.5263e-06
3.64043e-06
3.74692e-06
3.84507e-06
3.93444e-06
4.01479e-06
4.08608e-06
4.14842e-06
4.20204e-06
4.24727e-06
4.28453e-06
4.31428e-06
4.33702e-06
4.35328e-06
4.36359e-06
4.36848e-06
4.66865e-06
4.77416e-06
4.92113e-06
5.10067e-06
5.30488e-06
5.52665e-06
5.75964e-06
5.9982e-06
6.23742e-06
6.47311e-06
6.70172e-06
6.92038e-06
7.12681e-06
7.31929e-06
7.4966e-06
7.65796e-06
7.80297e-06
7.93159e-06
8.04401e-06
8.14068e-06
8.22221e-06
8.28934e-06
8.34293e-06
8.38389e-06
8.41316e-06
8.43172e-06
8.44052e-06
9.0565e-06
9.24188e-06
9.50005e-06
9.81533e-06
1.01738e-05
1.05631e-05
1.0972e-05
1.13906e-05
1.18104e-05
1.2224e-05
1.26252e-05
1.30089e-05
1.33713e-05
1.37093e-05
1.40208e-05
1.43042e-05
1.45591e-05
1.47852e-05
1.49828e-05
1.51529e-05
1.52963e-05
1.54144e-05
1.55087e-05
1.55808e-05
1.56323e-05
1.5665e-05
1.56805e-05
1.66471e-05
1.69587e-05
1.73926e-05
1.79227e-05
1.85256e-05
1.91805e-05
1.98687e-05
2.05738e-05
2.12813e-05
2.19789e-05
2.26563e-05
2.33049e-05
2.39179e-05
2.44903e-05
2.50182e-05
2.54992e-05
2.59322e-05
2.63166e-05
2.6653e-05
2.69426e-05
2.71872e-05
2.73887e-05
2.75497e-05
2.76729e-05
2.7761e-05
2.78168e-05
2.78433e-05
2.8855e-05
2.93483e-05
3.00353e-05
3.08746e-05
3.18294e-05
3.28668e-05
3.39575e-05
3.50753e-05
3.61977e-05
3.73051e-05
3.8381e-05
3.9412e-05
4.03874e-05
4.12987e-05
4.214e-05
4.29074e-05
4.35985e-05
4.42128e-05
4.47508e-05
4.52144e-05
4.56061e-05
4.59292e-05
4.61875e-05
4.63852e-05
4.65266e-05
4.66164e-05
4.6659e-05
4.69393e-05
4.76591e-05
4.86609e-05
4.98837e-05
5.12735e-05
5.27819e-05
5.43658e-05
5.59872e-05
5.76133e-05
5.92159e-05
6.07713e-05
6.22601e-05
6.36672e-05
6.49807e-05
6.61923e-05
6.72964e-05
6.82902e-05
6.91728e-05
6.99455e-05
7.06108e-05
7.11727e-05
7.16359e-05
7.2006e-05
7.22892e-05
7.24918e-05
7.26203e-05
7.26813e-05
7.14956e-05
7.24467e-05
7.37684e-05
7.53779e-05
7.72025e-05
7.91769e-05
8.12435e-05
8.33522e-05
8.54596e-05
8.75292e-05
8.95309e-05
9.14403e-05
9.32385e-05
9.49115e-05
9.64495e-05
9.78466e-05
9.91002e-05
0.00010021
0.000101179
0.000102011
0.000102712
0.000103288
0.000103748
0.000104099
0.00010435
0.000104509
0.000104584
0.000102098
0.000103231
0.000104803
0.000106711
0.000108867
0.000111189
0.00011361
0.000116068
0.000118514
0.000120904
0.000123204
0.000125388
0.000127435
0.000129331
0.000131067
0.000132638
0.000134043
0.000135284
0.000136364
0.000137289
0.000138067
0.000138706
0.000139214
0.000139602
0.000139879
0.000140054
0.000140137
0.000137324
0.000138555
0.000140257
0.000142318
0.000144637
0.000147126
0.000149709
0.000152322
0.00015491
0.000157429
0.000159845
0.000162131
0.000164267
0.00016624
0.000168042
0.000169668
0.000171119
0.000172397
0.000173508
0.000174458
0.000175256
0.00017591
0.00017643
0.000176827
0.000177109
0.000177288
0.000177373
0.000175185
0.000176429
0.000178147
0.000180222
0.000182553
0.000185049
0.000187633
0.000190241
0.000192817
0.00019532
0.000197715
0.000199975
0.000202084
0.000204027
0.000205799
0.000207396
0.000208819
0.000210071
0.000211158
0.000212087
0.000212867
0.000213506
0.000214014
0.000214401
0.000214677
0.000214852
0.000214934
0.000213899
0.000215102
0.000216761
0.000218763
0.000221008
0.00022341
0.000225894
0.000228397
0.000230867
0.000233263
0.000235553
0.000237713
0.000239725
0.000241579
0.000243268
0.000244789
0.000246144
0.000247337
0.000248371
0.000249255
0.000249997
0.000250605
0.000251089
0.000251457
0.00025172
0.000251886
0.000251965
0.000252189
0.000253321
0.000254882
0.000256765
0.000258876
0.000261133
0.000263466
0.000265816
0.000268134
0.000270383
0.000272531
0.000274556
0.000276444
0.000278182
0.000279766
0.000281193
0.000282464
0.000283583
0.000284554
0.000285385
0.000286082
0.000286653
0.000287108
0.000287454
0.000287702
0.000287858
0.000287932
0.000289244
0.000290295
0.000291744
0.000293493
0.000295454
0.00029755
0.000299717
0.0003019
0.000304055
0.000306144
0.000308142
0.000310026
0.000311782
0.0003134
0.000314876
0.000316205
0.000317391
0.000318434
0.00031934
0.000320116
0.000320767
0.000321301
0.000321726
0.000322051
0.000322282
0.000322429
0.000322498
0.000324617
0.000325587
0.000326927
0.000328543
0.000330356
0.000332296
0.000334301
0.000336322
0.000338318
0.000340255
0.000342107
0.000343855
0.000345485
0.000346989
0.00034836
0.000349596
0.000350699
0.000351671
0.000352515
0.000353238
0.000353845
0.000354344
0.000354741
0.000355044
0.00035526
0.000355397
0.000355462
0.000358108
0.000359005
0.000360242
0.000361736
0.000363413
0.000365207
0.000367063
0.000368935
0.000370784
0.000372579
0.000374298
0.00037592
0.000377435
0.000378832
0.000380107
0.000381257
0.000382284
0.000383189
0.000383976
0.000384649
0.000385216
0.000385681
0.000386052
0.000386335
0.000386537
0.000386665
0.000386726
0.000389669
0.000390499
0.000391645
0.000393029
0.000394582
0.000396245
0.000397967
0.000399704
0.00040142
0.000403088
0.000404685
0.000406194
0.000407603
0.000408904
0.000410091
0.000411163
0.00041212
0.000412964
0.000413698
0.000414326
0.000414855
0.00041529
0.000415636
0.0004159
0.000416089
0.000416209
0.000416266
0.000419339
0.00042011
0.000421174
0.000422459
0.000423903
0.000425448
0.000427049
0.000428665
0.000430263
0.000431816
0.000433303
0.00043471
0.000436023
0.000437236
0.000438344
0.000439344
0.000440238
0.000441026
0.000441712
0.000442299
0.000442793
0.0004432
0.000443523
0.000443771
0.000443948
0.00044406
0.000444113
0.000447202
0.00044792
0.000448911
0.000450108
0.000451453
0.000452894
0.000454386
0.000455894
0.000457384
0.000458834
0.000460223
0.000461536
0.000462763
0.000463897
0.000464932
0.000465868
0.000466704
0.000467441
0.000468083
0.000468633
0.000469095
0.000469476
0.000469779
0.00047001
0.000470176
0.000470281
0.000470331
0.000473363
0.000474033
0.000474959
0.000476077
0.000477334
0.00047868
0.000480076
0.000481485
0.000482879
0.000484235
0.000485535
0.000486764
0.000487913
0.000488975
0.000489945
0.000490821
0.000491604
0.000492295
0.000492896
0.000493412
0.000493846
0.000494202
0.000494487
0.000494704
0.000494859
0.000494958
0.000495005
0.000497936
0.000498564
0.00049943
0.000500478
0.000501655
0.000502916
0.000504224
0.000505544
0.000506851
0.000508123
0.000509342
0.000510494
0.000511572
0.000512568
0.000513478
0.0005143
0.000515035
0.000515684
0.000516249
0.000516733
0.00051714
0.000517475
0.000517742
0.000517946
0.000518092
0.000518184
0.000518228
0.000521036
0.000521625
0.000522439
0.000523422
0.000524527
0.000525711
0.000526939
0.000528179
0.000529406
0.000530601
0.000531746
0.000532829
0.000533842
0.000534777
0.000535633
0.000536406
0.000537097
0.000537707
0.000538238
0.000538693
0.000539076
0.000539391
0.000539642
0.000539834
0.000539971
0.000540058
0.0005401
0.000542774
0.000543328
0.000544093
0.000545017
0.000546057
0.000547171
0.000548326
0.000549492
0.000550648
0.000551771
0.000552849
0.000553869
0.000554822
0.000555703
0.000556509
0.000557237
0.000557887
0.000558461
0.000558962
0.00055939
0.000559751
0.000560048
0.000560284
0.000560465
0.000560594
0.000560676
0.000560715
0.000563254
0.000563776
0.000564496
0.000565368
0.000566347
0.000567397
0.000568485
0.000569585
0.000570674
0.000571733
0.000572749
0.000573711
0.00057461
0.000575441
0.0005762
0.000576887
0.0005775
0.000578042
0.000578514
0.000578918
0.000579258
0.000579538
0.000579761
0.000579932
0.000580054
0.000580131
0.000580168
0.000582574
0.000583066
0.000583746
0.000584569
0.000585493
0.000586484
0.000587512
0.00058855
0.000589578
0.000590579
0.000591538
0.000592446
0.000593295
0.00059408
0.000594797
0.000595446
0.000596025
0.000596537
0.000596982
0.000597364
0.000597686
0.00059795
0.000598161
0.000598322
0.000598438
0.000598511
0.000598545
0.000600824
0.000601289
0.000601932
0.00060271
0.000603584
0.000604521
0.000605492
0.000606474
0.000607447
0.000608393
0.0006093
0.000610159
0.000610962
0.000611704
0.000612383
0.000612997
0.000613545
0.000614029
0.00061445
0.000614812
0.000615116
0.000615366
0.000615566
0.000615718
0.000615827
0.000615896
0.000615929
0.000618087
0.000618528
0.000619137
0.000619873
0.0006207
0.000621588
0.000622508
0.000623438
0.000624359
0.000625255
0.000626115
0.000626928
0.000627689
0.000628392
0.000629035
0.000629616
0.000630136
0.000630595
0.000630994
0.000631336
0.000631625
0.000631862
0.000632051
0.000632195
0.000632299
0.000632364
0.000632395
0.00063444
0.000634858
0.000635435
0.000636133
0.000636918
0.00063776
0.000638633
0.000639515
0.000640388
0.000641239
0.000642054
0.000642826
0.000643547
0.000644214
0.000644824
0.000645376
0.000645869
0.000646304
0.000646683
0.000647008
0.000647281
0.000647506
0.000647686
0.000647823
0.000647921
0.000647983
0.000648013
0.000649952
0.000650349
0.000650897
0.00065156
0.000652305
0.000653105
0.000653934
0.000654772
0.000655602
0.000656409
0.000657184
0.000657917
0.000658602
0.000659236
0.000659816
0.00066034
0.000660808
0.000661222
0.000661582
0.000661891
0.00066215
0.000662364
0.000662535
0.000662665
0.000662758
0.000662817
0.000662845
0.000664686
0.000665063
0.000665585
0.000666216
0.000666925
0.000667685
0.000668473
0.00066927
0.00067006
0.000670828
0.000671565
0.000672262
0.000672914
0.000673517
0.000674069
0.000674567
0.000675013
0.000675406
0.000675749
0.000676043
0.00067629
0.000676493
0.000676655
0.000676779
0.000676868
0.000676924
0.000676951
0.000678701
0.00067906
0.000679557
0.000680157
0.000680832
0.000681557
0.000682308
0.000683067
0.000683818
0.00068455
0.000685252
0.000685916
0.000686538
0.000687112
0.000687637
0.000688112
0.000688537
0.000688912
0.000689238
0.000689518
0.000689753
0.000689947
0.000690102
0.00069022
0.000690304
0.000690358
0.000690383
0.000692048
0.000692391
0.000692864
0.000693437
0.000694081
0.000694771
0.000695487
0.000696211
0.000696928
0.000697626
0.000698296
0.000698929
0.000699522
0.00070007
0.000700571
0.000701024
0.000701429
0.000701786
0.000702098
0.000702365
0.000702589
0.000702774
0.000702922
0.000703034
0.000703115
0.000703166
0.00070319
0.000704776
0.000705103
0.000705555
0.000706102
0.000706717
0.000707376
0.00070806
0.000708751
0.000709435
0.000710102
0.000710741
0.000711346
0.000711912
0.000712435
0.000712914
0.000713347
0.000713733
0.000714075
0.000714372
0.000714627
0.000714842
0.000715018
0.000715159
0.000715267
0.000715344
0.000715392
0.000715416
0.000716928
0.00071724
0.000717672
0.000718195
0.000718783
0.000719413
0.000720067
0.000720727
0.000721382
0.000722019
0.00072263
0.000723208
0.000723749
0.00072425
0.000724707
0.000725121
0.000725491
0.000725817
0.000726101
0.000726345
0.000726551
0.000726719
0.000726854
0.000726957
0.00072703
0.000727077
0.000727099
0.000728543
0.000728842
0.000729255
0.000729755
0.000730318
0.000730921
0.000731546
0.000732178
0.000732805
0.000733414
0.000733999
0.000734553
0.000735071
0.00073555
0.000735987
0.000736383
0.000736737
0.00073705
0.000737322
0.000737555
0.000737752
0.000737913
0.000738042
0.000738141
0.000738211
0.000738256
0.000738277
0.000739656
0.000739943
0.000740339
0.000740818
0.000741356
0.000741934
0.000742533
0.000743139
0.000743739
0.000744323
0.000744883
0.000745413
0.00074591
0.000746368
0.000746788
0.000747167
0.000747506
0.000747806
0.000748066
0.00074829
0.000748478
0.000748633
0.000748756
0.000748851
0.000748918
0.000748961
0.000748981
0.0007503
0.000750575
0.000750954
0.000751414
0.00075193
0.000752484
0.000753058
0.000753639
0.000754214
0.000754774
0.000755311
0.00075582
0.000756296
0.000756736
0.000757138
0.000757502
0.000757827
0.000758114
0.000758364
0.000758578
0.000758759
0.000758907
0.000759026
0.000759116
0.000759181
0.000759222
0.000759241
0.000760503
0.000760767
0.000761131
0.000761571
0.000762067
0.000762598
0.00076315
0.000763707
0.000764259
0.000764796
0.000765312
0.0007658
0.000766256
0.000766678
0.000767064
0.000767413
0.000767726
0.000768001
0.000768241
0.000768447
0.00076862
0.000768762
0.000768876
0.000768963
0.000769025
0.000769064
0.000769083
0.000770291
0.000770544
0.000770893
0.000771316
0.000771792
0.000772302
0.000772832
0.000773367
0.000773897
0.000774413
0.000774908
0.000775376
0.000775815
0.00077622
0.000776591
0.000776926
0.000777226
0.00077749
0.000777721
0.000777918
0.000778084
0.000778221
0.00077833
0.000778414
0.000778473
0.000778511
0.000778529
0.000779685
0.000779928
0.000780264
0.000780671
0.000781128
0.000781618
0.000782126
0.00078264
0.000783149
0.000783645
0.00078412
0.000784571
0.000784992
0.000785381
0.000785737
0.000786059
0.000786347
0.000786601
0.000786823
0.000787013
0.000787172
0.000787304
0.000787409
0.000787489
0.000787546
0.000787582
0.0007876
0.000788706
0.00078894
0.000789263
0.000789653
0.000790092
0.000790563
0.000791052
0.000791546
0.000792035
0.000792511
0.000792968
0.000793401
0.000793806
0.00079418
0.000794522
0.000794832
0.000795108
0.000795352
0.000795565
0.000795748
0.000795901
0.000796027
0.000796128
0.000796205
0.00079626
0.000796295
0.000796312
0.000797371
0.000797595
0.000797905
0.000798281
0.000798703
0.000799155
0.000799625
0.000800099
0.00080057
0.000801027
0.000801467
0.000801882
0.000802271
0.000802631
0.00080296
0.000803257
0.000803523
0.000803758
0.000803962
0.000804137
0.000804285
0.000804406
0.000804503
0.000804577
0.00080463
0.000804664
0.000804679
0.000805692
0.000805908
0.000806206
0.000806566
0.000806972
0.000807407
0.000807858
0.000808314
0.000808766
0.000809206
0.000809628
0.000810027
0.000810401
0.000810746
0.000811062
0.000811348
0.000811603
0.000811829
0.000812025
0.000812194
0.000812336
0.000812452
0.000812545
0.000812616
0.000812667
0.000812699
0.000812715
0.000813681
0.000813888
0.000814175
0.000814521
0.000814911
0.000815328
0.000815762
0.0008162
0.000816634
0.000817056
0.000817461
0.000817845
0.000818204
0.000818536
0.000818839
0.000819113
0.000819359
0.000819575
0.000819764
0.000819925
0.000820062
0.000820173
0.000820263
0.000820331
0.00082038
0.000820411
0.000820425
0.000821347
0.000821545
0.00082182
0.000822153
0.000822527
0.000822928
0.000823343
0.000823764
0.00082418
0.000824586
0.000824974
0.000825342
0.000825687
0.000826005
0.000826296
0.000826559
0.000826795
0.000827002
0.000827183
0.000827338
0.000827469
0.000827576
0.000827662
0.000827727
0.000827774
0.000827804
0.000827818
0.000828694
0.000828884
0.000829148
0.000829466
0.000829825
0.000830209
0.000830608
0.00083101
0.000831409
0.000831798
0.00083217
0.000832523
0.000832853
0.000833158
0.000833437
0.000833689
0.000833914
0.000834113
0.000834287
0.000834435
0.00083456
0.000834663
0.000834745
0.000834808
0.000834853
0.000834881
0.000834895
0.000835724
0.000835907
0.000836159
0.000836464
0.000836807
0.000837174
0.000837556
0.000837941
0.000838323
0.000838694
0.000839051
0.000839388
0.000839704
0.000839995
0.000840262
0.000840503
0.000840718
0.000840909
0.000841074
0.000841216
0.000841336
0.000841434
0.000841513
0.000841572
0.000841615
0.000841642
0.000841655
0.000842438
0.000842612
0.000842853
0.000843144
0.000843471
0.000843822
0.000844186
0.000844554
0.000844918
0.000845273
0.000845613
0.000845935
0.000846236
0.000846514
0.000846768
0.000846998
0.000847204
0.000847385
0.000847543
0.000847678
0.000847792
0.000847886
0.000847961
0.000848018
0.000848059
0.000848085
0.000848097
0.000848831
0.000848997
0.000849226
0.000849503
0.000849815
0.000850149
0.000850495
0.000850845
0.000851191
0.000851529
0.000851852
0.000852158
0.000852444
0.000852709
0.00085295
0.000853169
0.000853364
0.000853537
0.000853687
0.000853815
0.000853924
0.000854013
0.000854084
0.000854138
0.000854177
0.000854201
0.000854213
0.000854897
0.000855054
0.000855271
0.000855534
0.000855829
0.000856146
0.000856474
0.000856806
0.000857134
0.000857454
0.00085776
0.00085805
0.00085832
0.000858571
0.0008588
0.000859007
0.000859191
0.000859355
0.000859497
0.000859618
0.000859721
0.000859805
0.000859872
0.000859923
0.00085996
0.000859983
0.000859994
0.000860626
0.000860775
0.00086098
0.000861228
0.000861506
0.000861805
0.000862114
0.000862427
0.000862736
0.000863037
0.000863326
0.000863599
0.000863854
0.00086409
0.000864305
0.0008645
0.000864674
0.000864828
0.000864961
0.000865076
0.000865172
0.000865251
0.000865315
0.000865363
0.000865397
0.000865419
0.00086543
0.000866007
0.000866147
0.000866339
0.000866571
0.000866832
0.000867112
0.000867402
0.000867695
0.000867985
0.000868267
0.000868537
0.000868793
0.000869032
0.000869252
0.000869454
0.000869636
0.000869799
0.000869942
0.000870067
0.000870174
0.000870264
0.000870338
0.000870397
0.000870442
0.000870475
0.000870495
0.000870505
0.000871026
0.000871156
0.000871335
0.000871551
0.000871794
0.000872054
0.000872324
0.000872597
0.000872866
0.000873128
0.000873379
0.000873616
0.000873838
0.000874043
0.00087423
0.000874399
0.00087455
0.000874683
0.000874799
0.000874898
0.000874981
0.00087505
0.000875105
0.000875147
0.000875176
0.000875195
0.000875204
0.000875668
0.000875787
0.000875953
0.000876152
0.000876376
0.000876616
0.000876865
0.000877116
0.000877364
0.000877605
0.000877836
0.000878054
0.000878258
0.000878446
0.000878618
0.000878773
0.000878912
0.000879034
0.000879141
0.000879232
0.000879308
0.000879371
0.000879421
0.00087946
0.000879487
0.000879504
0.000879513
0.000879917
0.000880026
0.000880177
0.000880359
0.000880563
0.000880782
0.000881008
0.000881237
0.000881463
0.000881682
0.000881892
0.000882091
0.000882276
0.000882447
0.000882603
0.000882744
0.00088287
0.000882981
0.000883077
0.00088316
0.000883229
0.000883286
0.000883332
0.000883367
0.000883391
0.000883407
0.000883415
0.000883759
0.000883857
0.000883993
0.000884157
0.000884341
0.000884538
0.000884741
0.000884947
0.000885149
0.000885346
0.000885535
0.000885713
0.000885879
0.000886032
0.000886172
0.000886298
0.000886411
0.00088651
0.000886596
0.00088667
0.000886732
0.000886783
0.000886824
0.000886855
0.000886877
0.000886891
0.000886897
0.000887183
0.00088727
0.00088739
0.000887535
0.000887698
0.000887872
0.000888053
0.000888234
0.000888413
0.000888587
0.000888754
0.000888911
0.000889057
0.000889192
0.000889315
0.000889426
0.000889525
0.000889612
0.000889688
0.000889753
0.000889807
0.000889852
0.000889888
0.000889915
0.000889934
0.000889947
0.000889952
0.000890181
0.000890256
0.000890361
0.000890487
0.000890629
0.00089078
0.000890936
0.000891094
0.000891249
0.0008914
0.000891543
0.000891679
0.000891805
0.000891922
0.000892028
0.000892124
0.000892209
0.000892284
0.000892349
0.000892405
0.000892452
0.00089249
0.000892521
0.000892544
0.000892561
0.000892572
0.000892577
0.000892751
0.000892816
0.000892905
0.000893012
0.000893132
0.00089326
0.000893393
0.000893526
0.000893657
0.000893785
0.000893906
0.00089402
0.000894127
0.000894225
0.000894314
0.000894394
0.000894466
0.000894529
0.000894583
0.00089463
0.000894669
0.000894702
0.000894727
0.000894747
0.000894761
0.00089477
0.000894774
0.000894901
0.000894954
0.000895028
0.000895117
0.000895216
0.000895322
0.000895431
0.00089554
0.000895648
0.000895753
0.000895852
0.000895946
0.000896033
0.000896113
0.000896186
0.000896252
0.00089631
0.000896361
0.000896406
0.000896444
0.000896476
0.000896502
0.000896523
0.000896538
0.00089655
0.000896557
0.00089656
0.000896648
0.000896691
0.00089675
0.000896821
0.0008969
0.000896985
0.000897072
0.000897159
0.000897245
0.000897328
0.000897407
0.000897481
0.00089755
0.000897614
0.000897671
0.000897723
0.000897769
0.00089781
0.000897845
0.000897875
0.0008979
0.00089792
0.000897937
0.000897949
0.000897958
0.000897964
0.000897966
0.000898022
0.000898055
0.000898101
0.000898156
0.000898217
0.000898282
0.000898349
0.000898417
0.000898483
0.000898546
0.000898607
0.000898664
0.000898716
0.000898765
0.000898808
0.000898848
0.000898883
0.000898913
0.00089894
0.000898962
0.000898981
0.000898997
0.000899009
0.000899019
0.000899025
0.00089903
0.000899032
0.000899065
0.000899089
0.000899123
0.000899164
0.000899209
0.000899257
0.000899307
0.000899356
0.000899405
0.000899452
0.000899496
0.000899538
0.000899576
0.000899611
0.000899643
0.000899672
0.000899697
0.000899719
0.000899738
0.000899755
0.000899768
0.00089978
0.000899788
0.000899795
0.0008998
0.000899803
0.000899805
0.000899822
0.00089984
0.000899864
0.000899893
0.000899925
0.000899958
0.000899993
0.000900028
0.000900062
0.000900094
0.000900125
0.000900154
0.000900181
0.000900205
0.000900227
0.000900247
0.000900264
0.000900279
0.000900292
0.000900304
0.000900313
0.000900321
0.000900327
0.000900331
0.000900335
0.000900337
0.000900338
0.000900347
0.000900359
0.000900375
0.000900394
0.000900415
0.000900438
0.00090046
0.000900483
0.000900506
0.000900527
0.000900547
0.000900566
0.000900583
0.000900599
0.000900613
0.000900626
0.000900637
0.000900647
0.000900655
0.000900662
0.000900668
0.000900673
0.000900677
0.00090068
0.000900682
0.000900683
0.000900684
0.00090069
0.000900697
0.000900707
0.000900719
0.000900732
0.000900746
0.00090076
0.000900774
0.000900787
0.0009008
0.000900812
0.000900824
0.000900834
0.000900843
0.000900852