/*--------------------------------*- C++ -*----------------------------------*\
| =========                 |                                                 |
| \\      /  F ield         | OpenFOAM: The Open Source CFD Toolbox           |
|  \\    /   O peration     | Version:  2106                                  |
|   \\  /    A nd           | Website:  www.openfoam.com                      |
|    \\/     M anipulation  |                                                 |
\*---------------------------------------------------------------------------*/
FoamFile
{
    version     2.0;
    format      ascii;
    arch        "LSB;label=32;scalar=64";
    class       volScalarField;
    location    "49.99987";
    object      T;
}
// * * * * * * * * * * * * * * * * * * * * * * * * * * * * * * * * * * * * * //

dimensions      [0 0 0 1 0 0 0];

internalField   nonuniform List<scalar> 
3360
(
301
301
301
301
301
301
301
301
301
301
301
301
301
301
301
301
301
301
301
301
301
301
301
301
301
301
301
301
301
301
301
301
301
301
301
301
301
301
301
301
301
301
301
301
301
301
301
301
301
301
301
301
301
301
301
301
301
301
301
301
301
301
301
301
301
301.001
301.001
301
301
301
301
301
301
301
301
301
301
301
301
301
301
301.001
301.001
301.001
301.002
301.002
301.002
301.002
301.002
301.002
301.002
301.002
301.002
301.002
301.002
301.002
301.002
301.002
301.002
301.002
301.002
301.002
301.002
301.002
301.002
301.002
301.002
301.002
301.004
301.004
301.005
301.005
301.005
301.005
301.006
301.006
301.006
301.007
301.007
301.007
301.008
301.008
301.008
301.008
301.009
301.009
301.009
301.009
301.009
301.009
301.009
301.009
301.009
301.009
301.009
301.012
301.012
301.013
301.014
301.014
301.015
301.017
301.018
301.019
301.02
301.021
301.023
301.024
301.025
301.026
301.027
301.028
301.029
301.03
301.03
301.031
301.031
301.031
301.032
301.032
301.032
301.032
301.03
301.031
301.033
301.035
301.038
301.04
301.043
301.047
301.05
301.054
301.057
301.061
301.065
301.068
301.071
301.075
301.078
301.08
301.083
301.085
301.087
301.089
301.091
301.092
301.093
301.094
301.095
301.071
301.074
301.078
301.083
301.089
301.096
301.104
301.112
301.12
301.129
301.138
301.147
301.156
301.165
301.174
301.182
301.19
301.198
301.205
301.211
301.217
301.222
301.227
301.231
301.235
301.238
301.241
301.156
301.163
301.172
301.183
301.196
301.212
301.228
301.246
301.265
301.285
301.305
301.325
301.345
301.365
301.385
301.404
301.422
301.439
301.456
301.471
301.485
301.498
301.51
301.521
301.53
301.539
301.546
301.322
301.335
301.353
301.376
301.404
301.434
301.468
301.505
301.543
301.583
301.624
301.665
301.706
301.747
301.787
301.826
301.864
301.9
301.934
301.966
301.996
302.024
302.05
302.073
302.094
302.113
302.13
301.627
301.651
301.686
301.73
301.782
301.84
301.905
301.973
302.046
302.121
302.199
302.277
302.355
302.433
302.509
302.583
302.655
302.724
302.789
302.851
302.91
302.964
303.014
303.06
303.103
303.141
303.175
302.162
302.206
302.269
302.348
302.441
302.545
302.66
302.783
302.913
303.047
303.185
303.324
303.464
303.602
303.739
303.871
304
304.123
304.241
304.352
304.457
304.555
304.646
304.73
304.808
304.879
304.943
303.066
303.141
303.249
303.384
303.542
303.721
303.917
304.126
304.347
304.575
304.809
305.045
305.281
305.516
305.746
305.97
306.188
306.396
306.596
306.785
306.963
307.13
307.286
307.43
307.563
307.686
307.797
304.537
304.661
304.838
305.06
305.32
305.613
305.934
306.276
306.636
307.007
307.387
307.77
308.153
308.532
308.904
309.267
309.618
309.955
310.277
310.582
310.871
311.141
311.393
311.628
311.844
312.043
312.226
306.865
307.063
307.345
307.697
308.11
308.574
309.079
309.618
310.183
310.765
311.359
311.957
312.553
313.143
313.721
314.283
314.826
315.348
315.846
316.318
316.763
317.181
317.572
317.934
318.27
318.579
318.863
310.458
310.764
311.198
311.741
312.375
313.085
313.857
314.678
315.536
316.418
317.315
318.216
319.112
319.996
320.861
321.701
322.511
323.288
324.027
324.729
325.389
326.009
326.588
327.126
327.625
328.084
328.505
315.886
316.347
316.997
317.809
318.754
319.81
320.954
322.167
323.43
324.725
326.036
327.349
328.652
329.932
331.182
332.392
333.557
334.671
335.731
336.733
337.677
338.561
339.386
340.153
340.863
341.517
342.117
323.933
324.605
325.554
326.734
328.105
329.63
331.277
333.016
334.819
336.66
338.517
340.37
342.201
343.996
345.741
347.425
349.042
350.585
352.048
353.431
354.729
355.945
357.078
358.129
359.102
359.998
360.822
335.644
336.599
337.945
339.612
341.542
343.681
345.981
348.398
350.893
353.429
355.976
358.506
360.996
363.426
365.781
368.047
370.215
372.277
374.229
376.068
377.793
379.405
380.905
382.296
383.582
384.766
385.853
352.358
353.676
355.526
357.81
360.443
363.348
366.458
369.709
373.048
376.426
379.803
383.142
386.414
389.595
392.665
395.61
398.418
401.082
403.596
405.961
408.174
410.238
412.157
413.935
415.577
417.088
418.476
375.674
377.429
379.886
382.908
386.376
390.186
394.243
398.464
402.777
407.121
411.442
415.696
419.847
423.867
427.734
431.43
434.945
438.27
441.403
444.343
447.09
449.65
452.026
454.227
456.258
458.128
459.845
407.288
409.536
412.673
416.518
420.913
425.719
430.813
436.088
441.455
446.834
452.164
457.391
462.473
467.378
472.082
476.567
480.822
484.841
488.62
492.161
495.467
498.545
501.402
504.046
506.487
508.736
510.803
448.682
451.438
455.276
459.966
465.307
471.125
477.268
483.604
490.026
496.441
502.774
508.967
514.972
520.754
526.286
531.552
536.541
541.246
545.667
549.807
553.672
557.27
560.61
563.704
566.563
569.199
571.625
500.676
503.908
508.399
513.874
520.093
526.846
533.956
541.27
548.661
556.027
563.283
570.363
577.216
583.806
590.105
596.094
601.765
607.112
612.137
616.843
621.239
625.334
629.141
632.671
635.938
638.956
641.74
563.021
566.644
571.673
577.793
584.732
592.255
600.16
608.278
616.469
624.621
632.641
640.46
648.023
655.292
662.238
668.845
675.101
681.004
686.555
691.76
696.628
701.171
705.4
709.331
712.977
716.355
719.478
634.154
638.044
643.44
650.001
657.434
665.485
673.939
682.614
691.362
700.064
708.624
716.969
725.043
732.805
740.228
747.293
753.991
760.319
766.278
771.876
777.122
782.028
786.606
790.872
794.842
798.53
801.952
711.257
715.264
720.822
727.579
735.232
743.52
752.221
761.151
770.158
779.12
787.941
796.544
804.876
812.894
820.57
827.886
834.834
841.409
847.613
853.455
858.941
864.085
868.9
873.4
877.6
881.516
885.163
790.599
794.565
800.066
806.755
814.333
822.541
831.163
840.015
848.949
857.844
866.606
875.161
883.455
891.448
899.111
906.426
913.385
919.985
926.226
932.115
937.661
942.875
947.769
952.357
956.653
960.671
964.428
868.121
871.892
877.124
883.488
890.699
898.514
906.726
915.163
923.683
932.173
940.543
948.724
956.663
964.324
971.679
978.711
985.412
991.778
997.81
1003.52
1008.9
1013.98
1018.75
1023.24
1027.46
1031.41
1035.12
940.073
943.516
948.293
954.103
960.689
967.829
975.333
983.046
990.838
998.605
1006.27
1013.77
1021.04
1028.07
1034.83
1041.29
1047.46
1053.32
1058.89
1064.16
1069.15
1073.85
1078.29
1082.47
1086.4
1090.11
1093.58
1003.57
1006.59
1010.77
1015.85
1021.61
1027.85
1034.42
1041.16
1047.97
1054.76
1061.45
1068
1074.36
1080.5
1086.4
1092.05
1097.44
1102.57
1107.44
1112.05
1116.42
1120.55
1124.45
1128.12
1131.59
1134.85
1137.93
1056.91
1059.43
1062.93
1067.18
1071.99
1077.21
1082.68
1088.3
1093.97
1099.61
1105.18
1110.61
1115.88
1120.97
1125.85
1130.52
1134.97
1139.21
1143.23
1147.04
1150.64
1154.05
1157.26
1160.3
1163.16
1165.85
1168.4
1099.62
1101.64
1104.43
1107.82
1111.65
1115.8
1120.15
1124.6
1129.09
1133.55
1137.93
1142.21
1146.35
1150.33
1154.15
1157.79
1161.26
1164.55
1167.67
1170.63
1173.42
1176.05
1178.53
1180.87
1183.08
1185.16
1187.11
1132.31
1133.85
1135.98
1138.56
1141.47
1144.61
1147.9
1151.26
1154.64
1157.98
1161.26
1164.45
1167.52
1170.47
1173.29
1175.98
1178.52
1180.93
1183.21
1185.36
1187.38
1189.29
1191.08
1192.77
1194.35
1195.85
1197.25
1156.34
1157.47
1159.02
1160.89
1163
1165.28
1167.65
1170.06
1172.48
1174.87
1177.2
1179.45
1181.62
1183.69
1185.66
1187.53
1189.29
1190.96
1192.52
1193.99
1195.37
1196.67
1197.88
1199.02
1200.09
1201.09
1202.03
1173.41
1174.19
1175.27
1176.58
1178.04
1179.62
1181.25
1182.91
1184.56
1186.18
1187.76
1189.28
1190.74
1192.12
1193.43
1194.66
1195.82
1196.91
1197.93
1198.88
1199.76
1200.59
1201.36
1202.08
1202.76
1203.38
1203.97
1185.21
1185.73
1186.45
1187.32
1188.3
1189.34
1190.42
1191.51
1192.59
1193.64
1194.66
1195.64
1196.57
1197.45
1198.27
1199.05
1199.77
1200.44
1201.06
1201.64
1202.18
1202.67
1203.13
1203.56
1203.95
1204.32
1204.66
1193.19
1193.53
1193.99
1194.55
1195.17
1195.83
1196.51
1197.19
1197.87
1198.52
1199.15
1199.74
1200.3
1200.83
1201.32
1201.77
1202.19
1202.58
1202.93
1203.26
1203.56
1203.83
1204.08
1204.31
1204.52
1204.71
1204.88
1198.53
1198.74
1199.02
1199.36
1199.73
1200.12
1200.53
1200.93
1201.32
1201.7
1202.06
1202.39
1202.71
1202.99
1203.26
1203.5
1203.72
1203.91
1204.09
1204.25
1204.39
1204.52
1204.63
1204.73
1204.82
1204.9
1204.96
1202.06
1202.17
1202.33
1202.52
1202.73
1202.94
1203.16
1203.37
1203.58
1203.77
1203.95
1204.11
1204.26
1204.39
1204.5
1204.6
1204.69
1204.76
1204.82
1204.87
1204.91
1204.95
1204.97
1204.98
1205
1205
1205
1204.37
1204.42
1204.5
1204.59
1204.68
1204.78
1204.87
1204.96
1205.04
1205.11
1205.17
1205.22
1205.26
1205.29
1205.3
1205.31
1205.31
1205.31
1205.29
1205.27
1205.25
1205.22
1205.18
1205.15
1205.11
1205.06
1205.02
1205.86
1205.87
1205.89
1205.92
1205.94
1205.96
1205.97
1205.98
1205.98
1205.97
1205.95
1205.93
1205.9
1205.86
1205.81
1205.76
1205.71
1205.65
1205.59
1205.52
1205.45
1205.39
1205.32
1205.25
1205.18
1205.1
1205.03
1206.8
1206.79
1206.78
1206.76
1206.74
1206.7
1206.66
1206.62
1206.57
1206.51
1206.44
1206.37
1206.29
1206.21
1206.13
1206.04
1205.95
1205.86
1205.77
1205.68
1205.58
1205.49
1205.4
1205.31
1205.22
1205.13
1205.04
1207.38
1207.36
1207.32
1207.28
1207.22
1207.16
1207.09
1207.01
1206.92
1206.83
1206.73
1206.63
1206.53
1206.42
1206.31
1206.2
1206.09
1205.98
1205.87
1205.76
1205.66
1205.55
1205.44
1205.34
1205.24
1205.14
1205.05
1207.73
1207.69
1207.64
1207.58
1207.51
1207.42
1207.33
1207.23
1207.12
1207.01
1206.9
1206.78
1206.66
1206.54
1206.42
1206.29
1206.17
1206.05
1205.93
1205.81
1205.69
1205.58
1205.47
1205.36
1205.25
1205.15
1205.05
1207.91
1207.87
1207.81
1207.74
1207.65
1207.56
1207.45
1207.34
1207.22
1207.1
1206.98
1206.85
1206.72
1206.59
1206.46
1206.33
1206.2
1206.08
1205.95
1205.83
1205.71
1205.59
1205.48
1205.36
1205.26
1205.15
1205.05
1207.98
1207.94
1207.88
1207.8
1207.71
1207.61
1207.5
1207.38
1207.26
1207.13
1207
1206.87
1206.73
1206.6
1206.47
1206.34
1206.21
1206.08
1205.95
1205.83
1205.71
1205.59
1205.47
1205.36
1205.25
1205.15
1205.05
1207.99
1207.94
1207.88
1207.8
1207.7
1207.6
1207.49
1207.37
1207.24
1207.12
1206.98
1206.85
1206.72
1206.59
1206.45
1206.32
1206.19
1206.06
1205.94
1205.81
1205.69
1205.58
1205.46
1205.35
1205.25
1205.14
1205.04
1207.95
1207.9
1207.84
1207.76
1207.66
1207.56
1207.45
1207.33
1207.2
1207.08
1206.95
1206.81
1206.68
1206.55
1206.42
1206.29
1206.16
1206.04
1205.91
1205.79
1205.68
1205.56
1205.45
1205.34
1205.24
1205.14
1205.04
1207.88
1207.83
1207.77
1207.69
1207.6
1207.5
1207.38
1207.27
1207.15
1207.02
1206.89
1206.76
1206.63
1206.51
1206.38
1206.25
1206.13
1206
1205.88
1205.77
1205.65
1205.54
1205.43
1205.33
1205.23
1205.13
1205.03
1207.79
1207.75
1207.69
1207.61
1207.52
1207.42
1207.31
1207.19
1207.08
1206.95
1206.83
1206.7
1206.58
1206.45
1206.33
1206.21
1206.08
1205.97
1205.85
1205.74
1205.63
1205.52
1205.41
1205.31
1205.21
1205.12
1205.03
1207.7
1207.65
1207.59
1207.52
1207.43
1207.33
1207.23
1207.11
1207
1206.88
1206.76
1206.64
1206.52
1206.4
1206.28
1206.16
1206.04
1205.93
1205.81
1205.7
1205.6
1205.49
1205.39
1205.3
1205.2
1205.11
1205.02
1207.59
1207.55
1207.49
1207.42
1207.33
1207.24
1207.14
1207.03
1206.92
1206.8
1206.69
1206.57
1206.45
1206.34
1206.22
1206.11
1205.99
1205.88
1205.77
1205.67
1205.57
1205.47
1205.37
1205.28
1205.18
1205.1
1205.01
1207.49
1207.45
1207.39
1207.32
1207.24
1207.15
1207.05
1206.94
1206.84
1206.73
1206.61
1206.5
1206.39
1206.27
1206.16
1206.05
1205.94
1205.84
1205.73
1205.63
1205.53
1205.44
1205.34
1205.25
1205.17
1205.08
1205
1207.38
1207.34
1207.28
1207.22
1207.14
1207.05
1206.95
1206.85
1206.75
1206.64
1206.54
1206.43
1206.32
1206.21
1206.1
1206
1205.89
1205.79
1205.69
1205.59
1205.5
1205.4
1205.31
1205.23
1205.14
1205.06
1204.98
1207.27
1207.23
1207.18
1207.11
1207.04
1206.95
1206.86
1206.76
1206.66
1206.56
1206.46
1206.35
1206.25
1206.14
1206.04
1205.94
1205.84
1205.74
1205.64
1205.55
1205.46
1205.37
1205.28
1205.2
1205.12
1205.04
1204.96
1207.16
1207.12
1207.07
1207.01
1206.93
1206.85
1206.76
1206.67
1206.58
1206.48
1206.38
1206.28
1206.17
1206.07
1205.97
1205.88
1205.78
1205.68
1205.59
1205.5
1205.41
1205.33
1205.24
1205.16
1205.09
1205.01
1204.94
1207.05
1207.01
1206.96
1206.9
1206.83
1206.75
1206.67
1206.58
1206.48
1206.39
1206.29
1206.19
1206.1
1206
1205.9
1205.81
1205.72
1205.62
1205.53
1205.45
1205.36
1205.28
1205.2
1205.12
1205.05
1204.98
1204.91
1206.93
1206.9
1206.85
1206.79
1206.72
1206.65
1206.56
1206.48
1206.39
1206.3
1206.2
1206.11
1206.01
1205.92
1205.83
1205.74
1205.65
1205.56
1205.47
1205.39
1205.3
1205.23
1205.15
1205.07
1205
1204.93
1204.86
1206.81
1206.78
1206.73
1206.67
1206.61
1206.53
1206.45
1206.37
1206.28
1206.19
1206.1
1206.01
1205.92
1205.83
1205.74
1205.65
1205.57
1205.48
1205.4
1205.32
1205.24
1205.16
1205.09
1205.01
1204.94
1204.88
1204.81
1206.68
1206.65
1206.61
1206.55
1206.48
1206.41
1206.34
1206.25
1206.17
1206.08
1206
1205.91
1205.82
1205.73
1205.64
1205.56
1205.47
1205.39
1205.31
1205.23
1205.15
1205.08
1205.01
1204.94
1204.87
1204.81
1204.74
1206.54
1206.51
1206.47
1206.41
1206.35
1206.28
1206.21
1206.13
1206.04
1205.96
1205.87
1205.79
1205.7
1205.62
1205.53
1205.45
1205.37
1205.29
1205.21
1205.13
1205.06
1204.98
1204.91
1204.85
1204.78
1204.72
1204.66
1206.39
1206.36
1206.32
1206.26
1206.2
1206.13
1206.06
1205.98
1205.9
1205.82
1205.74
1205.65
1205.57
1205.48
1205.4
1205.32
1205.24
1205.16
1205.08
1205.01
1204.94
1204.87
1204.8
1204.73
1204.67
1204.61
1204.55
1206.22
1206.19
1206.15
1206.09
1206.03
1205.97
1205.89
1205.82
1205.74
1205.66
1205.57
1205.49
1205.41
1205.32
1205.24
1205.16
1205.08
1205.01
1204.93
1204.86
1204.79
1204.72
1204.65
1204.59
1204.53
1204.47
1204.41
1206.02
1205.99
1205.95
1205.9
1205.84
1205.77
1205.7
1205.62
1205.54
1205.46
1205.38
1205.3
1205.22
1205.14
1205.06
1204.98
1204.9
1204.82
1204.75
1204.68
1204.61
1204.54
1204.47
1204.41
1204.35
1204.29
1204.23
1205.8
1205.77
1205.72
1205.67
1205.61
1205.54
1205.47
1205.4
1205.32
1205.24
1205.15
1205.07
1204.99
1204.91
1204.83
1204.75
1204.67
1204.6
1204.52
1204.45
1204.38
1204.32
1204.25
1204.19
1204.13
1204.07
1204.01
1205.53
1205.5
1205.46
1205.4
1205.34
1205.27
1205.2
1205.12
1205.04
1204.96
1204.88
1204.8
1204.71
1204.63
1204.55
1204.47
1204.39
1204.32
1204.25
1204.17
1204.1
1204.04
1203.97
1203.91
1203.85
1203.79
1203.74
1205.21
1205.18
1205.14
1205.08
1205.02
1204.95
1204.88
1204.8
1204.72
1204.63
1204.55
1204.46
1204.38
1204.3
1204.21
1204.13
1204.06
1203.98
1203.9
1203.83
1203.76
1203.69
1203.63
1203.57
1203.51
1203.45
1203.4
1204.83
1204.8
1204.75
1204.7
1204.63
1204.56
1204.48
1204.4
1204.32
1204.23
1204.14
1204.06
1203.97
1203.89
1203.8
1203.72
1203.64
1203.56
1203.48
1203.41
1203.34
1203.27
1203.2
1203.14
1203.08
1203.02
1202.97
1204.38
1204.34
1204.29
1204.23
1204.17
1204.09
1204.01
1203.92
1203.83
1203.74
1203.65
1203.56
1203.47
1203.38
1203.29
1203.21
1203.13
1203.04
1202.97
1202.89
1202.82
1202.75
1202.68
1202.61
1202.55
1202.49
1202.44
1203.82
1203.79
1203.74
1203.67
1203.6
1203.52
1203.43
1203.34
1203.25
1203.15
1203.05
1202.96
1202.86
1202.77
1202.68
1202.58
1202.5
1202.41
1202.33
1202.25
1202.17
1202.1
1202.03
1201.96
1201.9
1201.84
1201.78
1203.16
1203.12
1203.06
1202.99
1202.91
1202.82
1202.73
1202.63
1202.53
1202.43
1202.32
1202.22
1202.12
1202.02
1201.92
1201.82
1201.73
1201.64
1201.55
1201.46
1201.38
1201.31
1201.23
1201.16
1201.09
1201.03
1200.97
1202.34
1202.3
1202.24
1202.16
1202.08
1201.98
1201.88
1201.77
1201.66
1201.55
1201.43
1201.32
1201.21
1201.1
1200.99
1200.89
1200.78
1200.69
1200.59
1200.5
1200.41
1200.33
1200.25
1200.18
1200.11
1200.04
1199.97
1201.36
1201.31
1201.24
1201.16
1201.06
1200.95
1200.84
1200.72
1200.6
1200.47
1200.35
1200.22
1200.1
1199.98
1199.86
1199.74
1199.63
1199.53
1199.42
1199.32
1199.23
1199.14
1199.05
1198.97
1198.9
1198.82
1198.76
1200.17
1200.11
1200.03
1199.94
1199.83
1199.71
1199.58
1199.45
1199.31
1199.17
1199.03
1198.89
1198.75
1198.61
1198.48
1198.35
1198.23
1198.11
1198
1197.89
1197.78
1197.69
1197.59
1197.5
1197.42
1197.34
1197.26
1198.72
1198.66
1198.57
1198.46
1198.34
1198.2
1198.05
1197.9
1197.74
1197.58
1197.42
1197.27
1197.11
1196.96
1196.81
1196.66
1196.52
1196.39
1196.26
1196.14
1196.03
1195.92
1195.81
1195.71
1195.62
1195.53
1195.45
1196.97
1196.9
1196.8
1196.67
1196.53
1196.37
1196.2
1196.03
1195.85
1195.67
1195.48
1195.3
1195.12
1194.95
1194.78
1194.61
1194.46
1194.3
1194.16
1194.02
1193.89
1193.77
1193.65
1193.54
1193.44
1193.34
1193.25
1194.86
1194.78
1194.66
1194.51
1194.35
1194.17
1193.97
1193.77
1193.56
1193.35
1193.14
1192.93
1192.72
1192.52
1192.33
1192.14
1191.96
1191.78
1191.62
1191.46
1191.31
1191.17
1191.04
1190.91
1190.79
1190.68
1190.58
1192.32
1192.22
1192.08
1191.91
1191.72
1191.51
1191.28
1191.05
1190.8
1190.56
1190.31
1190.07
1189.83
1189.6
1189.37
1189.15
1188.94
1188.74
1188.55
1188.37
1188.2
1188.03
1187.88
1187.74
1187.6
1187.48
1187.36
1189.26
1189.15
1188.99
1188.79
1188.57
1188.32
1188.05
1187.77
1187.49
1187.2
1186.92
1186.63
1186.35
1186.08
1185.82
1185.56
1185.32
1185.09
1184.86
1184.65
1184.45
1184.27
1184.09
1183.92
1183.77
1183.62
1183.49
1185.61
1185.47
1185.28
1185.05
1184.79
1184.49
1184.18
1183.86
1183.52
1183.19
1182.85
1182.52
1182.19
1181.87
1181.56
1181.26
1180.98
1180.71
1180.45
1180.2
1179.97
1179.75
1179.54
1179.35
1179.17
1179
1178.84
1181.24
1181.08
1180.86
1180.58
1180.27
1179.93
1179.56
1179.18
1178.79
1178.39
1177.99
1177.6
1177.22
1176.84
1176.48
1176.13
1175.79
1175.47
1175.17
1174.88
1174.61
1174.35
1174.11
1173.89
1173.68
1173.48
1173.3
1176.04
1175.85
1175.59
1175.27
1174.9
1174.49
1174.06
1173.61
1173.15
1172.68
1172.21
1171.75
1171.3
1170.86
1170.43
1170.02
1169.63
1169.25
1168.89
1168.55
1168.23
1167.93
1167.65
1167.39
1167.14
1166.91
1166.7
1169.88
1169.65
1169.35
1168.97
1168.53
1168.05
1167.54
1167.01
1166.47
1165.91
1165.36
1164.82
1164.29
1163.77
1163.26
1162.78
1162.31
1161.87
1161.45
1161.05
1160.67
1160.32
1159.99
1159.68
1159.39
1159.12
1158.87
1162.59
1162.34
1161.97
1161.52
1161.01
1160.45
1159.84
1159.22
1158.57
1157.92
1157.28
1156.63
1156
1155.39
1154.8
1154.22
1153.68
1153.15
1152.66
1152.19
1151.75
1151.33
1150.94
1150.57
1150.23
1149.91
1149.62
1154.03
1153.73
1153.3
1152.77
1152.17
1151.5
1150.79
1150.05
1149.3
1148.53
1147.77
1147.01
1146.27
1145.54
1144.84
1144.17
1143.52
1142.91
1142.32
1141.77
1141.25
1140.76
1140.29
1139.86
1139.46
1139.09
1138.74
1144.01
1143.65
1143.15
1142.53
1141.82
1141.04
1140.2
1139.33
1138.44
1137.54
1136.64
1135.75
1134.88
1134.02
1133.2
1132.41
1131.65
1130.92
1130.23
1129.58
1128.96
1128.38
1127.84
1127.33
1126.85
1126.41
1126
1132.34
1131.92
1131.33
1130.6
1129.77
1128.85
1127.87
1126.85
1125.81
1124.75
1123.69
1122.64
1121.62
1120.62
1119.65
1118.71
1117.82
1116.96
1116.15
1115.38
1114.66
1113.97
1113.33
1112.73
1112.17
1111.65
1111.16
1118.83
1118.34
1117.65
1116.8
1115.82
1114.75
1113.6
1112.41
1111.18
1109.94
1108.7
1107.48
1106.27
1105.1
1103.96
1102.86
1101.81
1100.81
1099.85
1098.95
1098.09
1097.29
1096.53
1095.82
1095.16
1094.55
1093.97
1103.29
1102.71
1101.91
1100.92
1099.78
1098.53
1097.19
1095.79
1094.36
1092.92
1091.47
1090.03
1088.62
1087.25
1085.91
1084.63
1083.39
1082.22
1081.1
1080.03
1079.03
1078.08
1077.19
1076.36
1075.58
1074.86
1074.18
1085.52
1084.86
1083.92
1082.77
1081.45
1079.99
1078.44
1076.82
1075.15
1073.47
1071.78
1070.11
1068.46
1066.86
1065.3
1063.8
1062.36
1060.98
1059.67
1058.42
1057.24
1056.13
1055.09
1054.11
1053.2
1052.34
1051.54
1065.38
1064.6
1063.52
1062.2
1060.67
1058.98
1057.18
1055.31
1053.38
1051.42
1049.46
1047.52
1045.61
1043.75
1041.94
1040.19
1038.51
1036.9
1035.37
1033.91
1032.54
1031.24
1030.02
1028.87
1027.79
1026.79
1025.85
1042.71
1041.83
1040.59
1039.06
1037.3
1035.36
1033.29
1031.13
1028.91
1026.66
1024.4
1022.16
1019.96
1017.8
1015.71
1013.68
1011.74
1009.88
1008.1
1006.41
1004.81
1003.31
1001.88
1000.55
999.187
998.016
996.922
1017.44
1016.43
1015.01
1013.26
1011.25
1009.04
1006.67
1004.2
1001.65
998.953
996.361
993.785
991.248
988.765
986.35
984.014
981.766
979.611
977.554
975.597
973.742
971.987
970.333
968.777
967.316
965.948
964.669
989.408
988.261
986.652
984.668
982.384
979.866
977.171
974.35
971.446
968.499
965.541
962.6
959.699
956.857
954.091
951.412
948.831
946.354
943.987
941.732
939.592
937.566
935.653
933.851
932.158
930.57
929.084
958.881
957.589
955.778
953.543
950.969
948.129
945.088
941.901
938.62
935.285
931.935
928.601
925.309
922.081
918.935
915.885
912.943
910.116
907.411
904.832
902.38
900.057
897.86
895.788
893.839
892.008
890.292
925.896
924.455
922.434
919.94
917.064
913.89
910.488
906.921
903.244
899.505
895.744
891.998
888.294
884.659
881.112
877.669
874.344
871.145
868.081
865.154
862.369
859.726
857.224
854.861
852.634
850.541
848.575
890.697
889.106
886.874
884.117
880.938
877.426
873.659
869.707
865.629
861.478
857.299
853.131
849.007
844.954
840.995
837.148
833.427
829.844
826.406
823.119
819.986
817.009
814.187
811.519
809.001
806.629
804.4
853.638
851.901
849.463
846.451
842.977
839.135
835.012
830.683
826.212
821.658
817.068
812.486
807.947
803.481
799.113
794.864
790.749
786.782
782.97
779.321
775.839
772.525
769.38
766.401
763.586
760.932
758.433
815.182
813.309
810.68
807.432
803.682
799.535
795.08
790.4
785.563
780.631
775.656
770.685
765.755
760.9
756.147
751.517
747.028
742.695
738.526
734.531
730.713
727.075
723.617
720.337
717.235
714.305
711.543
775.889
773.899
771.104
767.65
763.66
759.246
754.503
749.515
744.358
739.096
733.784
728.472
723.199
718.002
712.907
707.94
703.12
698.461
693.975
689.669
685.55
681.619
677.879
674.328
670.963
667.781
664.778
736.4
734.316
731.39
727.773
723.594
718.97
713.998
708.769
703.36
697.837
692.26
686.677
681.134
675.665
670.3
665.066
659.981
655.061
650.32
645.765
641.402
637.235
633.266
629.492
625.912
622.524
619.321
697.395
695.25
692.237
688.512
684.209
679.446
674.326
668.939
663.365
657.674
651.924
646.168
640.449
634.805
629.266
623.858
618.602
613.514
608.606
603.887
599.365
595.041
590.918
586.996
583.271
579.742
576.402
659.565
657.395
654.347
650.579
646.228
641.412
636.236
630.791
625.159
619.409
613.6
607.785
602.009
596.307
590.712
585.248
579.936
574.793
569.831
565.058
560.482
556.104
551.928
547.952
544.174
540.591
537.199
623.561
621.405
618.379
614.639
610.323
605.548
600.42
595.029
589.455
583.768
578.026
572.283
566.58
560.954
555.435
550.048
544.814
539.747
534.859
530.158
525.651
521.34
517.226
513.309
509.586
506.054
502.708
589.955
587.856
584.91
581.272
577.077
572.44
567.465
562.241
556.847
551.349
545.806
540.267
534.774
529.362
524.059
518.888
513.868
509.014
504.335
499.839
495.53
491.412
487.483
483.744
480.19
476.819
473.626
559.21
557.207
554.397
550.932
546.94
542.535
537.816
532.869
527.769
522.582
517.362
512.156
507.003
501.935
496.979
492.155
487.481
482.967
478.624
474.456
470.468
466.66
463.032
459.581
456.305
453.199
450.257
531.648
529.777
527.155
523.925
520.211
516.121
511.748
507.175
502.472
497.701
492.912
488.148
483.446
478.834
474.335
469.968
465.747
461.681
457.777
454.04
450.47
447.068
443.832
440.759
437.845
435.085
432.474
507.447
505.736
503.343
500.402
497.026
493.316
489.362
485.238
481.011
476.736
472.459
468.219
464.049
459.972
456.009
452.175
448.48
444.933
441.537
438.295
435.207
432.271
429.485
426.844
424.344
421.98
419.747
486.63
485.102
482.968
480.35
477.353
474.07
470.581
466.955
463.252
459.522
455.805
452.135
448.539
445.039
441.649
438.383
435.248
432.249
429.388
426.665
424.08
421.629
419.309
417.116
415.044
413.089
411.244
469.082
467.748
465.888
463.612
461.014
458.177
455.173
452.064
448.902
445.73
442.583
439.49
436.473
433.549
430.731
428.026
425.441
422.978
420.638
418.418
416.318
414.333
412.46
410.693
409.028
407.46
405.983
454.568
453.429
451.844
449.91
447.709
445.314
442.788
440.184
437.547
434.914
432.314
429.77
427.301
424.919
422.633
420.449
418.37
416.398
414.531
412.767
411.103
409.535
408.06
406.673
405.368
404.142
402.99
442.769
441.817
440.495
438.886
437.06
435.081
433.001
430.867
428.714
426.575
424.471
422.423
420.444
418.543
416.726
414.999
413.361
411.812
410.352
408.977
407.684
406.469
405.329
404.26
403.257
402.315
401.432
433.32
432.54
431.457
430.143
428.657
427.051
425.371
423.652
421.926
420.218
418.545
416.923
415.362
413.869
412.448
411.101
409.829
408.63
407.503
406.445
405.453
404.523
403.653
402.837
402.074
401.359
400.69
425.845
425.215
424.344
423.287
422.096
420.813
419.475
418.111
416.746
415.4
414.087
412.818
411.601
410.44
409.34
408.3
407.32
406.399
405.536
404.728
403.971
403.264
402.602
401.984
401.406
400.865
400.359
419.988
419.486
418.793
417.955
417.012
415.999
414.944
413.873
412.805
411.754
410.732
409.747
408.804
407.908
407.061
406.261
405.51
404.806
404.146
403.53
402.954
402.416
401.914
401.445
401.007
400.598
400.215
415.432
415.036
414.491
413.832
413.092
412.298
411.474
410.639
409.808
408.992
408.2
407.439
406.712
406.022
405.371
404.758
404.182
403.643
403.139
402.669
402.23
401.82
401.438
401.081
400.748
400.437
400.146
411.917
411.608
411.181
410.666
410.088
409.47
408.829
408.18
407.535
406.904
406.292
405.704
405.143
404.612
404.111
403.64
403.198
402.784
402.398
402.037
401.701
401.387
401.095
400.822
400.567
400.33
400.108
409.269
409.027
408.693
408.29
407.839
407.357
406.857
406.352
405.85
405.359
404.883
404.426
403.991
403.579
403.189
402.824
402.481
402.16
401.86
401.58
401.319
401.076
400.849
400.637
400.44
400.255
400.083
407.521
407.326
407.057
406.733
406.37
405.981
405.578
405.171
404.766
404.369
403.984
403.615
403.262
402.927
402.611
402.313
402.034
401.772
401.527
401.298
401.084
400.884
400.698
400.524
400.362
400.21
400.068
301
301
301
301.001
301.004
301.011
301.029
301.07
301.153
301.316
301.615
302.141
303.029
304.476
306.768
310.309
315.662
323.605
335.177
351.714
374.815
406.186
447.327
499.087
561.238
632.239
709.283
788.646
866.264
938.378
1002.09
1055.67
1098.63
1131.55
1155.79
1173.03
1184.95
1193.03
1198.43
1202
1204.34
1205.85
1206.81
1207.4
1207.74
1207.93
1208
1208.01
1207.97
1207.9
1207.82
1207.72
1207.61
1207.51
1207.4
1207.29
1207.18
1207.06
1206.95
1206.83
1206.7
1206.56
1206.41
1206.23
1206.04
1205.81
1205.54
1205.23
1204.85
1204.39
1203.84
1203.17
1202.37
1201.38
1200.19
1198.75
1197.01
1194.9
1192.37
1189.32
1185.67
1181.31
1176.13
1169.98
1162.72
1154.18
1144.19
1132.55
1119.07
1103.57
1085.85
1065.75
1043.14
1017.93
989.969
959.512
926.601
891.475
854.487
816.097
776.862
737.417
698.443
660.626
624.614
590.981
560.19
532.564
508.284
487.379
469.737
455.128
443.238
433.705
426.156
420.235
415.627
412.07
409.389
407.617
)
;

boundaryField
{
    outlet
    {
        type            inletOutlet;
        inletValue      uniform 301;
        value           nonuniform List<scalar> 
28
(
407.521
407.326
407.057
406.733
406.37
405.981
405.578
405.171
404.766
404.369
403.984
403.615
403.262
402.927
402.611
402.313
402.034
401.772
401.527
401.298
401.084
400.884
400.698
400.524
400.362
400.21
400.068
407.617
)
;
    }
    inlet
    {
        type            fixedValue;
        value           uniform 301;
    }
    front
    {
        type            wedge;
    }
    wall
    {
        type            codedFixedValue;
        value           nonuniform List<scalar> 
120
(
301
301
301
301.002
301.009
301.032
301.095
301.242
301.549
302.138
303.191
304.973
307.849
312.31
318.995
328.702
342.399
361.207
386.362
419.126
460.65
511.772
572.765
643.051
720.954
803.575
886.899
966.223
1036.9
1095.26
1139.4
1169.62
1188.06
1197.93
1202.48
1204.25
1204.82
1204.96
1204.99
1205
1205
1205
1205
1205
1205
1205
1205
1204.99
1204.99
1204.99
1204.98
1204.98
1204.97
1204.96
1204.94
1204.93
1204.9
1204.87
1204.83
1204.78
1204.71
1204.63
1204.52
1204.38
1204.21
1203.99
1203.71
1203.37
1202.94
1202.41
1201.75
1200.94
1199.94
1198.72
1197.23
1195.41
1193.2
1190.53
1187.3
1183.42
1178.77
1173.21
1166.59
1158.75
1149.48
1138.57
1125.8
1110.93
1093.7
1073.86
1051.17
1025.4
996.401
964.059
928.373
889.47
847.633
803.33
757.232
710.213
663.331
617.775
574.789
535.559
501.09
472.081
448.835
431.212
418.669
410.355
405.272
402.436
401.008
400.368
400.117
400.032
400.007
400.001
400
400
)
;
        name            wall_temperature_bc;
        code            #{
            double T_sp = 0.985282 * 1223.00;
            double a1 = 0.131623084265, m1 = 6.550948234271;
            double a2 = 0.498993531167, m2 = 15.856001825018;

            vector axisX = vector(1, 0, 0);
            scalarField x = (patch().Cf() & axisX);

            scalarField u = Foam::pow(x / a1, m1);
            scalarField d = Foam::pow(x / a2, m2);

            scalarField Tu = (T_sp - 301.0) * (1 - Foam::exp(-u));
            scalarField Td = (T_sp - 400.0) * (1 - Foam::exp(-d));

            scalarField Tval = 301 + Tu - Td;
            operator==(Tval);
        #};
    }
    back
    {
        type            wedge;
    }
}


// ************************************************************************* //
