/*--------------------------------*- C++ -*----------------------------------*\
| =========                 |                                                 |
| \\      /  F ield         | OpenFOAM: The Open Source CFD Toolbox           |
|  \\    /   O peration     | Version:  2212                                  |
|   \\  /    A nd           | Website:  www.openfoam.com                      |
|    \\/     M anipulation  |                                                 |
\*---------------------------------------------------------------------------*/
FoamFile
{
    version     2.0;
    format      ascii;
    arch        "LSB;label=32;scalar=64";
    class       volScalarField;
    location    "20.00000000";
    object      A1C2H3;
}
// * * * * * * * * * * * * * * * * * * * * * * * * * * * * * * * * * * * * * //

dimensions      [0 0 0 0 0 0 0];

internalField   nonuniform List<scalar> 
3000
(
7.280127705e-26
8.178305159e-26
9.533671072e-26
1.133986407e-25
1.357858551e-25
1.618911754e-25
1.901424143e-25
2.171016934e-25
2.361637574e-25
2.733352043e-25
3.082948038e-25
3.61026638e-25
4.314536741e-25
5.195080887e-25
6.247072585e-25
7.452253237e-25
8.750048465e-25
9.899419985e-25
6.122907851e-25
6.960273034e-25
8.235370367e-25
9.966683562e-25
1.218536299e-24
1.49236851e-24
1.817079127e-24
2.174468289e-24
2.479832369e-24
1.166303594e-24
1.339687073e-24
1.607577654e-24
1.979043429e-24
2.467249314e-24
3.084614396e-24
3.82776452e-24
4.637274805e-24
5.290606656e-24
2.071185785e-24
2.408272631e-24
2.937293616e-24
3.685127717e-24
4.686954433e-24
5.970874917e-24
7.515428768e-24
9.155773405e-24
1.041494679e-23
3.561835592e-24
4.194502695e-24
5.201636652e-24
6.647522754e-24
8.60930162e-24
1.113638408e-23
1.415329836e-23
1.727966165e-23
1.959266366e-23
6.047467374e-24
7.209638856e-24
9.081228158e-24
1.179848107e-23
1.551271999e-23
2.0297855e-23
2.595601571e-23
3.170501365e-23
3.585339176e-23
1.023632529e-23
1.233966082e-23
1.575700394e-23
2.075676463e-23
2.761777448e-23
3.643892243e-23
4.677780022e-23
5.712972236e-23
6.447495129e-23
1.735700298e-23
2.112368517e-23
2.72828698e-23
3.63393449e-23
4.87888192e-23
6.475099541e-23
8.332460988e-23
1.017283243e-22
1.146429092e-22
2.954042965e-23
3.623351907e-23
4.72272053e-23
6.344310816e-23
8.574581018e-23
1.142640851e-22
1.47262941e-22
1.797210745e-22
2.023307558e-22
5.048808254e-23
6.23139109e-23
8.179761369e-23
1.1058957e-22
1.501819798e-22
2.006850573e-22
2.588754388e-22
3.158237514e-22
3.553070855e-22
8.66366331e-23
1.074479579e-22
1.418045405e-22
1.926239686e-22
2.624636155e-22
3.513470963e-22
4.534126959e-22
5.52956784e-22
6.218319896e-22
1.491917171e-22
1.857220883e-22
2.461079751e-22
3.354652578e-22
4.58146529e-22
6.138939117e-22
7.921109744e-22
9.654450987e-22
1.085851977e-21
2.576669071e-22
3.217001017e-22
4.276571932e-22
5.844917178e-22
7.995894476e-22
1.071834814e-21
1.381535872e-21
1.680535171e-21
1.894122261e-21
4.4600382e-22
5.581636286e-22
7.439708411e-22
1.019236294e-21
1.396813639e-21
1.87377999e-21
2.410935744e-21
2.904101302e-21
3.309397492e-21
7.7308235e-22
9.693263215e-22
1.29486047e-21
1.778010268e-21
2.442936526e-21
3.289650445e-21
4.266114019e-21
5.242340911e-21
5.852768013e-21
1.340819883e-21
1.683406935e-21
2.252002958e-21
3.096138207e-21
4.257469193e-21
5.733319843e-21
7.422346379e-21
9.060338159e-21
1.017255243e-20
2.325844719e-21
2.922644049e-21
3.913257604e-21
5.383557652e-21
7.4047429e-21
9.969310942e-21
1.289701886e-20
1.5728922e-20
1.766746144e-20
4.034613358e-21
5.072823744e-21
6.796154901e-21
9.35347902e-21
1.286740062e-20
1.73230927e-20
2.240616407e-20
2.732108496e-20
3.068782107e-20
6.999100523e-21
8.8038248e-21
1.179961807e-20
1.624486733e-20
2.235170469e-20
3.009305109e-20
3.892181598e-20
4.745658189e-20
5.330236056e-20
1.214291905e-20
1.527883918e-20
2.048468586e-20
2.820917196e-20
3.881996722e-20
5.226853626e-20
6.760302768e-20
8.242367961e-20
9.257328725e-20
2.106978557e-20
2.651770044e-20
3.556209927e-20
4.898224014e-20
6.741561577e-20
9.077569116e-20
1.17406642e-19
1.431402486e-19
1.607601856e-19
3.656447138e-20
4.602785561e-20
6.173905428e-20
8.505103703e-20
1.170689673e-19
1.576388423e-19
2.038810684e-19
2.485566365e-19
2.791422757e-19
6.346276378e-20
7.990012813e-20
1.071895537e-19
1.476790684e-19
2.03283515e-19
2.737284953e-19
3.540071503e-19
4.315505413e-19
4.846304861e-19
1.1016186e-19
1.387110246e-19
1.861066078e-19
2.564211739e-19
3.529695906e-19
4.752606126e-19
6.145883964e-19
7.491350519e-19
8.412149199e-19
1.91241989e-19
2.408244069e-19
3.231309417e-19
4.452200745e-19
6.128234012e-19
8.250548477e-19
1.066774024e-18
1.300120337e-18
1.459768936e-18
3.32014655e-19
4.181192096e-19
5.610317511e-19
7.729734584e-19
1.063836697e-18
1.432007157e-18
1.851147117e-18
2.255585163e-18
2.532176975e-18
5.76404704e-19
7.259134118e-19
9.740082795e-19
1.341820475e-18
1.846381326e-18
2.484711179e-18
3.210975225e-18
3.911327478e-18
4.390018455e-18
1.000593148e-18
1.260136434e-18
1.690692786e-18
2.328733055e-18
3.203481648e-18
4.309352797e-18
5.566536652e-18
6.777827384e-18
7.605083087e-18
1.73658945e-18
2.18698717e-18
2.9338444e-18
4.039955476e-18
5.555243116e-18
7.469057638e-18
9.642338945e-18
1.173385023e-17
1.316068488e-17
3.012866444e-18
3.794026201e-18
5.088648449e-18
7.004507278e-18
9.626380714e-18
1.293362012e-17
1.668376282e-17
2.028721003e-17
2.274184748e-17
5.224206849e-18
6.577913081e-18
8.81981203e-18
1.213411272e-17
1.666367832e-17
2.236786239e-17
2.88236595e-17
3.501435234e-17
3.922316958e-17
9.051338387e-18
1.139448046e-17
1.527141932e-17
2.099533791e-17
2.880459716e-17
3.86182174e-17
4.969796052e-17
6.029517053e-17
6.748175328e-17
1.566499067e-17
1.971422713e-17
2.640619842e-17
3.626978478e-17
4.969764202e-17
6.652716545e-17
8.547013357e-17
1.035293214e-16
1.157378693e-16
2.707225086e-17
3.405487824e-17
4.5577783e-17
6.252659577e-17
8.553770644e-17
1.142836093e-16
1.465183398e-16
1.771271334e-16
1.977403491e-16
4.670117763e-17
5.870907279e-17
7.848888667e-17
1.075082604e-16
1.467774167e-16
1.956379343e-16
2.501816411e-16
3.017281762e-16
3.362836715e-16
8.038139338e-17
1.009597406e-16
1.347822793e-16
1.842503601e-16
2.509254164e-16
3.334923616e-16
4.251731119e-16
5.113352426e-16
5.687914539e-16
1.379774306e-16
1.730937762e-16
2.306580177e-16
3.145391859e-16
4.270679745e-16
5.65645841e-16
7.185754578e-16
8.613893436e-16
9.560557959e-16
2.360885646e-16
2.957090583e-16
3.931353238e-16
5.344869868e-16
7.230829095e-16
9.538621106e-16
1.206774689e-15
1.441290069e-15
1.595722678e-15
4.02474299e-16
5.030938159e-16
6.669170878e-16
9.034123923e-16
1.216996914e-15
1.597984706e-15
2.01230747e-15
2.39353623e-15
2.642813393e-15
6.832429427e-16
8.518877539e-16
1.125319265e-15
1.517806516e-15
2.034625417e-15
2.657604018e-15
3.329463138e-15
3.942594042e-15
4.34054405e-15
1.154414658e-15
1.4348764e-15
1.887464511e-15
2.53301487e-15
3.376604186e-15
4.384871405e-15
5.462682189e-15
6.437891721e-15
7.06605152e-15
1.940326623e-15
2.40271248e-15
3.145000846e-15
4.19646776e-15
5.559277669e-15
7.173567994e-15
8.883455137e-15
1.041712607e-14
1.139749652e-14
3.242603161e-15
3.997719349e-15
5.203114748e-15
6.897977867e-15
9.075793622e-15
1.163163005e-14
1.431372388e-14
1.669853604e-14
1.82115876e-14
5.385221283e-15
6.605868518e-15
8.542728192e-15
1.124497135e-14
1.468636447e-14
1.868722837e-14
2.284696232e-14
2.651420624e-14
2.882411835e-14
8.883761921e-15
1.083574304e-14
1.391372231e-14
1.817377179e-14
2.355026477e-14
2.974249637e-14
3.612248964e-14
4.170115551e-14
4.519099137e-14
1.455050923e-14
1.763707599e-14
2.24731158e-14
2.911254733e-14
3.741711081e-14
4.689450639e-14
5.657458626e-14
6.497340459e-14
7.019389471e-14
2.365198984e-14
2.84766584e-14
3.598775196e-14
4.62177129e-14
5.890181245e-14
7.325065031e-14
8.778622448e-14
1.003070236e-13
1.080439423e-13
3.814230065e-14
4.559655217e-14
5.712877186e-14
7.271406613e-14
9.187696941e-14
1.133759173e-13
1.349884764e-13
1.534821617e-13
1.648490497e-13
6.100481489e-14
7.238932645e-14
8.989574226e-14
1.133805612e-13
1.420293095e-13
1.739236594e-13
2.057619833e-13
2.328423995e-13
2.494077314e-13
9.674752089e-14
1.139384724e-13
1.402228525e-13
1.752395517e-13
2.176442633e-13
2.645205989e-13
3.110176507e-13
3.503539617e-13
3.743149726e-13
1.521146574e-13
1.777906785e-13
2.168396319e-13
2.68529144e-13
3.307065471e-13
3.990027113e-13
4.663617597e-13
5.230770017e-13
5.574971643e-13
2.371012805e-13
2.750524757e-13
3.324866533e-13
4.080685453e-13
4.984370818e-13
5.971334724e-13
6.939885631e-13
7.752020088e-13
8.243351751e-13
3.663841926e-13
4.21928628e-13
5.05610708e-13
6.151544223e-13
7.454248492e-13
8.869866398e-13
1.025301206e-12
1.140865664e-12
1.210594349e-12
5.613071425e-13
6.418553862e-13
7.627209415e-13
9.201998249e-13
1.106587294e-12
1.308241129e-12
1.50452367e-12
1.668022144e-12
1.766451626e-12
8.526864282e-13
9.68506016e-13
1.141682716e-12
1.366391707e-12
1.631247583e-12
1.916703888e-12
2.19365148e-12
2.423745955e-12
2.562009971e-12
1.284696631e-12
1.449943425e-12
1.696261373e-12
2.014730356e-12
2.38874474e-12
2.79052264e-12
3.179239551e-12
3.501493374e-12
3.694842567e-12
1.920247608e-12
2.154356054e-12
2.50238378e-12
2.950956836e-12
3.476127653e-12
4.038689338e-12
4.581678833e-12
5.031015262e-12
5.300286504e-12
2.848397487e-12
3.17795296e-12
3.666739259e-12
4.295047887e-12
5.028679092e-12
5.812651142e-12
6.567846042e-12
7.191861858e-12
7.565459995e-12
4.194537595e-12
4.655795652e-12
5.338558458e-12
6.214194233e-12
7.234274998e-12
8.322128919e-12
9.368317638e-12
1.023174683e-11
1.074831535e-11
6.134340187e-12
6.77661309e-12
7.725698028e-12
8.940493607e-12
1.035293004e-11
1.185662152e-11
1.33007487e-11
1.449147183e-11
1.520349289e-11
8.912798146e-12
9.803003118e-12
1.111654327e-11
1.279500939e-11
1.474334133e-11
1.68145792e-11
1.880156535e-11
2.043869837e-11
2.141734144e-11
1.287013214e-11
1.409889464e-11
1.590974844e-11
1.822039995e-11
2.089885025e-11
2.374289503e-11
2.646884052e-11
2.871362066e-11
3.005527419e-11
1.847692659e-11
2.016676307e-11
2.265450015e-11
2.58250495e-11
2.949603792e-11
3.339023379e-11
3.712016825e-11
4.019060301e-11
4.202567381e-11
2.638161694e-11
2.869789285e-11
3.210484915e-11
3.644256679e-11
4.146019451e-11
4.677884056e-11
5.187056963e-11
5.606114219e-11
5.856590726e-11
3.74744208e-11
4.064000024e-11
4.529274874e-11
5.121170542e-11
5.805320127e-11
6.530088772e-11
7.223699428e-11
7.794514181e-11
8.135769473e-11
5.297302181e-11
5.728780523e-11
6.362580133e-11
7.168323432e-11
8.099096573e-11
9.084715398e-11
1.002778422e-10
1.080394504e-10
1.126811047e-10
7.453681233e-11
8.040370514e-11
8.901737281e-11
9.996206064e-11
1.125994534e-10
1.259778632e-10
1.387780869e-10
1.493148667e-10
1.556187544e-10
1.044182899e-10
1.123775522e-10
1.2405867e-10
1.388949451e-10
1.560205045e-10
1.741477592e-10
1.914929136e-10
2.057752077e-10
2.143242148e-10
1.456622443e-10
1.564366232e-10
1.722445179e-10
1.923163484e-10
2.154808708e-10
2.399997615e-10
2.634650532e-10
2.827942815e-10
2.943708489e-10
2.023655661e-10
2.169190646e-10
2.382667597e-10
2.653670996e-10
2.96639986e-10
3.297435178e-10
3.614328224e-10
3.87548291e-10
4.031988875e-10
2.800126494e-10
2.996261728e-10
3.283911623e-10
3.649023575e-10
4.07033518e-10
4.516363872e-10
4.943467514e-10
5.295617456e-10
5.506788943e-10
3.859031289e-10
4.122704683e-10
4.509350381e-10
5.000062868e-10
5.566302167e-10
6.165842968e-10
6.740120101e-10
7.21383775e-10
7.498082417e-10
5.296896329e-10
5.650371652e-10
6.168629889e-10
6.826304625e-10
7.585184311e-10
8.388779553e-10
9.158710659e-10
9.794082285e-10
1.01755335e-09
7.240427974e-10
7.712757886e-10
8.405166964e-10
9.283707218e-10
1.029735423e-09
1.137075652e-09
1.239935729e-09
1.324845021e-09
1.375844022e-09
9.8545844e-10
1.048335817e-09
1.140491059e-09
1.257392619e-09
1.392246995e-09
1.535037107e-09
1.671870239e-09
1.784841804e-09
1.852717186e-09
1.335217101e-09
1.41855499e-09
1.540662965e-09
1.695508696e-09
1.874076905e-09
2.063104194e-09
2.244217384e-09
2.393744528e-09
2.483597002e-09
1.800498997e-09
1.91040125e-09
2.071370563e-09
2.275401611e-09
2.510576194e-09
2.759414172e-09
2.99774878e-09
3.194475299e-09
3.312687708e-09
2.415647907e-09
2.55975949e-09
2.770731049e-09
3.037977481e-09
3.345812163e-09
3.671320147e-09
3.982910965e-09
4.239995902e-09
4.394445958e-09
3.223567017e-09
3.411344151e-09
3.686075152e-09
4.033822967e-09
4.434045908e-09
4.856885295e-09
5.2613303e-09
5.594818003e-09
5.795092589e-09
4.277219415e-09
4.520207498e-09
4.875463979e-09
5.324729803e-09
5.841260936e-09
6.386410181e-09
6.907334583e-09
7.336516985e-09
7.594120418e-09
5.641193479e-09
5.953303587e-09
6.409248891e-09
6.98524567e-09
7.64669938e-09
8.343949432e-09
9.009447649e-09
9.557206129e-09
9.885755181e-09
7.393289982e-09
7.791063901e-09
8.37162866e-09
9.104205632e-09
9.944361183e-09
1.082877438e-08
1.167181523e-08
1.236493105e-08
1.278033066e-08
9.626082072e-09
1.012893641e-08
1.086215721e-08
1.178619929e-08
1.284442372e-08
1.395674201e-08
1.501552532e-08
1.588495021e-08
1.640554537e-08
1.244840019e-08
1.30788417e-08
1.399715781e-08
1.515293257e-08
1.647454433e-08
1.786153644e-08
1.917979303e-08
2.026087441e-08
2.090757554e-08
1.598669825e-08
1.677050447e-08
1.791100517e-08
1.934444924e-08
2.098101508e-08
2.269575647e-08
2.432298707e-08
2.565564541e-08
2.645202602e-08
2.038626425e-08
2.135262605e-08
2.275724396e-08
2.452018446e-08
2.65297458e-08
2.863182896e-08
3.06234808e-08
3.225233861e-08
3.322470545e-08
2.581224663e-08
2.699387092e-08
2.87095198e-08
3.085982944e-08
3.330705754e-08
3.586273248e-08
3.828031402e-08
4.025477733e-08
4.143221346e-08
3.24504749e-08
3.388364752e-08
3.596230441e-08
3.85639905e-08
4.1520271e-08
4.460251678e-08
4.751365141e-08
4.988794424e-08
5.130232543e-08
4.050805841e-08
4.223266747e-08
4.473139966e-08
4.785462745e-08
5.139807446e-08
5.508660147e-08
5.856501925e-08
6.139817008e-08
6.308415374e-08
5.021374875e-08
5.227326819e-08
5.525420444e-08
5.897525353e-08
6.3190651e-08
6.757183087e-08
7.169729497e-08
7.505307177e-08
7.704805616e-08
6.181804883e-08
6.425948066e-08
6.778972383e-08
7.219087343e-08
7.716953831e-08
8.23362547e-08
8.719441508e-08
9.114120256e-08
9.348525226e-08
7.559304633e-08
7.846681787e-08
8.261829337e-08
8.778762868e-08
9.362718613e-08
9.967859568e-08
1.053607595e-07
1.099713696e-07
1.12707102e-07
9.183194191e-08
9.519175239e-08
1.000409838e-07
1.060721124e-07
1.1287617e-07
1.199173594e-07
1.265201649e-07
1.318715706e-07
1.350439982e-07
1.108482364e-07
1.147508458e-07
1.203786475e-07
1.27370312e-07
1.352480178e-07
1.433895413e-07
1.510145211e-07
1.571875023e-07
1.60843827e-07
1.329745386e-07
1.374794916e-07
1.439705669e-07
1.520261421e-07
1.610916112e-07
1.704488921e-07
1.792019082e-07
1.862805924e-07
1.904699173e-07
1.585609613e-07
1.637302397e-07
1.711726783e-07
1.803995415e-07
1.907711425e-07
2.014637298e-07
2.114542709e-07
2.195255452e-07
2.242985633e-07
1.879730824e-07
1.93870686e-07
2.023553572e-07
2.128641329e-07
2.246636323e-07
2.368143047e-07
2.481546243e-07
2.573074659e-07
2.627159836e-07
2.215894705e-07
2.282809281e-07
2.379007778e-07
2.49804465e-07
2.631560328e-07
2.768897767e-07
2.896939822e-07
3.000186454e-07
3.061151916e-07
2.597987921e-07
2.673506115e-07
2.781998659e-07
2.916128497e-07
3.066419976e-07
3.220849465e-07
3.364679546e-07
3.480552904e-07
3.548927108e-07
3.02996495e-07
3.114755566e-07
3.236488841e-07
3.386859539e-07
3.555184102e-07
3.72796707e-07
3.888733743e-07
4.018140914e-07
4.094451059e-07
3.515812512e-07
3.610542303e-07
3.746458936e-07
3.914211662e-07
4.101818087e-07
4.294206337e-07
4.473047872e-07
4.616886743e-07
4.701654226e-07
4.059512437e-07
4.164839871e-07
4.315870305e-07
4.502130822e-07
4.710249447e-07
4.923474437e-07
5.12150896e-07
5.280660391e-07
5.374396246e-07
4.665005953e-07
4.781576346e-07
4.948631576e-07
5.154500659e-07
5.384332729e-07
5.619594876e-07
5.837910632e-07
6.013230789e-07
6.116431236e-07
5.336160279e-07
5.464600241e-07
5.648563946e-07
5.875107905e-07
6.127815224e-07
6.386273594e-07
6.625919639e-07
6.818232693e-07
6.931374923e-07
6.076734347e-07
6.21764645e-07
6.419367502e-07
6.667609206e-07
6.944304425e-07
7.22706713e-07
7.489044727e-07
7.699136152e-07
7.822674468e-07
6.890346073e-07
7.044303944e-07
7.264589549e-07
7.53550025e-07
7.837238099e-07
8.145353694e-07
8.430608639e-07
8.659219272e-07
8.793581682e-07
7.780442185e-07
7.94798617e-07
8.187595842e-07
8.482088042e-07
8.809857727e-07
9.144307803e-07
9.453723891e-07
9.701544897e-07
9.847130239e-07
8.750271417e-07
8.931904933e-07
9.191545445e-07
9.510466965e-07
9.865185904e-07
1.022687905e-06
1.056127278e-06
1.082894161e-06
1.098611727e-06
9.802861718e-07
9.999048355e-07
1.027936976e-06
1.062349911e-06
1.10060081e-06
1.139577529e-06
1.175589189e-06
1.204398931e-06
1.221308953e-06
1.09410019e-06
1.11521633e-06
1.145375607e-06
1.182379915e-06
1.223485901e-06
1.265345051e-06
1.303996133e-06
1.334900945e-06
1.353033426e-06
1.216722793e-06
1.239374249e-06
1.271713574e-06
1.311372391e-06
1.355401356e-06
1.400209721e-06
1.441559837e-06
1.474605977e-06
1.493987451e-06
1.348381398e-06
1.372601624e-06
1.407167705e-06
1.449536645e-06
1.49654824e-06
1.544364333e-06
1.588465562e-06
1.623693337e-06
1.644346879e-06
1.489276802e-06
1.515094883e-06
1.551928254e-06
1.597055459e-06
1.647101167e-06
1.697975324e-06
1.744872317e-06
1.782316176e-06
1.804261456e-06
1.639583173e-06
1.667023904e-06
1.706159043e-06
1.754085343e-06
1.80720867e-06
1.861183254e-06
1.910913434e-06
1.950602136e-06
1.973855524e-06
1.79944844e-06
1.82853246e-06
1.869997987e-06
1.920757147e-06
1.976993907e-06
2.034103615e-06
2.086697465e-06
2.128654315e-06
2.15322902e-06
1.968995032e-06
1.999739004e-06
2.043557943e-06
2.097176991e-06
2.156555677e-06
2.216827916e-06
2.272309337e-06
2.316552476e-06
2.342458715e-06
2.148320905e-06
2.180737739e-06
2.226927835e-06
2.283427452e-06
2.345969669e-06
2.409425004e-06
2.467811725e-06
2.514354458e-06
2.541599654e-06
2.337500833e-06
2.371599931e-06
2.420174006e-06
2.479568962e-06
2.54528991e-06
2.611942554e-06
2.673246586e-06
2.722097742e-06
2.750686731e-06
2.536587872e-06
2.572375401e-06
2.623341735e-06
2.685641356e-06
2.75455035e-06
2.824408685e-06
2.888636799e-06
2.939801114e-06
2.969736369e-06
2.745614976e-06
2.783094153e-06
2.836456887e-06
2.901665543e-06
2.973766544e-06
3.046833664e-06
3.113987882e-06
3.167466389e-06
3.198748249e-06
2.964596702e-06
3.003768078e-06
3.059527625e-06
3.127645228e-06
3.202937388e-06
3.27921164e-06
3.349289735e-06
3.405080154e-06
3.43770705e-06
3.193530964e-06
3.234392718e-06
3.292546166e-06
3.363568659e-06
3.442046863e-06
3.521522386e-06
3.594518368e-06
3.652615495e-06
3.686584177e-06
3.432400798e-06
3.474949015e-06
3.535490532e-06
3.609410375e-06
3.691065759e-06
3.773733014e-06
3.849637608e-06
3.910033689e-06
3.94533944e-06
3.681176101e-06
3.725405049e-06
3.788326265e-06
3.865132897e-06
3.949953361e-06
4.035799629e-06
4.11460073e-06
4.177285816e-06
4.213922665e-06
3.939815325e-06
3.985717714e-06
4.051008088e-06
4.130688367e-06
4.21865905e-06
4.307668912e-06
4.389352016e-06
4.454314305e-06
4.492275219e-06
4.208267091e-06
4.25583432e-06
4.323481484e-06
4.406020105e-06
4.497123835e-06
4.589279614e-06
4.673828218e-06
4.741054371e-06
4.780331435e-06
4.486471725e-06
4.535694107e-06
4.605684184e-06
4.691064059e-06
4.785281766e-06
4.880563943e-06
4.967959919e-06
5.037435344e-06
5.078019936e-06
4.774362677e-06
4.825229648e-06
4.897547551e-06
4.985750159e-06
5.083061257e-06
5.181448846e-06
5.271672777e-06
5.343381899e-06
5.385264837e-06
5.071867841e-06
5.124368153e-06
5.198997843e-06
5.290003553e-06
5.390386286e-06
5.491857172e-06
5.584888659e-06
5.658815158e-06
5.701986841e-06
5.37891076e-06
5.433032646e-06
5.509957379e-06
5.603745732e-06
5.707177479e-06
5.811708728e-06
5.907526663e-06
5.983653686e-06
6.028104214e-06
5.695411706e-06
5.751143038e-06
5.83034557e-06
5.926895536e-06
6.033353088e-06
6.140921212e-06
6.23950402e-06
6.317814371e-06
6.363533658e-06
6.021288652e-06
6.078617072e-06
6.160079852e-06
6.259370053e-06
6.36882985e-06
6.479411047e-06
6.580736897e-06
6.6612132e-06
6.708191064e-06
6.356458131e-06
6.415371166e-06
6.499076498e-06
6.601085399e-06
6.713523742e-06
6.8270941e-06
6.931141089e-06
7.013765931e-06
7.061992178e-06
6.700835984e-06
6.76132115e-06
6.847251329e-06
6.95195741e-06
7.067350637e-06
7.183886307e-06
7.290632616e-06
7.375388668e-06
7.424853161e-06
7.054338012e-06
7.116382894e-06
7.20452033e-06
7.31190222e-06
7.43022686e-06
7.549704207e-06
7.65912823e-06
7.745998347e-06
7.796691066e-06
7.416880524e-06
7.480472853e-06
7.570800164e-06
7.680836766e-06
7.802069658e-06
7.924465382e-06
8.036545839e-06
8.125513147e-06
8.177424233e-06
7.788380806e-06
7.853508513e-06
7.946008611e-06
8.058679192e-06
8.182797595e-06
8.308088832e-06
8.422804852e-06
8.513852813e-06
8.566972611e-06
8.168757504e-06
8.235408768e-06
8.330064925e-06
8.445349196e-06
8.572330867e-06
8.700495266e-06
8.817826461e-06
8.910938927e-06
8.965258013e-06
8.557930935e-06
8.626094224e-06
8.722890117e-06
8.840768294e-06
8.970591552e-06
9.101607338e-06
9.221533855e-06
9.316695108e-06
9.372204313e-06
8.955823333e-06
9.025487423e-06
9.124407181e-06
9.244860028e-06
9.377503802e-06
9.511349821e-06
9.633852381e-06
9.731047165e-06
9.787737593e-06
9.362359036e-06
9.433513043e-06
9.534541265e-06
9.657550125e-06
9.792993984e-06
9.929649732e-06
1.005470966e-05
1.01539232e-05
1.021178623e-05
9.777464626e-06
9.850098006e-06
9.953219788e-06
1.00787666e-05
1.021699078e-05
1.035643642e-05
1.048403564e-05
1.058525365e-05
1.064428097e-05
1.020106903e-05
1.02751716e-05
1.038037253e-05
1.050843985e-05
1.064942524e-05
1.079164161e-05
1.092176267e-05
1.102497135e-05
1.108515492e-05
1.063310359e-05
1.070866551e-05
1.081593168e-05
1.094650265e-05
1.10902308e-05
1.12351994e-05
1.136782548e-05
1.147301154e-05
1.153434361e-05
1.107350202e-05
1.11505138e-05
1.125983178e-05
1.139289016e-05
1.153934329e-05
1.16870463e-05
1.182216118e-05
1.19293118e-05
1.199178492e-05
1.152220041e-05
1.16006529e-05
1.171200977e-05
1.18475399e-05
1.199670089e-05
1.214712115e-05
1.228470921e-05
1.239381206e-05
1.245741902e-05
1.197913722e-05
1.205902161e-05
1.217240492e-05
1.231039172e-05
1.246224409e-05
1.261536506e-05
1.275541126e-05
1.286645445e-05
1.293118835e-05
1.244425321e-05
1.252556102e-05
1.264095878e-05
1.278138774e-05
1.29359156e-05
1.309172137e-05
1.323421123e-05
1.33471833e-05
1.341303747e-05
1.291749138e-05
1.300021445e-05
1.311761511e-05
1.326047225e-05
1.341766031e-05
1.357613554e-05
1.372105509e-05
1.383594504e-05
1.390291306e-05
1.339879691e-05
1.348292736e-05
1.360231978e-05
1.374759163e-05
1.390742515e-05
1.406855506e-05
1.421589086e-05
1.433268803e-05
1.440076371e-05
1.388811703e-05
1.397364726e-05
1.409502072e-05
1.424269428e-05
1.440515903e-05
1.456892936e-05
1.471866842e-05
1.483736257e-05
1.490653995e-05
1.438540092e-05
1.447232362e-05
1.459566776e-05
1.474573048e-05
1.491081272e-05
1.50772097e-05
1.522933948e-05
1.534992071e-05
1.5420194e-05
1.489059966e-05
1.497890773e-05
1.510421254e-05
1.525665229e-05
1.542433876e-05
1.559334906e-05
1.574785744e-05
1.587031616e-05
1.59416798e-05
1.540366605e-05
1.549335265e-05
1.562060842e-05
1.577541347e-05
1.59456913e-05
1.611730203e-05
1.627417727e-05
1.63985042e-05
1.647095279e-05
1.592455454e-05
1.601561303e-05
1.614481037e-05
1.630196934e-05
1.647482607e-05
1.664902472e-05
1.680825542e-05
1.693444156e-05
1.700796985e-05
1.645322112e-05
1.654564504e-05
1.667677484e-05
1.683627666e-05
1.701170018e-05
1.71884746e-05
1.73500497e-05
1.74780863e-05
1.75526892e-05
1.698962318e-05
1.708340626e-05
1.721645964e-05
1.737829356e-05
1.755627208e-05
1.773561044e-05
1.789951917e-05
1.80293977e-05
1.810507025e-05
1.753371942e-05
1.762885555e-05
1.776382386e-05
1.792797939e-05
1.810850143e-05
1.829039219e-05
1.845662402e-05
1.858833618e-05
1.866507353e-05
1.808546975e-05
1.818195296e-05
1.831882775e-05
1.848529464e-05
1.866834896e-05
1.885278084e-05
1.902132549e-05
1.915486315e-05
1.923266058e-05
1.864483515e-05
1.87426596e-05
1.888143259e-05
1.905020082e-05
1.923577642e-05
1.942273836e-05
1.959358576e-05
1.972894094e-05
1.98077938e-05
1.92117776e-05
1.931093755e-05
1.945160063e-05
1.962266034e-05
1.981074642e-05
2.000022756e-05
2.017336782e-05
2.031053269e-05
2.039043642e-05
1.978625994e-05
1.988674975e-05
2.002929494e-05
2.020263643e-05
2.039322236e-05
2.058521203e-05
2.076063539e-05
2.089960224e-05
2.098055235e-05
2.036824579e-05
2.047005991e-05
2.061447932e-05
2.079009305e-05
2.098316833e-05
2.117765597e-05
2.135535281e-05
2.149611401e-05
2.157810606e-05
2.095769944e-05
2.106083237e-05
2.120711822e-05
2.138499472e-05
2.158054897e-05
2.177752414e-05
2.195748491e-05
2.210003293e-05
2.218306252e-05
2.155458575e-05
2.165903202e-05
2.180717659e-05
2.198730647e-05
2.218532939e-05
2.238478171e-05
2.256699696e-05
2.271132429e-05
2.279538705e-05
2.215886999e-05
2.22646242e-05
2.241461979e-05
2.259699372e-05
2.279747504e-05
2.299939418e-05
2.318385446e-05
2.332995362e-05
2.34150452e-05
2.27705178e-05
2.287757453e-05
2.302941347e-05
2.321402211e-05
2.341695158e-05
2.36213272e-05
2.380802308e-05
2.395588658e-05
2.40420026e-05
2.338949499e-05
2.349784882e-05
2.365152341e-05
2.383835741e-05
2.404372473e-05
2.425054647e-05
2.443946844e-05
2.458908876e-05
2.467622484e-05
2.401576744e-05
2.41254129e-05
2.42809154e-05
2.446996533e-05
2.467776012e-05
2.488701751e-05
2.507815599e-05
2.522952553e-05
2.531767723e-05
2.464930088e-05
2.476023246e-05
2.491755504e-05
2.510881134e-05
2.531902309e-05
2.553070549e-05
2.572405076e-05
2.587716178e-05
2.596632458e-05
2.529006075e-05
2.540227283e-05
2.556140749e-05
2.575486044e-05
2.59674784e-05
2.618157498e-05
2.637711708e-05
2.653196166e-05
2.662213094e-05
2.593801188e-05
2.60514987e-05
2.621243725e-05
2.640807685e-05
2.662309e-05
2.683958957e-05
2.703731824e-05
2.719388822e-05
2.728505918e-05
2.659311821e-05
2.670787381e-05
2.687060778e-05
2.706842369e-05
2.728582056e-05
2.750471152e-05
2.770461608e-05
2.786290293e-05
2.795507059e-05
2.725534237e-05
2.737136055e-05
2.753588108e-05
2.773586245e-05
2.795563105e-05
2.81769012e-05
2.83789704e-05
2.853896513e-05
2.863212421e-05
2.792464518e-05
2.804191937e-05
2.820821711e-05
2.841035246e-05
2.863248004e-05
2.885611639e-05
2.906033823e-05
2.922203124e-05
2.931617609e-05
2.860098498e-05
2.871950816e-05
2.888757306e-05
2.909185006e-05
2.93163229e-05
2.954231145e-05
2.974867295e-05
2.99120538e-05
3.000717828e-05
2.928431676e-05
2.940408129e-05
2.957390243e-05
2.978030764e-05
3.000711073e-05
3.02354361e-05
3.044392298e-05
3.06089802e-05
3.070507751e-05
2.997459106e-05
3.009558852e-05
3.026715382e-05
3.047567231e-05
3.070478898e-05
3.093543405e-05
3.114603034e-05
3.131275102e-05
3.140981354e-05
3.067175255e-05
3.079397348e-05
3.096726934e-05
3.117788431e-05
3.140929568e-05
3.164224101e-05
3.185492855e-05
3.202329799e-05
3.212131699e-05
3.137573822e-05
3.149917181e-05
3.167418267e-05
3.188687484e-05
3.212055921e-05
3.235578238e-05
3.257054016e-05
3.274054133e-05
3.283950667e-05
3.208647508e-05
3.221110878e-05
3.238781656e-05
3.260256343e-05
3.283849546e-05
3.307597023e-05
3.329277357e-05
3.346438638e-05
3.356428611e-05
3.280387731e-05
3.292969633e-05
3.310807967e-05
3.332485467e-05
3.356300431e-05
3.380269949e-05
3.402151903e-05
3.419471955e-05
3.429553939e-05
3.352784266e-05
3.365482935e-05
3.383486272e-05
3.405363404e-05
3.429396527e-05
3.45358434e-05
3.475664379e-05
3.493140317e-05
3.503312587e-05
3.425824811e-05
3.438638116e-05
3.456803378e-05
3.478876295e-05
3.503123217e-05
3.527524785e-05
3.549798619e-05
3.567426936e-05
3.577687396e-05
3.499494453e-05
3.512419808e-05
3.530743247e-05
3.553007271e-05
3.577462679e-05
3.602072464e-05
3.624534856e-05
3.642311267e-05
3.652657353e-05
3.573775041e-05
3.586809286e-05
3.605286325e-05
3.627735732e-05
3.65239313e-05
3.677204353e-05
3.699848889e-05
3.717768145e-05
3.728196711e-05
3.648644436e-05
3.661783702e-05
3.680408736e-05
3.703036518e-05
3.727887943e-05
3.752892298e-05
3.775711113e-05
3.793766777e-05
3.80427397e-05
3.724075647e-05
3.737315197e-05
3.756081362e-05
3.778878937e-05
3.803914641e-05
3.829101955e-05
3.852085423e-05
3.870269612e-05
3.880850713e-05
3.800035849e-05
3.81336989e-05
3.832268799e-05
3.85522568e-05
3.880433755e-05
3.905791607e-05
3.928927974e-05
3.947231072e-05
3.957880322e-05
3.876485272e-05
3.889906751e-05
3.908928188e-05
3.932031612e-05
3.957397569e-05
3.982910856e-05
4.00618584e-05
4.024596165e-05
4.035306574e-05
3.953375989e-05
3.966876356e-05
3.986007945e-05
4.009242456e-05
4.034748766e-05
4.060399229e-05
4.083795576e-05
4.102299025e-05
4.113062157e-05
4.030650612e-05
4.044219564e-05
4.063446404e-05
4.086793407e-05
4.112418998e-05
4.138184706e-05
4.161681715e-05
4.180261381e-05
4.191067132e-05
4.108240914e-05
4.121866128e-05
4.141170405e-05
4.164607689e-05
4.190327419e-05
4.216182238e-05
4.239755262e-05
4.258391041e-05
4.269227403e-05
4.186066436e-05
4.199733286e-05
4.219093872e-05
4.242595123e-05
4.268379239e-05
4.294292282e-05
4.317912235e-05
4.336580424e-05
4.347433257e-05
4.264033109e-05
4.277724388e-05
4.29711644e-05
4.320650748e-05
4.346464351e-05
4.372399448e-05
4.396032318e-05
4.414705238e-05
4.425558044e-05
4.342031905e-05
4.355727561e-05
4.375122158e-05
4.39865358e-05
4.424456136e-05
4.450371323e-05
4.473977717e-05
4.492623369e-05
4.5034571e-05
4.419937701e-05
4.433614586e-05
4.452978382e-05
4.476465533e-05
4.502210444e-05
4.528057568e-05
4.551592346e-05
4.570174108e-05
4.580966998e-05
4.497608336e-05
4.511240011e-05
4.530534958e-05
4.553930683e-05
4.579564948e-05
4.605289339e-05
4.628701348e-05
4.647177787e-05
4.657905239e-05
4.574883986e-05
4.588440582e-05
4.607623742e-05
4.630874911e-05
4.65633892e-05
4.681879209e-05
4.705111142e-05
4.723435928e-05
4.734070482e-05
4.651586946e-05
4.665035099e-05
4.684058576e-05
4.707106023e-05
4.732333521e-05
4.757621645e-05
4.780610078e-05
4.79873204e-05
4.809243418e-05
4.727521901e-05
4.740824796e-05
4.759635812e-05
4.782414454e-05
4.80733272e-05
4.832294143e-05
4.854969786e-05
4.872833141e-05
4.883188396e-05
4.802476793e-05
4.815594328e-05
4.834135471e-05
4.856574656e-05
4.881104924e-05
4.905659121e-05
4.927947306e-05
4.945492091e-05
4.955655882e-05
4.876224366e-05
4.889113446e-05
4.907323125e-05
4.929347218e-05