/*--------------------------------*- C++ -*----------------------------------*\
| =========                 |                                                 |
| \\      /  F ield         | OpenFOAM: The Open Source CFD Toolbox           |
|  \\    /   O peration     | Version:  2212                                  |
|   \\  /    A nd           | Website:  www.openfoam.com                      |
|    \\/     M anipulation  |                                                 |
\*---------------------------------------------------------------------------*/
FoamFile
{
    version     2.0;
    format      ascii;
    arch        "LSB;label=32;scalar=64";
    class       volScalarField;
    location    "20.00000000";
    object      C5H5;
}
// * * * * * * * * * * * * * * * * * * * * * * * * * * * * * * * * * * * * * //

dimensions      [0 0 0 0 0 0 0];

internalField   nonuniform List<scalar> 
3000
(
1.522128061e-22
1.70994905e-22
1.993372001e-22
2.371064408e-22
2.839197187e-22
3.385071176e-22
3.975809187e-22
4.539524007e-22
4.938103252e-22
5.714911687e-22
6.44596116e-22
7.548640725e-22
9.021329884e-22
1.08625982e-21
1.306233912e-21
1.558235638e-21
1.829597478e-21
2.069920477e-21
1.280185696e-21
1.45528729e-21
1.721920623e-21
2.083948009e-21
2.547879341e-21
3.120457866e-21
3.79940343e-21
4.546649245e-21
5.185092879e-21
2.438514511e-21
2.801069427e-21
3.361238739e-21
4.137977472e-21
5.158802916e-21
6.449662215e-21
8.003456499e-21
9.695869641e-21
1.106163087e-20
4.330373754e-21
5.035218904e-21
6.141385716e-21
7.705063426e-21
9.799787223e-21
1.248426642e-20
1.571352275e-20
1.914271912e-20
2.177466988e-20
7.446684187e-21
8.76952004e-21
1.087530484e-20
1.389842684e-20
1.800014678e-20
2.328375626e-20
2.959149996e-20
3.612824664e-20
4.096469039e-20
1.264242504e-20
1.507221774e-20
1.898518056e-20
2.466611475e-20
3.243131604e-20
4.243522014e-20
5.426409308e-20
6.628270418e-20
7.495497716e-20
2.13967029e-20
2.579373521e-20
3.293764993e-20
4.338945217e-20
5.773184578e-20
7.617127489e-20
9.778262047e-20
1.194204072e-19
1.347727813e-19
3.627370165e-20
4.414662233e-20
5.702016122e-20
7.594920946e-20
1.019694364e-19
1.353302861e-19
1.741471424e-19
2.126065602e-19
2.395928478e-19
6.171683042e-20
7.570263201e-20
9.86749568e-20
1.325593989e-19
1.791617518e-19
2.387492425e-19
3.076938908e-19
3.755023386e-19
4.227304737e-19
1.054350355e-19
1.30135941e-19
1.708326896e-19
2.309727636e-19
3.136719042e-19
4.191561354e-19
5.406851013e-19
6.596025325e-19
7.420339001e-19
1.808137854e-19
2.242560217e-19
2.959755895e-19
4.020652858e-19
5.478635135e-19
7.334109494e-19
9.464498519e-19
1.154177939e-18
1.297859024e-18
3.111180935e-19
3.873050485e-19
5.132501071e-19
6.996296819e-19
9.555242017e-19
1.280377899e-18
1.652035061e-18
2.013381753e-18
2.26425341e-18
5.36802576e-19
6.701901345e-19
8.909118117e-19
1.217621673e-18
1.665698064e-18
2.232771064e-18
2.877705874e-18
3.500061811e-18
3.944259164e-18
9.281716431e-19
1.161484973e-18
1.54796751e-18
2.120460715e-18
2.905616639e-18
3.8972149e-18
5.013564839e-18
6.038088762e-18
6.879174314e-18
1.607186518e-18
2.01486774e-18
2.69102096e-18
3.694307883e-18
5.074635021e-18
6.831678986e-18
8.857131522e-18
1.088127063e-17
1.214671046e-17
2.785084208e-18
3.496111916e-18
4.676007106e-18
6.427281091e-18
8.836012018e-18
1.189632592e-17
1.539795978e-17
1.879338007e-17
2.109886756e-17
4.828115124e-18
6.066117579e-18
8.120808046e-18
1.117002819e-17
1.536116262e-17
2.067850614e-17
2.674844335e-17
3.261974402e-17
3.663901745e-17
8.371842991e-18
1.052503738e-17
1.409892231e-17
1.940203314e-17
2.668847742e-17
3.592753025e-17
4.646748416e-17
5.665899173e-17
6.364042287e-17
1.451956782e-17
1.826221186e-17
2.447475118e-17
3.369291436e-17
4.635658805e-17
6.240973454e-17
8.071805233e-17
9.841699568e-17
1.105398647e-16
2.518681446e-17
3.169004151e-17
4.248578234e-17
5.850455015e-17
8.050887362e-17
1.083982506e-16
1.401989041e-16
1.709342514e-16
1.919828716e-16
4.369955552e-17
5.499747457e-17
7.375380243e-17
1.015846184e-16
1.398120731e-16
1.882568557e-16
2.434851801e-16
2.968528212e-16
3.33394069e-16
7.583310711e-17
9.545855772e-17
1.280409644e-16
1.763862502e-16
2.427864745e-16
3.269223897e-16
4.228222164e-16
5.154732455e-16
5.789037993e-16
1.316163137e-16
1.657049104e-16
2.222991183e-16
3.062685077e-16
4.215843146e-16
5.676775854e-16
7.341648227e-16
8.949796805e-16
1.00506064e-15
2.284639181e-16
2.876708768e-16
3.859627644e-16
5.317856323e-16
7.320141883e-16
9.856297443e-16
1.274577549e-15
1.553610075e-15
1.744571999e-15
3.966134815e-16
4.994407867e-16
6.70133645e-16
9.233305261e-16
1.27091812e-15
1.711058896e-15
2.212353646e-15
2.696284284e-15
3.027375277e-15
6.885578754e-16
8.671275294e-16
1.163509674e-15
1.603049562e-15
2.206262789e-15
2.969801542e-15
3.839044741e-15
4.677798152e-15
5.251414677e-15
1.195391695e-15
1.505453621e-15
2.019970729e-15
2.782766467e-15
3.829161732e-15
5.15297715e-15
6.659157125e-15
8.111599416e-15
9.104344204e-15
2.075104756e-15
2.613364587e-15
3.506283905e-15
4.82949873e-15
6.643616866e-15
8.937054178e-15
1.15442951e-14
1.405635957e-14
1.577198377e-14
3.60146802e-15
4.535535954e-15
6.084423535e-15
8.378358369e-15
1.152087395e-14
1.548988423e-14
1.999699608e-14
2.433452729e-14
2.729360283e-14
6.248305237e-15
7.868332014e-15
1.055321531e-14
1.452646511e-14
1.996390042e-14
2.682269863e-14
3.460002266e-14
4.207311881e-14
4.716372807e-14
1.083434566e-14
1.36417617e-14
1.829117756e-14
2.516461967e-14
3.455836837e-14
4.638812815e-14
5.977663899e-14
7.261535704e-14
8.134391443e-14
1.87713318e-14
2.363071291e-14
3.167099533e-14
4.354168118e-14
5.973710127e-14
8.008931406e-14
1.030673067e-13
1.250445865e-13
1.399486546e-13
3.248720655e-14
4.088481168e-14
5.476311558e-14
7.521894957e-14
1.030666327e-13
1.379689438e-13
1.772542736e-13
2.147067546e-13
2.400257451e-13
5.614440848e-14
7.062549414e-14
9.452254153e-14
1.296722376e-13
1.773943756e-13
2.370097507e-13
3.038605156e-13
3.673392926e-13
4.100885008e-13
9.68522803e-14
1.217551302e-13
1.627759549e-13
2.22958458e-13
3.043977158e-13
4.057282469e-13
5.188449959e-13
6.257459888e-13
6.974097115e-13
1.667006761e-13
2.093775411e-13
2.795211729e-13
3.821116715e-13
5.203872551e-13
6.916206027e-13
8.81754826e-13
1.060444128e-12
1.179600993e-12
2.861472725e-13
3.589740522e-13
4.78354887e-13
6.523136594e-13
8.856839357e-13
1.173076671e-12
1.490233094e-12
1.786410763e-12
1.982736806e-12
4.896165785e-13
6.132617067e-13
8.153110931e-13
1.10845606e-12
1.499579505e-12
1.978185596e-12
2.502693399e-12
2.989047724e-12
3.309320735e-12
8.346775858e-13
1.043349085e-12
1.383096797e-12
1.873556693e-12
2.523889418e-12
3.314007541e-12
4.173257811e-12
4.963875263e-12
5.480842519e-12
1.416951392e-12
1.766697658e-12
2.333757236e-12
3.147722158e-12
4.219533851e-12
5.511505958e-12
6.90484899e-12
8.176397051e-12
9.001689295e-12
2.394090155e-12
2.975727825e-12
3.914331019e-12
5.253110239e-12
7.002593471e-12
9.093593991e-12
1.132881608e-11
1.335125605e-11
1.465396474e-11
4.023944001e-12
4.982862397e-12
6.522256002e-12
8.702838229e-12
1.152909654e-11
1.487688321e-11
1.842291782e-11
2.160350244e-11
2.36366277e-11
6.72463442e-12
8.29062179e-12
1.079041326e-11
1.430527711e-11
1.882169837e-11
2.412206078e-11
2.968424591e-11
3.462990778e-11
3.776768903e-11
1.116799888e-11
1.369939899e-11
1.771608905e-11
2.332003413e-11
3.045682054e-11
3.875381536e-11
4.738024128e-11
5.498531106e-11
5.977554665e-11
1.842317441e-11
2.247117572e-11
2.885424975e-11
3.768866e-11
4.883828468e-11
6.167949934e-11
7.491000487e-11
8.647867912e-11
9.371562422e-11
3.017448376e-11
3.657525998e-11
4.660397761e-11
6.037240422e-11
7.759376161e-11
9.724708578e-11
1.173205253e-10
1.34736852e-10
1.455622856e-10
4.904798452e-11
5.90528878e-11
7.462854085e-11
9.584210762e-11
1.221444794e-10
1.518985603e-10
1.82039428e-10
2.080020769e-10
2.240448224e-10
7.909499714e-11
9.455227304e-11
1.184655025e-10
1.507828091e-10
1.905179475e-10
2.350961434e-10
2.799089647e-10
3.182540743e-10
3.41821878e-10
1.264999718e-10
1.501058336e-10
1.864050556e-10
2.350995232e-10
2.944997597e-10
3.606276175e-10
4.266373067e-10
4.82780769e-10
5.171232229e-10
2.006060659e-10
2.362488864e-10
2.907445654e-10
3.633432027e-10
4.512562349e-10
5.484360464e-10
6.44825441e-10
7.263668876e-10
7.760343826e-10
3.153873965e-10
3.686169199e-10
4.495680955e-10
5.5672018e-10
6.856077642e-10
8.271713847e-10
9.667843657e-10
1.084329202e-09
1.155662517e-09
4.915456454e-10
5.702109302e-10
6.892563278e-10
8.459092328e-10
1.033197692e-09
1.23773083e-09
1.43843232e-09
1.606707895e-09
1.708504917e-09
7.594624337e-10
8.745697153e-10
1.047979404e-09
1.274965329e-09
1.544876505e-09
1.838154258e-09
2.124674669e-09
2.364042449e-09
2.508456387e-09
1.163286494e-09
1.330158426e-09
1.580538802e-09
1.906735643e-09
2.292768897e-09
2.710366656e-09
3.116784611e-09
3.455272891e-09
3.659022517e-09
1.766695202e-09
2.006534188e-09
2.365114319e-09
2.830337559e-09
3.378592407e-09
3.969385248e-09
4.542458871e-09
5.018489827e-09
5.304484937e-09
2.660847942e-09
3.002834093e-09
3.512533416e-09
4.171414206e-09
4.945042337e-09
5.775888745e-09
6.579508026e-09
7.245540272e-09
7.645050001e-09
3.975346559e-09
4.459446929e-09
5.178981033e-09
6.106152658e-09
7.191306375e-09
8.353300386e-09
9.474427081e-09
1.040181673e-08
1.095736738e-08
5.893262787e-09
6.573982635e-09
7.583342594e-09
8.880357069e-09
1.039411779e-08
1.201092371e-08
1.356752256e-08
1.485303553e-08
1.562230896e-08
8.6716208e-09
9.622995017e-09
1.103073484e-08
1.283525991e-08
1.493618699e-08
1.717515198e-08
1.932680519e-08
2.110136829e-08
2.216244972e-08
1.266911848e-08
1.399132819e-08
1.594422758e-08
1.844225457e-08
2.134442123e-08
2.443141339e-08
2.739353376e-08
2.983395182e-08
3.129234504e-08
1.838335799e-08
2.021148553e-08
2.290735615e-08
2.634942265e-08
3.034112613e-08
3.458034716e-08
3.864312909e-08
4.198765911e-08
4.398559064e-08
2.650054287e-08
2.901617938e-08
3.272088019e-08
3.7443666e-08
4.291233553e-08
4.871262418e-08
5.426611306e-08
5.883502881e-08
6.156372953e-08
3.796163967e-08
4.140830165e-08
4.647833132e-08
5.293327399e-08
6.0398348e-08
6.830777269e-08
7.587478011e-08
8.209736198e-08
8.58131789e-08
5.405018598e-08
5.875363588e-08
6.566582095e-08
7.445657629e-08
8.461241628e-08
9.53633711e-08
1.056423611e-07
1.140920271e-07
1.191373607e-07
7.65075829e-08
8.290220185e-08
9.229214706e-08
1.042230325e-07
1.179943732e-07
1.325618053e-07
1.464821821e-07
1.579216697e-07
1.647518233e-07
1.076819416e-07
1.163444788e-07
1.290557424e-07
1.451936476e-07
1.638063819e-07
1.834819536e-07
2.022742583e-07
2.177127683e-07
2.269297534e-07
1.507168214e-07
1.624089693e-07
1.795550355e-07
2.013072969e-07
2.263772386e-07
2.528619586e-07
2.781451233e-07
2.989089402e-07
3.113029757e-07
2.097855912e-07
2.255066308e-07
2.485473416e-07
2.77757427e-07
3.113988506e-07
3.469156692e-07
3.808023154e-07
4.086193108e-07
4.252179939e-07
2.903744975e-07
3.114245038e-07
3.422574588e-07
3.813187484e-07
4.26272519e-07
4.736980561e-07
5.189163613e-07
5.560125522e-07
5.781362148e-07
3.99611881e-07
4.276645491e-07
4.687297764e-07
5.207147373e-07
5.804921454e-07
6.435025061e-07
7.03528836e-07
7.527313626e-07
7.820507072e-07
5.466315725e-07
5.838133032e-07
6.382058218e-07
7.070029856e-07
7.860354671e-07
8.692545032e-07
9.484443873e-07
1.013279603e-06
1.051868199e-06
7.429445085e-07
7.919128082e-07
8.63492327e-07
9.539364642e-07
1.057713069e-06
1.166842415e-06
1.27053866e-06
1.355306731e-06
1.40567655e-06
1.002774244e-06
1.066783852e-06
1.160264002e-06
1.278236168e-06
1.413400604e-06
1.555300337e-06
1.689887319e-06
1.799687014e-06
1.864791013e-06
1.343291228e-06
1.426231283e-06
1.547223477e-06
1.69968868e-06
1.874058031e-06
2.056737369e-06
2.229602537e-06
2.370274883e-06
2.453459339e-06
1.784661743e-06
1.891043081e-06
2.046024406e-06
2.240968351e-06
2.46342975e-06
2.695902679e-06
2.915264257e-06
3.093223924e-06
3.198109746e-06
2.349817209e-06
2.484687486e-06
2.680861004e-06
2.927087734e-06
3.207331928e-06
3.499298739e-06
3.77386713e-06
3.995789121e-06
4.126058807e-06
3.063856385e-06
3.232624418e-06
3.477646963e-06
3.784410179e-06
4.132477352e-06
4.493814711e-06
4.832264898e-06
5.104618771e-06
5.263735207e-06
3.953024014e-06
4.161185014e-06
4.462754156e-06
4.839219052e-06
5.264863354e-06
5.70491567e-06
6.115193194e-06
6.443682725e-06
6.634548368e-06
5.043267203e-06
5.296038406e-06
5.661359657e-06
6.115922336e-06
6.627797827e-06
7.154541999e-06
7.643102196e-06
8.032052943e-06
8.256655372e-06
6.358454874e-06
6.66034516e-06
7.095491072e-06
7.634974722e-06
8.239790506e-06
8.858999078e-06
9.430053801e-06
9.881842111e-06
1.014094132e-05
7.918341856e-06
8.272676413e-06
8.781947586e-06
9.410870901e-06
1.011260398e-05
1.082709607e-05
1.148198955e-05
1.199660666e-05
1.228951916e-05
9.736553497e-06
1.014508337e-05
1.0730468e-05
1.145042112e-05
1.224969858e-05
1.305880574e-05
1.379562304e-05
1.437045057e-05
1.4694971e-05
1.181892548e-05
1.228152504e-05
1.294230967e-05
1.375154986e-05
1.464530161e-05
1.554463449e-05
1.63581077e-05
1.698794354e-05
1.734041925e-05
1.416234404e-05
1.467685795e-05
1.540945971e-05
1.630278969e-05
1.728422517e-05
1.826577595e-05
1.914750006e-05
1.982482832e-05
2.020037419e-05
1.675427977e-05
1.731654244e-05
1.811458763e-05
1.908353279e-05
2.014244086e-05
2.119499927e-05
2.213391779e-05
2.284937531e-05
2.32421927e-05
1.957307947e-05
2.017710284e-05
2.103173704e-05
2.206499049e-05
2.318831165e-05
2.429812576e-05
2.52812076e-05
2.602417392e-05
2.642792524e-05
2.25889685e-05
2.322726898e-05
2.412765144e-05
2.521171979e-05
2.638430611e-05
2.753589283e-05
2.854890595e-05
2.930813706e-05
2.971632718e-05
2.576562148e-05
2.642964163e-05
2.736355776e-05
2.848352352e-05
2.968899073e-05
3.086599854e-05
3.189429254e-05
3.265853069e-05
3.306485627e-05
2.906210399e-05
2.974268037e-05
3.069720423e-05
3.183752444e-05
3.305911286e-05
3.424516023e-05
3.52743959e-05
3.603291309e-05
3.643155896e-05
3.243497757e-05
3.312281398e-05
3.408496751e-05
3.523025214e-05
3.64516461e-05
3.763109934e-05
3.864790662e-05
3.939097822e-05
3.977686352e-05
3.58403922e-05
3.652651553e-05
3.74839003e-05
3.861965546e-05
3.98257663e-05
4.098448745e-05
4.197710475e-05
4.269647285e-05
4.306548869e-05
3.923605041e-05
3.991225192e-05
4.085367185e-05
4.196705709e-05
4.314486508e-05
4.427108138e-05
4.523017475e-05
4.591970375e-05
4.626907264e-05
4.258299941e-05
4.324229608e-05
4.41584451e-05
4.523918683e-05
4.637889269e-05
4.746458974e-05
4.838481643e-05
4.904196493e-05
4.937111191e-05
4.584728193e-05
4.648446345e-05
4.73688115e-05
4.841053098e-05
4.950750793e-05
5.055125062e-05
5.143510324e-05
5.206532223e-05
5.237848054e-05
4.900156494e-05
4.96139101e-05
5.046395013e-05
5.146622344e-05
5.25244393e-05
5.353716218e-05
5.440477926e-05
5.503719914e-05
5.536893728e-05
5.202704634e-05
5.26153018e-05
5.343428989e-05
5.440558765e-05
5.544263134e-05
5.64567393e-05
5.736469806e-05
5.809932334e-05
5.861079199e-05
5.491641651e-05
5.548623592e-05
5.628568447e-05
5.7247333e-05
5.830018662e-05
5.937927017e-05
6.043539434e-05
6.144685873e-05
6.211516428e-05
5.767975447e-05
5.824419599e-05
5.904819938e-05
6.004172831e-05
6.118203138e-05
6.243969857e-05
6.380771408e-05
6.501270883e-05
6.576830692e-05
6.035755218e-05
6.094189957e-05
6.179831115e-05
6.29054711e-05
6.4267989e-05
6.582102003e-05
6.736839262e-05
6.867346549e-05
6.947155034e-05
6.306169489e-05
6.371439202e-05
6.471308235e-05
6.606746572e-05
6.765997163e-05
6.936151601e-05
7.099259738e-05
7.233699269e-05
7.314786718e-05
6.606631937e-05
6.685968218e-05
6.80250845e-05
6.950433595e-05
7.119014684e-05
7.294405502e-05
7.459369608e-05
7.593621169e-05
7.673948859e-05
6.944718939e-05
7.029547071e-05
7.151908285e-05
7.303697712e-05
7.473827364e-05
7.648427479e-05
7.810933381e-05
7.942189859e-05
8.020337161e-05
7.296930322e-05
7.382580328e-05
7.505032001e-05
7.655354385e-05
7.822294378e-05
7.992266945e-05
8.149447516e-05
8.275781198e-05
8.350746918e-05
7.64943624e-05
7.733273248e-05
7.852548254e-05
7.998130394e-05
8.158896631e-05
8.321739863e-05
8.471659557e-05
8.591729928e-05
8.662800709e-05
7.993806698e-05
8.074274673e-05
8.188404863e-05
8.327188513e-05
8.479847783e-05
8.633892594e-05
8.775223931e-05
8.8880894e-05
8.954754038e-05
8.324709866e-05
8.40084795e-05
8.508595291e-05
8.639249388e-05
8.782520951e-05
8.926636967e-05
9.058463376e-05
9.163463157e-05
9.225357824e-05
8.638654028e-05
8.709848328e-05
8.81041137e-05
8.932059784e-05
9.065088096e-05
9.198511145e-05
9.320207475e-05
9.416887913e-05
9.473761179e-05
8.933291757e-05
8.999144966e-05
9.092002027e-05
9.204071302e-05
9.326295022e-05
9.44852462e-05
9.559683799e-05
9.647751679e-05
9.699441706e-05
9.207029834e-05
9.267290609e-05
9.352113125e-05
9.454245411e-05
9.565320004e-05
9.676056663e-05
9.776443154e-05
9.855734944e-05
9.902153924e-05
9.458806097e-05
9.513329141e-05
9.589931613e-05
9.681932756e-05
9.781682649e-05
9.88078756e-05
9.970306126e-05
0.0001004076642
0.0001008188923
9.687957473e-05
9.736679555e-05
9.804988764e-05
9.886795298e-05
9.975182262e-05
0.0001006264945
0.0001014132258
0.0001020298782
0.0001023884309
9.894137712e-05
9.937062047e-05
9.997096493e-05
0.0001006875285
0.0001014585327
0.0001022178874
0.0001028973897
0.0001034272418
0.0001037338683
0.0001007726215
0.0001011444723
0.0001016630208
0.0001022794337
0.0001029393049
0.0001035853528
0.0001041597041
0.0001046045777
0.0001048604232
0.0001023746723
0.0001026901806
0.0001031285312
0.0001036469109
0.000104198201
0.0001047337575
0.0001052057578
0.0001055680436
0.000105774589
0.0001037507814
0.000104011389
0.0001043716841
0.0001047947924
0.000105240742
0.0001056692974
0.0001060423509
0.0001063249141
0.0001064839202
0.0001049058121
0.0001051132877
0.000105398123
0.0001057292574
0.000106073677
0.0001063992781
0.0001066772847
0.0001068833785
0.0001069968339
0.0001058459918
0.0001060023726
0.0001062147152
0.0001064576095
0.0001067047717
0.0001069319131
0.0001071191686
0.0001072523537
0.0001073224268
0.0001065786869
0.0001066862254
0.0001068293381
0.0001069880721
0.000107142612
0.0001072761365
0.0001073772414
0.0001074413127
0.0001074703077
0.0001071121946
0.0001071733096
0.0001072506828
0.0001073295991
0.0001073964246
0.0001074414322
0.000107461208
0.000107460128
0.000107450445
0.0001074555508
0.0001074727834
0.0001074880728
0.0001074917022
0.0001074759114
0.0001074376776
0.0001073810925
0.0001073189308
0.0001072730298
0.0001076183547
0.0001075943285
0.000107551299
0.0001074842927
0.0001073911011
0.0001072750035
0.0001071471048
0.0001070279849
0.0001069483539
0.0001076106087
0.0001075479942
0.0001074504699
0.0001073175398
0.0001071522151
0.0001069636686
0.0001067695243
0.0001065975765
0.0001064867037
0.0001074425744
0.0001073440575
0.0001071958778
0.0001070017439
0.0001067695492
0.0001065139493
0.0001062585967
0.0001060379176
0.0001058982668
0.0001071246448
0.0001069928994
0.0001067978809
0.0001065472255
0.0001062533699
0.0001059360444
0.0001056244459
0.0001053590635
0.0001051930541
0.0001066672312
0.0001065048959
0.0001062667992
0.000105964228
0.0001056138249
0.0001052399923
0.000104876999
0.0001045708436
0.0001043808331
0.0001060806657
0.0001058903238
0.0001056128262
0.0001052628353
0.0001048608674
0.0001044356029
0.0001040259234
0.0001036828038
0.0001034710737
0.0001053751174
0.0001051592801
0.0001048459526
0.0001044529018
0.0001040041923
0.0001035323997
0.0001030805758
0.0001027041597
0.0001024729045
0.0001045605218
0.0001043216152
0.0001039759038
0.0001035439947
0.0001030531842
0.0001025395742
0.0001020499613
0.0001016437608
0.0001013950793
0.0001036465231
0.0001033868772
0.0001030120884
0.0001025453473
0.0001020168767
0.0001014659495
0.0001009427021
0.0001005100624
0.0001002459513
0.0001026424268
0.0001023642677
0.0001019635575
0.0001014658228
0.0001009039197
0.0001003199534
9.976701476e-05
9.931110657e-05
9.90334562e-05
0.0001015571634
0.0001012626071
0.0001008389732
0.0001003138867
9.97225568e-05
9.910959876e-05
9.853069439e-05
9.805450921e-05
9.776510093e-05
0.0001003992606
0.0001000903093
9.964658592e-05
9.909758718e-05
9.848060881e-05
9.784247169e-05
9.724110584e-05
9.674745377e-05
9.644795908e-05
9.917682369e-05
9.8855364e-05
9.839421914e-05
9.782454271e-05
9.718546485e-05
9.652572492e-05
9.590518013e-05
9.539669002e-05
9.508867075e-05
9.78975236e-05
9.756532538e-05
9.708926051e-05
9.65019359e-05
9.584407854e-05
9.516607695e-05
9.452941579e-05
9.400853711e-05
9.369344683e-05
9.656859031e-05
9.622730761e-05
9.573865869e-05
9.513651226e-05
9.446296913e-05
9.376981531e-05
9.311988416e-05
9.258889047e-05
9.226807678e-05
9.519681211e-05
9.484798479e-05
9.434892499e-05
9.373458358e-05
9.304822675e-05
9.234280367e-05
9.168223804e-05
9.114323169e-05
9.081793918e-05
9.378853909e-05
9.343359541e-05
9.292613897e-05
9.230203504e-05
9.160552099e-05
9.08904918e-05
9.022172296e-05
8.96766408e-05
8.934801468e-05
9.234969044e-05
9.198995035e-05
9.147595745e-05
9.084433528e-05
9.014011219e-05
8.941792805e-05
8.874319071e-05
8.819381054e-05
8.78629006e-05
9.088576483e-05
9.052244379e-05
9.000362617e-05
8.936654898e-05
8.865686494e-05
8.792977372e-05
8.72511144e-05
8.669906203e-05
8.636682704e-05
8.94018532e-05
8.903606645e-05
8.851399362e-05
8.787335137e-05
8.716026322e-05
8.643031886e-05
8.574960483e-05
8.51963615e-05
8.486367375e-05
8.790265346e-05
8.753542064e-05
8.701152647e-05
8.636904412e-05
8.565442689e-05
8.492349917e-05
8.424242772e-05
8.368933778e-05
8.335698777e-05
8.639248677e-05
8.602473666e-05
8.550032632e-05
8.485757236e-05
8.414312889e-05
8.341291344e-05
8.273302141e-05
8.218130017e-05
8.185000137e-05
8.487531464e-05
8.45078901e-05
8.39841471e-05
8.334254232e-05
8.262981307e-05
8.190184159e-05
8.122451492e-05
8.067525638e-05
8.034564996e-05
8.335475688e-05
8.29884198e-05
8.246641311e-05
8.182723945e-05
8.111761243e-05
8.039326266e-05
7.971974576e-05
7.917393044e-05
7.884659002e-05
8.183411012e-05
8.146954644e-05
8.095023763e-05
8.031464676e-05
7.960936701e-05
7.888987276e-05
7.82212779e-05
7.767978045e-05
7.735521668e-05
8.031636627e-05
7.995419079e-05
7.943844092e-05
7.88074628e-05
7.810764207e-05
7.739410294e-05
7.673141937e-05
7.619501599e-05
7.5873681e-05
7.880423075e-05
7.844499197e-05
7.79335684e-05
7.730811968e-05
7.661474564e-05
7.590813654e-05
7.525223933e-05
7.47216149e-05
7.440390668e-05
7.730014065e-05
7.694432537e-05
7.643790845e-05
7.581880055e-05
7.513274582e-05
7.443392613e-05
7.378558463e-05
7.326133965e-05
7.294760611e-05
7.580628243e-05
7.545432028e-05
7.495350969e-05
7.434145663e-05
7.36634874e-05
7.297320973e-05
7.233309575e-05
7.181575291e-05
7.150629591e-05
7.432460913e-05
7.397687688e-05
7.34821978e-05
7.287782365e-05
7.220860794e-05
7.152752652e-05
7.089622208e-05
7.038623252e-05
7.008131157e-05
7.285685699e-05
7.251368267e-05
7.20255916e-05
7.142943761e-05
7.076955315e-05
7.00982318e-05
6.947623647e-05
6.897398571e-05
6.867382157e-05
7.140456138e-05
7.106622819e-05
7.058511853e-05
6.999764989e-05
6.93475915e-05
6.868651116e-05
6.807424903e-05
6.75800626e-05
6.72848406e-05
6.9969072e-05
6.963582204e-05
6.916202932e-05
6.858364154e-05
6.794382819e-05
6.729339402e-05
6.669122024e-05
6.620536893e-05
6.591524211e-05
6.855156741e-05
6.822360514e-05
6.775741198e-05
6.718843689e-05
6.655921829e-05
6.591976634e-05
6.532797325e-05
6.485067802e-05
6.45657701e-05
6.715306866e-05
6.683056423e-05
6.637220497e-05
6.581291635e-05
6.519457917e-05
6.45663826e-05
6.398520547e-05
6.35166421e-05
6.323705021e-05
6.577445229e-05
6.545754456e-05
6.500720964e-05
6.445782851e-05
6.385060211e-05
6.323387705e-05
6.266349944e-05
6.220380278e-05
6.192959999e-05
6.441646243e-05
6.410526192e-05
6.366310191e-05
6.312380143e-05
6.252786327e-05
6.192277422e-05
6.136333296e-05
6.091260091e-05
6.064383867e-05
6.307972229e-05
6.277431378e-05
6.234044317e-05
6.181135323e-05
6.12268339e-05
6.063349877e-05
6.008508854e-05
5.96433858e-05
5.938009604e-05
6.176474477e-05
6.146518982e-05
6.103969055e-05
6.052090199e-05
5.994788982e-05
5.93663846e-05
5.882906224e-05
5.839642367e-05
5.81386209e-05
6.047194243e-05
6.017828171e-05
5.97612064e-05
5.925277496e-05
5.869132033e-05
5.81216834e-05
5.759547182e-05
5.717190561e-05
5.691958875e-05
5.920163679e-05
5.891389217e-05
5.850526712e-05
5.800721708e-05
5.745733637e-05
5.689957247e-05
5.638446433e-05
5.596995488e-05
5.572310901e-05
5.79540669e-05
5.767224343e-05
5.727207143e-05
5.678439891e-05
5.624607818e-05
5.570016209e-05
5.519612308e-05
5.47906337e-05
5.454923159e-05
5.672939733e-05
5.645348507e-05
5.60617479e-05
5.558442399e-05
5.505762233e-05
5.45235022e-05
5.403047417e-05
5.363394948e-05
5.339795309e-05
5.552772554e-05
5.525770121e-05
5.487436205e-05
5.440733561e-05
5.389198821e-05
5.336958869e-05
5.288749241e-05
5.249986062e-05
5.226922238e-05
5.434908872e-05
5.408491723e-05
5.370992276e-05
5.325312305e-05
5.274914404e-05
5.223836907e-05
5.176710686e-05
5.138828178e-05
5.116294583e-05
5.319347001e-05
5.29351059e-05
5.25683883e-05
5.212172733e-05
5.162901237e-05
5.112974779e-05
5.066920583e-05
5.02990888e-05
5.007899206e-05
5.206080432e-05
5.180819299e-05
5.144967176e-05
5.101304648e-05
5.053147516e-05
5.004359108e-05
4.95936416e-05
4.923212314e-05
4.901719636e-05
5.095098358e-05
5.07040625e-05
5.035364612e-05
4.992694041e-05
4.945637837e-05
4.897973136e-05
4.85402346e-05
4.818719601e-05
4.797736468e-05
4.986386153e-05
4.962256134e-05
4.928014876e-05
4.886323528e-05
4.840353626e-05
4.79379713e-05
4.750877731e-05
4.716409212e-05
4.69592773e-05
4.879925813e-05
4.856350359e-05
4.822898566e-05
4.782172751e-05
4.737273512e-05
4.691808745e-05
4.64990378e-05
4.616257306e-05
4.596269218e-05
4.77569634e-05
4.752667431e-05
4.719993502e-05
4.680218728e-05
4.636373672e-05
4.591983351e-05
4.551076277e-05
4.518238029e-05
4.498734788e-05
4.673674085e-05
4.651183288e-05
4.619275054e-05
4.580436168e-05
4.537628125e-05
4.494294316e-05
4.454368032e-05
4.42232378e-05
4.403296614e-05
4.573833035e-05
4.551871579e-05
4.52071641e-05
4.482797725e-05
4.441008976e-05
4.398713234e-05
4.359750214e-05
4.328485423e-05
4.309925398e-05
4.476145042e-05
4.454703885e-05
4.424288783e-05
4.387274195e-05
4.346486603e-05
4.3052101e-05
4.267192512e-05
4.236692436e-05
4.218590517e-05
4.380579976e-05
4.359649864e-05
4.32996155e-05
4.293834641e-05
4.254029756e-05
4.213753401e-05
4.176663215e-05
4.146912989e-05
4.129260094e-05
4.287105792e-05
4.26667731e-05
4.237702291e-05
4.202446412e-05
4.163605576e-05
4.124310108e-05
4.088129189e-05
4.059113909e-05
4.041900955e-05
4.195688488e-05
4.175752095e-05
4.147476718e-05
4.113075055e-05
4.075179467e-05
4.036845534e-05
4.001555713e-05
3.973260494e-05
3.956478445e-05
4.106291918e-05
4.086837967e-05
4.059248448e-05
4.025684056e-05
3.988714812e-05
3.95132301e-05
3.91690613e-05
3.889316147e-05
3.872956034e-05
4.018877437e-05
3.999896175e-05
3.972978592e-05
3.940234387e-05
3.904172474e-05
3.867703342e-05
3.83414125e-05
3.807241741e-05
3.791294674e-05
3.933403332e-05
3.914884862e-05
3.888625108e-05
3.856683808e-05
3.821510031e-05
3.785943972e-05
3.753218453e-05
3.726994667e-05
3.711451804e-05
3.849823989e-05
3.831758202e-05
3.806141874e-05
3.774985857e-05
3.740680676e-05
3.705997793e-05
3.674090409e-05
3.648527476e-05
3.633379955e-05
3.768088769e-05
3.750465212e-05
3.725477425e-05
3.695088489e-05
3.661631746e-05
3.627811542e-05
3.596703349e-05
3.571786047e-05
3.557024843e-05
3.688140527e-05
3.670948208e-05
3.646573307e-05
3.616932306e-05
3.584302797e-05
3.551323721e-05
3.520994824e-05
3.496707206e-05
3.482322906e-05
3.609913758e-05
3.593140869e-05
3.569362021e-05
3.540448341e-05
3.508623202e-05
3.476461991e-05
3.4468909e-05
3.423215749e-05
3.409198213e-05
3.533332332e-05
3.516965876e-05
3.493764516e-05
3.465555367e-05
3.43450925e-05
3.403140033e-05
3.37430278e-05
3.351220853e-05
3.33755874e-05
3.458306837e-05
3.442332143e-05
3.419687261e-05
3.39215676e-05
3.361860756e-05
3.331253886e-05
3.303122872e-05
3.280611906e-05
3.267292046e-05
3.384731543e-05
3.369131659e-05
3.347018908e-05
3.32013694e-05
3.290557237e-05
3.260677836e-05
3.23322038e-05
3.211253837e-05
3.198260431e-05
3.312481055e-05
3.297236029e-05
3.275626657e-05
3.2493575e-05
3.220453771e-05
3.191259975e-05
3.164436571e-05
3.142982125e-05
3.130295771e-05
3.241406776e-05
3.226492813e-05
3.205352428e-05
3.179653166e-05
3.15137671e-05
3.122817644e-05
3.096579938e-05
3.07559771e-05
3.063194269e-05
3.171333328e-05
3.156721855e-05
3.136009044e-05
3.110827809e-05
3.083119481e-05
3.055133008e-05
3.029421557e-05
3.00886216e-05
2.996711486e-05
3.102055141e-05
3.087711809e-05
3.067376674e-05
3.04265077e-05
3.015438791e-05
2.987949132e-05
2.962691035e-05
2.942493499e-05
2.930558098e-05
3.033333483e-05
3.019217158e-05
2.999199835e-05
2.974853851e-05
2.948051608e-05
2.92096697e-05
2.896073502e-05
2.876163216e-05
2.8643969e-05
2.96489425e-05
2.95095605e-05
2.931185309e-05
2.907129358e-05
2.880633363e-05
2.853843744e-05
2.829208194e-05
2.809495017e-05
2.797841676e-05
2.896426859e-05
2.88260934e-05
2.863001406e-05
2.839129646e-05
2.812817855e-05
2.786193262e-05
2.76168919e-05
2.742065951e-05
2.730458573e-05
2.827584661e-05
2.813821229e-05
2.794278971e-05
2.77046863e-05
2.744199368e-05
2.71758872e-05
2.693068925e-05
2.67341055e-05
2.661770659e-05
2.757987309e-05
2.744202012e-05
2.724614659e-05
2.700725748e-05
2.674337493e-05
2.647568522e-05
2.622865042e-05
2.603028597e-05
2.591266289e-05
2.687225423e-05
2.673333222e-05
2.653576837e-05
2.629452869e-05
2.602765218e-05
2.575645653e-05
2.550571092e-05
2.530397064e-05
2.518411849e-05
2.614867972e-05
2.600775645e-05
2.58071454e-05
2.556184465e-05
2.529000587e-05
2.501321025e-05
2.475671588e-05
2.454986634e-05
2.442669284e-05
2.540472717e-05
2.526080521e-05
2.505569797e-05
2.480451423e-05
2.452562282e-05
2.424101018e-05
2.397661549e-05
2.376283059e-05
2.363518612e-05
2.463599938e-05
2.448804154e-05
2.427693559e-05
2.401798666e-05
2.372989267e-05
2.343519359e-05
2.31607064e-05
2.293813291e-05
2.280485383e-05
2.383829586e-05
2.368526049e-05
2.34666529e-05
2.319806632e-05
2.289864483e-05
2.259163239e-05
2.230491717e-05
2.207176166e-05
2.193172745e-05
2.30078191e-05
2.284870601e-05
2.262116225e-05
2.234116526e-05
2.20284244e-05
2.170703441e-05
2.14061347e-05
2.116077214e-05
2.101297655e-05
2.214141496e-05
2.197532266e-05
2.173756199e-05
2.144459258e-05