/*--------------------------------*- C++ -*----------------------------------*\
| =========                 |                                                 |
| \\      /  F ield         | OpenFOAM: The Open Source CFD Toolbox           |
|  \\    /   O peration     | Version:  2212                                  |
|   \\  /    A nd           | Website:  www.openfoam.com                      |
|    \\/     M anipulation  |                                                 |
\*---------------------------------------------------------------------------*/
FoamFile
{
    version     2.0;
    format      ascii;
    arch        "LSB;label=32;scalar=64";
    class       volScalarField;
    location    "20.00000000";
    object      CH2CO;
}
// * * * * * * * * * * * * * * * * * * * * * * * * * * * * * * * * * * * * * //

dimensions      [0 0 0 0 0 0 0];

internalField   nonuniform List<scalar> 
3000
(
9.108965005e-21
1.023291698e-20
1.192898961e-20
1.41892301e-20
1.69907448e-20
2.025755248e-20
2.37929091e-20
2.71666015e-20
2.955205801e-20
3.420041795e-20
3.857528182e-20
4.51742154e-20
5.398761663e-20
6.500702048e-20
7.817202555e-20
9.3254112e-20
1.094951994e-19
1.238788613e-19
7.661331658e-20
8.709267721e-20
1.030502578e-19
1.247175047e-19
1.524843551e-19
1.867547817e-19
2.273928805e-19
2.721209114e-19
3.103381681e-19
1.45939959e-19
1.676399468e-19
2.011684982e-19
2.476609751e-19
3.087654888e-19
3.860367454e-19
4.790526813e-19
5.803756714e-19
6.62151822e-19
2.591811173e-19
3.013736893e-19
3.675915649e-19
4.612005273e-19
5.866055701e-19
7.473257357e-19
9.406759308e-19
1.146021752e-18
1.303654932e-18
4.457432815e-19
5.249426293e-19
6.510222932e-19
8.320336478e-19
1.0776383e-18
1.394026713e-18
1.771753756e-18
2.163196134e-18
2.452809545e-18
7.568564455e-19
9.023607517e-19
1.136692751e-18
1.476920431e-18
1.942001658e-18
2.541201732e-18
3.249751062e-18
3.969701141e-18
4.489222998e-18
1.281179551e-18
1.544555284e-18
1.972488961e-18
2.598614693e-18
3.457876043e-18
4.562680172e-18
5.857630999e-18
7.154264031e-18
8.0743237e-18
2.172471608e-18
2.644189157e-18
3.415580786e-18
4.549923765e-18
6.109366525e-18
8.108949816e-18
1.043578752e-17
1.274142046e-17
1.435940882e-17
3.697288877e-18
4.535564587e-18
5.912599535e-18
7.943980238e-18
1.073816749e-17
1.431139918e-17
1.844628028e-17
2.251349478e-17
2.534660183e-17
6.318273848e-18
7.79938709e-18
1.023994301e-17
1.384707094e-17
1.880815614e-17
2.513731076e-17
3.243047848e-17
3.956787379e-17
4.451566239e-17
1.08389974e-17
1.34449973e-17
1.774797823e-17
2.411443855e-17
3.28661365e-17
4.400730927e-17
5.680329518e-17
6.928230291e-17
7.791058195e-17
1.865633605e-17
2.322842234e-17
3.078805625e-17
4.197845934e-17
5.734930346e-17
7.687508261e-17
9.923352593e-17
1.209819153e-16
1.360386604e-16
3.21991798e-17
4.020620427e-17
5.345865625e-17
7.308233409e-17
1.000154731e-16
1.341521789e-16
1.730875707e-16
2.10763638e-16
2.372707923e-16
5.56881931e-17
6.969511019e-17
9.290161469e-17
1.272893531e-16
1.744909701e-16
2.342446677e-16
3.019588023e-16
3.647817327e-16
4.142211901e-16
9.644536966e-17
1.209195982e-16
1.615121855e-16
2.217429819e-16
3.045902664e-16
4.099465732e-16
5.310112428e-16
6.513409821e-16
7.281761122e-16
1.671548428e-16
2.098398365e-16
2.806718131e-16
3.857998129e-16
5.303722009e-16
7.139831132e-16
9.239163304e-16
1.127366014e-15
1.266063551e-15
2.898095609e-16
3.641334815e-16
4.874872827e-16
6.705450571e-16
9.221471539e-16
1.241336528e-15
1.605676069e-15
1.958107436e-15
2.199484342e-15
5.025729034e-16
6.318471644e-16
8.464179611e-16
1.164809329e-15
1.602276889e-15
2.156975927e-15
2.789783721e-15
3.401688553e-15
3.820882763e-15
8.716912507e-16
1.096401871e-15
1.469407808e-15
2.022876134e-15
2.78322011e-15
3.747077973e-15
4.84634807e-15
5.909039739e-15
6.636935671e-15
1.512177604e-15
1.902643581e-15
2.550841632e-15
3.512643386e-15
4.833834859e-15
6.508383845e-15
8.417781241e-15
1.02632192e-14
1.152704032e-14
2.623731053e-15
3.302085752e-15
4.428262726e-15
6.099296673e-15
8.394574187e-15
1.130332987e-14
1.461938999e-14
1.782373073e-14
2.001776833e-14
4.553115522e-15
5.731479265e-15
7.68781335e-15
1.059059328e-14
1.457744065e-14
1.962918679e-14
2.538726947e-14
3.09502848e-14
3.475882386e-14
7.902487901e-15
9.949257929e-15
1.334732461e-14
1.838906955e-14
2.531293564e-14
3.408476049e-14
4.408109077e-14
5.37368345e-14
6.034638127e-14
1.371747322e-14
1.7272415e-14
2.31741181e-14
3.192970459e-14
4.395194858e-14
5.917968407e-14
7.652885607e-14
9.328268642e-14
1.047485298e-13
2.381361074e-14
2.99876295e-14
4.023647115e-14
5.543906575e-14
7.6309119e-14
1.027362993e-13
1.328353168e-13
1.618917455e-13
1.817712907e-13
4.134270429e-14
5.206448547e-14
6.986002962e-14
9.625112875e-14
1.324695894e-13
1.783143986e-13
2.305059671e-13
2.808668477e-13
3.153082359e-13
7.17743023e-14
9.039121124e-14
1.212841286e-13
1.670843234e-13
2.299125496e-13
3.093977801e-13
3.998326355e-13
4.870409407e-13
5.466478445e-13
1.245945108e-13
1.569129971e-13
2.105261365e-13
2.899753047e-13
3.988995451e-13
5.366033151e-13
6.931486417e-13
8.439793294e-13
9.469897331e-13
2.162412285e-13
2.723250309e-13
3.653241576e-13
5.030578006e-13
6.917423699e-13
9.300517609e-13
1.200670122e-12
1.461106431e-12
1.638776784e-12
3.751640294e-13
4.724345304e-13
6.336417045e-13
8.722056512e-13
1.198682985e-12
1.610502526e-12
2.077472668e-12
2.526176197e-12
2.831829207e-12
6.505214863e-13
8.190858361e-13
1.098248504e-12
1.510947318e-12
2.074971691e-12
2.785260306e-12
3.589140258e-12
4.36000926e-12
4.884093853e-12
1.127078186e-12
1.41884771e-12
1.901606582e-12
2.614352546e-12
3.586766464e-12
4.808764698e-12
6.188421368e-12
7.507992715e-12
8.40287058e-12
1.950613948e-12
2.454827418e-12
3.288115908e-12
4.516335941e-12
6.188381285e-12
8.284004313e-12
1.064279486e-11
1.289153653e-11
1.441175276e-11
3.371052039e-12
4.240533181e-12
5.675372566e-12
7.785849536e-12
1.065120782e-11
1.423066623e-11
1.824455582e-11
2.205598273e-11
2.462275376e-11
5.815255048e-12
7.310485654e-12
9.773480599e-12
1.338699165e-11
1.827681256e-11
2.436095638e-11
3.115277494e-11
3.757138381e-11
4.187425708e-11
1.000912708e-11
1.257155563e-11
1.678315958e-11
2.294295716e-11
3.124537955e-11
4.15266716e-11
5.294282167e-11
6.367178981e-11
7.082627693e-11
1.718099394e-11
2.155370273e-11
2.872163863e-11
3.916657735e-11
5.317873984e-11
7.04345547e-11
8.947746224e-11
1.072607527e-10
1.190486891e-10
2.939777359e-11
3.682175277e-11
4.895333332e-11
6.655453937e-11
9.003864218e-11
1.187754473e-10
1.502683252e-10
1.794703725e-10
1.987004472e-10
5.011599934e-11
6.264519785e-11
8.304457585e-11
1.124931424e-10
1.515409412e-10
1.98981878e-10
2.505737372e-10
2.980447104e-10
3.290849427e-10
8.507683179e-11
1.060765677e-10
1.401244325e-10
1.889972544e-10
2.533520311e-10
3.309259971e-10
4.14586684e-10
4.909344959e-10
5.404877182e-10
1.437455813e-10
1.786687855e-10
2.350253381e-10
3.154098477e-10
4.204545784e-10
5.4600544e-10
6.80216161e-10
8.016509068e-10
8.798704323e-10
2.416026731e-10
2.991790418e-10
3.916092262e-10
5.225390172e-10
6.922382478e-10
8.932529321e-10
1.106172108e-09
1.297148725e-09
1.419226972e-09
4.037487318e-10
4.977756427e-10
6.478720898e-10
8.589187603e-10
1.130105289e-09
1.448365889e-09
1.782350181e-09
2.079316787e-09
2.267728288e-09
6.705101601e-10
8.225040322e-10
1.06368241e-09
1.400170647e-09
1.828704663e-09
2.326911902e-09
2.84490757e-09
3.301578306e-09
3.589225173e-09
1.106046943e-09
1.349103276e-09
1.732372869e-09
2.262844846e-09
2.93235441e-09
3.703461247e-09
4.497964965e-09
5.19268849e-09
5.627287883e-09
1.811401239e-09
2.195726189e-09
2.797904532e-09
3.624669056e-09
4.6588231e-09
5.839076248e-09
7.044615414e-09
8.090619337e-09
8.740799127e-09
2.944021095e-09
3.544745152e-09
4.480002465e-09
5.75388201e-09
7.333472362e-09
9.120510292e-09
1.093093555e-08
1.249051587e-08
1.345426234e-08
4.746596019e-09
5.674672876e-09
7.110577848e-09
9.051336053e-09
1.143788086e-08
1.411570993e-08
1.680805885e-08
1.911218185e-08
2.052853442e-08
7.589111594e-09
9.006358691e-09
1.11859747e-08
1.411039608e-08
1.767855512e-08
2.165185485e-08
2.561916885e-08
2.899448783e-08
3.105971024e-08
1.202945048e-08
1.416912338e-08
1.744120096e-08
2.180143355e-08
2.708327672e-08
3.292429722e-08
3.872056431e-08
4.36265095e-08
4.661632689e-08
1.889974354e-08
2.209448467e-08
2.695444272e-08
3.339002714e-08
4.11351351e-08
4.964744459e-08
5.804876415e-08
6.512799412e-08
6.9427774e-08
2.942814361e-08
3.414777491e-08
4.129300714e-08
5.070100506e-08
6.19574628e-08
7.42619103e-08
8.634901466e-08
9.649522236e-08
1.026402366e-07
4.5408155e-08
5.231007289e-08
6.271369287e-08
7.634258848e-08
9.256592803e-08
1.102163926e-07
1.274852339e-07
1.419337438e-07
1.506628955e-07
6.94292552e-08
7.942566803e-08
9.443566329e-08
1.140114331e-07
1.37209859e-07
1.623462609e-07
1.868537803e-07
2.073020428e-07
2.196313143e-07
1.051960783e-07
1.195429019e-07
1.410121714e-07
1.689026348e-07
2.018253738e-07
2.373715308e-07
2.71924784e-07
3.006895139e-07
3.180071673e-07
1.579583675e-07
1.783709008e-07
2.088257515e-07
2.482522441e-07
2.946307996e-07
3.445472801e-07
3.929434681e-07
4.331541618e-07
4.573319042e-07
2.350851189e-07
2.638863875e-07
3.067418705e-07
3.620491193e-07
4.269047716e-07
4.965090745e-07
5.638312778e-07
6.196595043e-07
6.531807212e-07
3.468215996e-07
3.871310362e-07
4.469650547e-07
5.239649683e-07
6.139979019e-07
7.103614178e-07
8.03339192e-07
8.802827902e-07
9.264099917e-07
5.072794701e-07
5.632523987e-07
6.461526201e-07
7.525548128e-07
8.766229082e-07
1.009056462e-06
1.136519014e-06
1.241779067e-06
1.304787036e-06
7.357188713e-07
8.128434006e-07
9.26832297e-07
1.07276533e-06
1.242465402e-06
1.423125119e-06
1.596588848e-06
1.739565997e-06
1.825042904e-06
1.058158509e-06
1.16360987e-06
1.319152237e-06
1.517794364e-06
1.74818582e-06
1.992848974e-06
2.227270702e-06
2.42018352e-06
2.535395614e-06
1.509330028e-06
1.65239553e-06
1.863018496e-06
2.131387408e-06
2.441913533e-06
2.770957733e-06
3.085658901e-06
3.344287838e-06
3.498617003e-06
2.135044133e-06
2.327654041e-06
2.610729884e-06
2.970680114e-06
3.386310421e-06
3.825895674e-06
4.245662416e-06
4.590236496e-06
4.795704358e-06
2.995103694e-06
3.252495898e-06
3.630209195e-06
4.109636895e-06
4.662217627e-06
5.245671772e-06
5.802048101e-06
6.258291169e-06
6.530177574e-06
4.166841645e-06
4.508347987e-06
5.008823109e-06
5.643055071e-06
6.372861773e-06
7.142279826e-06
7.87506381e-06
8.475403635e-06
8.832960218e-06
5.749211486e-06
6.199142447e-06
6.857709591e-06
7.691065001e-06
8.648555455e-06
9.656604759e-06
1.06155325e-05
1.140045735e-05
1.186770551e-05
7.867301453e-06
8.455914004e-06
9.316497518e-06
1.040400219e-05
1.165173286e-05
1.296361708e-05
1.421018504e-05
1.522970352e-05
1.583628854e-05
1.06771127e-05
1.14416365e-05
1.255822049e-05
1.396740436e-05
1.558202506e-05
1.727751053e-05
1.888683808e-05
2.020195728e-05
2.098400536e-05
1.437034404e-05
1.535600466e-05
1.679408327e-05
1.860674028e-05
2.068092118e-05
2.285626432e-05
2.491883596e-05
2.660292029e-05
2.760381342e-05
1.91787736e-05
2.043971929e-05
2.227759152e-05
2.459131936e-05
2.723539356e-05
3.000493359e-05
3.262798841e-05
3.476780295e-05
3.603875164e-05
2.537769385e-05
2.697769645e-05
2.930741392e-05
3.223668717e-05
3.557972089e-05
3.907682843e-05
4.2385097e-05
4.508128567e-05
4.668154957e-05
3.328774259e-05
3.530051137e-05
3.822824271e-05
4.190472024e-05
4.609466634e-05
5.047168573e-05
5.460713113e-05
5.79738515e-05
5.997044371e-05
4.327441419e-05
4.578334233e-05
4.942889373e-05
5.400063669e-05
5.920320876e-05
6.463002433e-05
6.975025043e-05
7.391370227e-05
7.638042911e-05
5.574456843e-05
5.884173621e-05
6.333697966e-05
6.8966281e-05
7.536222671e-05
8.202314314e-05
8.82982063e-05
9.33938806e-05
9.640970459e-05
7.113940939e-05
7.49237067e-05
8.040973019e-05
8.726934655e-05
9.504991542e-05
0.0001031386724
0.0001107461641
0.000116914774
0.0001205612628
8.992369996e-05
9.449800901e-05
0.0001011209247
0.0001093886631
0.000118749256
0.00012846221
0.0001375807159
0.0001449624673
0.0001493200267
0.0001125713933
0.000118038886
0.0001259444016
0.0001357962327
0.0001469284889
0.0001584563592
0.0001692571629
0.0001779847521
0.0001831289422
0.0001395483418
0.0001460080721
0.0001553350993
0.0001669372347
0.0001800201619
0.0001935381463
0.0002061760345
0.0002163679477
0.0002223654478
0.0001712931724
0.0001788353206
0.0001897092652
0.0002032097214
0.0002183993062
0.0002340572451
0.0002486622265
0.0002604160441
0.000267320838
0.0002081980336
0.0002168990097
0.0002294242111
0.000244943412
0.0002623639842
0.0002802780626
0.0002969477568
0.0003103343656
0.0003181845223
0.0002505883851
0.0002605056697
0.0002747591831
0.0002923835107
0.0003121204685
0.0003323661779
0.0003511598499
0.0003662190923
0.000375034434
0.0002987058329
0.0003098749538
0.0003259021124
0.0003456785187
0.0003677729378
0.0003903802513
0.0004113149933
0.0004280530908
0.0004378339175
0.0003526966833
0.0003651288155
0.0003829401276
0.0004048728472
0.0004293185006
0.0004542695657
0.0004773188269
0.0004957076786
0.0005064345757
0.0004126041853
0.0004262850411
0.0004458549356
0.0004699044681
0.0004966473541
0.0005238767035
0.000548971089
0.0005689493235
0.0005805839586
0.0004783655221
0.000493255542
0.0005145229373
0.0005406072085
0.0005695474087
0.0005989444313
0.0006259744694
0.0006474499715
0.0006599366983
0.0005498133225
0.0005658490422
0.0005887195344
0.0006167169404
0.00064771243
0.0006791256704
0.0007079461144
0.0007307996597
0.0007440677113
0.0006266811084
0.0006437774866
0.0006681268335
0.0006978807495
0.0007307526726
0.0007639954448
0.000794430627
0.000818520239
0.000832486287
0.0007086118972
0.0007266653411
0.0007523438621
0.0007836681489
0.0008182070414
0.0008530638393
0.0008849136088
0.0009100792773
0.0009246501541
0.00079516911
0.000814060927
0.0008408984381
0.0008735834892
0.0009095559601
0.0009457891856
0.0009788350148
0.001004903465
0.001019978878
0.0008858489748
0.0009054489969
0.0009332599295
0.0009670788481
0.001004234286
0.001041590885
0.001075601792
0.001102391041
0.001117866141
0.000980093708
0.001000263869
0.001028852274
0.001063566829
0.001101643773
0.001139861437
0.00117459943
0.001201922917
0.001217690598
0.001077304889
0.001097902584
0.001127066777
0.001162432868
0.001201164748
0.001239977399
0.001275202196
0.001302872302
0.001318825137
0.001176856602
0.001197737701
0.001227274399
0.001263046828
0.001302166889
0.001341309242
0.001376782066
0.001404612819
0.001420644507
0.001278108073
0.001299129552
0.001328837431
0.001364773954
0.001404019291
0.001443230433
0.001478716738
0.001506525528
0.001522531656
0.001380415692
0.001401437924
0.001431120717
0.001466985528
0.001506100519
0.001545126785
0.001580398131
0.001608006238
0.001623883605
0.001483144373
0.001504033239
0.001533502647
0.001569069799
0.001607809695
0.001646408037
0.0016812446
0.001708477669
0.001724121185
0.001585678135
0.00160630715
0.001635385928
0.001670443302
0.001708579116
0.001746523091
0.001780721182
0.001807419319
0.001822745991
0.001687429715
0.001707682286
0.001736207669
0.001770561626
0.001807886174
0.001844974022
0.001878357159
0.001904400612
0.001919346744
0.001787849158
0.001807621106
0.001835448632
0.001868929274
0.00190526416
0.001941330683
0.00197377304
0.001999070951
0.002013586577
0.001886431911
0.001905634511
0.001932642844
0.001965111266
0.002000323519
0.002035255993
0.002066663614
0.002091146893
0.002105193711
0.001982729464
0.002001293819
0.002027395441
0.002058762015
0.002092763901
0.002126481319
0.002156785718
0.002180403478
0.002193953093
0.00207638844
0.002094274733
0.002119416795
0.002149621104
0.002182351703
0.002214797461
0.002243950601
0.002266667048
0.00227969942
0.002167156853
0.002184339413
0.002208487405
0.002237490035
0.002268909349
0.00230004639
0.002328017008
0.002349808966
0.002362311121
0.002254847454
0.002271310921
0.002294444276
0.002322222058
0.002352306943
0.002382114297
0.002408885141
0.002429740083
0.002441705052
0.00233932483
0.002355061974
0.002377171345
0.002403714318
0.002432455581
0.002460925758
0.002486491406
0.002506405843
0.002517831775
0.002420496743
0.002435507049
0.002456592412
0.002481901652
0.002509301829
0.002536438728
0.002560803788
0.002579781913
0.002590671313
0.002498307794
0.0025125964
0.002532665593
0.002556751484
0.00258282302
0.002608640167
0.002631817728
0.002649870233
0.002660229296
0.002572734371
0.002586311185
0.002605378678
0.002628259448
0.002653023124
0.002677542135
0.002699552402
0.002716695425
0.00272653344
0.002643780352
0.00265665928
0.002674745089
0.002696445511
0.002719929046
0.002743178252
0.002764047324
0.002780301513
0.002789630324
0.002711473286
0.002723671539
0.00274080025
0.00276135047
0.002783587262
0.002805600474
0.00282535925
0.002840748912
0.002849582442
0.002775860934
0.002787398389
0.002803598274
0.002823032758
0.002844060753
0.002864876149
0.002883559339
0.002898111683
0.002906465504
0.002837008089
0.002847906724
0.002863208941
0.002881565523
0.002901426192
0.002921085325
0.002938730568
0.002952475033
0.00296036598
0.00289499367
0.002905277047
0.002919714924
0.002937033959
0.002955771396
0.00297431831
0.002990965398
0.003003933047
0.003011378879
0.002949908068
0.002959600879
0.002973209283
0.002989532894
0.003007193016
0.003024673467
0.003040363659
0.003052586661
0.003059605763
0.003001850739
0.003010978405
0.003023793186
0.00303916461
0.003055794462
0.003072255244
0.00308703067
0.003098541841
0.003105152968
0.003050928043
0.003059516372
0.003071573882
0.003086036907
0.003101684058
0.003117172423
0.003131075573
0.003141907987
0.00314813004
0.003097251331
0.003105326217
0.003116662904
0.003130261382
0.003144973419
0.003159536579
0.003172609871
0.003182796527
0.003188648367
0.003140935246
0.003148522426
0.003159174487
0.003171951931
0.003185776027
0.003199460745
0.003211746162
0.003221319707
0.003226819995
0.00318209626
0.003189221101
0.003199224198
0.003211223448
0.003224206012
0.003237058258
0.003248597047
0.003257589549
0.003262756618
0.003220851404
0.00322753874
0.003236927766
0.003248190714
0.003260377101
0.003272441776
0.003283274209
0.003291716972
0.00329656872
0.003257317191
0.003263591186
0.003272400081
0.003282967458
0.003294401744
0.003305722462
0.003315887643
0.003323811059
0.003328364869
0.003291608717
0.003297492761
0.003305754371
0.003315665578
0.00332639038
0.0033370093
0.003346545021
0.003353978459
0.003358251133
0.003323838914
0.003329355546
0.003337101512
0.003346394495
0.003356450847
0.003366408549
0.003375351177
0.003382322902
0.003386330613
0.003354117948
0.003359288802
0.003366549486
0.003375260649
0.003384687908
0.003394023305
0.003402407711
0.003408944824
0.003412703083
0.003382552744
0.003387398508
0.003394202945
0.003402367093
0.00341120288
0.003419953164
0.003427812675
0.003433941079
0.003437464715
0.003409246616
0.003413787015
0.003420162885
0.003427813195
0.003436093365
0.003444293979
0.003451660353
0.003457404735
0.003460707884
0.003434298996
0.003438552788
0.003444526406
0.003451694418
0.003459453055
0.003467137687
0.003474041111
0.003479424938
0.003482521042
0.00345780525
0.003461790225
0.003467386553
0.003474102179
0.003481371605
0.003488572204
0.003495041306
0.003500086835
0.003502988646
0.00347985656
0.003483589557
0.003488832218
0.003495123768
0.003501934573
0.003508681373
0.003514743246
0.003519471545
0.003522191137
0.003500539865
0.003504036791
0.003508948104
0.003514842319
0.003521223398
0.003527544962
0.003533225203
0.003537656177
0.00354020496
0.003519937858
0.003523213716
0.003527814726
0.003533336827
0.003539315433
0.003545238696
0.003550561446
0.003554713875
0.003557102616
0.003538129018
0.003541197935
0.003545508462
0.0035506822
0.003556283996
0.003561834327
0.003566822324
0.003570713896
0.003572952739
0.003555187681
0.003558062943
0.003562101627
0.003566949336
0.003572198459
0.003577399718
0.003582074352
0.003585721709
0.0035878202
0.003571184132
0.003573878221
0.003577662569
0.003582205234
0.003587124357
0.003591998962
0.00359638033
0.00359979911
0.003601766221
0.003586184727
0.003588709352
0.003592255797
0.003596513106
0.00360112351
0.0036056925
0.003609799466
0.003613004352
0.003614848508
0.003600252018
0.00360261816
0.003605942105
0.00360993252
0.003614254159
0.003618537264
0.00362238752
0.003625392282
0.003627121387
0.003613444903
0.003615662847
0.003618778723
0.003622519542
0.00362657111
0.003630586816
0.003634196941
0.003637014486
0.003638635951
0.003625818776
0.00362789815
0.003630819468
0.003634326883
0.003638125883
0.003641891503
0.003645277022
0.003647919439
0.003649440204
0.003637425683
0.003639375497
0.003642114896
0.003645404058
0.00364896687
0.003652498602
0.003655674048
0.003658152653
0.003659579215
0.003648314484
0.00365014316
0.003652712461
0.00365579754
0.003659139483
0.003662452479
0.003665431444
0.003667756824
0.003669095265
0.003658531009
0.00366024642
0.003662656672
0.003665550913
0.003668686307
0.003671794735
0.003674589931
0.003676771986
0.003678027992
0.00366811822
0.003669727723
0.00367198925
0.00367470503
0.003677647258
0.003680564358
0.003683187664
0.003685235649
0.003686414539
0.003677116366
0.003678626832
0.003680749277
0.003683298158
0.003686059723
0.003688797865
0.003691260383
0.003693182947
0.00369428969
0.003685563133
0.003686980979
0.003688973347
0.003691366127
0.003693958706
0.003696529445
0.003698841545
0.00370064677
0.003701686009
0.003693493793
0.003694825009
0.003696695708
0.00369894247
0.003701376967
0.003703791094
0.003705962463
0.003707657896
0.00370863397
0.003700941347
0.003702191525
0.003703948405
0.00370605856
0.003708345156
0.003710612748
0.003712652431
0.003714245122
0.003715162083
0.003707936657
0.003709111017
0.003710761404
0.00371274374
0.00371489194
0.003717022404
0.003718938846
0.003720435378
0.00372129701
0.003714508582
0.003715611995
0.003717162728
0.003719025447
0.003721044124
0.003723046243
0.00372484733
0.00372625385
0.003727063687
0.0037206841
0.003721721112
0.003723178573
0.003724929331
0.003726826767
0.00372870874
0.003730401834
0.003731724081
0.003732485423
0.003726488425
0.003727463281
0.003728833427
0.003730479369
0.003732263295
0.003734032776
0.003735624751
0.003736868084
0.003737584013
0.003731945122
0.003732861781
0.003734150173
0.003735697969
0.003737375602
0.003739039737
0.003740537009
0.003741706431
0.003742379824
0.003737076212
0.00373793837
0.003739150198
0.003740606073
0.00374218415
0.00374374961
0.003745158171
0.003746258355
0.003746891899
0.003741902268
0.003742713377
0.003743853485
0.003745223251
0.003746708062
0.003748181075
0.003749506519
0.003750541828
0.003751138032
0.003746442518
0.003747205798
0.003748278708
0.003749567793
0.00375096521
0.003752351591
0.003753599143
0.003754573652
0.00375513486
0.003750714925
0.003751433382
0.003752443318
0.003753656787
0.003754972294
0.003756277476
0.003757452015
0.003758369528
0.003758897928
0.003754736273
0.003755412717
0.003756363622
0.003757506207
0.003758744925
0.003759973979
0.003761080062
0.003761944134
0.003762441773
0.00375852225
0.003759159302
0.003760054858
0.003761130978
0.003762297691
0.003763455356
0.00376449724
0.003765311193
0.00376577998
0.003762087513
0.003762687623
0.00376353127
0.003764545054
0.003765644231
0.003766734933
0.003767716597
0.003768483533
0.003768925254
0.003765445763
0.003766011219
0.003766806172
0.003767761476
0.003768797291
0.003769825169
0.003770750328
0.003771473148
0.003771889472
0.003768609805
0.003769142746
0.003769892007
0.003770792436
0.003771768793
0.003772737711
0.003773609842
0.003774291256
0.003774683742
0.003771591613
0.003772094036
0.003772800413
0.003773649336
0.003774569882
0.003775483455
0.003776305804
0.003776948348
0.003777318454
0.003774402379
0.003774876154
0.00377554227
0.003776342836
0.003777210982
0.003778072589
0.003778848194
0.003779454236
0.003779803327
0.003777052572
0.003777499445
0.003778127754
0.003778882909
0.003779701842
0.003780514644
0.003781246345
0.003781818103
0.003782147453
0.003779551982
0.003779973586
0.003780566383
0.003781278881
0.003782051586
0.003782818538
0.003783508993
0.003784048539
0.003784359343
0.003781909768
0.003782307632
0.003782867064
0.003783539482
0.003784268749
0.003784992616
0.003785644311
0.003786153587
0.003786446961
0.0037841345
0.003784510054
0.003785038129
0.003785672878
0.003786361319
0.003787044691
0.003787659952
0.003788140774
0.003788417763
0.003786234198
0.00378658878
0.003787087378
0.003787686715
0.003788336775
0.003788982074
0.003789563081
0.003790017148
0.003790278731
0.003788216369
0.003788551231
0.003789022113
0.003789588152
0.003790202118
0.003790811613
0.003791360405
0.00379178931
0.003792036403
0.003790088042
0.003790404358
0.00379084917
0.00379138389
0.003791963906
0.003792539722
0.003793058209
0.003793463443
0.003793696905
0.003791855799
0.003792154667
0.003792574954
0.003793080208
0.003793628282
0.003794172409
0.00379466238
0.00379504534
0.003795265975
0.003793525805
0.003793808255
0.003794205463
0.003794682986
0.003795201
0.003795715302
0.003796178435
0.00379654043
0.003796748991
0.003795103836
0.003795370832
0.003795746316
0.003796197737
0.003796687452
0.003797173678
0.003797611545
0.003797953802
0.003798150996
0.003796595304
0.00379684775
0.00379720278
0.003797629624
0.003798092694
0.003798552482
0.003798966555
0.003799290225
0.003799476714
0.003798005281
0.003798244025
0.003798579793
0.00379898349
0.003799421464
0.00379985635
0.003800248012
0.003800554173
0.003800730577
0.003799338523
0.00379956436
0.003799881981
0.003800263872
0.003800678204
0.003801089629
0.003801460175
0.003801749838
0.003801916741
0.003800599488
0.003800813162
0.003801113685
0.003801475028
0.00380186708
0.003802256395
0.003802607041
0.003802881156
0.003803039103
0.003801792355
0.003801994566
0.003802278973
0.003802620948
0.003802991998
0.003803360471
0.003803692356
0.003803951813
0.003804101316
0.003802921044
0.003803112447
0.003803381659
0.003803705373
0.00380405662
0.003804405441
0.003804719634
0.003804965268
0.003805106809
0.003803989228
0.003804170439
0.003804425321
0.003804731812
0.003805064381
0.003805394664
0.003805692169
0.003805924762
0.003806058792
0.003805000352
0.003805171948
0.003805413311
0.003805703552
0.003806018499
0.003806331289
0.003806613047
0.003806833334
0.003806960275
0.003805957645
0.003806120167
0.00380634877
0.003806623675
0.003806921987
0.003807218267
0.003807485158
0.003807693827
0.003807814075
0.003806864129
0.003807018084
0.00380723464
0.003807495063
0.003807777669
0.003808058355
0.003808311207
0.003808508902
0.003808622827
0.003807722634
0.003807868497
0.003808073673
0.003808320417
0.003808588183
0.003808854136
0.003809093719
0.003809281044
0.003809388994
0.003808535807
0.003808674022
0.003808868443
0.003809102256
0.003809355993
0.003809608016
0.003809835055
0.003810012573
0.003810114871
0.003809306119
0.003809437102
0.00380962135
0.003809842931
0.003810083398
0.003810322241
0.003810537409
0.003810705645
0.003810802594
0.003810035875
0.003810160011
0.003810334632
0.003810544634
0.003810772535
0.003810998898
0.003811202821
0.003811362264
0.003811454146
0.003810727217
0.003810844869
0.003811010367
0.003811209397
0.003811425389
0.003811639921
0.003811833182
0.003811984286
0.00381207136
0.003811382138
0.00381149364
0.003811650484
0.003811839105
0.003812043796
0.003812247097
0.003812430236
0.00381257342
0.003812655928
0.003812002479
0.00381210814
0.003812256766
0.003812435497
0.003812629448
0.003812822075
0.003812995587
0.003813131238
0.0038132094
0.003812589942
0.003812690048
0.003812830854
0.003813000175
0.003813183903
0.003813366363
0.003813530705
0.003813659176
0.003813733195
0.003813146089
0.003813240901
0.003813374255
0.003813534603
0.003813708581
0.00381388134
0.003814036928
0.003814158542
0.003814228603
0.003813672352
0.00381376211
0.003813888346
0.003814040121
0.003814204778
0.003814368259
0.00381451547
0.003814630519
0.003814696788
0.003814170039
0.003814254959
0.00381437438
0.003814517944
0.003814673669
0.003814828255
0.003814967428
0.003815076174
0.003815138802
0.003814640334
0.003814720612
0.003814833493
0.003814969171
0.003815116314
0.003815262346
0.003815393787
0.003815496466
0.003815555587
0.003815084313
0.003815160124
0.003815266709
0.003815394794
0.003815533666
0.003815671451
0.003815795431
0.003815892251
0.003815947983
0.003815502944
0.003815574445
0.003815674952
0.003815795703
0.003815926582
0.003816056392
0.003816173151
0.003816264297
0.003816316744
0.0038158971
0.00381596443
0.003816059053
0.0038161727
0.003816295833
0.003816417906
0.003816527656
0.003816613291
0.003816662546
0.003816267567
0.00381633085
0.00381641976
0.003816526507
0.003816642111
0.00381675666
0.003816859588
0.003816939856
0.003816986
0.003816615056
0.003816674401
0.003816757752
0.003816857779
0.003816966047
0.003817073261
0.003817169534
0.003817244563
0.00381728767
0.003816940215
0.00381699572
0.003817073647
0.003817167117
0.003817268223
0.003817368273
0.003817458042
0.003817527948
0.003817568083
0.003817243643
0.003817295396
0.003817368024
0.003817455085
0.003817549188
0.003817642229
0.003817725634
0.003817790526
0.003817827752
0.003817525901
0.003817573986
0.00381764143
0.003817722221
0.003817809472
0.003817895653
0.003817972829
0.003818032812
0.00381806719
0.003817787531
0.003817832026
0.003817894399
0.003817969055
0.003818049601
0.003818129071
0.003818200152
0.003818255333
0.003818286924
0.003818029068
0.003818070053
0.003818127468
0.003818196125
0.003818270118
0.003818343029
0.003818408157
0.003818458648
0.00381848752
0.003818251058
0.003818288615
0.003818341189
0.003818403994
0.003818471593
0.003818538111
0.003818597437
0.003818643363
0.003818669589
0.00381845407
0.003818488289
0.003818536149
0.003818593258
0.003818654641
0.003818714946
0.003818768642
0.00381881014
0.003818833802
0.003818638711
0.00381866969
0.003818712978
0.003818764566
0.003818819929
0.003818874226
0.003818922484
0.003818959711
0.003818980903
0.003818805638
0.003818833487
0.003818872361
0.003818918624
0.00381896819
0.003819016708
0.003819059743
0.003819092876
0.003819111704
0.003818955567
0.003818980408
0.003819015046
0.003819056205
0.003819100221
0.003819143218
0.003819181272
0.003819210508
0.003819227091
0.003819089274
0.003819111246
0.003819141845
0.003819178145
0.003819216888
0.003819254649
0.003819287989
0.003819313545
0.003819328011
0.003819207605