/*--------------------------------*- C++ -*----------------------------------*\
| =========                 |                                                 |
| \\      /  F ield         | OpenFOAM: The Open Source CFD Toolbox           |
|  \\    /   O peration     | Version:  2212                                  |
|   \\  /    A nd           | Website:  www.openfoam.com                      |
|    \\/     M anipulation  |                                                 |
\*---------------------------------------------------------------------------*/
FoamFile
{
    version     2.0;
    format      ascii;
    arch        "LSB;label=32;scalar=64";
    class       volScalarField;
    location    "20.00000000";
    object      CH3COCH3;
}
// * * * * * * * * * * * * * * * * * * * * * * * * * * * * * * * * * * * * * //

dimensions      [0 0 0 0 0 0 0];

internalField   nonuniform List<scalar> 
3000
(
0.01368422948
0.01368422948
0.01368422948
0.01368422948
0.01368422948
0.01368422948
0.01368422948
0.01368422948
0.01368422948
0.01368422948
0.01368422948
0.01368422948
0.01368422948
0.01368422948
0.01368422948
0.01368422948
0.01368422948
0.01368422948
0.01368422948
0.01368422948
0.01368422948
0.01368422948
0.01368422948
0.01368422948
0.01368422948
0.01368422948
0.01368422948
0.01368422948
0.01368422948
0.01368422948
0.01368422948
0.01368422948
0.01368422948
0.01368422948
0.01368422948
0.01368422948
0.01368422948
0.01368422948
0.01368422948
0.01368422948
0.01368422948
0.01368422948
0.01368422948
0.01368422948
0.01368422948
0.01368422948
0.01368422948
0.01368422948
0.01368422948
0.01368422948
0.01368422948
0.01368422948
0.01368422948
0.01368422948
0.01368422948
0.01368422948
0.01368422948
0.01368422948
0.01368422948
0.01368422948
0.01368422948
0.01368422948
0.01368422948
0.01368422948
0.01368422948
0.01368422948
0.01368422948
0.01368422948
0.01368422948
0.01368422948
0.01368422948
0.01368422948
0.01368422948
0.01368422948
0.01368422948
0.01368422948
0.01368422948
0.01368422948
0.01368422948
0.01368422948
0.01368422948
0.01368422948
0.01368422948
0.01368422948
0.01368422948
0.01368422948
0.01368422948
0.01368422948
0.01368422948
0.01368422948
0.01368422948
0.01368422948
0.01368422948
0.01368422948
0.01368422948
0.01368422948
0.01368422948
0.01368422948
0.01368422948
0.01368422948
0.01368422948
0.01368422948
0.01368422948
0.01368422948
0.01368422948
0.01368422948
0.01368422948
0.01368422948
0.01368422948
0.01368422948
0.01368422948
0.01368422948
0.01368422948
0.01368422948
0.01368422948
0.01368422948
0.01368422948
0.01368422948
0.01368422948
0.01368422948
0.01368422948
0.01368422948
0.01368422948
0.01368422948
0.01368422948
0.01368422948
0.01368422948
0.01368422948
0.01368422948
0.01368422948
0.01368422948
0.01368422948
0.01368422948
0.01368422948
0.01368422948
0.01368422948
0.01368422948
0.01368422948
0.01368422948
0.01368422948
0.01368422948
0.01368422948
0.01368422948
0.01368422948
0.01368422948
0.01368422948
0.01368422948
0.01368422948
0.01368422948
0.01368422948
0.01368422948
0.01368422948
0.01368422948
0.01368422948
0.01368422948
0.01368422948
0.01368422948
0.01368422948
0.01368422948
0.01368422948
0.01368422948
0.01368422948
0.01368422948
0.01368422948
0.01368422948
0.01368422948
0.01368422948
0.01368422948
0.01368422948
0.01368422948
0.01368422948
0.01368422948
0.01368422948
0.01368422948
0.01368422948
0.01368422948
0.01368422948
0.01368422948
0.01368422948
0.01368422948
0.01368422948
0.01368422948
0.01368422948
0.01368422948
0.01368422948
0.01368422948
0.01368422948
0.01368422948
0.01368422948
0.01368422948
0.01368422948
0.01368422948
0.01368422948
0.01368422948
0.01368422948
0.01368422948
0.01368422948
0.01368422948
0.01368422948
0.01368422948
0.01368422948
0.01368422948
0.01368422948
0.01368422948
0.01368422948
0.01368422948
0.01368422948
0.01368422948
0.01368422948
0.01368422948
0.01368422948
0.01368422948
0.01368422948
0.01368422948
0.01368422948
0.01368422948
0.01368422948
0.01368422948
0.01368422948
0.01368422948
0.01368422948
0.01368422948
0.01368422948
0.01368422948
0.01368422948
0.01368422948
0.01368422948
0.01368422948
0.01368422948
0.01368422948
0.01368422948
0.01368422948
0.01368422948
0.01368422948
0.01368422948
0.01368422948
0.01368422948
0.01368422948
0.01368422948
0.01368422948
0.01368422948
0.01368422948
0.01368422948
0.01368422948
0.01368422948
0.01368422948
0.01368422948
0.01368422948
0.01368422948
0.01368422948
0.01368422948
0.01368422948
0.01368422948
0.01368422948
0.01368422948
0.01368422948
0.01368422948
0.01368422948
0.01368422948
0.01368422947
0.01368422947
0.01368422948
0.01368422948
0.01368422948
0.01368422948
0.01368422948
0.01368422947
0.01368422947
0.01368422947
0.01368422947
0.01368422948
0.01368422948
0.01368422948
0.01368422947
0.01368422947
0.01368422947
0.01368422947
0.01368422947
0.01368422947
0.01368422948
0.01368422947
0.01368422947
0.01368422947
0.01368422947
0.01368422947
0.01368422947
0.01368422947
0.01368422947
0.01368422947
0.01368422947
0.01368422947
0.01368422947
0.01368422947
0.01368422947
0.01368422947
0.01368422946
0.01368422946
0.01368422947
0.01368422947
0.01368422947
0.01368422947
0.01368422947
0.01368422946
0.01368422946
0.01368422946
0.01368422945
0.01368422947
0.01368422947
0.01368422947
0.01368422946
0.01368422946
0.01368422945
0.01368422945
0.01368422944
0.01368422944
0.01368422947
0.01368422946
0.01368422946
0.01368422946
0.01368422945
0.01368422944
0.01368422943
0.01368422942
0.01368422941
0.01368422946
0.01368422946
0.01368422945
0.01368422944
0.01368422943
0.01368422941
0.0136842294
0.01368422938
0.01368422937
0.01368422945
0.01368422944
0.01368422943
0.01368422942
0.01368422939
0.01368422937
0.01368422934
0.01368422931
0.01368422929
0.01368422943
0.01368422942
0.0136842294
0.01368422937
0.01368422934
0.01368422929
0.01368422925
0.0136842292
0.01368422917
0.0136842294
0.01368422938
0.01368422935
0.0136842293
0.01368422924
0.01368422917
0.01368422909
0.01368422902
0.01368422897
0.01368422935
0.01368422931
0.01368422926
0.01368422919
0.01368422909
0.01368422897
0.01368422884
0.01368422872
0.01368422865
0.01368422926
0.0136842292
0.01368422912
0.01368422899
0.01368422883
0.01368422864
0.01368422843
0.01368422825
0.01368422813
0.01368422911
0.01368422902
0.01368422888
0.01368422868
0.01368422842
0.01368422811
0.01368422778
0.01368422749
0.0136842273
0.01368422886
0.01368422871
0.01368422848
0.01368422816
0.01368422775
0.01368422726
0.01368422675
0.01368422629
0.013684226
0.01368422845
0.01368422822
0.01368422785
0.01368422733
0.01368422668
0.01368422591
0.01368422512
0.01368422442
0.01368422398
0.01368422778
0.01368422741
0.01368422682
0.01368422601
0.01368422498
0.0136842238
0.01368422259
0.01368422152
0.01368422086
0.0136842267
0.01368422611
0.01368422519
0.01368422392
0.01368422234
0.01368422053
0.01368421869
0.01368421708
0.01368421609
0.01368422497
0.01368422405
0.01368422261
0.01368422066
0.01368421824
0.01368421551
0.01368421273
0.01368421035
0.01368420887
0.01368422221
0.01368422079
0.01368421859
0.01368421561
0.01368421196
0.01368420786
0.01368420373
0.01368420021
0.01368419804
0.01368421785
0.01368421568
0.01368421234
0.01368420787
0.0136842024
0.01368419632
0.01368419024
0.01368418508
0.01368418191
0.01368421105
0.01368420778
0.01368420276
0.01368419609
0.013684188
0.01368417906
0.01368417019
0.01368416268
0.0136841581
0.01368420053
0.01368419564
0.01368418819
0.01368417834
0.01368416649
0.01368415346
0.0136841406
0.01368412977
0.0136841232
0.0136841844
0.01368417717
0.01368416623
0.01368415183
0.0136841346
0.01368411577
0.01368409729
0.01368408178
0.01368407239
0.01368415991
0.01368414935
0.01368413342
0.01368411256
0.01368408773
0.01368406073
0.01368403433
0.01368401225
0.01368399891
0.0136841231
0.0136841078
0.01368408482
0.01368405486
0.01368401937
0.01368398092
0.01368394346
0.01368391221
0.01368389337
0.01368406827
0.01368404631
0.01368401344
0.01368397076
0.0136839204
0.01368386603
0.01368381321
0.01368376924
0.01368374278
0.01368398737
0.01368395612
0.01368390949
0.01368384915
0.01368377819
0.01368370184
0.01368362783
0.01368356635
0.0136835294
0.01368386906
0.01368382495
0.01368375933
0.01368367466
0.01368357539
0.01368346887
0.01368336587
0.01368328047
0.01368322921
0.01368369755
0.01368363579
0.01368354412
0.01368342617
0.01368328827
0.0136831407
0.01368299834
0.01368288054
0.01368280994
0.01368345105
0.01368336522
0.01368323811
0.01368307497
0.01368288477
0.01368268175
0.01368248637
0.01368232504
0.01368222847
0.0136830997
0.01368298131
0.01368280633
0.01368258232
0.01368232183
0.01368204451
0.01368177822
0.01368155873
0.01368142751
0.01368260306
0.01368244096
0.01368220185
0.01368189645
0.01368154221
0.01368116597
0.01368080543
0.01368050869
0.01368033145
0.01368190693
0.01368168661
0.01368136222
0.01368094881
0.01368047035
0.01367996323
0.01367947809
0.01367907929
0.01367884126
0.01368093945
0.01368064217
0.01368020516
0.01367964933
0.01367900728
0.01367832798
0.01367767903
0.01367714613
0.01367682825
0.01367960625
0.0136792079
0.01367862316
0.01367788065
0.01367702443
0.01367611988
0.01367525683
0.01367454871
0.0136741265
0.01367778452
0.01367725428
0.01367647689
0.01367549121
0.01367435627
0.01367315886
0.01367201758
0.01367108183
0.01367052408
0.01367531592
0.01367461467
0.01367358771
0.01367228729
0.01367079191
0.01366921606
0.01366771545
0.01366648579
0.01366575299
0.01367199856
0.01367107711
0.01366972904
0.01366802399
0.01366606562
0.013664004
0.01366204233
0.01366043558
0.01365947813
0.01366757819
0.01366637529
0.01366461702
0.01366239555
0.01365984674
0.01365716601
0.01365461694
0.01365252979
0.01365128605
0.01366173877
0.01366017892
0.01365790082
0.01365502539
0.01365172949
0.01364826588
0.0136449743
0.01364227991
0.01364067416
0.01365409307
0.0136520844
0.01364915312
0.01364545669
0.01364122361
0.0136367786
0.01363255664
0.01362910144
0.01362704204
0.0136441739
0.01364160613
0.01363786181
0.01363314435
0.01362774687
0.01362208348
0.01361670717
0.01361230831
0.01360968621
0.01363142704
0.01362816988
0.0136234239
0.01361744987
0.01361062091
0.01360346124
0.01359666845
0.01359111233
0.01358780032
0.01361520687
0.0136111091
0.01360514293
0.01359764006
0.01358907176
0.01358009639
0.01357158675
0.01356462924
0.01356048227
0.01359477582
0.01358966541
0.01358223099
0.01357289112
0.01356223629
0.01355108634
0.01354052363
0.01353189244
0.01352674914
0.01356930886
0.01356299436
0.01355381643
0.0135422989
0.01352917537
0.01351545767
0.01350247536
0.01349187484
0.01348556066
0.01353790354
0.01353017712
0.01351895784
0.01350489567
0.01348889392
0.01347218966
0.01345639947
0.01344351852
0.01343585116
0.01349959611
0.01349023818
0.01347666408
0.01345967308
0.0134403671
0.01342024351
0.01340124767
0.01338577039
0.01337656563
0.01345338327
0.01344216863
0.01342591973
0.01340561011
0.0133825708
0.01335859652
0.01333600254
0.01331761952
0.01330669826
0.01339824864
0.0133849538
0.01336571415
0.0133417041
0.01331451623
0.01328627805
0.01325971356
0.01323813423
0.01322532975
0.01333319206
0.01331760352
0.01329507401
0.0132670059
0.01323528406
0.01320240297
0.01317153089
0.0131464956
0.01313166055
0.01325726323
0.01323918685
0.01321309724
0.01318065103
0.01314405505
0.0131062018
0.0130707343
0.01304202512
0.01302503767
0.01316959424
0.01314886242
0.01311898178
0.01308188807
0.01304013688
0.01299704548
0.01295675575
0.01292420529
0.01290497403
0.01306942709
0.01304590554
0.01301205172
0.01297010261
0.01292298563
0.0128744639
0.01282919503
0.01279269287
0.01277116022
0.0129561386
0.0129297318
0.01289177868
0.01284483603
0.01279222129
0.01273815815
0.01268782883
0.01264732538
0.01262346948
0.01282926056
0.01279991553
0.01275779792
0.01270579862
0.01264763759
0.01258800692
0.01253261402
0.01248812179
0.01246195697
0.01268849461
0.01265620294
0.01260991906
0.01255287726
0.01248920648
0.01242406766
0.01236368587
0.01231527861
0.01228685451
0.01253372176
0.01249852
0.0124481316
0.01238613822
0.01231707784
0.01224657351
0.01218135242
0.01212916224
0.01209856194
0.01236500664
0.01232697516
0.01227260554
0.01220582531
0.01213157516
0.01205592644
0.0119860856
0.01193029856
0.01189763578
0.01218259676
0.01214185733
0.01208368765
0.01201235413
0.01193318766
0.01185268746
0.01177850971
0.01171936024
0.01168477598
0.01198691731
0.01194362968
0.01188189379
0.01180630276
0.01172255938
0.01163756427
0.01155938799
0.01149715253
0.01146081123
0.01177856187
0.01173291945
0.01166789773
0.01158839951
0.01150047583
0.01141139699
0.01132960763
0.01126459779
0.01122668337
0.01155827947
0.01151050461
0.01144251711
0.01135950806
0.01126784855
0.01117514232
0.01109016374
0.01102271948
0.01098343135
0.01132695865
0.01127729749
0.01120669673
0.01112061059
0.01102569808
0.01092985651
0.01084214263
0.01077262579
0.01073217518
0.01108560888
0.01103432614
0.01096148974
0.01087278882
0.01077513514
0.01067667705
0.0105867041
0.01051549284
0.01047409979
0.01083533982
0.01078271347
0.0107080367
0.01061720308
0.01051733979
0.01041680198
0.0103250615
0.0102525459
0.01021043811
0.01057733887
0.01052365465
0.01044754275
0.01035506898
0.01025353726
0.01015146472
0.01005845531
0.009985033038
0.009942448032
0.01031284771
0.01025839336
0.01018125322
0.01008763195
0.009984970529
0.009881902761
0.009788114847
0.009714173381
0.009671322886
0.01004313856
0.009988197751
0.009910429044
0.009816141573
0.009712872924
0.009609327422
0.009515223158
0.009441100274
0.009398172149
0.009769490726
0.009714336641
0.009636322395
0.009541826485
0.009438441881
0.009334892476
0.009240868391
0.009166864516
0.009124028663
0.009493167309
0.009438055551
0.009360151497
0.009265866613
0.009162797917
0.009059647663
0.008966056851
0.008892441931
0.008849851464
0.009215388108
0.009160547979
0.009083063935
0.008989341286
0.008886956648
0.008784562602
0.008691719955
0.008618735679
0.008576527874
0.008937262907
0.008882881995
0.008806077327
0.008713224138
0.008611849812
0.008510529491
0.008418715518
0.008346577313
0.008304874502
0.008659771153
0.008606014169
0.008530117808
0.008438405506
0.008338330685
0.008238365679
0.008147828969
0.008076727518
0.008035637844
0.008383802792
0.008330815175
0.008256029374
0.008165697498
0.008067177211
0.007968815436
0.007879774379
0.007809876825
0.007769494902
0.008110166933
0.008058076471
0.0079845787
0.007895836971
0.007799093946
0.00770255129
0.007615195477
0.007546646508
0.007507054053
0.007839595825
0.007788513544
0.00771645767
0.00762948739
0.007534713526
0.007440175306
0.007354666875
0.007287589805
0.007248856284
0.007572746895
0.007522767755
0.007452285046
0.007367240362
0.007274598154
0.007182220606
0.007098695652
0.007033193576
0.00699537689
0.007310204265
0.007261407879
0.007192608061
0.007109617304
0.007019241389
0.006929153286
0.006847723386
0.006783880426
0.00674702765
0.00705248045
0.007004931899
0.006937904342
0.006857071525
0.006769070382
0.006681374796
0.006602128661
0.006540011288
0.006504159452
0.006800018535
0.006753769282
0.006688584329
0.006609990794
0.006524448589
0.006439224783
0.006362229999
0.006301888425
0.006267065321
0.006553194916
0.006508283813
0.006444994214
0.006368700398
0.00628567894
0.006202984337
0.006128289175
0.006069758776
0.006035983782
0.006312322572
0.006268776922
0.00620741935
0.006133466616
0.006053007371
0.005972879581
0.00590051482
0.005843817569
0.005811102473
0.00607765479
0.006035491439
0.005976088028
0.005904500538
0.005826626657
0.005749085492
0.005679066239
0.005624212116
0.005592561926
0.005849389225
0.00580861566
0.005751175548
0.005681962107
0.005606680435
0.005531729889
0.005464057348
0.005411045717
0.005380459441
0.005627672188
0.005588287611
0.005532808447
0.005465964312
0.005393267327
0.005320897489
0.005255560666
0.005204381587
0.005174852983
0.005412603056
0.005374599417
0.005321068814
0.005256577419
0.005186445089
0.005116633963
0.005053611277
0.00500424675
0.004975765031
0.005204238699
0.005167601687
0.00511599859
0.005053833183
0.004986234715
0.004918949924
0.004858210723
0.004810635844
0.004783186333
0.005002597861
0.004967307818
0.004917603793
0.004857728956
0.00479262442
0.004727824798
0.004669330751
0.004623514791
0.004597079528
0.004807665404
0.004773698185
0.004725858601
0.004668231657
0.004605573484
0.004543210524
0.004486916913
0.004442824291
0.004417382589
0.004619396392
0.004586724138
0.004540709252
0.004485281546
0.004425015891
0.004365035073
0.004310891949
0.004268483129
0.004244012073
0.004437719942
0.004406311791
0.004362077727
0.004308795783
0.004250863753
0.004193205735
0.004141158971
0.004100391258
0.004076866158
0.004262542847
0.004232365563
0.004189865192
0.004138671747
0.004083010502
0.004027612186
0.003977604409
0.003938432661
0.003915827457
0.004093752923
0.004064771462
0.004023955179
0.003974790108
0.003921333834
0.003868129305
0.003820100725
0.003782477986
0.003760765599
0.003931222102
0.003903400105
0.003864216517
0.003817017634
0.0037656984
0.003714619757
0.003668508889
0.003632386942
0.003611539591
0.003774809237
0.003748109462
0.003710505986
0.003665209755
0.003615958256
0.003566936333
0.003522680633
0.003488010479
0.003467999947
0.003624362651
0.003598747349
0.003562670729
0.003519212869
0.003471959072
0.003424924058
0.003382460465
0.003349192741
0.003329990614
0.003479722419
0.003455153652
0.003420550403
0.00337886641
0.003333540107
0.003288422078
0.00324768748
0.003215772813
0.003197350678
0.003340722403
0.003317162318
0.003283979101
0.003244004691
0.003200535961
0.003157265333
0.003118196963
0.003087586272
0.00306991589
0.003207192053
0.003184603109
0.003152787047
0.003114458526
0.003072778132
0.003031286036
0.002993821803
0.002964466549
0.002947519995
0.003078957985
0.003057303144
0.003026802085
0.002990056657
0.002950096366
0.002910314963
0.002874393725
0.002846246123
0.002829995907
0.002955845364
0.002935088245
0.002905850973
0.00287062699
0.002832319841
0.002794182578
0.002759744367
0.002732757554
0.002717176715
0.002837679089
0.002817784092
0.002789760503
0.002755997669
0.002719278186
0.002682719998
0.002649706198
0.002623834372
0.00260889656
0.002724284816
0.002705217221
0.002678358458
0.002645997986
0.002610802342
0.002575759818
0.002544113308
0.002519311837
0.002504991369
0.002615489824
0.002597215868
0.002571474422
0.002540459159
0.002506725309
0.002473136811
0.002442802071
0.002419027572
0.002405299483
0.002511123745
0.002493610677
0.002468940467
0.002439214978
0.00240688275
0.002374688506
0.002345611698
0.002322822101
0.002309662176
0.002411019167
0.002394235286
0.002370591711
0.002342102349
0.00231111351
0.002280255674
0.002252384694
0.002230539281
0.002217924082
0.002315012129
0.00229892681
0.002276266785
0.002248961723
0.00221926002
0.002189682714
0.002162967226
0.002142026657
0.002129933534
0.002222942519
0.002207526227
0.002185808198
0.002159637452
0.002131168631
0.002102817958
0.002077209413
0.002057135737
0.002045542838
0.002134654388
0.002119878677
0.002099062626
0.002073978058
0.002046689867
0.002019513919
0.001994965548
0.001975722208
0.001964608477
0.002049996187
0.002035833699
0.002015881132
0.001991836441
0.001965678616
0.001939627456
0.001916094268
0.001897646085
0.00188699126
0.001968820939
0.001955245389
0.001936119325
0.001913070022
0.001887994267
0.001863019908
0.00184045866
0.001822771823
0.001812556423
0.001890986361
0.00187797252
0.001859637461
0.001837540839
0.001813500791
0.001789557162
0.001767926337
0.001750968376
0.001741173691
0.001816354926
0.001803878599
0.0017863005
0.001765115602
0.001742066788
0.001719109697
0.001698369462
0.001682109221
0.001672717295
0.001744793895
0.001732831894
0.001715978131
0.001695665702
0.0016735655
0.001651552583
0.001631664749
0.001616072354
0.001607065967
0.001676175317
0.00166470544
0.001648544765
0.001629067207
0.001607874786
0.001586765455
0.001567693433
0.001552740255
0.001544102905
0.001610375997
0.001599376988
0.00158387949
0.001565200809
0.001544877075
0.001524632469
0.001506341218
0.001491999842
0.001483715718
0.001547277431
0.001536728955
0.001521866013
0.001503951764
0.001484459306
0.001465042231
0.001447498212
0.001433742389
0.001425796358
0.001486765727
0.001476648335
0.001462392576
0.001445209813
0.001426512843
0.001407887714
0.001391058837
0.00137786345
0.001370241026
0.001428731514
0.001419026611
0.001405351862
0.001388869081
0.001370933375
0.001353066162
0.001336921731
0.001324262754
0.001316950077
0.001373069833
0.001363759646
0.001350640888
0.001334827974
0.001317620815
0.001300478979
0.001284989642
0.001272844098
0.001265827913
0.001319680021
0.001310747567
0.001298160892
0.001282989064
0.001266479178
0.001250031614
0.001235169314
0.001223515233
0.001216782866
0.00126846559
0.001259894641
0.001247817204
0.001233258959
0.001217416463
0.001201633446
0.001187371361
0.001176187743
0.001169727076
0.001219334093
0.001211109146
0.001199519123
0.001185548186
0.001170344524
0.001155197648
0.001141510149
0.001130776921
0.001124576372
0.001172196991
0.00116430324
0.001153179784
0.001139771052
0.001125178943
0.001110641068
0.001097503662
0.001087201644
0.001081250143
0.001126969522
0.001119392824
0.001108716022
0.001095845518
0.001081838901
0.001067884096
0.001055273382
0.001045384245
0.001039671212
0.001083570562
0.001076297409
0.001066048241
0.001053693061
0.001040247041
0.001026850534
0.001014744154
0.001005250384
0.000999765711
0.001041922488
0.00103493998
0.001025100281
0.001013238548
0.001000329343
0.0009874674701
0.0009758440628
0.000966728926
0.0009614629539
0.001001951046
0.0009952468622
0.0009857992806
0.0009744100992
0.0009620149928
0.0009496651469
0.0009385043053
0.0009297518141
0.0009246953127
0.0009635852164
0.0009571475879
0.0009480755526
0.0009371389628
0.0009252362556
0.0009133768397
0.0009026590669
0.0008942539457
0.000889398096
0.0009267570815
0.0009205747688
0.000911862451
0.0009013593872
0.00088992835
0.0008785387319
0.0008682454006
0.000860173054
0.000855509429
0.0008914017011
0.0008854639681
0.0008770962477
0.0008670084972
0.000856029327
0.000845089795
0.000835203108
0.0008274495901
0.0008229701377
0.0008574569855
0.0008517535767
0.0008437160099
0.0008340261736
0.0008234799512
0.0008129716723
0.0008034746245
0.0007960266095
0.0007917236348
0.0008248635758
0.0008193846939
0.0008116634817
0.0008023549368
0.0007922235858
0.0007821285652
0.0007730049074
0.0007658496612
0.0007617158108
0.0007935647259
0.0007883010105
0.000780882969
0.0007719398328
0.0007622060812
0.0007525071236
0.0007437413279
0.000736866681
0.0007328949272
0.0007635061897
0.000758448697
0.0007513212289
0.0007427283247
0.0007333756673
0.0007240563404
0.000715633567
0.0007090278886
0.0007052115147
0.0007346361117
0.0007297762953
0.0007229273625
0.0007146701869
0.0007056828503
0.0006967274492
0.0006886335149
0.0006822856884
0.0006786182743
0.0007069049223
0.0007022346149
0.0006956527127
0.0006877174045
0.0006790803129
0.0006704738273
0.0006626951752
0.0006565945747
0.0006530699834
0.0006802652375
0.0006757766328
0.0006694507653
0.0006618240761
0.0006535228198
0.0006452509016
0.0006377745728
0.0006319110406
0.0006285234058
0.0006546717622
0.0006503573989
0.0006442770558
0.0006369463217
0.0006289671264
0.0006210160599
0.0006138296665
0.0006081934923
0.0006049372053
0.0006300811993
0.0006259339453
0.0006200890795
0.0006130421947
0.0006053718929
0.0005977285665
0.0005908202656
0.0005854021661
0.0005822718655
0.0006064521627
0.0006024651998
0.000596846207
0.0005900715988
0.0005826976029
0.0005753494821
0.000568707952
0.0005634990526
0.0005604896125
0.0005837450951
0.0005799119059
0.0005745096047
0.0005679962104
0.0005609064869
0.0005538415891
0.000547456007
0.0005424478239
0.0005395543444
0.0005619221923
0.0005582365464
0.0005530421604
0.0005467794049
0.0005399624513
0.0005331693229
0.0005270293435
0.0005222137676
0.0005194315654
0.000540947331
0.0005374032736
0.0005324084143
0.0005263861904
0.0005198310134
0.0005132987078
0.0005073944445
0.0005027637266
0.0005000883263
0.0005207860047
0.0005173778452
0.000512574497
0.0005067831469
0.0005004792422
0.0004941973009
0.0004885193083
0.0004840660456
0.000481493172
0.0005014052648
0.0004981275673
0.0004935080732
0.0004879383719
0.0004818757073
0.0004758341423
0.0004703734012
0.0004660905252
0.000463616097
0.0004827736693
0.0004796212438
0.0004751782938
0.0004698214354
0.0004639904349
0.0004581797141
0.0004529276179
0.0004488083852
0.0004464285087
0.0004648612404
0.0004618291353
0.000457555756
0.0004524033412
0.0004467948731
0.0004412059083
0.000436154253
0.0004321922364
0.0004299032017
0.0004476394292
0.0004447229259
0.000440612473
0.0004356565002
0.0004302618671
0.0004248860047
0.0004200269811
0.0004162160647
0.0004140143424
0.0004310810924
0.0004282757009
0.0004243218533
0.0004195547123
0.0004143656452
0.0004091946608
0.0004045208501
0.000400855226
0.0003987374655
0.0004151604775
0.0004124619345
0.0004086586916
0.0004040731609
0.0003990818163
0.0003941079133
0.0003896122861
0.0003860864543
0.0003840494842
0.0003998532211
0.0003972574894
0.0003935991713
0.0003891884187
0.0003843873808
0.0003796031923
0.0003752791118
0.0003718878832
0.0003699287131
0.0003851363574
0.0003826396286
0.0003791208794
0.0003748784665
0.0003702607527
0.0003656593488
0.0003615005779
0.0003582390807
0.0003563549056
0.00037098834
0.0003685870382
0.0003652028326
0.000361122724
0.0003566817955
0.0003522566947
0.0003482574075
0.0003451210967
0.0003433093029
0.0003573890735
0.0003550798625
0.0003518255158
0.0003479020914
0.0003436318681
0.0003393770534
0.000335531851
0.0003325165221
0.000330774695
0.0003443199564
0.0003420997485
0.0003389709295
0.0003351990014
0.0003310938812
0.0003270038204
0.0003233077502
0.0003204095549
0.0003187354892
0.000331763931
0.0003296298977
0.0003266226449
0.000322997477
0.0003190523585
0.0003151220281
0.0003115706064
0.0003087860716
0.0003071777824
0.000319705539
0.0003176551236
0.0003147658626
0.0003112831931
0.0003074935005
0.0003037184116
0.0003003076485
0.0002976336963
0.0002960894312
0.0003081309765
0.0003061619072
0.0003033874699
0.0003000435347
0.0002964052441
0.0002927814694
0.0002895078937
0.0002869418614
0.0002854601126
0.0002970281457
0.0002951384485
0.0002924760917
0.0002892676468
0.0002857773113
0.0002823015105
0.0002791621929
0.000276701852
0.0002752813672
0.0002863866945
0.0002845747051
0.0002820221267
0.0002789464681
0.0002756012392
0.0002722706801
0.0002692632525
0.0002669068235
0.0002655466145
0.0002761980378
0.0002744624106
0.0002720177622
0.0002690727401
0.0002658703825
0.000262682955
0.0002598056219
0.0002575517829
0.0002562511305
0.000266455353
0.0002647950652
0.0002624569575
0.0002596409825
0.000256579879
0.0002535340981
0.000250785638
0.0002486335242
0.0002473919774
0.000257153539
0.0002555678896
0.0002533353894
0.0002506474264
0.000247726569
0.0002448215633
0.0002422013155
0.0002401505068
0.0002389678742
0.0002482891333
0.0002467777323
0.0002446503478
0.000242089896
0.0002393088605
0.000236544342
0.0002340521752
0.0002321026689
0.0002309790018
0.0002398601824
0.0002384229313
0.0002364005796
0.0002339676308
0.0002313265284
0.000228702742
0.0002263390036
0.0002244911692
0.0002234267334
0.0002318660479
0.0002305031084
0.0002285860705
0.0002262810492
0.0002237804544
0.0002212980973
0.0002190635358
0.0002173180523
0.0002163132884
0.0002243071545
0.0002230189039
0.0002212077584
0.0002190314381
0.0002166722911
0.0002143324088
0.0002122280714
0.0002105858396
0.000209641311
0.0002171846736
0.0002159716464
0.0002142671842
0.0002122205786
0.0002100040598
0.0002078079124
0.0002058350168
0.0002042970521
0.0002034133785
0.0002105001449
0.0002093629607
0.0002077660794
0.0002058503093
0.0002037776867
0.0002017265881
0.0001998863674
0.0001984536721
0.0001976314521
0.0002042550421
0.0002031943197
0.0002017058999
0.0001999220374
0.0001979944886
0.0001960896202
0.0001943831463
0.0001930565631
0.0001922962859
0.0001984502917
0.0001974665525
0.0001960873165
0.0001944362102
0.0001926546246
0.0001908968292
0.000189324818
0.0001881048709
0.0001874068204
0.0001930857605
0.0001921793224
0.000190909683
0.0001893917694
0.0001877565364
0.0001861460998
0.0001847087068
0.0001835954352
0.0001829595909
0.000188159731
0.0001873305987
0.0001861705013
0.0001847856113
0.0001832964049
0.0001818328359
0.0001805294522
0.0001795222467
0.0001789481866
0.0001836683904
0.000182916146
0.0001818649137
0.0001806120838
0.0001792676545
0.0001779494757
0.0001767785371
0.0001758759887
0.0001753628013
0.0001796053595
0.0001789290609
0.0001779852516
0.0001768625519
0.0001756605413
0.000174485106
0.0001734439294
0.000172643703
0.0001721899155
0.0001759612952
0.0001753593893
0.0001745206748
0.0001735250679
0.0001724618598
0.0001714252099
0.0001705098727
0.0001698086183
0.0001694121483
0.0001727235963
0.0001721938543
0.0001714569339
0.0001705841766
0.0001696548007
0.0001687515833
0.0001679568596
0.0001673501726
0.0001670083108
0.0001698762441
0.0001694157266
0.0001687762837
0.0001680208864
0.0001672189879
0.0001664424422
0.0001657618085
0.0001652442486
0.000164953678
0.0001673998022
0.0001670048598
0.0001664575716
0.0001658128224
0.000165130708
0.0001644727331
0.000163898452
0.0001634636266
0.0001632204805
0.0001652715921
0.0001649379062
0.0001644765094
0.0001639345707
0.0001633633348
0.00016281464
0.0001623379213
0.0001619786324
0.0001617785921
0.00016346605
0.0001631887126
0.0001628061274
0.000162358201
0.0001618879271
0.0001614382582
0.0001610494885
0.0001607579303
0.0001605963419
0.0001619552528
0.0001617288843
0.0001614173882
0.0001610539394
0.0001606739656
0.0001603123808
0.0001600013671
0.000159769321
0.0001596413234
0.0001607095855
0.0001605284818
0.0001602799228
0.0001599909424
0.0001596901397
0.0001594053174
0.0001591616285
0.000158980771
0.000158881485
0.000159698483
0.0001595567622
0.0001593627791
0.0001591380789
0.0001589052347
0.0001586858787
0.0001584992071
0.0001583613922
0.000158286085
0.0001588911943
0.0001587830019
0.0001586353167
0.0001584648816
0.0001582890645
0.0001581242662
0.0001579847566
0.0001578822733
0.0001578265068
0.000158257712
0.0001581774033
0.0001580680764
0.0001579423688
0.0001578132574
0.0001576928166
0.0001575913489
0.0001575171355
0.0001574768851
0.0001577695618
0.000157711862
0.0001576335141
0.0001575437335
0.0001574518879
0.000157366569
0.0001572949739
0.0001572427739
0.0001572145112