/*--------------------------------*- C++ -*----------------------------------*\
| =========                 |                                                 |
| \\      /  F ield         | OpenFOAM: The Open Source CFD Toolbox           |
|  \\    /   O peration     | Version:  2212                                  |
|   \\  /    A nd           | Website:  www.openfoam.com                      |
|    \\/     M anipulation  |                                                 |
\*---------------------------------------------------------------------------*/
FoamFile
{
    version     2.0;
    format      ascii;
    arch        "LSB;label=32;scalar=64";
    class       volScalarField;
    location    "20.00000000";
    object      CH4_0;
}
// * * * * * * * * * * * * * * * * * * * * * * * * * * * * * * * * * * * * * //

dimensions      [0 0 0 0 0 0 0];

internalField   nonuniform List<scalar> 
3000
(
0.0004199879352
0.0004199879352
0.0004199879352
0.0004199879352
0.0004199879352
0.0004199879352
0.0004199879352
0.0004199879352
0.0004199879352
0.0004199879352
0.0004199879352
0.0004199879352
0.0004199879352
0.0004199879352
0.0004199879352
0.0004199879352
0.0004199879352
0.0004199879352
0.0004199879352
0.0004199879352
0.0004199879352
0.0004199879352
0.0004199879352
0.0004199879352
0.0004199879352
0.0004199879352
0.0004199879352
0.0004199879352
0.0004199879352
0.0004199879352
0.0004199879352
0.0004199879352
0.0004199879352
0.0004199879352
0.0004199879352
0.0004199879352
0.0004199879352
0.0004199879352
0.0004199879352
0.0004199879352
0.0004199879352
0.0004199879352
0.0004199879352
0.0004199879352
0.0004199879352
0.0004199879352
0.0004199879352
0.0004199879352
0.0004199879352
0.0004199879352
0.0004199879352
0.0004199879352
0.0004199879352
0.0004199879352
0.0004199879352
0.0004199879352
0.0004199879352
0.0004199879352
0.0004199879352
0.0004199879352
0.0004199879352
0.0004199879352
0.0004199879352
0.0004199879352
0.0004199879352
0.0004199879352
0.0004199879352
0.0004199879352
0.0004199879352
0.0004199879352
0.0004199879352
0.0004199879352
0.0004199879352
0.0004199879352
0.0004199879352
0.0004199879352
0.0004199879352
0.0004199879352
0.0004199879352
0.0004199879352
0.0004199879352
0.0004199879352
0.0004199879352
0.0004199879352
0.0004199879352
0.0004199879352
0.0004199879352
0.0004199879352
0.0004199879352
0.0004199879352
0.0004199879352
0.0004199879352
0.0004199879352
0.0004199879352
0.0004199879352
0.0004199879352
0.0004199879352
0.0004199879352
0.0004199879352
0.0004199879352
0.0004199879352
0.0004199879352
0.0004199879352
0.0004199879352
0.0004199879352
0.0004199879352
0.0004199879352
0.0004199879352
0.0004199879352
0.0004199879352
0.0004199879352
0.0004199879352
0.0004199879352
0.0004199879352
0.0004199879352
0.0004199879352
0.0004199879352
0.0004199879352
0.0004199879352
0.0004199879352
0.0004199879352
0.0004199879352
0.0004199879352
0.0004199879352
0.0004199879352
0.0004199879352
0.0004199879352
0.0004199879352
0.0004199879352
0.0004199879352
0.0004199879352
0.0004199879352
0.0004199879352
0.0004199879352
0.0004199879352
0.0004199879352
0.0004199879352
0.0004199879352
0.0004199879352
0.0004199879352
0.0004199879352
0.0004199879352
0.0004199879352
0.0004199879352
0.0004199879352
0.0004199879352
0.0004199879352
0.0004199879352
0.0004199879352
0.0004199879352
0.0004199879352
0.0004199879352
0.0004199879352
0.0004199879352
0.0004199879352
0.0004199879352
0.0004199879352
0.0004199879352
0.0004199879352
0.0004199879352
0.0004199879352
0.0004199879352
0.0004199879352
0.0004199879352
0.0004199879352
0.0004199879352
0.0004199879352
0.0004199879352
0.0004199879352
0.0004199879352
0.0004199879352
0.0004199879352
0.0004199879352
0.0004199879352
0.0004199879352
0.0004199879352
0.0004199879352
0.0004199879352
0.0004199879352
0.0004199879352
0.0004199879352
0.0004199879352
0.0004199879352
0.0004199879352
0.0004199879352
0.0004199879352
0.0004199879352
0.0004199879352
0.0004199879352
0.0004199879352
0.0004199879352
0.0004199879352
0.0004199879352
0.0004199879352
0.0004199879352
0.0004199879352
0.0004199879352
0.0004199879352
0.0004199879352
0.0004199879352
0.0004199879352
0.0004199879352
0.0004199879352
0.0004199879352
0.0004199879352
0.0004199879352
0.0004199879352
0.0004199879352
0.0004199879352
0.0004199879352
0.0004199879352
0.0004199879352
0.0004199879352
0.0004199879352
0.0004199879352
0.0004199879352
0.0004199879352
0.0004199879352
0.0004199879352
0.0004199879352
0.0004199879352
0.0004199879352
0.0004199879352
0.0004199879352
0.0004199879352
0.0004199879352
0.0004199879352
0.0004199879352
0.0004199879352
0.0004199879352
0.0004199879352
0.0004199879352
0.0004199879352
0.0004199879352
0.0004199879352
0.0004199879352
0.0004199879352
0.0004199879352
0.0004199879352
0.0004199879352
0.0004199879352
0.0004199879352
0.0004199879352
0.0004199879352
0.0004199879352
0.0004199879352
0.0004199879352
0.0004199879352
0.0004199879352
0.0004199879352
0.0004199879352
0.0004199879352
0.0004199879352
0.0004199879352
0.0004199879352
0.0004199879352
0.0004199879352
0.0004199879352
0.0004199879352
0.0004199879352
0.0004199879352
0.0004199879352
0.0004199879352
0.0004199879352
0.0004199879352
0.0004199879352
0.0004199879352
0.0004199879352
0.0004199879352
0.0004199879352
0.0004199879352
0.0004199879352
0.0004199879352
0.0004199879352
0.0004199879352
0.0004199879352
0.0004199879352
0.0004199879352
0.0004199879352
0.0004199879352
0.0004199879352
0.0004199879352
0.0004199879352
0.0004199879352
0.0004199879352
0.0004199879352
0.0004199879352
0.0004199879352
0.0004199879352
0.0004199879352
0.0004199879352
0.0004199879352
0.0004199879352
0.0004199879352
0.0004199879353
0.0004199879353
0.0004199879353
0.0004199879352
0.0004199879352
0.0004199879352
0.0004199879352
0.0004199879353
0.0004199879353
0.0004199879353
0.0004199879353
0.0004199879353
0.0004199879352
0.0004199879352
0.0004199879353
0.0004199879353
0.0004199879353
0.0004199879353
0.0004199879354
0.0004199879354
0.0004199879354
0.0004199879353
0.0004199879353
0.0004199879353
0.0004199879353
0.0004199879354
0.0004199879354
0.0004199879355
0.0004199879356
0.0004199879356
0.0004199879353
0.0004199879353
0.0004199879354
0.0004199879354
0.0004199879355
0.0004199879356
0.0004199879357
0.0004199879358
0.0004199879359
0.0004199879354
0.0004199879354
0.0004199879355
0.0004199879356
0.0004199879357
0.0004199879359
0.0004199879361
0.0004199879363
0.0004199879364
0.0004199879355
0.0004199879356
0.0004199879357
0.0004199879359
0.0004199879361
0.0004199879364
0.0004199879367
0.000419987937
0.0004199879372
0.0004199879357
0.0004199879358
0.000419987936
0.0004199879363
0.0004199879367
0.0004199879372
0.0004199879377
0.0004199879381
0.0004199879384
0.000419987936
0.0004199879362
0.0004199879366
0.0004199879371
0.0004199879377
0.0004199879385
0.0004199879393
0.00041998794
0.0004199879405
0.0004199879366
0.000419987937
0.0004199879375
0.0004199879383
0.0004199879393
0.0004199879406
0.0004199879419
0.0004199879431
0.0004199879439
0.0004199879376
0.0004199879381
0.0004199879391
0.0004199879403
0.000419987942
0.000419987944
0.0004199879461
0.000419987948
0.0004199879492
0.0004199879392
0.0004199879401
0.0004199879416
0.0004199879437
0.0004199879463
0.0004199879495
0.0004199879528
0.0004199879557
0.0004199879575
0.0004199879418
0.0004199879433
0.0004199879457
0.000419987949
0.0004199879532
0.0004199879581
0.0004199879632
0.0004199879677
0.0004199879706
0.0004199879461
0.0004199879485
0.0004199879523
0.0004199879575
0.0004199879641
0.0004199879717
0.0004199879796
0.0004199879864
0.0004199879907
0.0004199879531
0.0004199879569
0.0004199879628
0.000419987971
0.0004199879812
0.0004199879928
0.0004199880047
0.000419988015
0.0004199880215
0.0004199879643
0.0004199879702
0.0004199879795
0.000419987992
0.0004199880076
0.0004199880253
0.0004199880432
0.0004199880586
0.0004199880681
0.0004199879821
0.0004199879913
0.0004199880055
0.0004199880247
0.0004199880483
0.0004199880748
0.0004199881014
0.0004199881242
0.0004199881382
0.0004199880104
0.0004199880244
0.000419988046
0.000419988075
0.0004199881103
0.0004199881496
0.0004199881889
0.0004199882223
0.0004199882428
0.0004199880545
0.0004199880758
0.0004199881082
0.0004199881515
0.0004199882039
0.0004199882618
0.0004199883193
0.000419988368
0.0004199883976
0.0004199881231
0.0004199881548
0.0004199882032
0.0004199882672
0.0004199883442
0.0004199884288
0.0004199885123
0.0004199885826
0.0004199886253
0.0004199882284
0.0004199882755
0.0004199883467
0.0004199884405
0.0004199885527
0.0004199886753
0.0004199887958
0.0004199888968
0.0004199889579
0.0004199883889
0.0004199884579
0.0004199885619
0.0004199886982
0.0004199888604
0.0004199890368
0.0004199892094
0.0004199893537
0.0004199894408
0.000419988631
0.0004199887314
0.000419988882
0.0004199890784
0.0004199893111
0.0004199895633
0.000419989809
0.000419990014
0.0004199901374
0.0004199889933
0.0004199891378
0.0004199893541
0.0004199896351
0.0004199899667
0.0004199903247
0.0004199906725
0.0004199909619
0.000419991136
0.0004199895304
0.0004199897369
0.0004199900452
0.0004199904442
0.0004199909135
0.0004199914185
0.0004199919079
0.0004199923142
0.0004199925582
0.00041999032
0.000419990613
0.000419991049
0.0004199916117
0.0004199922715
0.0004199929794
0.0004199936637
0.0004199942307
0.0004199945708
0.0004199914716
0.0004199918841
0.0004199924965
0.0004199932847
0.0004199942062
0.0004199951923
0.0004199961434
0.0004199969299
0.0004199974009
0.0004199931374
0.0004199937142
0.0004199945685
0.0004199956653
0.0004199969443
0.0004199983095
0.0004199996233
0.0004200007081
0.0004200013571
0.0004199955287
0.0004199963296
0.0004199975137
0.0004199990301
0.0004200007943
0.0004200026731
0.0004200044779
0.000420005966
0.0004200068557
0.0004199989351
0.0004200000399
0.0004200016704
0.0004200037543
0.0004200061732
0.0004200087446
0.0004200112108
0.0004200132422
0.000420014456
0.0004200037506
0.0004200052652
0.0004200074968
0.0004200103435
0.0004200136421
0.0004200171429
0.0004200204963
0.000420023256
0.0004200249043
0.0004200105078
0.0004200125716
0.0004200156084
0.0004200194761
0.0004200239507
0.0004200286931
0.0004200332312
0.0004200369632
0.0004200391916
0.000420019921
0.0004200227175
0.0004200268276
0.0004200320552
0.000420038095
0.0004200444888
0.0004200506014
0.0004200556254
0.0004200586245
0.0004200329423
0.0004200367116
0.0004200422457
0.0004200492762
0.0004200573892
0.0004200659687
0.0004200741644
0.0004200808972
0.0004200849158
0.0004200508316
0.000420055886
0.0004200633002
0.0004200727088
0.0004200835546
0.0004200950134
0.0004201059519
0.0004201149341
0.0004201202947
0.0004200752427
0.0004200819859
0.0004200918693
0.0004201043992
0.000420118829
0.0004201340615
0.0004201485933
0.0004201605218
0.0004201676402
0.0004201083277
0.0004201172786
0.0004201303876
0.0004201469921
0.0004201660974
0.00042018625
0.0004202054645
0.0004202212318
0.0004202306405
0.0004201528633
0.0004201646834
0.0004201819825
0.0004202038761
0.0004202290464
0.0004202555775
0.0004202808602
0.0004203016007
0.0004203139766
0.0004202123975
0.0004202279243
0.0004202506334
0.0004202793513
0.0004203123416
0.0004203470919
0.0004203801902
0.0004204073341
0.0004204235298
0.0004202914197
0.0004203117044
0.0004203413534
0.0004203788196
0.0004204218272
0.0004204670988
0.0004205101963
0.0004205455292
0.0004205666087
0.000420395551
0.0004204219006
0.0004204603907
0.000420508993
0.0004205647418
0.0004206233856
0.0004206791828
0.0004207249108
0.0004207521871
0.0004205317526
0.0004205657759
0.0004206154447
0.0004206781159
0.0004207499467
0.0004208254535
0.0004208972522
0.0004209560684
0.0004209911427
0.0004207085459
0.0004207522012
0.0004208158912
0.0004208961917
0.0004209881532
0.0004210847456
0.0004211765325
0.0004212516825
0.0004212964806
0.0004209362376
0.0004209918799
0.0004210730045
0.0004211752031
0.0004212921394
0.0004214148585
0.0004215313814
0.0004216267218
0.0004216835278
0.0004212271372
0.0004212975622
0.0004214001675
0.0004215293133
0.0004216769404
0.0004218317189
0.0004219785504
0.0004220985965
0.0004221700795
0.0004215957562
0.0004216842365
0.0004218130509
0.0004219750308
0.000422159995
0.0004223537099
0.0004225372913
0.0004226872484
0.0004227764771
0.0004220589714
0.0004221692825
0.0004223297497
0.0004225313239
0.0004227612331
0.0004230017325
0.0004232293903
0.0004234151596
0.0004235256039
0.000422636139
0.000422772569
0.0004229708584
0.0004232196659
0.0004235030916
0.0004237991848
0.0004240791119
0.0004243072699
0.0004244427856
0.0004233491398
0.0004235164805
0.0004237594719
0.0004240640069
0.0004244104428
0.0004247718482
0.0004251130471
0.0004253907943
0.0004255555907
0.0004242223484
0.0004244258678
0.0004247211039
0.0004250906464
0.0004255104246
0.000425947674
0.0004263598606
0.0004266949386
0.0004268935279
0.00042528251
0.0004255278963
0.0004258835004
0.0004263280097
0.0004268321725
0.0004273564722
0.000427849939
0.0004282505164
0.0004284876451
0.00042655851
0.0004268517953
0.0004272763572
0.0004278063249
0.0004284064541
0.0004290295027
0.0004296149448
0.0004300894749
0.0004303700397
0.0004280810455
0.0004284285057
0.0004289309358
0.0004295572023
0.0004302652092
0.0004309989785
0.0004316872875
0.0004322443421
0.0004325732924
0.0004298821933
0.0004302902287
0.000430879585
0.0004316131238
0.0004324410065
0.0004332974918
0.0004340995242
0.0004347476088
0.0004351298398
0.0004319948833
0.0004324698826
0.0004331551757
0.0004340068532
0.0004349664292
0.000435957378
0.0004368837069
0.0004376310644
0.0004380713039
0.0004344522884
0.0004350004809
0.0004357904638
0.000436770783
0.0004378734078
0.0004390100366
0.0004400706943
0.0004409251042
0.0004414277971
0.000437287147
0.0004379144489
0.0004388173994
0.0004399362371
0.0004411925172
0.0004424852271
0.0004436894501
0.0004446580301
0.0004452272259
0.000440531039
0.0004412428992
0.0004422664033
0.0004435327502
0.0004449522637
0.0004464103648
0.0004477663488
0.0004488553661
0.0004494946118
0.0004442136396
0.0004450148908
0.0004461656353
0.0004475873497
0.0004491783826
0.0004508098381
0.0004523245124
0.0004535392121
0.0004542514552
0.0004483619774
0.0004492566988
0.0004505402807
0.000452123864
0.0004538931736
0.0004557043718
0.0004573832014
0.0004587276566
0.0004595151615
0.0004529997251
0.0004539911213
0.0004554118813
0.0004571622844
0.0004591148976
0.0004611104606
0.0004629572825
0.0004644342719
0.000465298552
0.0004581465504
0.0004592368517
0.0004607977387
0.0004627182066
0.0004648572604
0.0004670398968
0.0004690567959
0.0004706677139
0.000471609482
0.0004638175564
0.0004650079445
0.0004667104167
0.0004688023777
0.0004711290106
0.0004734994186
0.0004756866505
0.0004774314533
0.0004784505936
0.0004700228351
0.0004713133987
0.0004731573669
0.0004754203746
0.0004779336756
0.0004804905058
0.0004828464762
0.0004847236748
0.000485819246
0.0004767671562
0.0004781568802
0.0004801406998
0.0004825724351
0.0004852694615
0.000488009352
0.0004905306651
0.0004925373818
0.0004937076698
0.0004840498076
0.0004855365986
0.000487657115
0.0004902534551
0.0004931293272
0.0004960470212
0.0004987286095
0.000500860695
0.0005021032162
0.0004918645949
0.0004934453463
0.000495697995
0.0004984531507
0.0005015012244
0.0005045897666
0.0005074250879
0.0005096772121
0.0005109888436
0.0005002000081
0.0005018707009
0.0005042496609
0.0005071563771
0.00051036848
0.0005136194507
0.0005166006345
0.0005189665137
0.0005203436016
0.0005090395609
0.0005107953981
0.0005132937868
0.0005163435826
0.0005197102338
0.0005231139413
0.0005262320739
0.0005287046317
0.0005301430717
0.0005183623079
0.0005201978633
0.0005228079218
0.0005259912652
0.0005295019156
0.0005330476866
0.0005362929926
0.0005388644927
0.0005403598048
0.0005281433973
0.0005300527151
0.0005327659758
0.0005360725485
0.0005397158266
0.0005433921913
0.0005467541966
0.0005494163689
0.0005509637689
0.0005383546644
0.000540331408
0.0005431388772
0.0005465577403
0.0005503216224
0.0005541164862
0.0005575841735
0.0005603283356
0.0005619228057
0.0005489652451
0.0005510027827
0.0005538950631
0.0005574148087
0.0005612867859
0.0005651875965
0.0005687495578
0.0005715667349
0.0005732030926
0.0005599420483
0.0005620335394
0.0005650009519
0.0005686098533
0.0005725770957
0.0005765710087
0.0005802155945
0.000583096636
0.0005847696008
0.0005712502263
0.0005733887081
0.0005764214148
0.0005801075748
0.0005841570932
0.0005882311322
0.0005919465951
0.0005948822864
0.000596586544
0.0005828536496
0.0005850321215
0.0005881202449
0.000591871739
0.0005959905393
0.0006001317474
0.000603906378
0.0006068875452
0.0006086178073
0.0005947153757
0.000596926881
0.0006000606165
0.0006038656267
0.0006080408535
0.0006122364343
0.0006160586849
0.0006190762906
0.0006208273495
0.0006067981058
0.0006090358047
0.000612205524
0.0006160524612
0.0006202715272
0.0006245089705
0.0006283675671
0.0006314127956
0.0006331795729
0.0006190646139
0.0006213218503
0.0006245181926
0.0006283958037
0.0006326465042
0.0006369136965
0.0006407977349
0.0006438620665
0.0006456396549
0.0006314781437
0.0006337485015
0.0006369624521
0.0006408599127
0.0006451305221
0.0006494158396
0.0006533148673
0.0006563901403
0.0006581738393
0.0006440027633
0.0006462801145
0.0006495030697
0.0006534100596
0.0006576894114
0.0006619817965
0.0006658858789
0.0006689643404
0.0006707496848
0.0006566036766
0.0006588822184
0.0006621060378
0.0006660128013
0.0006702903504
0.0006745793713
0.0006784791436
0.0006815534885
0.0006833362709
0.0006692474862
0.0006715217703
0.0006747388155
0.0006786362067
0.0006829020765
0.000687177971
0.0006910646757
0.0006941280755
0.0006959043623
0.0006819024103
0.000684167363
0.0006873705252
0.0006912500389
0.0006954950525
0.0006997487578
0.0007036142699
0.0007066603911
0.0007084265335
0.0006945384537
0.0006967893878
0.0006999721042
0.0007038258945
0.0007080415932
0.000712264762
0.0007161016026
0.0007191246171
0.0007208772566
0.000707127534
0.0007093601552
0.0007125164161
0.0007163373033
0.0007205159529
0.0007247009584
0.0007285022981
0.0007314968849
0.0007332329547
0.0007196435697
0.0007218539754
0.0007249783227
0.0007287597909
0.0007328943775
0.0007370343085
0.0007407939618
0.0007437553031
0.0007454720256
0.0007320625298
0.000734247204
0.0007373347227
0.0007410709087
0.0007451551263
0.0007492437736
0.0007529561865
0.0007558799572
0.000757574838
0.0007443624517
0.0007465182549
0.0007495645594
0.0007532502351
0.0007572784654
0.0007613103013
0.0007649705326
0.0007678528857
0.0007695237058
0.0007565234316
0.0007586475876
0.000761648802
0.0007652793515
0.0007692466383
0.0007732167909
0.0007768204885
0.0007796580366
0.0007813028413
0.000768527589
0.0007706176692
0.0007735704054
0.0007771417971
0.0007810438164
0.0007849480394
0.0007884914129
0.0007912812071
0.0007928982942
0.0007803590133
0.0007824129186
0.0007853142506
0.0007888230068
0.0007926560332
0.0007964906726
0.0007999704635
0.0008027099698
0.000804297876
0.0007920036924
0.0007940196338
0.000796867071
0.0008003102351
0.0008040711062
0.0008078330649
0.0008112465146
0.0008139335889
0.0008154910762
0.0008034494291
0.0008054259082
0.0008082173664
0.0008115924691
0.0008152785486
0.0008189652495
0.0008223100663
0.0008249429292
0.0008264689694
0.0008146857484
0.0008166215362
0.0008193553095
0.0008226603336
0.0008262694737
0.0008298788227
0.0008331531484
0.0008357303589
0.0008372241192
0.0008257037973
0.0008275979139
0.0008302726454
0.0008335059915
0.0008370364953
0.000840566844
0.0008437692207
0.0008462896501
0.0008477504783
0.0008364962407
0.0008383479351
0.0008409625882
0.0008441230406
0.0008475736252
0.0008510237344
0.0008541530712
0.0008566158779
0.0008580432873
0.0008470571549
0.000848865885
0.000851419716
0.000854506409
0.0008578761695
0.0008612451735
0.0008643007152
0.0008667053194
0.0008680989749
0.0008573819208
0.0008591473345
0.0008616398655
0.0008646522515
0.0008679406262
0.0008712279986
0.0008742092943
0.0008765553545
0.0008779150586
0.0008674671184
0.000869189035
0.0008716200286
0.0008745578475
0.0008777645848
0.0008809701055
0.0008838769796
0.0008861643692
0.0008874900489
0.0008773104237
0.0008789888167
0.0008813582512
0.0008842215011
0.0008873466278
0.0008904703522
0.0008933028763
0.0008955316619
0.0008968233562
0.0008869105081
0.000888545489
0.0008908535358
0.0008936424455
0.0008966862376
0.0008997284668
0.0009024869332
0.0009046573544
0.0009059152022
0.0008962669431
0.0008978587459
0.0009001057479
0.0009028207512
0.0009057837057
0.0009087449595
0.0009114298569
0.0009135423065
0.0009147665357
0.0009053801088
0.0009069290756
0.0009091155272
0.0009117572392
0.0009146400484
0.0009175210392
0.0009201330295
0.000922188036
0.000923378953
0.0009142511074
0.0009157576755
0.0009178842041
0.0009204533985
0.0009232569259
0.0009260585356
0.0009285984324
0.000930596643
0.0009317546233
0.0009228816825
0.0009243463718
0.0009264137207
0.0009289113097
0.0009316365681
0.0009343598256
0.0009368285748
0.0009387707401
0.0009398962189
0.0009312741427
0.000932697545
0.0009347065575
0.000937133573
0.0009397817038
0.0009424277651
0.0009448264266
0.0009467133866
0.0009478068512
0.000939431292
0.0009408140602
0.0009427656656
0.0009451232418
0.0009476954967
0.0009502656266
0.0009525953577
0.0009544280284
0.0009554900103
0.0009473563642
0.0009486992034
0.0009505944035
0.0009528837611
0.000955381485
0.0009578770401
0.0009601390806
0.0009619184426
0.0009629495106
0.000955052963
0.0009563566218
0.0009581964793
0.0009604189117
0.0009628435273
0.0009652659407
0.0009674615989
0.0009691886864
0.0009701894406
0.0009625250074
0.0009637902702
0.0009655758979
0.0009677327579
0.0009700857518
0.0009724365194
0.0009745671598
0.0009762430508
0.0009772141168
0.0009697766818
0.0009710043621
0.0009727369129
0.0009748296012
0.000977112511
0.0009793931788
0.0009814602107
0.0009830860184
0.0009840280421
0.0009768123903
0.0009780033242
0.0009796839827
0.000981713937
0.0009839283403
0.0009861404935
0.000988145361
0.0009897222256
0.000990635869
0.0009836367151
0.0009847917558
0.0009864217301
0.0009883904164
0.0009905379205
0.0009926831734
0.0009946273465
0.0009961564286
0.0009970423649
0.000990254379
0.0009913743919
0.0009929549071
0.0009948638111
0.0009969460444
0.0009990260315
0.001000910998
0.001002393471
0.001003252382
0.0009966702127
0.000997756071
0.000999288363
0.001001138983
0.001003157587
0.001005173954
0.001007001213
0.001008438259
0.001009270831
0.001002889125
0.001003941706
0.001005427015
0.001007220855
0.001009177476
0.001011131876
0.001012902929
0.001014295734
0.001015102654
0.001008916076
0.001009936256
0.001011375825
0.001013114389
0.001015010673
0.001016904756
0.001018621103
0.001019970852
0.001020752807
0.001014756052
0.001015744708
0.001017139773
0.001018824559
0.001020662147
0.001022497557
0.001024160694
0.001025468564
0.001026226239
0.001020414049
0.00102137205
0.001022723841
0.001024356338
0.001026136859
0.001027915228
0.001029526639
0.001030793801
0.001031527875
0.001025895049
0.001026823257
0.001028132993
0.001029714677
0.001031439745
0.00103316269
0.001034723845
0.001035951456
0.001036662602
0.001031204007
0.001032103274
0.00103337216
0.001034904491
0.0010365757
0.00103824482
0.00103975717
0.001040946376
0.001041635258
0.001036345836
0.001037217004
0.001038446229
0.001039930645
0.001041549569
0.001043166439
0.001044631416
0.001045783345
0.001046450618
0.001041325396
0.001042169293
0.001043360029
0.001044797946
0.001046366135
0.001047932306
0.001049351318
0.001050467081
0.001051113389
0.001046147481
0.001046964922
0.001048118319
0.001049511131
0.001051030106
0.001052547102
0.001053921534
0.001055002222
0.001055628198
0.001050816814
0.001051608599
0.001052725787
0.00105407486
0.001055546116
0.001057015432
0.001058346641
0.001059393323
0.001059999589
0.001055338036
0.001056104949
0.001057187036
0.001058493709
0.001059918709
0.001061341809
0.001062631126
0.001063644851
0.001064232015
0.001059715703
0.001060458511
0.001061506581
0.001062772165
0.001064152341
0.00106553066
0.001066779386
0.001067761178
0.001068329835
0.001063954278
0.001064673731
0.001065688843
0.001066914621
0.001068251373
0.00106958631
0.001070795717
0.001071746579
0.001072297311
0.001068058127
0.001068754958
0.001069738147
0.00107092537
0.001072220065
0.00107351299
0.001074684318
0.001075605229
0.001076138602
0.001072031518
0.001072706443
0.00107365872
0.001074808608
0.001076062581
0.001077314826
0.001078449287
0.0010793412
0.001079857768
0.001075878619
0.001076532334
0.001077454682
0.001078568427
0.001079782976
0.001080995842
0.001082094617
0.00108295846
0.001083458762
0.001079603491
0.001080236676
0.001081130055
0.001082208815
0.001083385206
0.001084559959
0.001085624196
0.001086460875
0.001086945436
0.001083210093
0.001083823408
0.001084688751
0.001085733655
0.00108687312
0.001088010992
0.001089041808
0.001089852203
0.001090321534
0.001086702277
0.001087296366
0.001088134581
0.001089146725
0.001090250463
0.001091352651
0.001092351133
0.001093136099
0.001093590697
0.001090083791
0.001090659278
0.001091471247
0.001092451697
0.001093520871
0.00109458854
0.001095555743
0.001096316112
0.001096756458
0.001093358276
0.001093915769
0.001094702348
0.001095652141
0.001096687881
0.001097722159
0.00109865911
0.001099395688
0.001099822251
0.001096529268
0.001097069356
0.001097831378
0.001098751518
0.001099754921
0.001100756906
0.001101664598
0.001102378169
0.001102791402
0.0010996002
0.001100123454
0.001100861725
0.001101753187
0.001102725317
0.001103696072
0.00110457547
0.001105266792
0.001105667136
0.001102574399
0.001103081372
0.001103796675
0.001104660404
0.001105602293
0.001106542848
0.001107394886
0.001108064695
0.001108452577
0.001105455088
0.001105946319
0.001106639412
0.001107476323
0.001108388969
0.001109300323
0.001110125905
0.001110774914
0.001111150745
0.001108245391
0.001108721399
0.001109393015
0.001110203994
0.001111088364
0.001111971482
0.001112771485
0.001113400382
0.001113764563
0.001110948327
0.001111409615
0.001112060463
0.001112846368
0.001113703396
0.001114559213
0.001115334483
0.001115943933
0.001116296849
0.001113566815
0.001114013868
0.001114644635
0.001115406293
0.001116236883
0.001117066299
0.001117817653
0.001118408299
0.001118750323
0.00111610367
0.001116536959
0.001117148305
0.001117886516
0.001118691538
0.001119495424
0.001120223649
0.001120796111
0.001121127601
0.001118561609
0.001118981585
0.001119574149
0.001120289681
0.001121069975
0.001121849167
0.001122555022
0.001123109895
0.001123431196
0.001120943241
0.001121350339
0.001121924734
0.001122618329
0.0011233747
0.001124130004
0.001124814215
0.001125352071
0.001125663515
0.001123251072
0.00112364571
0.001124202525
0.001124874892
0.001125608113
0.001126340298
0.001127003564
0.00112752495
0.001127826853
0.0011254875
0.001125870077
0.001126409875
0.001127061692
0.001127772502
0.001128482305
0.00112912529
0.001129630727
0.00112992339
0.001127654809
0.001128025706
0.001128549022
0.001129180936
0.001129870037
0.001130558156
0.001131181491
0.001131671474
0.001131955182
0.001129755165
0.001130114743
0.001130622087
0.001131234709
0.001131902765
0.001132569859
0.001133174139
0.001133649133
0.001133924156
0.001131790609
0.001132139209
0.001132631058
0.001133224963
0.001133872597
0.001134519286
0.001135105067
0.001135565506
0.001135832094
0.00113376305
0.001134100988
0.001134577789
0.001135153512
0.001135781305
0.001136408161
0.001136975958
0.001137422244
0.001137680626
0.001135674251
0.001136001822
0.001136463986
0.00113702202
0.001137630501
0.00113823805
0.001138788332
0.001139220829
0.001139471215
0.001137525822
0.001137843292
0.001138291193
0.001138831984
0.001139421635
0.001140010347
0.001140543534
0.001140962567
0.001141205142
0.001139319205
0.001139626813
0.001140060783
0.001140584726
0.001141155968
0.001141726258
0.001142242716
0.001142648567
0.00114288349
0.001141055662
0.001141353614
0.00114177394
0.001142281375
0.001142834571
0.001143386788
0.001143886824
0.001144279726
0.00114450713
0.00114273626
0.001143024729
0.00114343165
0.001143922856
0.001144458299
0.001144992725
0.001145476583
0.001145856719
0.001146076705
0.001144361859
0.00114464098
0.001145034682
0.001145509875
0.001146027787
0.001146544629
0.001147012484
0.001147379982
0.00114759262
0.001145933098
0.001146202969
0.00114658358
0.001147042905
0.001147543432
0.001148042821
0.001148494777
0.001148849707
0.001149055033
0.00114745039
0.001147711064
0.001148078656
0.001148522186
0.001149005392
0.001149487376
0.001149923461
0.001150265836
0.00115046385
0.001148913909
0.001149165398
0.001149519979
0.001149947714
0.001150413581
0.001150878125
0.001151298291
0.001151628061
0.00115181873
0.001150323596
0.001150565868
0.001150907385
0.001151319247
0.001151767676
0.001152214661
0.001152618785
0.00115293584
0.001153119095
0.001151679159
0.00115191214
0.001152240478
0.001152636316
0.001153067125
0.001153496353
0.001153884239
0.001154188415
0.001154364154
0.001152980089
0.001153203662
0.001153518651
0.001153898244
0.001154311177
0.001154722375
0.00115509376
0.001155384839
0.001155552933
0.001154225682
0.001154439693
0.001154741107
0.001155104174
0.001155498908
0.001155891738
0.001156246302
0.001156524025
0.001156684321
0.001155415066
0.00115561933
0.001155906901
0.001156253109
0.001156629267
0.001157003341
0.001157340723
0.001157604798
0.001157757124
0.001156547249
0.001156741556
0.001157014986
0.001157343963
0.001157701134
0.00115805603
0.001158375842
0.00115862596
0.001158770137
0.001157621168
0.001157805296
0.001158064265
0.001158375624
0.00115871338
0.001159048667
0.001159350514
0.001159586367
0.001159722218
0.001158635752
0.001158809477
0.001159053668
0.001159347025
0.001159664946
0.001159980208
0.001160263718
0.001160485016
0.001160612375
0.001159589995
0.001159753104
0.00115998222
0.001160257219
0.001160554924
0.001160849789
0.001161114633
0.001161321128
0.001161439859
0.00116048303
0.001160635338
0.001160849124
0.001161105466
0.001161382642
0.001161656811
0.001161902738
0.001162094245
0.00116220425
0.001161314213
0.001161455579
0.001161653844
0.001161891313
0.001162147744
0.001162401028
0.001162627887
0.001162804309
0.001162905541
0.001162083199
0.001162213542
0.001162396183
0.001162614676
0.001162850277
0.001163082619
0.001163290393
0.001163451737
0.001163544214
0.001162790022
0.001162909336
0.001163076359
0.001163275909
0.001163490749
0.001163702258
0.00116389108