/*--------------------------------*- C++ -*----------------------------------*\
| =========                 |                                                 |
| \\      /  F ield         | OpenFOAM: The Open Source CFD Toolbox           |
|  \\    /   O peration     | Version:  2212                                  |
|   \\  /    A nd           | Website:  www.openfoam.com                      |
|    \\/     M anipulation  |                                                 |
\*---------------------------------------------------------------------------*/
FoamFile
{
    version     2.0;
    format      ascii;
    arch        "LSB;label=32;scalar=64";
    class       surfaceScalarField;
    location    "20.00000000";
    object      phi_0;
}
// * * * * * * * * * * * * * * * * * * * * * * * * * * * * * * * * * * * * * //

dimensions      [1 0 -1 0 0 0 0];

oriented        oriented;

internalField   nonuniform List<scalar> 
5690
(
-5.465903031e-11
8.584186489e-10
1.328261741e-11
-1.341406872e-10
1.421341123e-09
-2.675051506e-10
1.984138282e-09
-4.777505362e-10
2.554470357e-09
-7.884913245e-10
3.133299477e-09
-1.197326074e-09
3.694960319e-09
-1.609573968e-09
4.147518082e-09
-1.626208717e-09
4.186965248e-09
2.965432996e-09
-1.155203749e-10
9.454772011e-10
2.846135999e-11
-2.663033136e-10
1.572128353e-09
-4.846518257e-10
2.202488033e-09
-7.647934668e-10
2.834613765e-09
-1.074030261e-09
3.442536781e-09
-1.323946285e-09
3.944875478e-09
-1.35381394e-09
4.177384259e-09
-9.109219996e-10
3.744072095e-09
2.054511616e-09
-1.51676272e-10
1.058924965e-09
3.822918166e-11
-3.351644117e-10
1.755613975e-09
-5.767747067e-10
2.444097529e-09
-8.453157279e-10
3.103155584e-09
-1.078280678e-09
3.675502877e-09
-1.1792498e-09
4.045845201e-09
-1.024801985e-09
4.022936239e-09
-5.516586384e-10
3.270928001e-09
1.502852823e-09
-1.482721695e-10
1.169147822e-09
3.804998233e-11
-3.174022024e-10
1.924741231e-09
-5.213354163e-10
2.648029766e-09
-7.179226276e-10
3.299742444e-09
-8.458197871e-10
3.803400313e-09
-8.312311244e-10
4.031257144e-09
-6.19788111e-10
3.811493714e-09
-2.730803743e-10
2.924220331e-09
1.229772104e-09
-1.315824019e-10
1.266471558e-09
3.425887646e-11
-2.743818557e-10
2.067539898e-09
-4.336605056e-10
2.807308246e-09
-5.675954121e-10
3.433676923e-09
-6.265866489e-10
3.862391195e-09
-5.683304949e-10
3.973000972e-09
-3.844052716e-10
3.627568781e-09
-1.474380306e-10
2.687253429e-09
1.082333979e-09
-1.070244137e-10
1.345216276e-09
2.827957513e-11
-2.180932428e-10
2.178609088e-09
-3.335391362e-10
2.922754454e-09
-4.182943892e-10
3.518432183e-09
-4.37886497e-10
3.881983062e-09
-3.730047124e-10
3.908118922e-09
-2.348824921e-10
3.489446475e-09
-8.202230962e-11
2.534393372e-09
1.000311769e-09
-8.369937833e-11
1.406559661e-09
2.235584514e-11
-1.674455279e-10
2.262355584e-09
-2.493982244e-10
3.004707379e-09
-3.024437028e-10
3.571477861e-09
-3.041815752e-10
3.883720995e-09
-2.474494377e-10
3.851386688e-09
-1.479923983e-10
3.389989284e-09
-4.785277604e-11
2.434253669e-09
9.524590765e-10
-6.331924806e-11
1.452785966e-09
1.709290609e-11
-1.246798189e-10
2.32371617e-09
-1.816715801e-10
3.061699133e-09
-2.144359698e-10
3.604242341e-09
-2.09092321e-10
3.878377474e-09
-1.645200004e-10
3.80681444e-09
-9.526918294e-11
3.320738441e-09
-2.983871209e-11
2.368823117e-09
9.226203608e-10
-4.713043832e-11
1.487097761e-09
1.281867785e-11
-9.165811118e-11
2.368243744e-09
-1.312756838e-10
3.101316619e-09
-1.517732094e-10
3.624739827e-09
-1.446315774e-10
3.871235871e-09
-1.110996123e-10
3.773282546e-09
-6.281199071e-11
3.272450872e-09
-1.901083683e-11
2.325021962e-09
9.036094892e-10
-3.467624682e-11
1.512276027e-09
9.498011e-12
-6.674917013e-11
2.400316637e-09
-9.430456524e-11
3.128871979e-09
-1.073189185e-10
3.637754125e-09
-1.005827032e-10
3.864499616e-09
-7.605192154e-11
3.748751764e-09
-4.247831387e-11
3.238877298e-09
-1.280246887e-11
2.295346151e-09
8.908070079e-10
-2.539168415e-11
1.530679532e-09
6.988180105e-12
-4.850188442e-11
2.423426867e-09
-6.782567075e-11
3.148195782e-09
-7.629786432e-11
3.646226309e-09
-7.067262392e-11
3.858874347e-09
-5.285681567e-11
3.730935928e-09
-2.924969401e-11
3.21527017e-09
-8.710123364e-12
2.274806598e-09
8.820968948e-10
-1.856105565e-11
1.54411077e-09
5.129808085e-12
-3.524195067e-11
2.440107787e-09
-4.89088536e-11
3.161862705e-09
-5.456908418e-11
3.651886557e-09
-5.015632735e-11
3.854461594e-09
-3.72841934e-11
3.718063784e-09
-2.0576152e-11
3.198562116e-09
-6.157630778e-12
2.260388073e-09
8.759392756e-10
-1.358231938e-11
1.553929379e-09
3.763706987e-12
-2.568024718e-11
2.452205715e-09
-3.545017243e-11
3.171632633e-09
-3.933534414e-11
3.655771741e-09
-3.597655692e-11
3.851102822e-09
-2.66453759e-11
3.708732613e-09
-1.467515558e-11
3.186591896e-09
-4.382423531e-12
2.250095337e-09
8.71556855e-10
-9.966508151e-12
1.561128212e-09
2.767677694e-12
-1.878703652e-11
2.461026234e-09
-2.584239798e-11
3.178687989e-09
-2.857714794e-11
3.658506492e-09
-2.606928132e-11
3.848594963e-09
-1.928655292e-11
3.701949896e-09
-1.063685602e-11
3.177942208e-09
-3.19624146e-12
2.242654726e-09
8.683606118e-10
-7.341028687e-12
1.566428331e-09
2.040913697e-12
-1.381223569e-11
2.467497439e-09
-1.895908839e-11
3.18383484e-09
-2.092715218e-11
3.660474553e-09
-1.907052384e-11
3.846738334e-09
-1.411084941e-11
3.696990225e-09
-7.796106166e-12
3.171627471e-09
-2.341106438e-12
2.237199733e-09
8.660195041e-10
-5.432251409e-12
1.570349135e-09
1.511448265e-12
-1.020972266e-11
2.472274914e-09
-1.399965283e-11
3.187624773e-09
-1.544419859e-11
3.661919098e-09
-1.407899725e-11
3.845373131e-09
-1.043785052e-11
3.693349076e-09
-5.794731652e-12
3.166984353e-09
-1.735610196e-12
2.233140614e-09
8.64283894e-10
-4.039576882e-12
1.573264505e-09
1.124205971e-12
-7.588963565e-12
2.475824303e-09
-1.040327847e-11
3.190439089e-09
-1.147908072e-11
3.662994902e-09
-1.047460281e-11
3.844368652e-09
-7.782917739e-12
3.690657389e-09
-4.338850616e-12
3.163540283e-09
-1.291486115e-12
2.230093248e-09
8.629924076e-10
-3.019872905e-12
1.57544389e-09
8.404881326e-13
-5.672700329e-12
2.478477129e-09
-7.777185036e-12
3.192543574e-09
-8.585070997e-12
3.663802788e-09
-7.840219984e-12
3.843623801e-09
-5.832215377e-12
3.688649384e-09
-3.25523174e-12
3.160963297e-09
-9.70452267e-13
2.227808465e-09
8.620219539e-10
-2.27046132e-12
1.577082517e-09
6.318337421e-13
-4.265202976e-12
2.480471869e-09
-5.848313749e-12
3.194126683e-09
-6.456572599e-12
3.664411045e-09
-5.895419756e-12
3.843062647e-09
-4.380085232e-12
3.687134048e-09
-2.434161532e-12
3.159017372e-09
-7.264760135e-13
2.226100777e-09
8.612954761e-10
-1.719462182e-12
1.578323512e-09
4.78466332e-13
-3.230033305e-12
2.481982438e-09
-4.428038646e-12
3.195324686e-09
-4.884632357e-12
3.664867637e-09
-4.450114478e-12
3.842628127e-09
-3.286619443e-12
3.685970551e-09
-1.798758023e-12
3.157529508e-09
-5.365877692e-13
2.224838604e-09
8.607588865e-10
-1.315809932e-12
1.579273172e-09
3.661499245e-13
-2.471171031e-12
2.483137798e-09
-3.384891465e-12
3.196238406e-09
-3.725167298e-12
3.665207911e-09
-3.375000929e-12
3.842277958e-09
-2.457266849e-12
3.685052814e-09
-1.296055245e-12
3.156368294e-09
-3.852660827e-13
2.223927812e-09
8.603736189e-10
-1.027070848e-12
1.580014483e-09
2.857590964e-13
-1.929143083e-12
2.48403987e-09
-2.641082493e-12
3.196950344e-09
-2.899938738e-12
3.665466765e-09
-2.611029619e-12
3.841989047e-09
-1.871336931e-12
3.684313118e-09
-9.459927885e-13
3.155442947e-09
-2.398491953e-13
2.223221665e-09
8.601337682e-10
-8.294036181e-13
1.580613256e-09
2.30630668e-13
-1.559564724e-12
2.484770029e-09
-2.136980941e-12
3.197527759e-09
-2.347621842e-12
3.665677405e-09
-2.118023161e-12
3.841759446e-09
-1.524885305e-12
3.683719978e-09
-7.798962058e-13
3.154697955e-09
-1.759778013e-13
2.222617743e-09
8.599577892e-10
-7.135164064e-13
1.581128895e-09
1.978765203e-13
-1.348524342e-12
2.485405036e-09
-1.861129046e-12
3.198040362e-09
-2.061496648e-12
3.665877771e-09
-1.869060568e-12
3.841567008e-09
-1.348776507e-12
3.683199692e-09
-6.937592006e-13
3.154042935e-09
-1.641458e-13
2.222088127e-09
8.597936422e-10
-6.717880633e-13
1.581615303e-09
1.853800659e-13
-1.281035262e-12
2.486014282e-09
-1.790018575e-12
3.198549344e-09
-2.011263251e-12
3.666099014e-09
-1.843540791e-12
3.841399284e-09
-1.333806077e-12
3.682689955e-09
-6.797309806e-13
3.153388858e-09
-1.478741503e-13
2.221556268e-09
8.596457671e-10
-6.961891929e-13
1.582120337e-09
1.911540572e-13
-1.339226624e-12
2.486657318e-09
-1.892954874e-12
3.199103072e-09
-2.157044969e-12
3.666363103e-09
-2.020575395e-12
3.841262813e-09
-1.505581847e-12
3.68217496e-09
-7.97968929e-13
3.152681243e-09
-1.824085047e-13
2.220940706e-09
8.594633582e-10
-7.959776094e-13
1.582699043e-09
2.172715423e-13
-1.546569528e-12
2.48740791e-09
-2.216599038e-12
3.199773101e-09
-2.571005482e-12
3.666717509e-09
-2.46304527e-12
3.841154852e-09
-1.88910079e-12
3.681601015e-09
-1.037619002e-12
3.151829761e-09
-2.510323957e-13
2.220154119e-09
8.592123257e-10
-9.792708658e-13
1.583412496e-09
2.658176599e-13
-1.920489035e-12
2.488349128e-09
-2.789002889e-12
3.200641614e-09
-3.289455159e-12
3.667217961e-09
-3.21379153e-12
3.841079188e-09
-2.522871841e-12
3.680910095e-09
-1.429129727e-12
3.150736018e-09
-3.70830448e-13
2.219095819e-09
8.588414956e-10
-1.256106708e-12
1.584329176e-09
3.394259785e-13
-2.481088987e-12
2.48957411e-09
-3.639591157e-12
3.201800116e-09
-4.347770572e-12
3.667926141e-09
-4.314531629e-12
3.84104595e-09
-3.455227802e-12
3.680050791e-09
-2.013033206e-12
3.149293824e-09
-5.587652369e-13
2.217641552e-09
8.58282731e-10
-1.637271354e-12
1.585525486e-09
4.409617372e-13
-3.250169886e-12
2.491187009e-09
-4.801682793e-12
3.20335163e-09
-5.788333052e-12
3.668912791e-09
-5.810006531e-12
3.841067624e-09
-4.723918832e-12
3.678964704e-09
-2.813328342e-12
3.147383235e-09
-8.241397415e-13
2.215652364e-09
8.574585922e-10
-2.13206626e-12
1.587084634e-09
5.729184958e-13
-4.245935687e-12
2.493300879e-09
-6.301683416e-12
3.205407378e-09
-7.642260108e-12
3.670253369e-09
-7.730698877e-12
3.841156064e-09
-6.353536714e-12
3.677587544e-09
-3.845105372e-12
3.144874805e-09
-1.172802472e-12
2.212980063e-09
8.562857908e-10
-2.746623329e-12
1.589094254e-09
7.37003787e-13
-5.479530119e-12
2.496033787e-09
-8.153910153e-12
3.208081759e-09
-9.923332432e-12
3.672022792e-09
-1.008592993e-11
3.841318663e-09
-8.347333591e-12
3.675848949e-09
-5.10755452e-12
3.141635027e-09
-1.604263502e-12
2.209476774e-09
8.546815285e-10
-3.4815301e-12
1.591642281e-09
9.33502925e-13
-6.950133684e-12
2.499502391e-09
-1.035294914e-11
3.211484575e-09
-1.261832142e-11
3.674288166e-09
-1.285399628e-11
3.841554339e-09
-1.067943164e-11
3.673674386e-09
-6.579425324e-12
3.137535023e-09
-2.110065581e-12
2.205007416e-09
8.52571464e-10
-4.329802632e-12
1.594811335e-09
1.160749062e-12
-8.64088929e-12
2.503813479e-09
-1.286761697e-11
3.215711304e-09
-1.567978348e-11
3.677100334e-09
-1.597506193e-11
3.841849619e-09
-1.328913496e-11
3.670988461e-09
-8.215731248e-12
3.132461621e-09
-2.672741921e-12
2.199464429e-09
8.498987231e-10
-5.275017532e-12
1.59867174e-09
1.414613055e-12
-1.051531294e-11
2.509053776e-09
-1.56359728e-11
3.220831965e-09
-1.902069922e-11
3.680485061e-09
-1.934679598e-11
3.842175717e-09
-1.607856126e-11
3.667720228e-09
-9.947286196e-12
3.126330348e-09
-3.265996907e-12
2.192783142e-09
8.466327272e-10
-6.290067092e-12
1.603273656e-09
1.688151513e-12
-1.251514272e-11
2.515278852e-09
-1.856291551e-11
3.226879739e-09
-2.251298534e-11
3.684435132e-09
-2.282486088e-11
3.842487594e-09
-1.891519492e-11
3.663810563e-09
-1.16839235e-11
3.119099078e-09
-3.856429753e-12
2.18495565e-09
8.427762983e-10
-7.336747091e-12
1.608638947e-09
1.971456741e-12
-1.45600923e-11
2.522502198e-09
-2.152110834e-11
3.233840755e-09
-2.599078936e-11
3.688904814e-09
-2.622908654e-11
3.842725892e-09
-2.163984379e-11
3.659221322e-09
-1.332140504e-11
3.110780641e-09
-4.406611862e-12
2.176040858e-09
8.38369687e-10
-8.366501729e-12
1.614753649e-09
2.25179985e-12
-1.655013488e-11
2.530685832e-09
-2.435608773e-11
3.241646709e-09
-2.925939931e-11
3.693808126e-09
-2.935576408e-11
3.842822258e-09
-2.407980974e-11
3.653945368e-09
-1.475144048e-11
3.101452273e-09
-4.879145326e-12
2.166168564e-09
8.33490542e-10
-9.322534701e-12
1.62156206e-09
2.514124276e-12
-1.83706618e-11
2.539733959e-09
-2.689585072e-11
3.250171898e-09
-3.210966693e-11
3.699021943e-09
-3.19952514e-11
3.842707843e-09
-2.606581673e-11
3.648015934e-09
-1.587332816e-11
3.091259785e-09
-5.240957146e-12
2.155536193e-09
8.282495848e-10
-1.014339186e-11
1.628963522e-09
2.741929669e-12
-1.99005652e-11
2.549491132e-09
-2.896460809e-11
3.259235941e-09
-3.433688744e-11
3.704394222e-09
-3.395295152e-11
3.842323907e-09
-2.745029267e-11
3.641513275e-09
-1.660528494e-11
3.080414777e-09
-5.467048132e-12
2.144397957e-09
8.227825365e-10
-1.076789734e-11
1.63681289e-09
2.918529692e-12
-2.102277718e-11
2.559746012e-09
-3.039950749e-11
3.268612671e-09
-3.576193006e-11
3.709756645e-09
-3.507063947e-11
3.841632616e-09
-2.812396511e-11
3.634566601e-09
-1.689342547e-11
3.069184237e-09
-5.543002972e-12
2.133047534e-09
8.172395332e-10
-1.114105837e-11
1.644925345e-09
3.028602517e-12
-2.163622871e-11
2.570241182e-09
-3.106828604e-11
3.278044728e-09
-3.625154668e-11
3.714939905e-09
-3.524462753e-11
3.840625696e-09
-2.802786474e-11
3.627349837e-09
-1.671685821e-11
3.05787323e-09
-5.465904083e-12
2.121796579e-09
8.117736285e-10
-1.122024143e-11
1.65308572e-09
3.05986669e-12
-2.166761679e-11
2.580688557e-09
-3.088513818e-11
3.287262249e-09
-3.573439179e-11
3.719789158e-09
-3.443749317e-11
3.839328797e-09
-2.715862546e-11
3.620070969e-09
-1.608817624e-11
3.04680278e-09
-5.243639463e-12
2.110952041e-09
8.065299884e-10
-1.098069252e-11
1.661061766e-09
3.004646821e-12
-2.108105262e-11
2.590788916e-09
-2.98219843e-11
3.29600318e-09
-3.420978745e-11
3.72417696e-09
-3.268128069e-11
3.837800289e-09
-2.556643037e-11
3.612956117e-09
-1.504967961e-11
3.036286028e-09
-4.892972149e-12
2.100795332e-09
8.016370156e-10
-1.041936733e-11
1.668620087e-09
2.861045587e-12
-1.988368539e-11
2.600253234e-09
-2.791281398e-11
3.304032308e-09
-3.174742793e-11
3.728011574e-09
-3.007168346e-11
3.836124544e-09
-2.334634294e-11
3.606230776e-09
-1.366635597e-11
3.02660604e-09
-4.436873811e-12
2.091565848e-09
7.972001411e-10
-9.556222724e-12
1.675542837e-09
2.633472675e-12
-1.812600641e-11
2.608823017e-09
-2.525008409e-11
3.311156385e-09
-2.847815735e-11
3.731239646e-09
-2.675473425e-11
3.83440112e-09
-2.062522393e-11
3.600101264e-09
-1.201734441e-11
3.017998159e-09
-3.901888473e-12
2.083450391e-09
7.93298252e-10
-8.432521849e-12
1.681642995e-09
2.332363227e-12
-1.589650151e-11
2.616286996e-09
-2.197368806e-11
3.317233571e-09
-2.457761991e-11
3.733843577e-09
-2.290864376e-11
3.832732143e-09
-1.754660593e-11
3.594739225e-09
-1.018714576e-11
3.010638698e-09
-3.316129094e-12
2.076579373e-09
7.899821224e-10
-7.106306975e-12
1.686776213e-09
1.973088906e-12
-1.331147863e-11
2.622492167e-09
-1.82545577e-11
3.322176649e-09
-2.024605715e-11
3.735835076e-09
-1.872452252e-11
3.831210607e-09
-1.425678625e-11
3.590271488e-09
-8.259067078e-12
3.004640977e-09
-2.709928359e-12
2.071030234e-09
7.872721936e-10
-5.645914925e-12
1.690847881e-09
1.574246682e-12
-1.050215666e-11
2.627348408e-09
-1.427625672e-11
3.325950749e-09
-1.568807783e-11
3.737246897e-09
-1.438884173e-11
3.829911371e-09
-1.089242739e-11
3.586775073e-09
-6.307835967e-12
3.000056385e-09
-2.103980761e-12
2.066826378e-09
7.851682126e-10
-4.122446893e-12
1.693814732e-09
1.155595721e-12
-7.600621075e-12
2.630826582e-09
-1.021637545e-11
3.328566503e-09
-1.109354993e-11
3.738124071e-09
-1.006760708e-11
3.828885427e-09
-7.569772977e-12
3.584277238e-09
-4.396027007e-12
2.996882639e-09
-1.488812751e-12
2.063919163e-09
7.836793996e-10
-2.603128139e-12
1.695681741e-09
7.361189875e-13
-4.728579875e-12
2.632952034e-09
-6.23357599e-12
3.330071499e-09
-6.626935991e-12
3.738517431e-09
-5.900383214e-12
3.828158874e-09
-4.385826252e-12
3.582762681e-09
-2.564606119e-12
2.995061418e-09
-9.077018792e-13
2.062262258e-09
7.827716977e-10
-1.145856645e-12
1.696495149e-09
3.324486489e-13
-1.988005036e-12
2.633794182e-09
-2.456149635e-12
3.330539644e-09
-2.415773055e-12
3.738477054e-09
-1.989547664e-12
3.827732649e-09
-1.411300463e-12
3.582184434e-09
-8.155870773e-13
2.994465705e-09
-3.66661401e-13
2.061813332e-09
7.824050363e-10
2.03853215e-13
1.696333529e-09
-4.223296314e-14
5.417282886e-13
2.633456307e-09
1.016338713e-12
3.330065033e-09
1.439847456e-12
3.738053545e-09
1.577031736e-12
3.827595465e-09
1.296945849e-12
3.58246452e-09
7.329674974e-13
2.995029683e-09
1.260680795e-13
2.062420232e-09
7.825311045e-10
1.413165535e-12
1.695298788e-09
-3.784248343e-13
2.803735302e-12
2.632065737e-09
4.114671392e-12
3.328754097e-09
4.87450052e-12
3.737293716e-09
4.750357841e-12
3.827719607e-09
3.709586382e-12
3.583505291e-09
2.081334285e-12
2.996657935e-09
5.672173619e-13
2.063934349e-09
7.830983219e-10
2.462448583e-12
1.693506692e-09
-6.703523706e-13
4.765510351e-12
2.629762676e-09
6.802346122e-12
3.326717261e-09
7.857765936e-12
3.736238297e-09
7.514873844e-12
3.8280625e-09
5.817163702e-12
3.585203002e-09
3.296353056e-12
2.999178746e-09
9.583795396e-13
2.066272323e-09
7.840567016e-10
3.345265209e-12
1.691077305e-09
-9.158786073e-13
6.418146316e-12
2.626689795e-09
9.071369644e-12
3.324064038e-09
1.038436606e-11
3.7349253e-09
9.866612096e-12
3.828580254e-09
7.619883729e-12
3.58744973e-09
4.34842795e-12
3.002450202e-09
1.297691717e-12
2.069323059e-09
7.853543936e-10
4.064677431e-12
1.688128297e-09
-1.115668861e-12
7.768845358e-12
2.622985627e-09
1.093344404e-11
3.32089944e-09
1.246860282e-11
3.733390142e-09
1.181858582e-11
3.829230271e-09
9.126614608e-12
3.590141702e-09
5.233728049e-12
3.006343089e-09
1.585107848e-12
2.07297168e-09
7.869395017e-10
4.63050097e-12
1.684770211e-09
-1.272414745e-12
8.836121012e-12
2.618780007e-09
1.241385182e-11
3.317321709e-09
1.41379042e-11
3.73166609e-09
1.339499382e-11
3.829973182e-09
1.035460762e-11
3.593182088e-09
5.961854157e-12
3.010735843e-09
1.822598568e-12
2.077110936e-09
7.887621005e-10
5.056674799e-12
1.681103564e-09
-1.390028053e-12
9.645443657e-12
2.614191239e-09
1.354632761e-11
3.313420826e-09
1.542807113e-11
3.729784347e-09
1.462732733e-11
3.830773926e-09
1.132669089e-11
3.596482725e-09
6.546163348e-12
3.015516371e-09
2.026377334e-12
2.081630722e-09
7.907884781e-10
5.359202184e-12
1.677217407e-09
-1.473045061e-12
1.022570425e-11
2.609324737e-09
1.436861779e-11
3.309277912e-09
1.637854995e-11
3.727774415e-09
1.554948601e-11
3.83160299e-09
1.206604708e-11
3.599966165e-09
6.9981592e-12
3.02058426e-09
2.183667054e-12
2.086445215e-09
7.929721454e-10
5.554735223e-12
1.673188865e-09
-1.52619297e-12
1.0606933e-11
2.604272539e-09
1.491997511e-11
3.304964871e-09
1.703056352e-11
3.725663827e-09
1.619743943e-11
3.832436115e-09
1.259841419e-11
3.60356519e-09
7.331858972e-12
3.025850815e-09
2.302125592e-12
2.091474949e-09
7.952742714e-10
5.659500253e-12
1.669083443e-09
-1.554078834e-12
1.081841968e-11
2.59911362e-09
1.523873041e-11
3.30054456e-09
1.742441404e-11
3.723478143e-09
1.660635317e-11
3.833254176e-09
1.294896167e-11
3.607222582e-09
7.561039646e-12
3.031238738e-09
2.387250806e-12
2.096648738e-09
7.976615224e-10
5.688671576e-12
1.664955774e-09
-1.561002182e-12
1.088765922e-11
2.593914633e-09
1.536103645e-11
3.296071183e-09
1.759831641e-11
3.721240864e-09
1.680973677e-11
3.834042756e-09
1.314171583e-11
3.610890604e-09
7.698643879e-12
3.03668181e-09
2.443053101e-12
2.10190433e-09
8.001045757e-10
5.656015053e-12
1.660850612e-09
-1.550852358e-12
1.083972542e-11
2.588730923e-09
1.532008164e-11
3.291590827e-09
1.758761985e-11
3.718973326e-09
1.683884407e-11
3.834791532e-09
1.319928492e-11
3.614530163e-09
7.756979987e-12
3.042124116e-09
2.47320845e-12
2.107188102e-09
8.025777844e-10
5.573736727e-12
1.65680394e-09
-1.527065434e-12
1.069699116e-11
2.583607668e-09
1.514571383e-11
3.287142105e-09
1.742440043e-11
3.71669464e-09
1.67223058e-11
3.835493627e-09
1.314258309e-11
3.618109886e-09
7.74754689e-12
3.047519153e-09
2.481148474e-12
2.112454501e-09
8.05058933e-10
5.452462091e-12
1.652844099e-09
-1.492620586e-12
1.047906639e-11
2.578581064e-09
1.486432143e-11
3.28275685e-09
1.713729365e-11
3.714421668e-09
1.648594686e-11
3.836144974e-09
1.299067707e-11
3.621605156e-09
7.680943613e-12
3.052828886e-09
2.470075237e-12
2.117665369e-09
8.075290084e-10
5.301297411e-12
1.648992862e-09
-1.450060107e-12
1.020287927e-11
2.573679482e-09
1.44988917e-11
3.278460838e-09
1.675149894e-11
3.712169061e-09
1.615273684e-11
3.836743736e-09
1.276071013e-11
3.624997183e-09
7.566804245e-12
3.058022792e-09
2.442939447e-12
2.122789234e-09
8.099719479e-10
5.127940437e-12
1.645266445e-09
-1.401523521e-12
9.882847156e-12
2.568924576e-09
1.406918689e-11
3.274274498e-09
1.628890797e-11
3.70994934e-09
1.574284907e-11
3.837289795e-09
1.246790431e-11
3.628272128e-09
7.413776445e-12
3.06307692e-09
2.402425697e-12
2.127800585e-09
8.123743736e-10
4.938817167e-12
1.641676416e-09
-1.348788735e-12
9.531098537e-12
2.564332295e-09
1.359199257e-11
3.270213604e-09
1.57683153e-11
3.707773017e-09
1.527379665e-11
3.837784314e-09
1.212562232e-11
3.631420303e-09
7.229535522e-12
3.067973007e-09
2.350948053e-12
2.132679173e-09
8.147253217e-10
4.739227966e-12
1.638230504e-09
-1.293315243e-12
9.157717061e-12
2.559913805e-09
1.308140353e-11
3.266289917e-09
1.520567778e-11
3.705648743e-09
1.476062009e-11
3.838229372e-09
1.174547258e-11
3.63443545e-09
7.020823621e-12
3.072697656e-09
2.290653341e-12
2.137409343e-09
8.170159749e-10
4.533490817e-12
1.634933299e-09
-1.236286321e-12
8.770984636e-12
2.555676312e-09
1.254911488e-11
3.262511787e-09
1.461438695e-11
3.703583471e-09
1.421609384e-11
3.838627665e-09
1.133743681e-11
3.637314107e-09
6.793515144e-12
3.077241578e-09
2.22344463e-12
2.141979413e-09
8.192394195e-10
4.325078341e-12
1.63178687e-09
-1.178648727e-12
8.377618345e-12
2.551623771e-09
1.200471177e-11
3.258884694e-09
1.400554543e-11
3.701582637e-09
1.365093676e-11
3.838982273e-09
1.090999205e-11
3.640055052e-09
6.55264323e-12
3.081598926e-09
2.150893963e-12
2.146381162e-09
8.213903133e-10
4.116739048e-12
1.628791279e-09
-1.121148058e-12
7.982978417e-12
2.547757532e-09
1.145591611e-11
3.255411756e-09
1.338817509e-11
3.699650378e-09
1.30739088e-11
3.839296539e-09
1.047005828e-11
3.642658902e-09
6.302238917e-12
3.085766745e-09
2.074722542e-12
2.150608678e-09
8.234650356e-10
3.910635045e-12
1.625945011e-09
-1.064367629e-12
7.591323578e-12
2.544076843e-09
1.090894555e-11
3.252094134e-09
1.276965511e-11
3.697789668e-09
1.249231256e-11
3.839573882e-09
1.002353503e-11
3.645127679e-09
6.046847385e-12
3.089743433e-09
1.996121623e-12
2.154659404e-09
8.25461157e-10
3.708435917e-12
1.623245327e-09
-1.008751939e-12
7.206004764e-12
2.540579274e-09
1.036881812e-11
3.24893132e-09
1.215607006e-11
3.696002416e-09
1.19122955e-11
3.839817656e-09
9.576842681e-12
3.647463132e-09
5.789400196e-12
3.093530875e-09
1.915894913e-12
2.158532909e-09
8.273770517e-10
3.511487497e-12
1.620688504e-09
-9.546645041e-13
6.829689735e-12
2.537261072e-09
9.839484304e-12
3.245921525e-09
1.155220371e-11
3.694289696e-09
1.134031607e-11
3.840029543e-09
9.133488406e-12
3.649669959e-09
5.531686481e-12
3.097132676e-09
1.835042148e-12
2.162229553e-09
8.292120936e-10
3.320526593e-12
1.618270266e-09
-9.022881679e-13
6.4638831e-12
2.534117715e-09
9.324461702e-12
3.243060947e-09
1.096389352e-11
3.692650264e-09
1.077969632e-11
3.84021374e-09
8.695812317e-12
3.651753843e-09
5.276256842e-12
3.100552231e-09
1.754244977e-12
2.165751564e-09
8.309663384e-10
3.137054014e-12
1.615985219e-09
-8.520079363e-13
6.112200955e-12
2.531142568e-09
8.826415804e-12
3.240346732e-09
1.039221573e-11
3.691084464e-09
1.023160105e-11
3.840374355e-09
8.266762771e-12
3.653718681e-09
5.024473351e-12
3.10379452e-09
1.674032403e-12
2.169102005e-09
8.326403708e-10
2.960879835e-12
1.613828111e-09
-8.037712478e-13
5.773805087e-12
2.528329643e-09
8.34555449e-12
3.237774982e-09
9.837420751e-12
3.689592597e-09
9.698967594e-12
3.840512807e-09
7.848042614e-12
3.655569606e-09
4.777591285e-12
3.106864971e-09
1.59489839e-12
2.172284697e-09
8.342352691e-10
2.791824426e-12
1.611793846e-09
-7.575593742e-13
5.44795676e-12
2.52567351e-09
7.882929231e-12
3.235340009e-09
9.302983741e-12
3.688172543e-09
9.183863222e-12
3.840631928e-09
7.441510334e-12
3.657311958e-09
4.536898552e-12
3.109769583e-09
1.51734842e-12
2.175304247e-09
8.357526174e-10
2.630775868e-12
1.609876658e-09
-7.135878116e-13
5.137146875e-12
2.523167139e-09
7.439920965e-12
3.233037235e-09
8.789565087e-12
3.686822898e-09
8.687423059e-12
3.84073407e-09
7.048405976e-12
3.658950975e-09
4.303324202e-12
3.112514665e-09
1.441752799e-12
2.178165819e-09
8.371943702e-10
2.477346153e-12
1.608071031e-09
-6.717195764e-13
4.840644913e-12
2.52080384e-09
7.016483487e-12
3.230861397e-09
8.29770603e-12
3.685541676e-09
8.210597499e-12
3.840821178e-09
6.669770117e-12
3.660491803e-09
4.077654811e-12
3.11510678e-09
1.3684328e-12
2.180875041e-09
8.385628029e-10
2.331600853e-12
1.606371414e-09
-6.319842469e-13
4.558606926e-12
2.518576834e-09
6.612973906e-12
3.22880703e-09
7.828011787e-12
3.684326638e-09
7.75420009e-12
3.84089499e-09
6.30645075e-12
3.661939552e-09
3.860528267e-12
3.117552702e-09
1.297650755e-12
2.183437918e-09
8.398604537e-10
2.193457579e-12
1.604772302e-09
-5.943455522e-13
4.290968308e-12
2.516479323e-09
6.229465776e-12
3.226868532e-09
7.380775426e-12
3.683175328e-09
7.318731002e-12
3.840957034e-09
5.959024234e-12
3.663299259e-09
3.652402144e-12
3.119859325e-09
1.229601794e-12
2.185860718e-09
8.410900556e-10
2.062820403e-12
1.603268256e-09
-5.587742099e-13
4.037601886e-12
2.514504542e-09
5.865896763e-12
3.225040237e-09
6.956085393e-12
3.68208514e-09
6.904448677e-12
3.841008671e-09
5.627842545e-12
3.664575865e-09
3.453581156e-12
3.122033586e-09
1.164424056e-12
2.188149876e-09
8.422544797e-10
1.939538052e-12
1.601853942e-09
-5.252239693e-13
3.798269155e-12
2.512645811e-09
5.522026503e-12
3.22331648e-09
6.553797328e-12
3.681053369e-09
6.511357123e-12
3.841051111e-09
5.313030544e-12
3.665774192e-09
3.264217918e-12
3.124082399e-09
1.102198972e-12
2.190311895e-09
8.433566788e-10
1.823415237e-12
1.600524165e-09
-4.936381361e-13
3.572635375e-12
2.510896591e-09
5.197457668e-12
3.221691658e-09
6.173559687e-12
3.680077267e-09
6.139232868e-12
3.841085438e-09
5.014509998e-12
3.666898915e-09
3.084329162e-12
3.12601258e-09
1.042957597e-12
2.192353267e-09
8.443996365e-10
1.714213684e-12
1.5992739e-09
-4.639487875e-13
3.360275003e-12
2.50925053e-09
4.891647731e-12
3.220160285e-09
5.814830854e-12
3.679154084e-09
5.7876453e-12
3.841112624e-09
4.732018283e-12
3.667954542e-09
2.913808652e-12
3.12783079e-09
9.866854169e-13
2.19428039e-09
8.45386322e-10
1.611657522e-12
1.598098321e-09
-4.360784016e-13
3.160682405e-12
2.507701505e-09
4.603926031e-12
3.218717042e-09
5.476901729e-12
3.678281109e-09
5.45598108e-12
3.841133545e-09
4.465130362e-12
3.668945393e-09
2.752442003e-12
3.129543478e-09
9.333279038e-13
2.196099504e-09
8.4631965e-10
1.51543817e-12
1.596992824e-09
-4.099410498e-13
2.973282472e-12
2.506243661e-09
4.333510704e-12
3.217356814e-09
5.15891753e-12
3.677455702e-09
5.143468031e-12
3.841148995e-09
4.213279673e-12
3.669875581e-09
2.599920289e-12
3.131156838e-09
8.82795732e-13
2.197816629e-09
8.472024458e-10
1.42521979e-12
1.595953048e-09
-3.854438336e-13
2.79744176e-12
2.504871439e-09
4.079526074e-12
3.216074729e-09
4.859899984e-12
3.676675328e-09
4.849198299e-12
3.841159696e-09
3.975778435e-12
3.670749001e-09
2.455853498e-12
3.132676763e-09
8.349694862e-13
2.199437513e-09
8.480374154e-10
1.340644941e-12
1.594974891e-09
-3.6248837e-13
2.63248028e-12
2.503579604e-09
3.841020658e-12
3.214866189e-09
4.578769746e-12
3.675937579e-09
4.57215158e-12
3.841166315e-09
3.751836583e-12
3.671569316e-09
2.31978208e-12
3.134108818e-09
7.897034592e-13
2.200967592e-09
8.488271189e-10
1.26134101e-12
1.594054523e-09
-3.409724704e-13
2.477684423e-12
2.50236326e-09
3.616986637e-12
3.213726887e-09
4.31436997e-12
3.675240196e-09
4.311218544e-12
3.841169466e-09
3.540580331e-12
3.672339955e-09
2.191187111e-12
3.135458211e-09
7.468283741e-13
2.202411951e-09
8.495739473e-10
1.186927428e-12
1.593188388e-09
-3.207920778e-13
2.332321762e-12
2.501217866e-09
3.406382431e-12
3.212652826e-09
4.065494007e-12
3.674581084e-09
4.0652284e-12
3.841169732e-09
3.341073484e-12
3.67306411e-09
2.069501177e-12
3.136729783e-09
7.061530572e-13
2.203775299e-09
8.502801003e-10
1.117023983e-12
1.592373207e-09
-3.01843403e-13
2.19565815e-12
2.500139232e-09
3.208159068e-12
3.211640325e-09
3.830919041e-12
3.673958324e-09
3.832984144e-12
3.841167667e-09
3.152345771e-12
3.673744748e-09
1.954122091e-12
3.137928007e-09
6.674640358e-13
2.205061957e-09
8.509475644e-10
1.051259146e-12
1.591605973e-09
-2.840251111e-13
2.06697543e-12
2.499123515e-09
3.021289002e-12
3.210686012e-09
3.609444816e-12
3.673370168e-09
3.613307233e-12
3.841163804e-09
2.973435558e-12
3.67438462e-09
1.84444385e-12
3.139056999e-09
6.30542182e-13
2.206275859e-09
8.515781065e-10
9.892753189e-13
1.590883937e-09
-2.672395519e-13
1.945582819e-12
2.498167208e-09
2.844784937e-12
3.20978681e-09
3.399920055e-12
3.672815033e-09
3.405068882e-12
3.841158656e-09
2.803425769e-12
3.674986263e-09
1.739891942e-12
3.140120532e-09
5.951491218e-13
2.207420601e-09
8.521732556e-10
9.307293255e-13
1.590204601e-09
-2.513933298e-13
1.830815175e-12
2.497267122e-09
2.677690831e-12
3.208939934e-09
3.201219121e-12
3.672291505e-09
3.207152377e-12
3.841152722e-09
2.641379727e-12
3.675552035e-09
1.639801148e-12
3.141122111e-09
5.611085248e-13
2.208499294e-09
8.52734364e-10
8.752829471e-13
1.589565713e-09
-2.363943687e-13
1.722013253e-12
2.496420392e-09
2.519052212e-12
3.208142895e-09
3.012204185e-12
3.671798353e-09
3.018365839e-12
3.84114656e-09
2.486242302e-12
3.676084159e-09
1.543707426e-12
3.142064646e-09
5.283840475e-13
2.209514617e-09
8.532627481e-10
8.226129556e-13
1.588965255e-09
-2.221557412e-13
1.618542606e-12
2.495624462e-09
2.367924379e-12
3.207393513e-09
2.831676629e-12
3.671334601e-09
2.837602141e-12
3.841140635e-09
2.337496333e-12
3.676584264e-09
1.451593825e-12
3.142950548e-09
4.970036499e-13