/*--------------------------------*- C++ -*----------------------------------*\
| =========                 |                                                 |
| \\      /  F ield         | OpenFOAM: The Open Source CFD Toolbox           |
|  \\    /   O peration     | Version:  2212                                  |
|   \\  /    A nd           | Website:  www.openfoam.com                      |
|    \\/     M anipulation  |                                                 |
\*---------------------------------------------------------------------------*/
FoamFile
{
    version     2.0;
    format      ascii;
    arch        "LSB;label=32;scalar=64";
    class       volScalarField;
    location    "20.00000000";
    object      Qdot;
}
// * * * * * * * * * * * * * * * * * * * * * * * * * * * * * * * * * * * * * //

dimensions      [1 -1 -3 0 0 0 0];

internalField   nonuniform List<scalar> 
3000
(
-5.791189298e-16
-5.989987783e-16
-6.287258616e-16
-6.676927604e-16
-7.145357562e-16
-7.658730445e-16
-8.137492502e-16
-8.405386857e-16
-8.091751491e-16
-1.031328537e-15
-1.108530249e-15
-1.223939251e-15
-1.375801579e-15
-1.561184301e-15
-1.774229997e-15
-2.002906135e-15
-2.221629502e-15
-2.364671347e-15
-1.794423561e-15
-1.979192644e-15
-2.258191237e-15
-2.632116714e-15
-3.102294283e-15
-3.667123675e-15
-4.311600813e-15
-4.981299631e-15
-5.489385991e-15
-3.038443969e-15
-3.42058429e-15
-4.006318532e-15
-4.809033226e-15
-5.847193962e-15
-7.132455763e-15
-8.63725195e-15
-1.021484502e-14
-1.139504066e-14
-5.063402432e-15
-5.804923664e-15
-6.959720115e-15
-8.574415928e-15
-1.07067829e-14
-1.339093989e-14
-1.654864875e-14
-1.980358119e-14
-2.215827082e-14
-8.386008199e-15
-9.77417291e-15
-1.196754858e-14
-1.508422071e-14
-1.925818301e-14
-2.455088368e-14
-3.07512092e-14
-3.702018097e-14
-4.144708277e-14
-1.390290045e-14
-1.644532109e-14
-2.051041323e-14
-2.635538542e-14
-3.425004546e-14
-4.427907551e-14
-5.594452271e-14
-6.754879663e-14
-7.565312562e-14
-2.315975262e-14
-2.774665931e-14
-3.514830269e-14
-4.587948018e-14
-6.044502767e-14
-7.89372793e-14
-1.002994299e-13
-1.21296037e-13
-1.358728082e-13
-3.88272692e-14
-4.701546389e-14
-6.031837004e-14
-7.971441804e-14
-1.061109813e-13
-1.395734849e-13
-1.78012098e-13
-2.154806419e-13
-2.414302857e-13
-6.551890978e-14
-8.002271611e-14
-1.037022261e-13
-1.383579687e-13
-1.855872223e-13
-2.453633488e-13
-3.137383242e-13
-3.800182245e-13
-4.259092763e-13
-1.112148168e-13
-1.367603879e-13
-1.786124563e-13
-2.400159893e-13
-3.237515771e-13
-4.295792981e-13
-5.50258362e-13
-6.668219797e-13
-7.476288597e-13
-1.89731869e-13
-2.345433078e-13
-3.081386391e-13
-4.162860758e-13
-5.637915023e-13
-7.499625313e-13
-9.617563051e-13
-1.165874956e-12
-1.307796819e-12
-3.250201265e-13
-4.034161029e-13
-5.323926541e-13
-7.221124373e-13
-9.808214353e-13
-1.30682123e-12
-1.676717946e-12
-2.032576217e-12
-2.282027367e-12
-5.586216983e-13
-6.955601396e-13
-9.211637531e-13
-1.253278789e-12
-1.70598084e-12
-2.275112965e-12
-2.917562744e-12
-3.531519353e-12
-3.975731354e-12
-9.625688273e-13
-1.201571055e-12
-1.595878215e-12
-2.177034925e-12
-2.969591867e-12
-3.964425609e-12
-5.076604718e-12
-6.087308805e-12
-6.932189444e-12
-1.661575346e-12
-2.078346051e-12
-2.766981084e-12
-3.784004515e-12
-5.175833957e-12
-6.937400874e-12
-8.955455318e-12
-1.095904984e-11
-1.223318262e-11
-2.871294627e-12
-3.596858657e-12
-4.796732256e-12
-6.570015801e-12
-8.997221637e-12
-1.206495967e-11
-1.555523897e-11
-1.89271761e-11
-2.12490481e-11
-4.965089262e-12
-6.226398166e-12
-8.313227484e-12
-1.139811468e-11
-1.561979092e-11
-2.09508345e-11
-2.700540714e-11
-3.285542173e-11
-3.690391868e-11
-8.590068558e-12
-1.078078494e-11
-1.440667944e-11
-1.976814229e-11
-2.710592507e-11
-3.637101779e-11
-4.689212053e-11
-5.707244416e-11
-6.410504786e-11
-1.486851128e-11
-1.867198919e-11
-2.496950938e-11
-3.428453659e-11
-4.703662884e-11
-6.314141458e-11
-8.143307602e-11
-9.913967106e-11
-1.113518313e-10
-2.574778674e-11
-3.235081082e-11
-4.328767416e-11
-5.947123361e-11
-8.163416638e-11
-1.096330843e-10
-1.414434914e-10
-1.721955061e-10
-1.933997424e-10
-4.460905268e-11
-5.60738675e-11
-7.507076227e-11
-1.03192942e-10
-1.417222647e-10
-1.904180025e-10
-2.457652452e-10
-2.990531274e-10
-3.358648705e-10
-7.732768555e-11
-9.724074298e-11
-1.302497521e-10
-1.791390298e-10
-2.46157463e-10
-3.309091733e-10
-4.27296384e-10
-5.201131138e-10
-5.832150653e-10
-1.341244307e-10
-1.687305374e-10
-2.261230815e-10
-3.111787372e-10
-4.278599533e-10
-5.755391081e-10
-7.436503934e-10
-9.057022341e-10
-1.015893608e-09
-2.328051267e-10
-2.929966608e-10
-3.92881562e-10
-5.410314509e-10
-7.444746098e-10
-1.002282364e-09
-1.296181242e-09
-1.579958632e-09
-1.773364969e-09
-4.044508592e-10
-5.092725371e-10
-6.833587258e-10
-9.418558561e-10
-1.297352089e-09
-1.748667173e-09
-2.264294068e-09
-2.763484173e-09
-3.105038753e-09
-7.03458005e-10
-8.863188341e-10
-1.190346602e-09
-1.642507756e-09
-2.265650277e-09
-3.05886895e-09
-3.968108572e-09
-4.851982061e-09
-5.460634985e-09
-1.22535098e-09
-1.545113759e-09
-2.077571609e-09
-2.871226395e-09
-3.968270166e-09
-5.37009877e-09
-6.984681826e-09
-8.563831571e-09
-9.662129236e-09
-2.138610552e-09
-2.699567833e-09
-3.635628147e-09
-5.035181234e-09
-6.97780012e-09
-9.473452981e-09
-1.236728069e-08
-1.522232584e-08
-1.72370545e-08
-3.742034388e-09
-4.730279809e-09
-6.384086287e-09
-8.867158904e-09
-1.233322828e-08
-1.681843817e-08
-1.304441566e-07
1.081649762e-07
1.044627409e-07
-6.569170578e-09
-8.319649355e-09
-1.126025138e-08
-1.569995408e-08
-1.303207974e-07
1.054415344e-07
9.57831488e-08
8.583397221e-08
-2.977712395e-08
-1.158073004e-08
-1.470259287e-08
-1.283503955e-07
1.074838002e-07
9.617486313e-08
-2.740458345e-08
-4.5486314e-08
7.137109171e-08
5.712633958e-08
-1.289012253e-07
1.093330713e-07
9.986407346e-08
8.506994452e-08
-4.433447097e-08
6.299464085e-08
1.637918605e-07
1.900680188e-08
1.256419274e-07
9.892763281e-08
8.857002436e-08
-3.727263484e-08
7.117333419e-08
1.670081149e-07
2.486578975e-07
2.083631235e-07
1.624249955e-07
1.296068644e-07
-3.884000919e-08
1.862559882e-07
4.553733757e-08
2.160474203e-08
2.170134515e-07
2.745432656e-07
1.94564412e-07
3.430353653e-07
5.131121471e-07
4.297110606e-08
1.43405431e-07
1.095025263e-07
1.744110593e-07
3.255572102e-07
4.416619683e-07
5.203811988e-07
6.950484735e-07
1.012024431e-06
1.052746552e-07
3.101499378e-07
2.471723218e-07
2.470189192e-07
4.427371991e-07
6.685641741e-07
1.049719079e-06
1.379708235e-06
1.736179771e-06
2.410150576e-07
1.67932941e-07
5.087397745e-07
6.468645912e-07
8.970527095e-07
1.342321798e-06
2.250921009e-06
3.076293808e-06
3.717107565e-06
4.999550715e-07
6.029672363e-07
7.727742407e-07
1.205061098e-06
2.040920529e-06
2.956053128e-06
4.48278781e-06
6.305738201e-06
8.013491616e-06
9.248353578e-07
1.106832492e-06
1.64972851e-06
2.521453377e-06
4.001493091e-06
6.309859341e-06
9.434234827e-06
1.344101626e-05
1.745586408e-05
1.640501523e-06
2.311914076e-06
3.30050591e-06
5.17247245e-06
8.274673594e-06
1.311436689e-05
2.00907849e-05
2.892876486e-05
3.791071936e-05
3.301942665e-06
4.471168689e-06
6.739421371e-06
1.067300755e-05
1.728804062e-05
2.771633721e-05
4.303237643e-05
6.253805139e-05
8.240003001e-05
6.631777602e-06
9.107817666e-06
1.392512593e-05
2.228780355e-05
3.663114054e-05
5.935447145e-05
9.249883437e-05
0.0001345281366
0.0001778680933
1.381031927e-05
1.911100795e-05
2.922125636e-05
4.737455855e-05
7.809808376e-05
0.0001268506765
0.0001977815605
0.0002875572907
0.0003795389168
2.923951712e-05
4.037472415e-05
6.206866548e-05
0.0001007860953
0.0001665954612
0.000270539003
0.0004197947709
0.0006066056536
0.00079651619
6.213913888e-05
8.612527443e-05
0.0001324537217
0.0002152582174
0.0003542823268
0.0005716937997
0.0008790570975
0.001258170925
0.001638275446
0.0001336093307
0.0001850452888
0.0002835631463
0.0004581016471
0.0007478876629
0.001193149838
0.001810774442
0.002557822335
0.003296171824
0.000289062693
0.0003980809936
0.0006058338188
0.0009686430261
0.001560773259
0.00245155375
0.003660239618
0.005093604409
0.00649453029
0.0006248058658
0.0008540106058
0.001285257003
0.002025972836
0.003209486156
0.00494964782
0.007260177543
0.009963040678
0.01262550549
0.001343459383
0.001817444298
0.002696522765
0.004177717959
0.006492484954
0.009824059935
0.01418947672
0.01934694593
0.02401819192
0.002857244413
0.003818395299
0.005573643825
0.008473897798
0.01292106724
0.0192552843
0.02768307944
0.03644576167
0.0440759106
0.005979466438
0.007885822574
0.011316382
0.01689995492
0.02540818634
0.037749958
0.05192852392
0.06696609672
0.07983586563
0.01226165755
0.01596184196
0.02255741631
0.03328282553
0.04974592897
0.07053876566
0.09548931199
0.1215883525
0.1435209551
0.02460280328
0.03169326041
0.04440704248
0.06472281772
0.09253684291
0.1291155257
0.1726728116
0.2182273834
0.2564360363
0.04858148908
0.06241474806
0.08511545633
0.1193837583
0.1677681061
0.2308376089
0.3059059509
0.3849881983
0.4517246502
0.09345990185
0.1164675674
0.1553640049
0.2140375483
0.2958477144
0.4016641702
0.5272141048
0.6592373738
0.7706743968
0.1708915486
0.2101935094
0.27576839
0.3732529563
0.5072422049
0.6779304196
0.8763958969
1.079775989
1.24931354
0.3046374491
0.3699980078
0.4775808005
0.6347782052
0.8460329311
1.10660589
1.39615754
1.678339157
1.910869788
0.5321293497
0.6382079518
0.8098745971
1.054450815
1.371127543
1.741721069
2.127928126
2.485697154
2.789670043
0.9138739549
1.080708461
1.344108913
1.705447043
2.14914667
2.63571403
3.114212356
3.554979075
3.969102182
1.537915552
1.787171386
2.167496024
2.664310725
3.23910639
3.836368008
4.416213722
4.986472409
5.59597904
2.506677283
2.85204259
3.358989867
3.990029115
4.689314423
5.408315215
6.142115168
6.940188858
7.878574525
3.901016581
4.34133305
4.968387129
5.728477031
6.568695602
7.468801877
8.464272215
9.638803148
11.08627722
5.759172713
6.290680344
7.04153194
7.958519478
9.008652534
10.20604524
11.622389
13.36965292
15.55122121
8.122050263
8.762974089
9.680427946
10.83429573
12.21827606
13.87997873
15.92474317
18.48691763
21.66603415
11.10298673
11.90334963
13.07343739
14.59203011
16.48108558
18.82219745
21.75014081
25.40974016
29.87473344
14.9077772
15.94531614
17.4901456
19.5424348
22.15400126
25.43728044
29.54592585
34.6137327
40.65541987
19.82221321
21.19808558
23.2733335
26.07011934
29.66765516
34.19996043
39.81931455
46.61451623
54.49450317
26.20337674
28.04293255
30.83874547
34.63225167
39.52198513
45.64536871
53.12075504
61.94310819
71.85343235
34.47938371
36.931989
40.6717979
45.75198602
52.27466768
60.35136267
70.01943762
81.11442636
93.13074912
45.14497051
48.38196344
53.31812347
60.00458718
68.521936
78.91357885
91.07276342
104.5922711
118.6247692
58.75085947
62.96109779
69.36702743
77.99657997
88.87308895
101.9156995
116.7938274
132.7567778
148.5049151
75.88653108
81.26970864
89.42900096
100.3399419
113.9218559
129.8996384
147.6235339
165.8829712
182.8019396
97.15793411
103.916322
114.1100286
127.6251059
144.2197767
163.3425309
183.9161752
204.1411905
221.4301019
123.1631093
131.4929052
143.9870123
160.3981952
180.2583052
202.6485008
225.9467741
247.6292487
264.2149792
154.470101
164.5540876
179.5899355
199.1489331
222.466785
248.1616859
273.9507171
296.3881464
310.9478039
191.6025893
203.6061277
221.3968625
244.3154635
271.2307583
300.2109095
328.1127415
350.4494968
361.6316439
235.0389322
249.1112653
269.8454308
296.3089187
326.942505
359.0584671
388.6297186
410.1069521
416.4753119
285.2276298
301.5099047
325.3745848
355.5712823
389.8795351
425.0216238
455.9800239
475.8386233
476.0325686
342.6356075
361.2778544
388.3938125
422.3308859
460.4827403
498.6844888
530.7862508
548.4182855
541.2632756
407.6532982
428.701601
459.2321331
497.2071208
539.3876808
580.7403164
613.9082112
628.9328324
613.5370954
480.7152907
504.381375
538.5777909
580.8494192
627.330392
672.0717933
706.435238
718.7496778
694.5756444
562.5348665
589.0024115
627.1325132
674.0379648
725.2039422
773.7309963
809.6391335
819.438536
786.3421727
653.8630456
683.3500514
725.7357026
777.6894775
834.0321103
886.8891299
924.8955428
932.6610338
890.8974456
755.5867168
788.3404334
835.3479042
892.8254972
954.9186687
1012.763673
1053.586278
1060.045523
1010.243751
868.7070256
904.991652
957.0112623
1020.51929
1088.978729
1152.532875
1196.995779
1203.063301
1146.176327
994.2948899
1034.373182
1091.790567
1161.827189
1237.260018
1307.24718
1356.21255
1362.918159
1300.15563
1133.427238
1177.538225
1240.700738
1317.711262
1400.661622
1477.745251
1532.042954
1540.45624
1473.207583
1287.110065
1335.445456
1404.627545
1488.960111
1579.856575
1664.580045
1724.941554
1736.099178
1665.854081
1456.195592
1508.877352
1584.248403
1676.113965
1775.223348
1867.958591
1934.960034
1949.800929
1878.07311
1641.300978
1698.362117
1779.959519
1879.399287
1986.790153
2087.697791
2161.715343
2181.02748
2109.286213
1842.735473
1904.105485
1991.814815
2098.677191
2214.194978
2323.197709
2404.377196
2428.758031
2358.370605
2060.441806
2125.937632
2219.480992
2333.409017
2456.663641
2573.433841
2661.675398
2691.507421
2623.695362
2293.956292
2363.279212
2462.2122
2582.642037
2713.008907
2836.971425
2931.931541
2967.376756
2903.189405
2542.390726
2615.129489
2718.847536
2845.019337
2981.655938
3112.011871
3213.134017
3254.164593
3193.334421
2804.438354
2880.079349
2987.834785
3118.819177
3260.705311
3396.49384
3503.07419
3548.353784
3492.75521
3078.405134
3156.351175
3267.284881
3402.032305
3548.046549
3688.033736
3798.29356
3849.348163
3762.083863
3362.269943
3441.871425
3555.065794
3692.490157
3840.94498
3983.515345
4098.402661
4111.318674
4019.47346
3653.786209
3734.392619
3848.71245
3986.927193
4137.023765
4278.578378
4349.442571
4360.508921
4274.167656
3949.944644
4030.493594
4144.984643
4284.205932
4417.15287
4519.489085
4590.856648
4604.131264
4523.41179
4248.475014
4329.104763
4436.865594
4542.948606
4653.945804
4754.571292
4825.122863
4839.986791
4765.076323
4523.383761
4585.771203
4672.988657
4776.21415
4883.921567
4981.50643
5050.377776
5066.428403
4997.493637
4758.138686
4818.375975
4902.401487
5001.58682
5104.938506
5198.641621
5265.243596
5282.184901
5219.329647
4985.211363
5042.700582
5122.78981
5217.203757
5315.524184
5404.774128
5468.673207
5486.255072
5429.503364
5202.537853
5256.928079
5332.631805
5421.797276
5514.623397
5599.003728
5659.857292
5677.84625
5627.140688
5408.780245
5459.845975
5530.86728
5614.454123
5701.451614
5780.645544
5838.171422
5856.340226
5811.549073
5602.996804
5650.585006
5716.718788
5794.493134
5875.417966
5949.183479
6003.147747
6021.274803
5982.203415
5784.489511
5828.497052
5889.604294
5961.405964
6036.087369
6104.246724
6154.460005
6172.333078
6138.736855
5952.736864
5993.100811
6049.097369
6114.829668
6183.162346
6245.597515
6291.914442
6309.335524
6280.932726
6107.365411
6144.058395
6194.90941
6254.533677
6316.473302
6373.123207
6415.442423
6432.232193
6408.715745
6248.137163
6281.164428
6326.8805
6380.411976
6435.971365
6486.829084
6525.092624
6541.093854
6522.141713
6374.942107
6404.338888
6444.972474
6492.476133
6541.721037
6586.830325
6621.022046
6636.10177
6621.38573
6487.791189
6513.61994
6549.261467
6590.847398
6633.891676
6673.34272
6703.485787
6717.536296
6706.729231
6586.808068
6609.15546
6639.929093
6675.747425
6712.74769
6746.672236
6772.825854
6785.764692
6778.54634
6672.21935
6691.193096
6717.252263
6747.487808
6778.637732
6807.203808
6829.459421
6841.228567
6837.289998
6744.343573
6760.069183
6781.592009
6806.458795
6831.983289
6855.389756
6873.86693
6884.431378
6883.478297
6803.579398
6816.196971
6833.381764
6853.11764
6873.267109
6891.73823
6906.580402
6915.9263
6917.681349
6850.393496
6860.05462
6873.115529
6887.976983
6903.021795
6916.801971
6928.172235
6936.304746
6940.508956
6885.308518
6892.173355
6901.336292
6911.59358
6921.818874
6931.167673
6939.244702
6946.185707
6952.59925
6908.891491
6913.126093
6918.624966
6924.557635
6930.258535
6935.446092
6940.420291
6946.206039
6954.608413
6921.742888
6923.516756
6925.590067
6927.482902
6928.960195
6930.263027
6932.332986
6937.011768
6947.20153
6924.486511
6923.970428
6922.85825
6920.997679
6918.553965
6916.251242
6915.620512
6919.250423
6931.044581
6917.760328
6915.124461
6911.065789
6905.736738
6899.673079
6894.04335
6890.917567
6893.564401
6906.797552
6902.20829
6897.620556
6890.851033
6882.334234
6872.947269
6864.265637
6858.850012
6860.585312
6875.108608
6878.473151
6872.097835
6862.84784
6851.41756
6838.997082
6827.53282
6820.02997
6820.929266
6836.609261
6847.190279
6839.186897
6827.679958
6813.602132
6798.429093
6784.443665
6775.051783
6775.193019
6791.91046
6808.982408
6799.504783
6785.956311
6769.487043
6751.831947
6735.577416
6724.488762
6723.950913
6741.599514
6764.455283
6753.65083
6738.267124
6719.651525
6699.773192
6681.490966
6668.890649
6667.75253
6686.237758
6714.194132
6702.203317
6685.180829
6664.652153
6642.796795
6622.716698
6608.781727
6607.120982
6626.358883
6658.760884
6645.716848
6627.241669
6605.020718
6581.421308
6559.760913
6544.65949
6542.551753
6562.467836
6598.692069
6584.720389
6564.967932
6541.262695
6516.138576
6493.102799
6476.993821
6474.512035
6495.040224
6534.497315
6519.715891
6498.85074
6473.856231
6447.412949
6423.193835
6406.226589
6403.440467
6424.522129
6466.658377
6451.177414
6429.353322
6403.251587
6375.680901
6350.457602
6332.771617
6329.747232
6351.330285
6395.628615
6379.550702
6356.910704
6329.870971
6301.351015
6275.289913
6257.01495
6253.81444
6275.852547
6321.832865
6305.25312
6281.929748
6254.108699
6224.804271
6198.059224
6179.31538
6175.996754
6198.448589
6245.667644
6228.673914
6204.789496
6176.331625
6146.394575
6119.107266
6100.005174
6096.622199
6119.450798
6167.501615
6150.17473
6125.841741
6096.879795
6066.449494
6038.749856
6019.390958
6015.993127
6039.165307
6087.676282
6070.090337
6045.411811
6016.06728
5985.27115
5957.277852
5937.754734
5934.387284
5957.873136
6006.506861
5988.729528
5963.799497
5934.183146
5903.137228
5874.958206
5855.354978
5852.058971
5875.831406
5924.283282
5906.376135
5881.280093
5851.492529
5820.302081
5792.035097
5772.427806
5769.240241
5793.274607
5841.271296
5823.290153
5798.105535
5768.237777
5736.997894
5708.731114
5689.188175
5686.142135
5710.415875
5757.71365
5739.708912
5714.505582
5684.639646
5653.435882
5625.248463
5605.831107
5602.955933
5627.448296
5673.83131
5655.848308
5630.689039
5600.898518
5569.807504
5541.770177
5522.532907
5519.854386
5544.546177
5589.8247
5571.904034
5546.844986
5517.195625
5486.285683
5458.461335
5439.452374
5436.992936
5461.866302
5505.87495
5488.052816
5463.144006
5433.694266
5403.026007
5375.470241
5356.73197
5354.510904
5379.549157
5422.145146
5404.453664
5379.739421
5350.54101
5320.167906
5292.929585
5274.498983
5272.532645
5297.720106
5338.781544
5321.249066
5296.768458
5267.866854
5237.835793
5210.957569
5192.86663
5191.168656
5216.490529
5255.914747
5238.566152
5214.353405
5185.788354
5156.140171
5129.658989
5111.935125
5110.516641
5135.958906
5173.660849
5156.517825
5132.602722
5104.408711
5075.178691
5049.126266
5031.792691
5030.662515
5056.211841
5092.122531
5075.203845
5051.612099
5023.818803
4995.037159
4969.44043
4952.516524
4951.681368
4977.325035
5011.390111
4994.711859
4971.465467
4944.098172
4915.790493
4890.672049
4874.173705
4873.638358
4899.364202
4931.542538
4915.118383
4892.235958
4865.315955
4837.503628
4812.882105
4796.822053
4796.589569
4822.385926
4852.648335
4836.489729
4813.98681
4787.531766
4760.232363
4736.122823
4720.510932
4720.582797
4746.438468
4774.766481
4758.882872
4736.772215
4710.796515
4684.024167
4660.438441
4645.282001
4645.658296
4671.562511
4697.94725
4682.346275
4660.638121
4635.153188
4608.918918
4585.865928
4571.169918
4571.849469
4597.791861
4622.232985
4606.920647
4585.622969
4560.637563
4534.9496
4512.435664
4498.20299
4499.183511
4525.154091
4547.658825
4532.639656
4511.758392
4487.278879
4462.142953
4440.172053
4426.403777
4427.682
4453.671145
4474.253378
4459.530596
4439.06986
4415.100465
4390.520069
4369.09411
4355.789654
4357.361451
4383.359883
4402.03935
4387.614994
4367.577271
4344.120311
4320.096949
4299.215988
4286.373328
4288.233823
4314.2326
4331.034123
4316.909183
4297.295509
4274.351602
4250.885011
4230.547474
4218.163311
4220.306981
4246.29749
4261.250288
4247.424824
4228.234945
4205.80321
4182.891567
4163.09444
4151.164363
4153.585135
4179.559075
4192.69614
4179.169386
4160.401916
4138.480141
4116.120252
4096.859262
4085.37789
4088.069224
4114.018607
4125.376128
4112.146595
4093.799144
4072.383956
4050.571422
4031.841197
4020.802313
4023.757282
4049.674421
4059.291275
4046.356834
4028.426138
4007.513145
3986.242523
3968.036738
3957.433407
3960.644766
3986.522271
3994.439552
3981.79752
3964.279552
3943.863477
3923.128416
3905.439929
3895.264607
3898.724857
3924.555627
3930.816234
3918.463445
3901.353516
3881.42832
3861.221688
3844.042656
3834.287288
3837.988733
3863.76595
3868.414209
3856.347081
3839.639934
3820.198922
3800.512924
3783.834913
3774.49102
3778.425814
3804.142934
3807.224274
3795.438872
3779.128763
3760.164683
3740.99096
3724.805042
3715.863795
3720.02399
3745.674731
3747.235398
3735.72748
3719.808256
3701.313387
3682.643111
3666.939947
3658.392238
3662.769812
3688.348143
3688.434954
3677.200029
3661.665191
3643.631421
3625.455374
3610.225289
3602.061784
3606.648673
3632.148788
3630.808945
3619.842307
3604.685072
3587.103965
3569.412608
3554.645654
3546.856842
3551.644949
3577.061237
3574.342191
3563.638962
3548.852312
3531.715168
3514.4987
3500.184707
3492.760924
3497.742121
3523.069116
3519.018508
3508.573668
3494.150393
3477.448294
3460.6967
3446.825306
3439.756755
3444.922857
3470.155157
3464.820863
3454.629275
3440.562007
3424.285857
3407.988937
3394.549609
3387.826342
3393.169055
3418.301201
3411.731513
3401.787945
3388.069184
3372.209727
3356.35711
3343.339135
3336.951018
3342.461838
3367.488133
3359.732126
3350.03126
3336.653385
3321.201218
3305.782352
3293.174801
3287.111425
3292.781486
3317.695727
3308.803884
3299.340321
3286.295593
3271.241149
3256.245269
3244.036922
3238.28747
3244.107309
3268.902407
3258.927571
3249.695828
3236.976369
3222.309883
3207.725939
3195.905167
3190.458212
3196.417444
3221.084897
3210.083648
3201.078134
3188.675894
3174.387338
3160.203891
3148.758476
3143.601702
3149.688576
3174.217781
3162.252308
3153.467297
3141.373994
3127.452982
3113.658045
3102.574945
3097.694776
3103.895614
3128.272984
3115.413523
3106.843101
3095.05014
3081.485791
3068.066629
3057.331665
3052.712811
3059.011314
3083.219235
3069.547079
3061.185082
3049.683437
3036.464206
3023.407075
3013.004563
3008.629472
3015.005929
3039.021574
3024.632605
3016.47253
3005.252608
2992.366069
2979.65591
2969.568227
2965.416487
2971.84693
2995.641029
2980.649598
2972.6845
2961.735969
2949.168565
2936.78866
2926.995777
2923.043499
2929.498878
2953.034611
2937.577453
2929.799823
2919.111415
2906.848186
2894.779787
2885.258802
2881.478051
2887.923575
2911.155782
2895.395508
2887.797134
2877.356434
2865.380719
2853.602684
2844.327409
2840.685787
2847.080577
2869.955607
2854.083102
2846.654923
2836.448144
2824.741299
2813.229771
2804.170434
2800.630924
2806.928199
2829.384745
2813.619661
2806.351617
2796.363388
2784.904528
2773.632698
2764.755842
2761.277059
2767.425098
2789.396434
2773.984818
2766.865706
2757.078877
2745.844688
2734.782698
2726.051374
2722.588369
2728.53249
2749.950544
2735.158557
2728.175908
2718.571401
2707.536037
2696.651086
2688.025414
2684.531182
2690.217
2711.018664
2697.12138
2690.261358
2680.818086
2669.953206
2659.209891
2650.648093
2647.075912
2652.454064
2672.590074
2659.854464
2653.101816
2643.796675
2633.071628
2622.432588
2613.89253
2610.199222
2615.231687
2634.678249
2623.339767
2616.677807
2607.485771
2596.867961
2586.294824
2577.736114
2573.886236
2578.554258
2597.327381
2587.559993
2580.970652
2571.86496
2561.320385
2550.775025
2542.161618
2538.132527
2542.44596
2560.618169
2552.498315
2545.962226
2536.914664
2526.408615
2515.854664
2507.157898
2502.945472
2506.953196
2524.671924
2518.137693
2511.634313
2502.615556
2492.113417
2481.517952
2472.719823
2468.344541
2472.145326
2489.651873
2484.459624
2477.967362
2468.947317
2458.415374
2447.750613
2438.84705
2434.359951
2438.112913
2455.760404
2451.442032
2444.938359
2435.88648
2425.292663
2414.537488
2405.541249
2401.02913
2404.962678
2423.23101
2419.056134
2412.517617
2403.403091
2392.717494
2381.858587
2372.801411
2368.390557
2372.808472
2392.313838
2387.262037
2380.664274
2371.456017
2360.651065
2349.683405
2340.616963
2336.474598
2341.757785
2363.254087
2356.002993
2349.320411
2339.986805
2329.036973
2317.963468
2308.958687
2305.291317
2311.893693
2336.26307
2325.198313
2318.403836
2308.91221
2297.79321
2286.623319
2277.767705
2274.815609
2283.252699
2311.482528
2294.735246
2287.799873
2278.115757
2266.803237
2255.550507
2246.94324
2244.970512
2255.799543
2288.943785
2264.460361
2257.352747
2247.439045
2235.906922
2224.585529
2216.330244
2215.610061
2229.40083
2268.524429
2234.171344
2226.857558
2216.673851
2204.892524
2193.513033
2185.708438
2186.50354
2203.799929
2249.906289
2203.610427
2196.054085
2185.556367
2173.491162
2162.055867
2154.784539
2157.323338
2178.596233
2232.539566
2172.460889
2164.623911
2153.765086
2141.375325
2129.873615
2123.189546
2127.638769
2153.232212
2215.618798
2140.348105
2132.192305
2120.923735
2108.16279
2096.567028
2090.482678
2096.918063
2126.991858
2198.076933
2106.846366
2098.335945
2086.610167
2073.426677
2061.688955
2056.162764
2064.540001
2099.013549
2178.60349
2071.491943
2062.596683
2050.37096
2036.710882
2024.760605
2019.685709
2029.814255
2068.31775
2155.689721
2033.801643
2024.499948
2011.739398
1997.547295
1985.287995
1980.481343
1992.002404
2033.840801
2127.692218
1993.293937
1983.573779
1970.250917
1955.46604
1942.765758
1937.951059
1950.313478
1994.439822
2089.94449
1949.506125
1939.360188
1925.444635
1909.982296
1896.643452
1891.407892
1897.007413
1933.642633
2026.734521
1901.992703
1891.401675
1876.830229
1860.154009
1837.62873
1822.95047
1825.66087
1861.047926
1953.105717
1847.831275
1832.694099
1811.689389
1787.526196
1763.708805
1746.968361
1747.676358
1781.016773
1869.903186
1773.407025
1757.682618
1735.498714
1709.694344
1684.372582
1665.874523
1663.914775
1693.213217
1775.869323
1693.487598
1677.251398
1654.412577
1627.508777
1600.461271
1579.349532
1573.483402
1596.908484
1670.572321
1609.469104
1592.714859
1568.95346
1540.567342
1511.262386
1486.803907
1476.004701
1492.075065
1554.54141
1520.932107
1503.513753
1478.605681
1448.431404
1416.471002
1388.151584
1371.733999
1379.483231
1429.309955
1427.627067
1409.440154
1383.238624
1351.099805
1316.29027
1283.901953
1261.622386
1260.7077
1297.331175
1329.708043
1310.713687
1283.185992
1249.08427
1211.492026
1175.188869
1147.291988
1138.022721
1161.761958
1227.785338
1208.031071
1179.286918
1143.432452
1103.408322
1063.713892
1030.912176
1014.191474
1026.143649
1122.933259
1102.563997
1072.865797
1035.679019
993.8414041
951.6026226
914.9911002
892.1832311
894.0348663
1016.637648
995.892286
965.6422877
927.723313
884.9008424
841.1958044
802.1188323
774.8695275
768.6616963
910.6826866
889.8756211
859.580803
821.6511637
778.7953924
734.813189
694.7095023
664.7535204
652.6430497
806.9920006
786.4827937
756.7041055
719.532196
677.6175174
634.5332104
594.7876443
563.7764463
547.8296583
707.4503816
687.6075137
658.9034134
623.2280823
583.1576764
542.0247329
503.8516662
473.2786142
455.4057722
613.7362883
594.9016942
567.7761274
534.2415493
496.7746955
458.4575628
422.9102416
393.8780899
375.4151631
527.1918129
509.6519916
484.5149218
453.6254774
419.3906129
384.5556615
352.1761197
325.3893945
307.4851216
448.7487893
432.7168289
409.9101879
382.0585692
351.3323645
320.2028685
291.3397342
267.3650688
250.7755119
379.0019934
364.6323711
344.2470808
319.49861
292.3748756
265.1047541
239.9347811
218.9771921
204.1450175
317.9350136
305.2188588
287.2763933
265.6513191
242.1414747
218.6696764
197.1173078
179.1769244
166.2986347
265.2072953
254.1428846
238.6144214
220.0204013
199.9509867
180.0584854
161.9017285
146.8235237
135.9116832
220.367118
210.877157
197.6231979
181.853366
164.9541693
148.3265682
133.248782
120.7771637
111.7198589
182.7130079
174.6750783
163.5030541
150.2922413
136.2346386
122.5040902
110.1390541
99.96471225
92.57610012
151.4386502
144.707077
135.3939815
124.4464068
112.8760596
101.6561554
91.62384448
83.42029402
77.47975883
125.7066602
120.1248237
112.4360718
103.4484292
94.01081784
84.92290784
76.85544807
70.30481721
65.58482023
104.6988705
100.1095489
93.81356106
86.49228772
78.85105619
71.54210287
65.10051682
59.90981202
56.1939598
87.6515153
83.90455281
78.78317632
72.8561588
66.70468406
60.85771305
55.74100743
51.65082116
48.74404584
73.87676145
70.83414349
66.68914801
61.91248269
56.97984403
52.31849032
48.26701772
45.05437099
42.78737232
62.77285849
60.31152039
56.96786737
53.12868632
49.1813638
45.47020864
42.26462819
39.74189201
37.97161197
53.82576137
51.83861244
49.14526475
46.06178262
42.90240114
39.9441964
37.40186053
35.41291988
34.03616588
46.60491135
45.00065935
42.82976923
40.34934886
37.81357525
35.44522236
33.41553893
31.86493543
30.89343089
40.7556169
39.45764594
37.70259573
35.69891117
33.65180151
31.74053385
30.14703051
29.00148657
28.20126788
35.98934603
34.93421447
33.50719353
31.87690471
30.20909653
28.70531999
27.48681321
26.53971931
25.87009342
32.07361659
31.20929356
30.03867841
28.69832607
27.39685508
26.21111871
25.19324212
24.40041408
23.82986576
28.82195775
28.10617642
27.14851967
26.1180879
25.05459279
24.05470101
23.19588107
22.52429618
22.03335335
26.11835513
25.5617658
24.80275003
23.92696272
23.02304462
22.17282825
21.44368139
20.88059281
20.48373527
23.89443726
23.41852152
22.7691972
22.01945944
21.24494178
20.51798608
19.90482758
19.46007591
19.13182391
21.96095744
21.55120823
20.99135406
20.34418842
19.67691182
19.05995144
18.56760977
18.20845692
17.91294889
20.26634315
19.91038084
19.42366641
18.86246341
18.29218264
17.7895591
17.38635955
17.07080326
16.7913644
18.76815138
18.45685484
18.03298905
17.55217455
17.08556376
16.66614039