/*--------------------------------*- C++ -*----------------------------------*\
| =========                 |                                                 |
| \\      /  F ield         | OpenFOAM: The Open Source CFD Toolbox           |
|  \\    /   O peration     | Version:  2212                                  |
|   \\  /    A nd           | Website:  www.openfoam.com                      |
|    \\/     M anipulation  |                                                 |
\*---------------------------------------------------------------------------*/
FoamFile
{
    version     2.0;
    format      ascii;
    arch        "LSB;label=32;scalar=64";
    class       volScalarField;
    location    "20.00000000";
    object      T;
}
// * * * * * * * * * * * * * * * * * * * * * * * * * * * * * * * * * * * * * //

dimensions      [0 0 0 1 0 0 0];

internalField   nonuniform List<scalar> 
3000
(
300.9398113
300.9282887
300.9081706
300.874841
300.8188215
300.7199354
300.5325526
300.1452766
299.249362
300.8006945
300.7650692
300.7049793
300.6109849
300.4666916
300.2445349
299.8990744
299.359389
298.5371718
300.6331536
300.5740154
300.4776707
300.3345613
300.1301683
299.844665
299.4547013
298.9414751
298.3180738
300.4537406
300.3760354
300.2532242
300.078514
299.8428963
299.5371781
299.1564328
298.7084246
298.2268639
300.2732308
300.1828132
300.0434013
299.8518953
299.6051254
299.302527
298.9501654
298.5652229
298.1776197
300.0979296
300.000136
299.8522955
299.6548323
299.4094008
299.1212427
298.8016814
298.4691388
298.15
299.9308547
299.8299219
299.6797341
299.4836267
299.2467772
298.9778502
298.68999
298.3999013
298.15
299.7734239
299.6725331
299.5243163
299.3342873
299.1099434
298.8616596
298.6026247
298.3471606
298.15
299.6261491
299.5275662
299.3842383
299.203167
298.9932079
298.7653421
298.5320015
298.3052641
298.15
299.4891017
299.3943685
299.2577972
299.087293
298.8923593
298.6839229
298.4733692
298.2708896
298.15
299.3620945
299.2721927
299.1434723
298.9842829
298.8042836
298.6139785
298.4236594
298.241989
298.15
299.2447905
299.1602828
299.0399531
298.8922543
298.7266764
298.5531139
298.3808222
298.2172364
298.15
299.1367591
299.0579018
298.9461144
298.8097126
298.6578144
298.4996252
298.3434575
298.1957532
298.15
299.0375163
298.9643488
298.8609936
298.7354672
298.5963981
298.4522846
298.3105961
298.1769617
298.15
298.9465575
298.8789732
298.7837722
298.6685709
298.5414471
298.4102073
298.2815813
298.1605937
298.15
298.86339
298.8011911
298.7137713
298.6082881
298.4922414
298.3727612
298.2558638
298.15
298.15
298.787568
298.7305118
298.6504657
298.554102
298.4483441
298.3396897
298.2335466
298.15
298.15
298.7187353
298.6665746
298.5935123
298.5057314
298.4095916
298.310987
298.2147383
298.15
298.15
298.6566826
298.6092057
298.5428102
298.4632009
298.3761937
298.2870998
298.2001565
298.15
298.15
298.6014274
298.5585051
298.4986011
298.4269653
298.3488945
298.2691282
298.1912951
298.15
298.15
298.5533265
298.5149739
298.4616209
298.3980991
298.3292162
298.25914
298.1908253
298.15
298.15
298.5132346
298.4796949
298.4333183
298.378571
298.319811
298.2606217
298.2031706
298.15
298.15
298.4827193
298.4545805
298.4161551
298.3716203
298.3249391
298.2790897
298.2352795
298.1923249
298.15
298.4643472
298.4427008
298.4140015
298.3822477
298.3510896
298.3228735
298.2976079
298.2720624
298.2393545
298.4620529
298.4487041
298.4326378
298.4178322
298.4077459
298.4040689
298.4052954
298.4053712
298.3929184
298.4815975
298.4793355
298.4803671
298.4888705
298.5082888
298.5396394
298.5794988
298.6179696
298.6373221
298.5311239
298.5440582
298.5687346
298.6098295
298.6710125
298.7526215
298.8488082
298.9445302
299.0133197
298.6218065
298.6557695
298.7133441
298.8000885
298.9202123
299.0733686
299.2506466
299.4302286
299.5739347
298.768588
298.831602
298.9347476
299.084935
299.2872889
299.5407472
299.8325251
300.1320185
300.38573
298.9909906
299.0937886
299.2593806
299.4965696
299.8118005
300.2031889
300.653021
301.1194507
301.5294046
299.3139799
299.470564
299.7205037
300.0750661
300.5423892
301.1194939
301.7823407
302.4748657
303.0995128
299.7688554
299.997071
300.3591062
300.8692249
301.5374977
302.359284
303.3023461
304.2928242
305.2031677
300.3941355
300.7162284
301.2247181
301.9372522
302.865793
304.0030028
305.3059384
306.6786848
307.9576758
301.2363952
301.6795134
302.3760694
303.3471863
304.6062031
306.1413689
307.8957186
309.7462956
311.4871553
302.3510086
302.9475978
303.8815223
305.1769835
306.8474713
308.8741898
311.1818735
313.6148277
315.9182837
303.8027359
304.5907667
305.8191897
307.5141628
309.6871255
312.3084636
315.2792763
318.4048451
321.3754151
305.6660789
306.6890315
308.2766381
310.4549022
313.22977
316.5557197
320.3038402
324.2337766
327.9753713
308.0253149
309.3318354
311.3500644
314.1024817
317.5846294
321.7286032
326.368243
331.2110308
335.8222569
310.9740999
312.6172369
315.1428381
318.5649928
322.8623277
327.9367883
333.5772246
339.4330586
345.0026578
314.6145198
316.6504577
319.7633176
323.9522815
329.1709685
335.2824075
342.0227589
348.9787237
355.5815588
319.0554664
321.5416946
325.3218996
330.3721758
336.6116889
343.8552941
351.7794712
359.9053429
367.5992567
324.4102279
327.4031392
331.9273284
337.9261498
345.2739741
353.7284219
362.9007035
372.2457229
381.0694545
330.7932264
334.3452127
339.6823927
346.7046858
355.2311081
364.9539593
375.4155885
386.0064224
395.9786132
338.3159083
342.4721204
348.6792417
356.7826885
366.5361747
377.5603157
389.3273871
401.1673391
412.286531
347.0819015
351.8769429
358.9946486
368.2153484
379.2189869
391.5504466
404.6131932
417.6825764
429.9280197
357.1816859
362.6365889
370.6856097
381.0348312
393.2842184
406.9015212
421.2249435
435.482425
448.8154796
368.6871618
374.8070264
383.7856742
395.2480884
408.7108578
423.5658882
439.0915345
454.4762066
468.8421385
381.6466085
388.4192401
398.3023458
410.8359485
425.4529427
441.4731349
458.1217624
474.5556953
489.8857066
396.0805705
403.4763376
414.2157905
427.7535071
443.4413994
460.5329514
478.2077717
495.5988322
511.8122187
411.9791683
419.9521242
431.4789509
445.9316997
462.5867302
480.6384941
499.2287296
517.4735013
534.4798603
429.301195
437.7913282
450.0190366
465.2798654
482.7822727
501.6699688
521.0544855
540.0411949
557.7426208
447.9751645
456.9114938
469.7402642
485.6890698
503.9077664
523.4981811
543.5489975
563.1603144
581.4536459
467.9022605
477.206471
490.527735
507.0360418
525.8330478
545.9878676
566.5734074
586.689086
605.4681845
488.9598857
498.5495967
512.2501628
529.1857695
548.4209518
569.0010618
589.9895079
610.4889221
629.6463324
511.0038904
520.7962367
534.7634064
551.9957457
571.5314238
592.4004183
613.6623509
634.4264898
653.8552151
533.876999
543.791658
557.9166806
575.3201801
595.0241359
616.050926
637.4615901
658.3750453
677.9703964
557.4144565
567.3759144
581.556646
599.0133616
618.7612391
639.8221682
661.2633363
682.2160079
701.8772007
581.4492701
591.3883833
605.531159
622.9326701
642.6097446
663.590195
684.9516318
705.840106
725.4715974
605.8168042
615.6717439
629.692537
646.941157
666.443513
687.2390258
708.4195607
729.1481636
748.6607183
630.3585981
640.0752841
653.9002624
670.9096582
690.1448411
710.6617933
731.5700285
752.0515747
771.363067
654.9253602
664.4574972
678.0231002
694.7184269
713.6056515
733.7615461
754.3162302
774.4724808
793.5084491
679.3791638
688.6879883
701.9406438
718.2583053
736.7283083
756.4517418
776.581857
796.3437232
815.0376863
703.5949145
712.6487442
725.544333
741.4314675
759.4260863
778.6564568
798.3010656
817.608589
835.9021527
727.4611815
736.2348445
748.7380018
764.1517792
781.6233318
800.3103469
819.4182438
838.2203911
856.0631761
750.8805018
759.3547021
771.4380256
786.344827
803.2553566
821.3583969
839.8876118
858.1419194
875.4913408
773.7692553
781.9299186
793.5731374
807.9476737
824.2681121
841.7554975
859.6726922
877.3447982
894.1657277
796.0572095
803.8948379
815.0839814
828.9083946
844.6176886
861.4658897
878.7456838
895.8087785
912.0731185
817.6868182
825.1958757
835.9224705
849.1854497
864.269684
880.4625108
897.086769
913.5209942
929.2071886
838.6123527
845.790692
856.0510052
868.7469413
883.1984832
898.7262766
914.6833822
930.4752021
945.5677102
858.7989274
865.647267
875.4416065
887.5697979
901.386481
916.245328
931.5294625
946.671027
961.159777
878.221473
884.7429258
894.075003
905.6389237
918.8232828
933.0142663
947.6247084
962.1132211
975.9930618
896.8636982
903.0633514
911.9397095
922.9463427
935.5049072
949.0334019
962.9738523
976.8109419
990.0810844
914.7170689
920.6016162
929.0311223
939.4903642
951.4330192
964.3080457
977.5859917
990.7770612
1003.441029
931.779829
937.3572485
945.3506494
955.2747829
966.6142057
978.8478752
991.4741051
1004.0289
1016.091946
948.0560744
953.3353507
960.9048825
970.3081093
981.0592532
992.6662267
1004.655242
1016.583996
1028.055878
963.5548919
968.5457748
975.704824
984.6028521
994.7824886
1005.780602
1017.146504
1028.463867
1039.355987
978.2895679
983.0023664
989.765176
998.1748585
1007.802423
1018.208125
1028.969159
1039.690826
1050.016732
992.2768705
996.7222757
1003.104956
1011.044153
1020.136652
1029.970299
1040.145166
1050.288475
1060.063458
1005.53779
1009.726832
1015.742274
1023.229114
1031.807367
1041.089212
1050.697767
1060.281335
1069.522055
1018.09188
1022.035505
1027.700171
1034.752982
1042.837202
1051.5882
1060.651132
1069.694522
1078.418677
1029.963618
1033.672729
1039.001934
1045.639243
1053.249954
1061.491492
1070.030039
1078.553466
1086.779497
1041.177576
1044.663024
1049.67205
1055.912404
1063.070236
1070.823901
1078.859601
1086.883676
1094.630502
1051.759355
1055.031863
1059.735846
1065.597665
1072.323171
1079.610551
1087.165026
1094.710528
1101.997318
1061.735242
1064.805338
1069.21917
1074.720621
1081.03413
1087.876641
1094.971413
1102.059092
1108.905066
1071.131902
1074.00987
1078.148116
1083.307009
1089.228499
1095.647241
1102.303568
1108.953984
1115.378244
1079.976116
1082.67195
1086.548788
1091.382487
1096.931477
1102.947112
1109.185861
1115.419243
1121.440634
1088.294551
1090.817921
1094.447085
1098.972441
1104.167904
1109.800558
1115.642096
1121.47823
1127.115228
1096.113563
1098.473787
1101.868529
1106.10182
1110.962117
1116.2313
1121.695407
1127.153548
1132.424172
1103.459023
1105.665048
1108.838103
1112.794995
1117.337825
1122.262372
1127.368178
1132.466983
1137.388728
1110.356174
1112.416563
1115.38013
1119.07565
1123.318008
1127.916037
1132.681976
1137.439457
1142.029249
1116.829511
1118.752434
1121.518164
1124.966677
1128.924838
1133.213723
1137.657503
1142.090997
1146.365166
1122.902679
1124.695912
1127.274904
1130.49011
1134.179613
1138.175972
1142.314563
1146.440718
1150.414984
1128.598397
1130.269323
1132.672123
1135.667056
1139.10271
1142.822405
1146.672034
1150.506811
1154.196286
1133.938391
1135.494008
1137.73062
1140.51766
1143.713548
1147.171693
1150.74786
1154.306541
1157.725743
1138.943354
1140.390281
1142.470178
1145.061062
1148.03056
1151.241541
1154.559035
1157.856248
1161.019126
1143.632907
1144.977398
1146.909539
1149.31538
1152.071177
1155.048668
1158.121584
1161.171327
1164.091317
1148.025581
1149.273537
1151.066381
1153.29769
1155.851801
1158.608781
1161.450538
1164.26619
1166.956175
1152.138812
1153.295792
1154.957318
1157.024017
1159.387806
1161.936575
1164.559924
1167.154201
1169.626956
1155.988933
1157.060171
1158.597893
1160.509337
1162.693542
1165.045743
1167.46277
1169.848338
1172.11622
1159.591183
1160.581601
1162.002598
1163.767612
1165.782345
1167.94909
1170.171918
1172.36095
1174.43577
1162.959728
1163.873967
1165.184899
1166.811798
1168.666961
1170.659379
1172.699556
1174.703651
1176.596701
1166.107628
1166.950073
1168.15743
1169.654655
1171.359997
1173.188642
1175.057151
1176.887366
1178.609437
1169.047708
1169.822853
1170.933095
1172.308636
1173.87335
1175.54822
1177.255501
1178.922368
1180.483768
1171.79282
1172.504872
1173.524046
1174.785448
1176.218223
1177.748798
1179.304767
1180.818315
1182.22888
1174.355002
1175.007915
1175.941718
1177.096105
1178.405166
1179.800431
1181.214507
1182.584276
1183.853385
1176.745558
1177.343059
1178.196868
1179.250977
1180.444109
1181.712583
1182.993707
1184.228767
1185.365354
1178.97512
1179.520728
1180.299622
1181.259821
1182.344394
1183.494149
1184.650804
1185.759778
1186.772348
1181.053689
1181.550726
1182.259505
1183.131819
1184.114808
1185.153492
1186.193726
1187.184799
1188.081442
1182.990675
1183.442281
1184.085482
1184.875605
1185.763612
1186.698469
1187.629911
1188.510852
1189.299257
1184.794936
1185.204075
1185.785984
1186.499303
1187.298573
1188.136462
1188.966339
1189.744517
1190.431984
1186.474803
1186.844277
1187.368945
1188.010551
1188.72699
1189.4744
1190.209557
1190.891957
1191.485414
1188.038118
1188.370573
1188.841826
1189.416531
1190.055723
1190.718792
1191.365706
1191.958941
1192.464955
1189.492261
1189.790194
1190.211647
1190.723994
1191.291217
1191.875748
1192.440545
1192.950873
1193.375663
1190.844175
1191.109945
1191.485008
1191.93929
1192.439525
1192.951
1193.43947
1193.872809
1194.222258
1192.100396
1192.336225
1192.668119
1193.068385
1193.506338
1193.949932
1194.36754
1194.72948
1195.009147
1193.26707
1193.475058
1193.766819
1194.116888
1194.496995
1194.877591
1195.229497
1195.525311
1195.740445
1194.349985
1194.532108
1194.786597
1195.09007
1195.416515
1195.738715
1196.029781
1196.264443
1196.419992
1195.354582
1195.512703
1195.732616
1195.992886
1196.269607
1196.537746
1196.772552
1196.950744
1197.05137
1196.285982
1196.421854
1196.609728
1196.829986
1197.060692
1197.278849
1197.461704
1197.587833
1197.637919
1197.148999
1197.264272
1197.422494
1197.605743
1197.79392
1197.965931
1198.100885
1198.179091
1198.182757
1197.948161
1198.044385
1198.175197
1198.324258
1198.473183
1198.60265
1198.693507
1198.727676
1198.688787
1198.687723
1198.766353
1198.871863
1198.989384
1199.102132
1199.192435
1199.242762
1199.236538
1199.158719
1199.371682
1199.434084
1199.516268
1199.604735
1199.684188
1199.738497
1199.751637
1199.708435
1199.595075
1200.003794
1200.05125
1200.111959
1200.173701
1200.222561
1200.243843
1200.222924
1200.145936
1200.000208
1200.587585
1200.621293
1200.662264
1200.699459
1200.720254
1200.711285
1200.659234
1200.551443
1200.376307
1201.126362
1201.147445
1201.1703
1201.184988
1201.180082
1201.143457
1201.063006
1200.927196
1200.725413
1201.623228
1201.632736
1201.638992
1201.633079
1201.60468
1201.542819
1201.436516
1201.275285
1201.049427
1202.081093
1202.080006
1202.071079
1202.046342
1201.99651
1201.911672
1201.781894
1201.597657
1201.350116
1202.502681
1202.491913
1202.469126
1202.427224
1202.357878
1202.252167
1202.101124
1201.896129
1201.629128
1202.890545
1202.87095
1202.835533
1202.778011
1202.690939
1202.566312
1202.39606
1202.172395
1201.887996
1203.247075
1203.219445
1203.172545
1203.100841
1202.997705
1202.855981
1202.668429
1202.428031
1202.128146
1203.574503
1203.539578
1203.482261
1203.397711
1203.280056
1203.122925
1202.919843
1202.664508
1202.350905
1203.874921
1203.833386
1203.766642
1203.670487
1203.539747
1203.368775
1203.151805
1202.883193
1202.557508
1204.150279
1204.102772
1204.027521
1203.920911
1203.778416
1203.595053
1203.365714
1203.085362
1202.749103
1204.4024
1204.349512
1204.266605
1204.150609
1203.997588
1203.803178
1203.562873
1203.2722
1202.92676
1204.632985
1204.575263
1204.485491
1204.361095
1204.198688
1203.994472
1203.744498
1203.444811
1203.091471
1204.843622
1204.781573
1204.685665
1204.553783
1204.383041
1204.170165
1203.911718
1203.604222
1203.244159
1205.03579
1204.969882
1204.868513
1204.729988
1204.551883
1204.331404
1204.065585
1203.751388
1203.385685
1205.210866
1205.141532
1205.035326
1204.890936
1204.706363
1204.479254
1204.207078
1203.887197
1203.516845
1205.370135
1205.297774
1205.187305
1205.037767
1204.847552
1204.614709
1204.337105
1204.012475
1203.638382
1205.514792
1205.439771
1205.325568
1205.171544
1204.976444
1204.738691
1204.456514
1204.12799
1203.750986
1205.645947
1205.568606
1205.451156
1205.293252
1205.093965
1204.852056
1204.56609
1204.234454
1203.855298
1205.764635
1205.685284
1205.565035
1205.403809
1205.200975
1204.955603
1204.666564
1204.332532
1203.951913
1205.871816
1205.790742
1205.668104
1205.504068
1205.298272
1205.050072
1204.758614
1204.422838
1204.041385
1205.968382
1205.885846
1205.761197
1205.59482
1205.3866
1205.136149
1204.842872
1204.505945
1204.124227
1206.055162
1205.971405
1205.84509
1205.6768
1205.466646
1205.214474
1204.919921
1204.582384
1204.200917
1206.132925
1206.048167
1205.9205
1205.75069
1205.539049
1205.285639
1204.990306
1204.652647
1204.271898
1206.202383
1206.116825
1205.988095
1205.817123
1205.604404
1205.350193
1205.05453
1204.717192
1204.337584
1206.264199
1206.178024
1206.048494
1205.876685
1205.663259
1205.408647
1205.113061
1204.776446
1204.398355
1206.318985
1206.23236
1206.10227
1205.929921
1205.716125
1205.461472
1205.166332
1204.8308
1204.454569
1206.36731
1206.280387
1206.149954
1205.977334
1205.763474
1205.509107
1205.214747
1204.880622
1204.506554
1206.409699
1206.322617
1206.192038
1206.019391
1205.805744
1205.551959
1205.258677
1204.926251
1204.554617
1206.446639
1206.359523
1206.228977
1206.056524
1205.843341
1205.590403
1205.298468
1204.968002
1204.599043
1206.478582
1206.391545
1206.261194
1206.089134
1205.876639
1205.624788
1205.334442
1205.006167
1204.640095
1206.505943
1206.419088
1206.289078
1206.117591
1205.905987
1205.655436
1205.366894
1205.041016
1204.678019
1206.529109
1206.442527
1206.31299
1206.142238
1205.931706
1205.682647
1205.3961
1205.0728
1204.713043
1206.548436
1206.46221
1206.333263
1206.163391
1205.954094
1205.706698
1205.422315
1205.101753
1204.745378
1206.564253
1206.478458
1206.350207
1206.181343
1205.973425
1205.727843
1205.445774
1205.12809
1204.77522
1206.576864
1206.491566
1206.364106
1206.196365
1205.989955
1205.74632
1205.466696
1205.152011
1204.80275
1206.586549
1206.501809
1206.375222
1206.208707
1206.003918
1205.762348
1205.485282
1205.173701
1204.828139
1206.593569
1206.509438
1206.383799
1206.2186
1206.015532
1205.77613
1205.501721
1205.193332
1204.851543
1206.598162
1206.514686
1206.390062
1206.226258
1206.024998
1205.787851
1205.516185
1205.211063
1204.873107
1206.600549
1206.51777
1206.394216
1206.231877
1206.0325
1205.797686
1205.528834
1205.227042
1204.892967
1206.600933
1206.518885
1206.396454
1206.235639
1206.038211
1205.805795
1205.539817
1205.241405
1204.911247
1206.599501
1206.518217
1206.39695
1206.237711
1206.042287
1205.812324
1205.54927
1205.254279
1204.928065
1206.596425
1206.515931
1206.395866
1206.238248
1206.044875
1205.81741
1205.557321
1205.265779
1204.943527
1206.591865
1206.512184
1206.393353
1206.237392
1206.046109
1205.821179
1205.564085
1205.276016
1204.957734
1206.585966
1206.507117
1206.389546
1206.235273
1206.046112
1205.823747
1205.569671
1205.285089
1204.970779
1206.578861
1206.500861
1206.384572
1206.232013
1206.044999
1205.82522
1205.574179
1205.29309
1204.982748
1206.570674
1206.493535
1206.378546
1206.22772
1206.042873
1205.825696
1205.577699
1205.300105
1204.99372
1206.561515
1206.485248
1206.371573
1206.222495
1206.039829
1205.825266
1205.580317
1205.306213
1205.00377
1206.551485
1206.476098
1206.363748
1206.21643
1206.035953
1205.824009
1205.582108
1205.311485
1205.012965
1206.540673
1206.466172
1206.355154
1206.209603
1206.031323
1205.821999
1205.583142
1205.315987
1205.021366
1206.529157
1206.455546
1206.345865
1206.202086
1206.026003
1205.819298
1205.583478
1205.319777
1205.029032
1206.517001
1206.444283
1206.335942
1206.193936
1206.020051
1205.81596
1205.583166
1205.322902
1205.036009
1206.504254
1206.43243
1206.325429
1206.185195
1206.013504
1205.812021
1205.582243
1205.325402
1205.042337
1206.490944
1206.420012
1206.314349
1206.175885
1206.006383
1205.807501
1205.58073
1205.327297
1205.048043
1206.477072
1206.40703
1206.302702
1206.166001
1205.998682
1205.802394
1205.57862
1205.328587
1205.053133
1206.462602
1206.393446
1206.290445
1206.155501
1205.990357
1205.796654
1205.575873
1205.329236
1205.057584
1206.447451
1206.379173
1206.27749
1206.14429
1205.981308
1205.790183
1205.572392
1205.329158
1205.061325
1206.431466
1206.364054
1206.263671
1206.132198
1205.971363
1205.782805
1205.568004
1205.32819
1205.064215
1206.414402
1206.347836
1206.248729
1206.118954
1205.960241
1205.774234
1205.562425
1205.326058
1205.066003
1206.395886
1206.330138
1206.232267
1206.104146
1205.947513
1205.764029
1205.555209
1205.322326
1205.066279
1206.375378
1206.310403
1206.213707
1206.08717
1205.93255
1205.751538
1205.545691
1205.316331
1205.064408
1206.352116
1206.287846
1206.192231
1206.067167
1205.914451
1205.735822
1205.532904
1205.307096
1205.059433
1206.325044
1206.261379
1206.166703
1206.042947
1205.891961
1205.715564
1205.515478
1205.293222
1205.049963
1206.292739
1206.229531
1206.135585
1206.012887
1205.863366
1205.688954
1205.491519
1205.272757
1205.034025
1206.253308
1206.190345
1206.096829
1205.974822
1205.826368
1205.653558
1205.458464
1205.243032
1205.008899
1206.204277
1206.141264
1206.047753
1205.925913
1205.777947
1205.606162
1205.41291
1205.200481
1204.97091
1206.14247
1206.079
1205.984905
1205.8625
1205.714201
1205.5426
1205.350428
1205.140438
1204.915209
1206.063866
1205.999388
1205.90391
1205.779943
1205.630174
1205.457572
1205.26536
1205.056909
1204.835525
1205.963449
1205.897235
1205.799316
1205.672448
1205.519672
1205.344438
1205.150606
1204.942345
1204.723919
1205.835058
1205.766162
1205.664417
1205.532897
1205.375082
1205.195031
1204.997409
1204.787409
1204.570526
1205.671227
1205.59844
1205.4911
1205.352673
1205.187188
1204.999459
1204.795156
1204.580757
1204.363319
1205.463036
1205.384843
1205.269681
1205.121501
1204.945004
1204.74593
1204.531188
1204.308841
1204.087897
1205.199974
1205.114505
1204.988767
1204.827304
1204.635631
1204.420609
1204.190649
1203.955752
1203.727317
1204.869822
1204.774804
1204.635141
1204.456091
1204.244144
1204.007503
1203.756381
1203.503111
1203.261987
1204.458559
1204.351274
1204.193678
1203.991877
1203.75352
1203.4884
1203.208866
1202.930023
1202.66962
1203.950309
1203.827558
1203.6473
1203.416652
1203.144619
1202.842862
1202.526235
1202.213101
1201.925279
1203.327329
1203.185395
1202.976985
1202.710397
1202.39622
1202.048285
1201.684354
1201.326573
1201.001505
1202.570037
1202.404669
1202.161819
1201.851163
1201.485123
1201.080023
1200.656973
1200.242468
1199.868533
1201.657105
1201.463504
1201.179115
1200.815209
1200.386305
1199.911582
1199.415959
1198.930886
1198.494607
1200.565592
1200.338414
1200.004581
1199.577191
1199.073157
1198.514886
1197.931604
1197.360347
1196.846372
1199.271141
1199.004514
1198.612548
1198.110426
1197.517766
1196.860606
1196.172994
1195.49821
1194.889346
1197.748222
1197.435776
1196.976254
1196.3872
1195.691266
1194.918544
1194.108442
1193.31116
1192.588458
1195.970426
1195.605343
1195.068176
1194.379126
1193.56423
1192.658073
1191.705971
1190.765731
1189.908628
1193.910802
1193.485871
1192.860396
1192.057544
1191.107103
1190.0486
1188.933822
1187.828873
1186.815382
1191.542226
1191.049921
1190.325009
1189.39395
1188.29066
1187.060067
1185.760994
1184.468524
1183.275473
1188.837793
1188.270357
1187.434544
1186.36044
1185.086476
1183.663449
1182.157773
1180.654189
1179.257502
1185.771229
1185.120769
1184.162391
1182.930155
1181.467397
1179.831245
1178.096258
1176.357487
1174.7325
1182.317296
1181.575886
1180.483235
1179.077725
1177.407992
1175.537952
1173.550845
1171.552665
1169.674477
1178.4522
1177.611982
1176.373458
1174.779681
1172.884973
1170.760485
1168.498661
1166.217038
1164.060876
1174.153966
1173.20726
1171.811529
1170.014839
1167.877577
1165.478564
1162.919919
1160.331331
1157.872969
1169.402798
1168.342203
1166.778351
1164.764653
1162.367907
1159.675072
1156.798473
1153.880406
1151.096454
1164.181391
1162.999881
1161.257569
1159.013566
1156.341497
1153.336767
1150.122266
1146.853347
1143.721482
1158.475324
1157.166471
1155.236227
1152.749697
1149.787625
1146.454209
1142.883254
1139.243537
1135.74283
1152.273679
1150.83163
1148.704834
1145.964656
1142.699229
1139.021843
1135.077519
1131.04877
1127.159993
1145.568812
1143.988362
1141.657354
1138.653649
1135.073017
1131.03809
1126.705353
1122.271296
1117.977181
1138.356451
1136.633117
1134.091298
1130.815566
1126.909538
1122.505391
1117.771262
1112.917786
1108.20323
1130.635797
1128.76587
1126.007792
1122.453024
1118.213194
1113.430182
1108.283898
1102.999208
1097.85144
1122.40956
1120.390158
1117.411591
1113.572347
1108.992194
1103.822806
1098.255924
1092.530655
1086.939341
1113.683957
1111.513054
1108.311035
1104.183506
1099.25845
1093.697375
1087.703837
1081.531106
1075.488408
1104.468642
1102.145096
1098.717955
1094.3
1089.027448
1083.071608
1076.64776
1070.023171
1063.52373
1094.776584
1092.300147
1088.647535
1083.93871
1078.318084
1071.966663
1065.111257
1058.032855
1051.073685
1084.623875
1081.995204
1078.118111
1073.119705
1067.152503
1060.407025
1053.121282
1045.589508
1038.169702
1074.029452
1071.250104
1067.150867
1061.865944
1055.555858
1048.420424
1040.70841
1032.7264
1024.846674
1063.01472
1060.087109
1055.769358
1050.202731
1043.555737
1036.037459
1027.907269
1019.483228
1011.147755
1051.603104
1048.530382
1043.998827
1038.156726
1031.180627
1023.289285
1014.754185
1005.909822
997.0497027
1039.819671
1036.605551
1031.865644
1025.754995
1018.457731
1010.201337
1001.267089
991.8816252
982.6903734
1027.690943
1024.339663
1019.397586
1013.026218
1005.416775
996.6903634
987.3586829
977.6690678
968.0502865
1015.244764
1011.761116
1006.623855
999.8886507
991.9712691
983.0079403
973.2978973
963.2066412
953.1751915
1002.510087
998.7865132
993.4576414
986.5869507
978.3789178
969.0841708
959.010482
948.5332939
938.1053312
989.3962896
985.6610512
980.1526905
973.0503409
964.5646938
954.9534404
944.5324833
933.6866626
922.879645
976.1624653
972.3116214
966.6328367
959.3105811
950.5614547
940.6498517
929.8993302
918.7035116
907.5362073
962.7284994
958.7685815
952.9290216
945.3993648
936.4017977
926.2070223
915.1457447
903.6197242
892.1121147
949.1243651
945.0622225
939.0720143
931.3480752
922.1178409
911.6579048
900.3055982
888.4701649
876.6432964
935.3798074
931.2225438
925.0921912
917.1875743
907.7410292
897.0346134
885.4117522
873.2885167
861.1643296
921.5241405
917.279051
911.0193417
902.948019
893.3019633
882.3682633
870.4959044
858.1071263
845.7082771
907.5860633
903.2605768
896.882497
888.6586988
878.8302471
867.6888269
855.5884501
842.9568689
830.3065524
893.5935005
889.195126
882.7097819
874.3478951
864.354355
853.0250089
840.7183647
827.8670355
814.9888129
879.5734651
875.1097427
868.5282867
860.0427604
849.9015191
838.4041415
825.9131066
812.8652442
799.7828782
865.5519414
861.0303962
854.3639597
845.7692176
835.4976358
823.8520996
811.1985417
797.9773743
784.7146749
851.5537858
846.9818861
840.241517
831.5518769
821.1671919
809.3932361
796.5988886
783.2275225
769.8082036
837.602646
832.9877652
826.1843717
817.4139715
806.933208
795.0503352
782.136683
768.6379774
755.0855243
823.720897
819.0702787
812.2145779
803.3773099
792.8171997
780.8445832
767.832758
754.2292119
740.5667655
809.9295916
805.2503194
798.3527923
789.4622436
778.8391541
766.7955541
753.7062416
740.0198958
726.2701464
796.2484277
791.5473982
784.6182494
775.6876502
765.0175201
752.9212109
739.7745715
726.0269204
712.212014
782.6957279
777.9796274
771.0287502
762.0709271
751.369213
739.237922
726.0535205
712.2654354
698.4068933
769.2884309
764.5637145
757.6006612
748.6280016
737.9096329
725.760487
712.5572325
698.7488965
684.8675453
756.0420944
751.3149711
744.3489307
735.3733509
724.6526915
712.5021726
699.2982685
685.4891215
671.6050361
742.9709133
738.2473331
731.287111
722.320031
711.610848
699.4747566
686.2876601
672.4963551
658.628812
730.0877429
725.3733862
718.4273893
709.479713
698.7951528
686.68858
673.5349706
659.7793394
645.9467794
717.4041304
712.7044009
705.7806267
696.862727
686.2152974
674.1526048
661.0483615
647.3453893
633.5653892
704.9303538
700.2503733
693.3564022
684.4781118
673.8796707
661.8744772
648.8346634
635.2004702
621.4897225
692.6754653
688.020071
681.1630626
672.3336695
661.7954197
649.8605944
636.8994486
623.3492787
609.7235787
680.6473394
676.0210842
669.2077779
660.436025
649.9685132
638.1161735
625.2471063
611.7953236
598.2695631
668.852728
664.2598825
657.4965993
648.7906878
638.4038074
626.6453219
613.8809183
600.5410078
587.1291741
657.297317
652.7418723
646.0345203
637.4021149
627.1051129
615.4511087
602.8031352
589.5877086
576.3028898
645.985784
641.4714569
634.8255374
626.2737754
616.0752625
604.5356359
592.0150513
578.9358577
565.7902515
634.9218583
630.4520967
623.872713
615.4082151
605.3161783
593.9001088
581.517079
568.585019
555.5899456
624.10838
619.6863699
613.1782375
604.8071204
594.8289384
583.5449055
571.3088206
558.5339638
545.6998825
613.5473601
609.1760335
602.7434913
594.4713826
584.6138423
573.4696443
561.3891389
548.7807437
536.1172717
603.2400398
598.9220828
592.5691055
584.4011591
574.6704746
563.6732495
551.7562243
539.3227603
526.8386946
593.1869482
588.9248103
582.6550213
574.5959343
564.9977669
554.1540141
542.4076598
530.1568316
517.8601722
583.3879588
579.1838619
573.0005475
565.0545778
555.5940564
544.9096606
533.3404823
521.279255
509.1772302
573.8423435
569.6982919
563.604415
555.7753999
546.4571431
535.9373984
524.5512423
512.6858672
500.7849602
564.5488238
560.4666136
554.4648287
546.7562033
537.5843422
527.2339789
516.0360609
504.3721051
492.6780777
555.5056177
551.4868466
545.5795137
537.9943297
528.97253
518.7957408
507.7906766
496.3330535
484.8509757
546.7104817
542.7565566
536.9457549
529.4866999
520.6181807
510.6186525
499.8104981
488.5635094
477.2977821
538.1607455
534.2728847
528.5604245
521.2298548
512.5174701
502.6984288
492.090686
481.0580026
470.0123808
529.8534289
526.0326992
520.4201647
513.2201217
504.6662914
495.0304703
484.6260956
473.8108178
462.9884647
521.7852729
518.0325849
512.5213158
505.4535154
497.0602683
487.6099443
477.4113897
466.8160758
456.2195845
513.9527361
510.2688488
504.8599552
497.9258104
489.6948075
480.43183
470.4410708
460.0677623
449.6991807
506.3520312