/*--------------------------------*- C++ -*----------------------------------*\
| =========                 |                                                 |
| \\      /  F ield         | OpenFOAM: The Open Source CFD Toolbox           |
|  \\    /   O peration     | Version:  2212                                  |
|   \\  /    A nd           | Website:  www.openfoam.com                      |
|    \\/     M anipulation  |                                                 |
\*---------------------------------------------------------------------------*/
FoamFile
{
    version     2.0;
    format      ascii;
    arch        "LSB;label=32;scalar=64";
    class       volVectorField;
    location    "20.00000000";
    object      U_0;
}
// * * * * * * * * * * * * * * * * * * * * * * * * * * * * * * * * * * * * * //

dimensions      [0 1 -1 0 0 0 0];

internalField   nonuniform List<vector> 
3000
(
(0.2258320961 -0.006205184515 4.112767101e-12)
(0.2263785802 -0.01059112049 8.420524813e-12)
(0.2275488835 -0.01648378398 1.714776737e-11)
(0.2295358478 -0.02418569698 3.503055777e-11)
(0.2324612658 -0.03388575974 6.668980507e-11)
(0.2359847548 -0.04674732406 2.690586825e-11)
(0.2369907328 -0.05738615573 1.039999882e-11)
(0.2239060299 -0.06941773698 4.530587344e-12)
(0.1532010386 -0.03378186958 1.094426151e-12)
(0.2441540054 -0.01339122296 1.790121511e-11)
(0.247338346 -0.0219329694 3.46692319e-11)
(0.2517030655 -0.0316550653 6.071949654e-11)
(0.2572723147 -0.04166804173 1.009314609e-10)
(0.2629097273 -0.05095800358 1.51032845e-10)
(0.2648296608 -0.05812024774 7.864968323e-11)
(0.2560062235 -0.056558455 3.75833647e-11)
(0.2192144024 -0.04761831885 1.553670012e-11)
(0.1247141743 -0.01315752785 4.225578422e-12)
(0.2734155213 -0.01793071769 3.320879049e-11)
(0.2766651966 -0.02833285472 6.135804661e-11)
(0.2804936752 -0.03898169127 1.008473154e-10)
(0.2834199847 -0.04808619505 1.558980689e-10)
(0.2823711575 -0.05413457746 2.340572133e-10)
(0.2718834654 -0.0548957454 1.177087289e-10)
(0.2439724778 -0.04724020534 5.775036216e-11)
(0.1827079492 -0.03116589663 2.709848533e-11)
(0.07871902706 -0.005741693425 7.642862681e-12)
(0.3054532674 -0.01777730791 3.605337447e-11)
(0.3075125455 -0.02738132441 6.808258111e-11)
(0.30884111 -0.03624567672 1.217301443e-10)
(0.3069037874 -0.04232077833 1.861625965e-10)
(0.2977867739 -0.04429506699 2.551335681e-10)
(0.2758490728 -0.04109553834 1.436121399e-10)
(0.234321974 -0.03081036649 7.732989513e-11)
(0.1646842172 -0.0163319556 3.803463693e-11)
(0.06528133333 -0.002194839233 1.081750143e-11)
(0.3337068855 -0.01595574961 -5.347691988e-11)
(0.3330466432 -0.02406609778 -1.337080233e-10)
(0.3298559562 -0.03085257519 5.102218505e-11)
(0.3211348093 -0.03439723043 1.379418339e-10)
(0.3030328231 -0.03399556092 1.700882226e-10)
(0.2707359867 -0.02913582274 1.25843976e-10)
(0.2199766664 -0.0199781594 7.917777368e-11)
(0.1473239006 -0.009194157319 4.210122063e-11)
(0.05425015935 -0.0008385294457 1.229344268e-11)
(0.3579706612 -0.01311663708 -2.730374416e-11)
(0.3542797502 -0.01940005659 -2.468103121e-11)
(0.3464232119 -0.02419098532 6.504384087e-11)
(0.3314728737 -0.02593072151 1.455822119e-10)
(0.3061254362 -0.02440978806 2.179922294e-10)
(0.266896575 -0.01964790581 1.371007589e-10)
(0.2113390838 -0.01256738789 8.45491768e-11)
(0.138421191 -0.005218914106 4.538471602e-11)
(0.05001085077 -0.0003871558905 1.335791258e-11)
(0.3765144731 -0.01034113653 -8.307495748e-11)
(0.3697893328 -0.01506350938 -1.675592611e-10)
(0.3575131977 -0.01836399281 1.072523137e-11)
(0.3371388853 -0.01907336804 1.034184256e-10)
(0.30609442 -0.01728715586 1.440121601e-10)
(0.2620463193 -0.01328404767 1.180701101e-10)
(0.2037818547 -0.008072609883 8.215306136e-11)
(0.1314124263 -0.003121254223 4.757855531e-11)
(0.04673083834 -0.0001561729351 1.454882524e-11)
(0.3909314559 -0.00788112923 -4.762238864e-11)
(0.3815710712 -0.01132152751 -5.443567707e-11)
(0.3656183486 -0.01354171472 2.563884413e-11)
(0.3410231512 -0.01370472515 1.107039864e-10)
(0.3059041357 -0.01205273491 1.921388782e-10)
(0.2587805106 -0.008944316518 1.38302767e-10)
(0.1991410914 -0.0052484851 1.015231784e-10)
(0.1274703774 -0.001951077207 6.483995221e-11)
(0.04516266744 -9.440627339e-05 2.040649374e-11)
(0.401417636 -0.005898111359 -5.252445984e-11)
(0.3898679171 -0.008383959193 -9.132209237e-11)
(0.3709595737 -0.009877247226 -1.784323484e-10)
(0.3431388269 -0.009795956452 -9.160864283e-11)
(0.3050978575 -0.008421018484 8.464852281e-11)
(0.2559456898 -0.006093304934 1.359270162e-10)
(0.1955599808 -0.0034866004 1.940978836e-10)
(0.1245269501 -0.001257870003 1.423672792e-10)
(0.04395311432 -4.63370649e-05 3.803584986e-11)
(0.4092169942 -0.004360095279 -4.027665242e-11)
(0.3959411893 -0.006140983282 -5.915445197e-11)
(0.3747663071 -0.007146781217 -6.667515218e-11)
(0.3445745189 -0.006976832934 -1.536715052e-11)
(0.3044971795 -0.005896462475 6.240511413e-11)
(0.2540313336 -0.004192323747 9.869030855e-11)
(0.1932515125 -0.002363400762 1.08711913e-10)
(0.1227142906 -0.0008440186907 7.775679217e-11)
(0.04326887066 -3.412986912e-05 2.422177219e-11)
(0.4148066869 -0.003203235041 5.98673784e-11)
(0.4001989284 -0.004481515979 1.700254006e-10)
(0.3773119211 -0.005167117831 5.799839046e-11)
(0.345385413 -0.004985312514 7.509956746e-11)
(0.3038755881 -0.004162140442 1.669394525e-10)
(0.2525334135 -0.002923689639 1.117545918e-10)
(0.1915330198 -0.001631214748 8.706993986e-11)
(0.1213766112 -0.0005769343825 5.646419254e-11)
(0.04274514016 -2.061804926e-05 1.789619205e-11)
(0.4188896347 -0.002347810495 5.905190286e-11)
(0.4032761193 -0.003266731693 9.222715862e-11)
(0.3791188441 -0.00373992535 7.024904151e-11)
(0.3459382384 -0.003577597726 7.668838438e-11)
(0.3034248449 -0.002961980221 1.032573662e-10)
(0.2514946867 -0.002065240185 9.711523527e-11)
(0.1903688178 -0.001147017608 8.551126053e-11)
(0.120490095 -0.000406105858 6.011069523e-11)
(0.0424119876 -1.62056713e-05 1.960051417e-11)
(0.4218137707 -0.001720957157 1.108217023e-11)
(0.4054482163 -0.002385627171 -1.758117232e-11)
(0.3803536625 -0.002717490853 -1.416806821e-10)
(0.3462651449 -0.002584319735 -8.47729814e-11)
(0.3030412955 -0.002127965792 4.088477809e-11)
(0.2507072657 -0.001477056728 9.458314407e-11)
(0.1895064276 -0.0008181564561 1.350905075e-10)
(0.1198337057 -0.0002894526733 1.197473769e-10)
(0.04215847495 -1.112044219e-05 3.220333286e-11)
(0.4239374429 -0.001264363603 -1.017196097e-11)
(0.4070143552 -0.001747762558 -2.988862994e-11)
(0.381232236 -0.001983994178 -5.730823328e-11)
(0.3464874277 -0.001879621486 -2.691678395e-11)
(0.3027586753 -0.001542863215 3.184179374e-11)
(0.2501441619 -0.001068844366 6.72676024e-11)
(0.1888971664 -0.000592268194 7.816167382e-11)
(0.1193743829 -0.0002104629611 5.452244191e-11)
(0.04198436546 -8.731021102e-06 1.694883122e-11)
(0.4254640483 -0.0009318527446 -1.099315483e-11)
(0.4081291091 -0.001285978835 -1.701351983e-11)
(0.3818430005 -0.001456658539 -1.107994059e-11)
(0.3466221036 -0.00137703907 2.981546124e-11)
(0.3025313603 -0.001128659981 1.035288831e-10)
(0.2497189389 -0.0007815247304 6.782023306e-11)
(0.1884426839 -0.0004337271949 3.604193667e-11)
(0.1190310826 -0.0001544759083 -2.523720679e-11)
(0.04185207941 -6.178499583e-06 -1.827697796e-12)
(0.4265714607 -0.000689762618 -5.012920851e-12)
(0.4089330874 -0.0009508805449 -3.43061536e-12)
(0.3822778621 -0.001075831812 8.645744818e-12)
(0.3467109905 -0.001016091677 3.441481104e-11)
(0.30235949 -0.0008327610185 6.011643423e-11)
(0.2494063391 -0.00057719896 4.874365591e-11)
(0.1881112317 -0.0003218070541 2.879279108e-11)
(0.1187823114 -0.0001150578585 7.831220237e-12)
(0.04175702729 -4.327225239e-06 2.05344459e-12)
(0.4273702134 -0.0005129002294 7.447125809e-13)
(0.4095084242 -0.0007067841372 5.346277281e-12)
(0.3825825927 -0.0007993201915 1.594900707e-11)
(0.3467634849 -0.0007548726003 3.05423789e-11)
(0.3022230944 -0.0006190933214 4.020173948e-11)
(0.2491691329 -0.0004297325204 3.508848795e-11)
(0.1878618468 -0.0002406698375 2.331956603e-11)
(0.1185960037 -8.62002417e-05 1.132032959e-11)
(0.04168511279 -2.855592336e-06 3.130622209e-12)
(0.4279492821 -0.0003833608762 4.411330027e-12)
(0.4099229873 -0.00052821442 9.747342397e-12)
(0.3827985558 -0.0005973510058 1.773676857e-11)
(0.3467951087 -0.0005642983422 2.593894134e-11)
(0.3021173988 -0.0004631249659 2.971018671e-11)
(0.2489909247 -0.0003218284654 2.618925096e-11)
(0.1876760099 -0.0001805057775 1.846986746e-11)
(0.1184578791 -6.4738134e-05 1.008401976e-11)
(0.04163196818 -2.179288726e-06 2.920065764e-12)
(0.4283676418 -0.0002881436829 6.148242133e-12)
(0.4102200829 -0.0003970616113 1.12228158e-11)
(0.382949608 -0.0004490710422 1.694384811e-11)
(0.3468110414 -0.0004243223653 2.146587696e-11)
(0.3020331653 -0.0003482550776 2.249383168e-11)
(0.2488544129 -0.0002419448702 1.929553053e-11)
(0.1875351277 -0.0001352119472 1.358607071e-11)
(0.1183533658 -4.829640979e-05 7.470193022e-12)
(0.04159157598 -1.720576471e-06 2.145393344e-12)
(0.4286715335 -0.0002181608584 6.375694684e-12)
(0.4104344688 -0.0003006525315 1.056653633e-11)
(0.3830564218 -0.0003400074014 1.407672177e-11)
(0.3468186491 -0.0003211766588 1.549743096e-11)
(0.3019676794 -0.00026320402 1.401101556e-11)
(0.2487514096 -0.0001822930815 1.024148902e-11)
(0.1874302043 -0.0001005282673 6.057737811e-12)
(0.1182762834 -3.533502246e-05 2.676158357e-12)
(0.04156174884 -1.443342723e-06 6.017948472e-13)
(0.4288936938 -0.0001669144698 4.933276591e-12)
(0.4105903507 -0.0002300297728 7.087320318e-12)
(0.3831327674 -0.0002600262231 6.275358141e-12)
(0.3468218533 -0.0002453167497 -3.135760291e-12)
(0.3019173564 -0.0002002564051 -1.241888325e-11)
(0.248674073 -0.0001376181116 -1.726853982e-11)
(0.1873526713 -7.354932353e-05 -1.371188148e-11)
(0.1182190251 -2.482243299e-05 -8.574707349e-12)
(0.04153982358 -1.258205043e-06 -2.793752499e-12)
(0.4290608706 -0.0001302392219 1.215652148e-11)
(0.4107083207 -0.0001795491102 2.869917106e-11)
(0.3831918003 -0.0002029600129 5.551669293e-11)
(0.3468269142 -0.0001912703864 -1.375596168e-10)
(0.3018833583 -0.0001555460074 -1.799783181e-10)
(0.2486206342 -0.0001057812101 -1.531571203e-10)
(0.1872999501 -5.502767023e-05 -7.124691014e-11)
(0.1181797405 -1.665189687e-05 -3.19472206e-11)
(0.04152450289 1.074838194e-07 -8.773920898e-12)
(0.4291949804 -0.0001050931059 2.260034313e-12)
(0.4108056532 -0.0001450381901 -3.280393438e-13)
(0.3832451002 -0.0001641657433 -1.871753718e-11)
(0.346840054 -0.0001547388991 -9.433343848e-11)
(0.3018675123 -0.0001260891373 -1.205912782e-10)
(0.2485907515 -8.57720779e-05 -1.069696414e-10)
(0.1872706323 -4.560406504e-05 -6.760317419e-11)
(0.1181608332 -1.276080512e-05 -3.506093565e-11)
(0.04151671311 -2.569319003e-07 -1.007415818e-11)
(0.4293159363 -9.018173379e-05 -6.948950285e-12)
(0.4108990046 -0.000124999022 -1.764976974e-11)
(0.3833055785 -0.0001423804844 -3.902434217e-11)
(0.3468712291 -0.0001353720237 -7.202086542e-11)
(0.3018792272 -0.0001112338163 -8.424989218e-11)
(0.2485927649 -7.561353181e-05 -7.4928752e-11)
(0.1872711083 -4.087635753e-05 -5.316085173e-11)
(0.1181638703 -1.054649803e-05 -3.017783818e-11)
(0.04152015472 -2.311872879e-06 -8.94808474e-12)
(0.4294454855 -8.45439899e-05 -1.185431117e-11)
(0.4110077245 -0.0001180744735 -2.382835688e-11)
(0.3833893252 -0.0001359955632 -4.055131265e-11)
(0.3469318648 -0.0001311696257 -5.784923582e-11)
(0.3019211968 -0.0001095036468 -6.477523709e-11)
(0.248624782 -7.466650295e-05 -5.847846676e-11)
(0.1872996412 -4.086931072e-05 -4.300543914e-11)
(0.1181889882 -8.87264693e-06 -2.483973079e-11)
(0.0415346165 -3.787511347e-06 -7.414515001e-12)
(0.4296049952 -8.724409586e-05 -1.365104919e-11)
(0.4111509607 -0.0001227652291 -2.461230894e-11)
(0.3835128372 -0.0001429477435 -3.687412629e-11)
(0.3470369571 -0.0001395775883 -4.692923791e-11)
(0.3020116537 -0.0001188058001 -5.003571357e-11)
(0.2487042807 -8.296912942e-05 -4.476302418e-11)
(0.1873701728 -4.782002995e-05 -3.32889897e-11)
(0.1182442129 -9.979507209e-06 -1.94428869e-11)
(0.04156126802 -6.327248727e-06 -5.839478052e-12)
(0.4298195116 -9.928417394e-05 -1.369858653e-11)
(0.4113520669 -0.0001409056241 -2.316136355e-11)
(0.3836973308 -0.0001661236933 -3.213568023e-11)
(0.3472054997 -0.0001648336733 -3.825686846e-11)
(0.3021666323 -0.0001433841472 -3.918183332e-11)
(0.2488460909 -0.000102654871 -3.44657981e-11)
(0.1874942788 -6.185251715e-05 -2.565424305e-11)
(0.1183372739 -1.290228302e-05 -1.508179815e-11)
(0.04160356907 -9.936611653e-06 -4.549258192e-12)
(0.430121423 -0.0001216402909 -1.28591342e-11)
(0.4116425227 -0.0001740088123 -2.089122291e-11)
(0.3839730947 -0.0002075415592 -2.762892816e-11)
(0.3474660573 -0.0002091769484 -3.163361593e-11)
(0.302411481 -0.0001855779889 -3.155090805e-11)
(0.2490713497 -0.0001356983112 -2.739322057e-11)
(0.1876900199 -8.445806161e-05 -2.034022756e-11)
(0.1184819705 -1.842400863e-05 -1.198873438e-11)
(0.04166736226 -1.518707785e-05 -3.627482207e-12)
(0.4305495662 -0.0001555635481 -1.107572911e-11)
(0.4120601875 -0.0002239239789 -1.735637647e-11)
(0.3843765421 -0.0002694679934 -2.244436436e-11)
(0.3478531184 -0.000274879087 -2.921272404e-11)
(0.3027784312 -0.0002475744005 -2.832207429e-11)
(0.2494091296 -0.0001843574949 -2.390110245e-11)
(0.1879811271 -0.0001177682965 -1.747634795e-11)
(0.1186943191 -2.748724455e-05 -1.024202633e-11)
(0.04175864132 -2.252264818e-05 -3.098858705e-12)
(0.4311521806 -0.0002024256574 7.810433864e-12)
(0.4126524724 -0.0002926749108 2.409189375e-11)
(0.3849537476 -0.0003544322684 8.213761255e-11)
(0.3484107478 -0.0003646983926 -9.333202731e-11)
(0.303308489 -0.0003320625573 -4.808955447e-11)
(0.2498958174 -0.000250797975 -2.837806641e-11)
(0.1883972427 -0.0001632708082 -1.792322188e-11)
(0.1189944899 -4.056216351e-05 -9.902874738e-12)
(0.04188498405 -3.234000395e-05 -2.936459451e-12)
(0.4319874161 -0.0002634673442 1.098113261e-11)
(0.4134767572 -0.0003820644764 1.74625982e-11)
(0.3857607553 -0.0004646180013 1.481924873e-11)
(0.3491927751 -0.0004809019521 -3.375936182e-11)
(0.304051895 -0.0004411233843 -3.154418981e-11)
(0.2505759704 -0.0003366406086 -2.388706422e-11)
(0.1889743421 -0.0002220734731 -1.6162061e-11)
(0.1194066125 -5.797323149e-05 -9.055969343e-12)
(0.04205524214 -4.499942142e-05 -2.689005774e-12)
(0.4331247092 -0.0003396170973 7.193186795e-12)
(0.4146016939 -0.0004933973013 8.430478144e-12)
(0.3868647365 -0.0006015229843 1.335836235e-12)
(0.3502637169 -0.0006249300181 -1.650417535e-11)
(0.3050686736 -0.0005759267392 -2.09897808e-11)
(0.2515025095 -0.0004426517261 -1.85328839e-11)
(0.1897548414 -0.0002945935565 -1.347720297e-11)
(0.119958905 -7.974404866e-05 -7.831702122e-12)
(0.04227963433 -6.078623481e-05 -2.363261232e-12)
(0.4346452347 -0.000431223495 2.752403142e-12)
(0.4161075986 -0.0006270849261 1.691703362e-12)
(0.3883442896 -0.0007654574535 -3.828302057e-12)
(0.3516989596 -0.000796850181 -1.215530959e-11)
(0.3064287061 -0.000736217881 -1.572776321e-11)
(0.2527366699 -0.0005683594499 -1.493320779e-11)
(0.1907874 -0.0003803234364 -1.170867056e-11)
(0.120683403 -0.0001055218199 -7.273889757e-12)
(0.04256958808 -7.987348646e-05 -2.268485851e-12)
(0.4366422121 -0.0005378310666 -3.709091435e-13)
(0.4180866786 -0.0007823148967 -2.383977717e-12)
(0.390289541 -0.0009551398097 -6.548954315e-12)
(0.353584693 -0.0009949407723 -1.148265932e-11)
(0.3082114786 -0.0009199395904 -1.44867835e-11)
(0.2543475826 -0.0007117624333 -1.525448124e-11)
(0.1921264325 -0.0004776398021 -1.40356141e-11)
(0.1216155405 -0.0001345154201 -9.90376282e-12)
(0.04293757297 -0.0001022945824 -3.021316423e-12)
(0.4392206483 -0.0006579649895 -4.285171013e-12)
(0.4206427001 -0.0009567446183 -7.174449169e-12)
(0.3928016919 -0.001167336579 -1.087110267e-11)
(0.3560173 -0.001215338715 -1.548324171e-11)
(0.310505307 -0.001122941206 -2.077334338e-11)
(0.2564113768 -0.0008691396524 -2.708353458e-11)
(0.1938312137 -0.0005837116102 -3.251829925e-11)
(0.1227934412 -0.000165484826 -2.494723296e-11)
(0.04339682065 -0.0001279252446 -4.659075328e-12)
(0.4424966928 -0.0007889753265 -2.86995223e-10)
(0.4238902481 -0.001146288611 -9.65415483e-11)
(0.3959921275 -0.001396634211 -4.496321318e-11)
(0.3591022807 -0.001451849866 -3.56412578e-11)
(0.3134060861 -0.001338869492 -4.482329566e-11)
(0.259009833 -0.001035029911 -7.104818408e-11)
(0.1959646233 -0.0006945448635 -1.221494116e-10)
(0.1242569852 -0.0001967931086 -8.724849363e-11)
(0.0439609795 -0.0001564821097 7.59668257e-12)
(0.446596516 -0.0009269530808 -1.170722617e-10)
(0.4279534865 -0.001345021867 -8.125922897e-11)
(0.3999809976 -0.001635372957 -5.46709403e-11)
(0.362952623 -0.001695954669 -4.625954469e-11)
(0.3170154856 -0.001559271143 -5.005296304e-11)
(0.2622285376 -0.001202401356 -6.031400293e-11)
(0.1985915011 -0.0008051715782 -6.707077224e-11)
(0.1260466374 -0.0002265156785 -4.602695731e-11)
(0.04464369003 -0.0001875343671 -9.647271301e-12)
(0.4516547533 -0.001066746878 -6.044221572e-11)
(0.4329644473 -0.001545239397 -6.055124554e-11)
(0.4048952787 -0.001873789157 -5.206248421e-11)
(0.3676866254 -0.001937053224 -4.730719928e-11)
(0.3214386122 -0.001773938175 -4.676719774e-11)
(0.2661545771 -0.001363022391 -4.67317543e-11)
(0.2017766736 -0.0009099770002 -4.174480855e-11)
(0.1282021004 -0.0002525961433 -2.701061026e-11)
(0.04545811298 -0.0002205279581 -7.862122268e-12)
(0.4578124852 -0.001202097247 -3.752956569e-11)
(0.4390608077 -0.001737694834 -4.57768772e-11)
(0.4108662782 -0.002100388854 -4.550843822e-11)
(0.3734251443 -0.002162962108 -4.336093105e-11)
(0.3267811376 -0.001971489812 -4.090513029e-11)
(0.2708738152 -0.001508009132 -3.683249385e-11)
(0.2055827176 -0.001003129363 -2.934772446e-11)
(0.1307608548 -0.0002730246709 -1.810864631e-11)
(0.04641643242 -0.0002548169592 -5.492532035e-12)
(0.465214729 -0.001325901839 -2.643262979e-11)
(0.4463831316 -0.001912032529 -3.567589297e-11)
(0.4180265649 -0.002302558182 -3.846163582e-11)
(0.3802882831 -0.002360651271 -3.774429799e-11)
(0.3331459582 -0.002140154897 -3.487115237e-11)
(0.2764678587 -0.001628498778 -2.986958505e-11)
(0.2100675823 -0.001079060225 -2.257351497e-11)
(0.1337566838 -0.0002860129208 -1.3551121e-11)
(0.0475293717 -0.0002896982994 -4.113464362e-12)
(0.4740073865 -0.001430611081 -2.014012422e-11)
(0.4550715322 -0.002057404897 -2.867605955e-11)
(0.4265063199 -0.002467384935 -3.248133885e-11)
(0.3883915699 -0.002517171608 -3.273487276e-11)
(0.3406294951 -0.002268682137 -3.02391572e-11)
(0.2830108648 -0.001716371492 -2.591097388e-11)
(0.2152822173 -0.001132931281 -1.94605557e-11)
(0.137218282 -0.0002901399372 -1.166417084e-11)
(0.04880575616 -0.0003244452542 -3.558453637e-12)
(0.4843335764 -0.001508738922 -1.68882264e-11)
(0.4652617202 -0.00216324271 -2.53650379e-11)
(0.4364291338 -0.002582633403 -3.11073828e-11)
(0.3978417322 -0.002620689722 -3.416370755e-11)
(0.3493178119 -0.002347278565 -2.857996413e-11)
(0.2905663866 -0.001764932372 -2.884933513e-11)
(0.2212683736 -0.00116102748 -2.17722619e-11)
(0.1411680472 -0.0002844519999 -1.287402701e-11)
(0.05025215242 -0.0003583371897 -3.906901291e-12)
(0.4963292978 -0.001553451552 -2.052178655e-11)
(0.4770804481 -0.002220114457 -3.683790459e-11)
(0.4479073521 -0.002637777406 -6.410287709e-11)
(0.4087322548 -0.002661513513 -1.25917348e-10)
(0.3592827862 -0.00236845872 8.129006509e-12)
(0.2991844821 -0.001769464269 -7.141106314e-11)
(0.2280567385 -0.001161027871 -3.603401226e-11)
(0.1456211348 -0.0002685076522 -1.793667449e-11)
(0.05187260588 -0.000390683047 -5.083099494e-12)
(0.5101184006 -0.001559178149 -2.135757901e-11)
(0.4906404111 -0.002220584824 -3.59113856e-11)
(0.4610371305 -0.002624972061 -5.095096059e-11)
(0.4211389658 -0.002632979832 -6.12155797e-11)
(0.3705785964 -0.002327694482 -3.500675025e-11)
(0.3088992937 -0.001727584495 -4.025747402e-11)
(0.235665525 -0.001132131013 -2.861184924e-11)
(0.150584821 -0.0002423711099 -1.59182289e-11)
(0.05366848266 -0.0004208382339 -4.659795835e-12)
(0.5258069722 -0.001522167095 -1.998301211e-11)
(0.5060348078 -0.00215995971 -3.161115216e-11)
(0.4758934952 -0.002539828717 -4.015052322e-11)
(0.435115977 -0.002532075823 -4.24402617e-11)
(0.3832388099 -0.002223773719 -3.512480861e-11)
(0.319727287 -0.001639361843 -3.057324027e-11)
(0.2440996107 -0.001075029039 -2.226177506e-11)
(0.1560582019 -0.0002065601749 -1.281209968e-11)
(0.05563841791 -0.0004482133319 -3.804642335e-12)
(0.543477332 -0.001440909253 -1.760317589e-11)
(0.5233318274 -0.002036807711 -2.691221293e-11)
(0.4925257175 -0.002381877511 -3.258554672e-11)
(0.4506922663 -0.002359706042 -3.343122382e-11)
(0.3972742651 -0.002058830084 -2.971216819e-11)
(0.3316662313 -0.001507200949 -2.450582147e-11)
(0.253350225 -0.0009917592035 -1.765944693e-11)
(0.1620322093 -0.0001619729171 -1.020827306e-11)
(0.05777835042 -0.0004722801462 -3.042560176e-12)
(0.563182113 -0.001316353846 -1.48401133e-11)
(0.5425695656 -0.001853167582 -2.233529452e-11)
(0.5109534753 -0.002154637607 -2.65490696e-11)
(0.4678692686 -0.002120563244 -2.705400593e-11)
(0.4126719709 -0.001838045247 -2.443947059e-11)
(0.3446950185 -0.001335516668 -2.000947937e-11)
(0.2633952126 -0.0008854466079 -1.444441025e-11)
(0.1684899584 -0.000109810462 -8.430491228e-12)
(0.06008161487 -0.0004925848786 -2.533461698e-12)
(0.5849388783 -0.001151871895 -1.220489674e-11)
(0.5637517612 -0.001614392854 -1.830055461e-11)
(0.5311640627 -0.001865275109 -2.173361192e-11)
(0.4866195623 -0.00182263063 -2.236151026e-11)
(0.4293949494 -0.00156909613 -2.069674013e-11)
(0.3587741575 -0.001130296346 -1.748889475e-11)
(0.274199705 -0.0007600248013 -1.320258562e-11)
(0.1754074405 -5.163777944e-05 -8.075384148e-12)
(0.06253900816 -0.0005088488852 -2.489189775e-12)
(0.6087261165 -0.0009529738851 -1.060962949e-11)
(0.5868450699 -0.001328675014 -1.590858503e-11)
(0.5531111919 -0.001523935071 -1.916767572e-11)
(0.5068870286 -0.001476431245 -2.050683451e-11)
(0.447383294 -0.00126145235 -2.04051375e-11)
(0.3738471752 -0.0008985907597 -1.921933988e-11)
(0.2857174756 -0.0006197079151 -1.658161441e-11)
(0.1827547591 1.033122577e-05 -1.119918539e-11)
(0.06513831099 -0.0005216367533 -3.467805528e-12)
(0.6344809662 -0.0007267873025 -1.753455879e-11)
(0.6117779998 -0.001006241615 -2.083383212e-11)
(0.5767152187 -0.001142734496 -2.27719969e-11)
(0.5285880286 -0.001093982704 -2.476547114e-11)
(0.466555748 -0.0009254608603 -2.750521034e-11)
(0.3898419891 -0.000647802434 -3.112000938e-11)
(0.2978920063 -0.0004681907678 -3.333676176e-11)
(0.1904941866 7.134328736e-05 -2.366458119e-11)
(0.0678678632 -0.0005340824377 -5.974886775e-12)
(0.6620994979 -0.0004814545545 -1.939115498e-10)
(0.6384421467 -0.0006585245281 -7.31527897e-11)
(0.6018652953 -0.0007348466047 -4.455353406e-11)
(0.5516141299 -0.000687993194 -3.922273155e-11)
(0.4868125453 -0.0005718655307 -4.48505315e-11)
(0.4066735706 -0.0003850681505 -6.10264618e-11)
(0.3106588233 -0.0003111088095 -9.49171246e-11)
(0.1985828908 0.0001320311806 -5.255813894e-11)
(0.0707141762 -0.0005431353436 2.430272049e-12)
(0.6914393289 -0.0002254766975 -7.353817946e-11)
(0.666695369 -0.0002972033432 -6.004779203e-11)
(0.6284228568 -0.0003133495423 -4.793666161e-11)
(0.5758354291 -0.0002706953365 -4.351633693e-11)
(0.508037948 -0.0002106785435 -4.496919599e-11)
(0.4242461969 -0.0001161640002 -4.922395084e-11)
(0.3239420789 -0.000153932921 -5.046068725e-11)
(0.2069807727 0.0001898177756 -3.346868301e-11)
(0.07366122436 -0.0005482167772 -8.512594814e-12)
(0.7223252011 3.291227615e-05 -3.958342761e-11)
(0.6963672512 6.645057106e-05 -4.43772225e-11)
(0.656226669 0.0001091458011 -4.208954851e-11)
(0.6011049605 0.0001457838262 -3.965677514e-11)
(0.5301043196 0.0001488134074 -3.813165063e-11)
(0.4424559025 0.0001474292329 -3.598576013e-11)
(0.3376642883 6.965126484e-06 -3.057897917e-11)
(0.2156405204 0.000250559494 -1.955150099e-11)
(0.07669288073 -0.0005520867094 -5.821464764e-12)
(0.7545541505 0.0002860733637 -2.492976209e-11)
(0.7272639336 0.0004218999204 -3.231634868e-11)
(0.6850972933 0.0005209038038 -3.37712334e-11)
(0.6272628012 0.0005505762115 -3.26058445e-11)
(0.552875998 0.0004979315642 -3.007955279e-11)
(0.4611934999 0.0004002247717 -2.604917391e-11)
(0.3517524227 0.0001676943395 -2.004042551e-11)
(0.2245064835 0.0003126006155 -1.215107123e-11)
(0.07979189136 -0.0005544957688 -3.66410478e-12)
(0.7879009214 0.0005273628257 -1.689713533e-11)
(0.7591731556 0.0007601456026 -2.343114738e-11)
(0.7148415225 0.0009121087575 -2.571602725e-11)
(0.6541395857 0.0009350139415 -2.508431885e-11)
(0.5762109137 0.0008293151805 -2.250548702e-11)
(0.4803464703 0.0006417973167 -1.846720554e-11)
(0.3661242257 0.0003193968039 -1.3352121e-11)
(0.233529944 0.0003691765217 -7.731412377e-12)
(0.08294168117 -0.0005533014564 -2.291461225e-12)
(0.8221282473 0.0007517213391 -1.164298205e-11)
(0.7918733503 0.00107447928 -1.656084941e-11)
(0.7452598411 0.00127551489 -1.841409499e-11)
(0.6815622524 0.001292426816 -1.771727287e-11)
(0.5999650156 0.001137555722 -1.523363779e-11)
(0.49980187 0.0008676346905 -1.169371773e-11)
(0.3806948917 0.0004604379252 -7.717507798e-12)
(0.242664832 0.0004204508893 -4.058863821e-12)
(0.08612583878 -0.0005490114249 -1.125853789e-12)
(0.8569955664 0.0009555302985 -7.460277422e-12)
(0.8251411152 0.001360116014 -1.0437124e-11)
(0.7761523627 0.001605957551 -1.102851128e-11)
(0.7093585502 0.001618019486 -9.515429458e-12)
(0.6239959879 0.001418812649 -6.801797815e-12)
(0.5194484444 0.001074584961 -3.941669342e-12)
(0.3953848613 0.0005895917673 -7.898729357e-13)
(0.2518627814 0.0004662110521 8.352166253e-13)
(0.08932802091 -0.0005421214838 4.659025409e-13)
(0.8922654418 0.001136529371 -3.163542698e-12)
(0.858756699 0.001614042929 -3.484756945e-12)
(0.8073233019 0.001900156295 -1.429699978e-12)
(0.7373605084 0.00190868339 2.585002759e-12)
(0.6481656474 0.001670560229 5.949566206e-12)
(0.5391785201 0.001260596126 5.478062111e-12)
(0.4101173266 0.0007061125047 1.081367752e-11)
(0.2610776529 0.0005062958327 1.151953837e-11)
(0.09253214444 -0.0005331904105 3.755620823e-12)
(0.9277095992 0.001293593971 1.81393312e-12)
(0.8925092033 0.001834752283 5.305940333e-12)
(0.8385851822 0.002156450261 1.241090495e-11)
(0.7654076763 0.002162796755 2.209038511e-11)
(0.6723423045 0.001891457633 2.432618676e-11)
(0.5588896621 0.001424576182 2.522102619e-12)
(0.4248191825 0.0008099409485 2.928501743e-11)
(0.2702646922 0.0005392211958 4.942814541e-11)
(0.0957242978 -0.0005240721382 1.164677043e-11)
(0.9631135043 0.001426522286 4.794766303e-12)
(0.9262005475 0.00202195276 9.406704818e-12)
(0.8697620701 0.002374478579 1.590123607e-11)
(0.7933496404 0.00237990892 2.29308363e-11)
(0.6964026507 0.002081043663 2.536943097e-11)
(0.578486082 0.001566046014 1.886746705e-11)
(0.4394221134 0.0009001828322 2.231911079e-11)
(0.2793823688 0.0005670095012 1.908227541e-11)
(0.09889122661 -0.0005128107925 5.860426248e-12)
(0.9982797976 0.00153584594 5.702650954e-12)
(0.9596484681 0.002176341749 9.98728436e-12)
(0.9006920491 0.002554971361 1.465354865e-11)
(0.821047974 0.002560606501 1.862222185e-11)
(0.7202332431 0.002239730882 1.992375094e-11)
(0.5978797511 0.001685215758 1.76154287e-11)
(0.4538634452 0.000976920477 1.535355106e-11)
(0.2883936035 0.0005897496508 1.039958651e-11)
(0.1020195637 -0.0004996629767 3.275063596e-12)
(1.033030503 0.001622636206 5.323912544e-12)
(0.9926884591 0.002299345275 8.820279707e-12)
(0.931228822 0.002699462266 1.201019987e-11)
(0.8483774762 0.002706230688 1.420603994e-11)
(0.7437313854 0.002368540323 1.463944287e-11)
(0.6169909108 0.001782703315 1.311460647e-11)
(0.4680863035 0.001040520244 1.042890341e-11)
(0.2972643028 0.0006075898828 6.532861309e-12)
(0.1050978983 -0.0004849766752 2.026247923e-12)
(1.067208269 0.001688347663 4.400843678e-12)
(1.025174894 0.002392917787 7.059982687e-12)
(0.9612426852 0.002810082738 9.201741607e-12)
(0.8752269868 0.00281870285 1.042427993e-11)
(0.7668057918 0.002468978817 1.041649231e-11)
(0.6357486096 0.001859475289 9.173582195e-12)
(0.482040079 0.001091532488 7.018092605e-12)
(0.3059640695 0.0006206834337 4.253165033e-12)
(0.1081160442 -0.000469085717 1.30043388e-12)
(1.100676723 0.001734685782 3.40638397e-12)
(1.056981371 0.002459367042 5.35353293e-12)
(0.9906208402 0.002889375678 6.78446861e-12)
(0.9014996495 0.00290035909 7.470999891e-12)
(0.7893767911 0.002542914456 7.293534534e-12)
(0.6540908403 0.001916775733 6.309495134e-12)
(0.4956804976 0.001130668496 4.731512529e-12)
(0.3144662825 0.0006292590384 2.822994063e-12)
(0.1110650958 -0.0004522856034 8.56425389e-13)
(1.133320166 0.001763499704 2.572570265e-12)
(1.088000463 0.002501211566 3.992991545e-12)
(1.019267221 0.00294014138 4.976596173e-12)
(0.9271127982 0.002953809589 5.391640139e-12)
(0.8113762543 0.002592465659 5.197089463e-12)
(0.6719644971 0.001956050158 4.458369413e-12)
(0.5089695943 0.00115875846 3.324495349e-12)
(0.3227480892 0.0006336062005 1.979182216e-12)
(0.1139373971 -0.0004348343091 6.007205168e-13)
(1.165042747 0.001776696505 2.003021745e-12)
(1.118143012 0.002521063946 3.09993848e-12)
(1.047101915 0.002965307987 3.85643621e-12)
(0.9519975073 0.002981816618 4.186446405e-12)
(0.8327472594 0.002619902106 4.066038874e-12)
(0.6893251353 0.001978875612 3.53351104e-12)
(0.5218755541 0.001176714735 2.678071542e-12)
(0.3307903186 0.0006340600585 1.62132296e-12)
(0.116726515 -0.0004169560255 4.984653219e-13)
(1.19576727 0.001776173789 1.793087126e-12)
(1.147337079 0.002521537595 2.812156317e-12)
(1.07406029 0.002967825666 3.581659074e-12)
(0.9760979005 0.002987191943 4.01959966e-12)
(0.8534435652 0.002627558529 4.065744754e-12)
(0.7061365897 0.00198689738 3.688563855e-12)
(0.5343724557 0.001185496376 2.909154123e-12)
(0.3385773353 0.0006309843674 1.819886452e-12)
(0.1194271936 -0.0003988450358 5.71901078e-13)
(1.225433764 0.001763768759 2.151131342e-12)
(1.175526668 0.002505175039 3.479697604e-12)
(1.100091923 0.002950583391 4.650876767e-12)
(0.9993702819 0.002972713958 5.533564514e-12)
(0.8734289382 0.002617763424 5.937319115e-12)
(0.7223704797 0.001981775554 5.642689451e-12)
(0.5464399354 0.001186078292 4.572571e-12)
(0.3460968455 0.0006247568983 2.905454153e-12)
(0.1220352928 -0.0003806689392 9.223779827e-13)