# Region type : patch outlet
# Faces         : 10
# Area          : 3.42015068e-06
# Scale factor  : 1.00000000e+00
# Weight field  : phi
# Time          	weightedAverage(C2H2)	weightedAverage(H2)	weightedAverage(CH4)	weightedAverage(C2H4)	weightedAverage(C4H4)	weightedAverage(T)
0.25000000      	3.34006465e-01	1.99790350e-10	4.19987948e-04	1.95727545e-12	4.12952387e-08	3.62993777e+02
0.50000000      	3.34006127e-01	1.37878168e-09	4.19988030e-04	5.48954609e-11	3.45760740e-07	3.63776593e+02
0.75000000      	3.34000634e-01	3.37989040e-08	4.19991954e-04	5.60964459e-09	5.09889115e-06	3.63367091e+02
1.00000000      	3.33956050e-01	5.44340116e-07	4.20090173e-04	1.35620320e-07	3.84334279e-05	3.63264400e+02
1.25000000      	3.33764385e-01	3.95763147e-06	4.21034633e-04	1.16148037e-06	1.52897450e-04	3.63254151e+02
1.50000000      	3.33212278e-01	1.60535470e-05	4.25469341e-04	6.08335757e-06	4.19688944e-04	3.63256653e+02
1.75000000      	3.32050537e-01	4.35652132e-05	4.37964734e-04	2.08433191e-05	9.04768086e-04	3.63264160e+02
2.00000000      	3.30160502e-01	8.93120992e-05	4.62455301e-04	5.10790765e-05	1.62604875e-03	3.63278100e+02
2.25000000      	3.27635618e-01	1.50221694e-04	4.99544177e-04	9.81427087e-05	2.53931909e-03	3.63299456e+02
2.50000000      	3.24713140e-01	2.19524052e-04	5.46291111e-04	1.58302934e-04	3.56602795e-03	3.63327531e+02
2.75000000      	3.21656756e-01	2.90122410e-04	5.97953605e-04	2.24914930e-04	4.62786444e-03	3.63360063e+02
3.00000000      	3.18681556e-01	3.56625717e-04	6.49848037e-04	2.91174020e-04	5.66403917e-03	3.63394638e+02
3.25000000      	3.15935142e-01	4.15748741e-04	6.98375748e-04	3.51793635e-04	6.63232021e-03	3.63428699e+02
3.50000000      	3.13507848e-01	4.65897494e-04	7.41273923e-04	4.03521345e-04	7.50398575e-03	3.63460286e+02
3.75000000      	3.11447090e-01	5.06652276e-04	7.77463886e-04	4.45008353e-04	8.25994695e-03	3.63488143e+02
4.00000000      	3.09766475e-01	5.38403405e-04	8.06769105e-04	4.76417430e-04	8.88986986e-03	3.63511386e+02
4.25000000      	3.08451283e-01	5.62103620e-04	8.29626431e-04	4.98934165e-04	9.39271067e-03	3.63529826e+02
4.50000000      	3.07464370e-01	5.79048956e-04	8.46834436e-04	5.14267586e-04	9.77649919e-03	3.63543852e+02
4.75000000      	3.06754149e-01	5.90661623e-04	8.59353924e-04	5.24223820e-04	1.00564261e-02	3.63553945e+02
5.00000000      	3.06263498e-01	5.98301215e-04	8.68162912e-04	5.30415822e-04	1.02516860e-02	3.63560588e+02
5.25000000      	3.05937551e-01	6.03136564e-04	8.74161104e-04	5.34123290e-04	1.03821609e-02	3.63564905e+02
5.50000000      	3.05728892e-01	6.06088706e-04	8.78116353e-04	5.36272343e-04	1.04658697e-02	3.63567688e+02
5.75000000      	3.05599872e-01	6.07832111e-04	8.80644337e-04	5.37485231e-04	1.05175667e-02	3.63569433e+02
6.00000000      	3.05522629e-01	6.08830744e-04	8.82212198e-04	5.38155439e-04	1.05483827e-02	3.63570489e+02
6.25000000      	3.05477747e-01	6.09387035e-04	8.83157013e-04	5.38519865e-04	1.05661599e-02	3.63571106e+02
6.50000000      	3.05452379e-01	6.09689133e-04	8.83711043e-04	5.38715684e-04	1.05761101e-02	3.63571464e+02
6.75000000      	3.05438401e-01	6.09849428e-04	8.84027668e-04	5.38819993e-04	1.05815267e-02	3.63571667e+02
7.00000000      	3.05430878e-01	6.09932698e-04	8.84204304e-04	5.38875184e-04	1.05844009e-02	3.63571784e+02
7.25000000      	3.05426915e-01	6.09975127e-04	8.84300647e-04	5.38904215e-04	1.05858905e-02	3.63571836e+02
7.50000000      	3.05424870e-01	6.09996364e-04	8.84352105e-04	5.38919396e-04	1.05866460e-02	3.63571859e+02
7.75000000      	3.05423833e-01	6.10006823e-04	8.84379058e-04	5.38927282e-04	1.05870216e-02	3.63571879e+02
8.00000000      	3.05423316e-01	6.10011896e-04	8.84392922e-04	5.38931348e-04	1.05872049e-02	3.63571886e+02
8.25000000      	3.05423062e-01	6.10014323e-04	8.84399934e-04	5.38933427e-04	1.05872928e-02	3.63571889e+02
8.50000000      	3.05422940e-01	6.10015469e-04	8.84403426e-04	5.38934480e-04	1.05873343e-02	3.63571890e+02
8.75000000      	3.05422882e-01	6.10016002e-04	8.84405139e-04	5.38935008e-04	1.05873536e-02	3.63571891e+02
9.00000000      	3.05422854e-01	6.10016246e-04	8.84405967e-04	5.38935266e-04	1.05873623e-02	3.63571891e+02
9.25000000      	3.05422842e-01	6.10016350e-04	8.84406357e-04	5.38935386e-04	1.05873661e-02	3.63571891e+02
9.50000000      	3.05422837e-01	6.10016388e-04	8.84406532e-04	5.38935434e-04	1.05873676e-02	3.63571892e+02
9.75000000      	3.05422835e-01	6.10016395e-04	8.84406606e-04	5.38935447e-04	1.05873680e-02	3.63571892e+02
10.00000000     	3.05422835e-01	6.10016391e-04	8.84406634e-04	5.38935446e-04	1.05873681e-02	3.63571892e+02
10.25000000     	3.05422835e-01	6.10016385e-04	8.84406643e-04	5.38935442e-04	1.05873681e-02	3.63571892e+02
10.50000000     	3.05422835e-01	6.10016382e-04	8.84406646e-04	5.38935440e-04	1.05873681e-02	3.63571892e+02
10.75000000     	3.05422834e-01	6.10016383e-04	8.84406649e-04	5.38935442e-04	1.05873681e-02	3.63571892e+02
11.00000000     	3.05422834e-01	6.10016387e-04	8.84406653e-04	5.38935447e-04	1.05873682e-02	3.63571892e+02
11.25000000     	3.05422834e-01	6.10016394e-04	8.84406659e-04	5.38935456e-04	1.05873683e-02	3.63571892e+02
11.50000000     	3.05422833e-01	6.10016403e-04	8.84406666e-04	5.38935466e-04	1.05873684e-02	3.63571892e+02
11.75000000     	3.05422833e-01	6.10016412e-04	8.84406674e-04	5.38935477e-04	1.05873686e-02	3.63571892e+02
12.00000000     	3.05422833e-01	6.10016422e-04	8.84406682e-04	5.38935487e-04	1.05873688e-02	3.63571892e+02
12.25000000     	3.05422832e-01	6.10016430e-04	8.84406689e-04	5.38935495e-04	1.05873690e-02	3.63571892e+02
12.50000000     	3.05422832e-01	6.10016437e-04	8.84406696e-04	5.38935502e-04	1.05873691e-02	3.63571892e+02
12.75000000     	3.05422831e-01	6.10016442e-04	8.84406702e-04	5.38935507e-04	1.05873693e-02	3.63571892e+02
13.00000000     	3.05422831e-01	6.10016446e-04	8.84406706e-04	5.38935511e-04	1.05873694e-02	3.63571892e+02
13.25000000     	3.05422831e-01	6.10016446e-04	8.84406709e-04	5.38935511e-04	1.05873694e-02	3.63571892e+02
13.50000000     	3.05422831e-01	6.10016446e-04	8.84406710e-04	5.38935511e-04	1.05873694e-02	3.63571892e+02
13.75000000     	3.05422831e-01	6.10016446e-04	8.84406710e-04	5.38935511e-04	1.05873694e-02	3.63571892e+02
14.00000000     	3.05422831e-01	6.10016446e-04	8.84406710e-04	5.38935511e-04	1.05873694e-02	3.63571892e+02
14.25000000     	3.05422831e-01	6.10016446e-04	8.84406710e-04	5.38935511e-04	1.05873694e-02	3.63571892e+02
14.50000000     	3.05422831e-01	6.10016446e-04	8.84406710e-04	5.38935511e-04	1.05873694e-02	3.63571892e+02
14.75000000     	3.05422831e-01	6.10016446e-04	8.84406710e-04	5.38935511e-04	1.05873694e-02	3.63571892e+02
15.00000000     	3.05422831e-01	6.10016446e-04	8.84406710e-04	5.38935511e-04	1.05873694e-02	3.63571892e+02
15.25000000     	3.05422831e-01	6.10016446e-04	8.84406710e-04	5.38935511e-04	1.05873694e-02	3.63571892e+02
15.50000000     	3.05422831e-01	6.10016446e-04	8.84406710e-04	5.38935511e-04	1.05873694e-02	3.63571892e+02
15.75000000     	3.05422831e-01	6.10016446e-04	8.84406710e-04	5.38935511e-04	1.05873694e-02	3.63571892e+02
16.00000000     	3.05422831e-01	6.10016446e-04	8.84406710e-04	5.38935511e-04	1.05873694e-02	3.63571892e+02
16.25000000     	3.05422831e-01	6.10016446e-04	8.84406710e-04	5.38935511e-04	1.05873694e-02	3.63571892e+02
16.50000000     	3.05422831e-01	6.10016446e-04	8.84406710e-04	5.38935511e-04	1.05873694e-02	3.63571892e+02
16.75000000     	3.05422831e-01	6.10016446e-04	8.84406710e-04	5.38935511e-04	1.05873694e-02	3.63571892e+02
17.00000000     	3.05422831e-01	6.10016446e-04	8.84406710e-04	5.38935511e-04	1.05873694e-02	3.63571892e+02
17.25000000     	3.05422831e-01	6.10016446e-04	8.84406710e-04	5.38935511e-04	1.05873694e-02	3.63571892e+02
17.50000000     	3.05422831e-01	6.10016446e-04	8.84406710e-04	5.38935511e-04	1.05873694e-02	3.63571892e+02
17.75000000     	3.05422831e-01	6.10016446e-04	8.84406710e-04	5.38935511e-04	1.05873694e-02	3.63571892e+02
18.00000000     	3.05422831e-01	6.10016446e-04	8.84406710e-04	5.38935511e-04	1.05873694e-02	3.63571892e+02
18.25000000     	3.05422831e-01	6.10016446e-04	8.84406710e-04	5.38935511e-04	1.05873694e-02	3.63571892e+02
18.50000000     	3.05422831e-01	6.10016446e-04	8.84406710e-04	5.38935511e-04	1.05873694e-02	3.63571892e+02
18.75000000     	3.05422831e-01	6.10016446e-04	8.84406710e-04	5.38935511e-04	1.05873694e-02	3.63571892e+02
19.00000000     	3.05422831e-01	6.10016446e-04	8.84406710e-04	5.38935511e-04	1.05873694e-02	3.63571892e+02
19.25000000     	3.05422831e-01	6.10016446e-04	8.84406710e-04	5.38935511e-04	1.05873694e-02	3.63571892e+02
19.50000000     	3.05422831e-01	6.10016446e-04	8.84406710e-04	5.38935511e-04	1.05873694e-02	3.63571892e+02
19.75000000     	3.05422831e-01	6.10016446e-04	8.84406710e-04	5.38935511e-04	1.05873694e-02	3.63571892e+02
20.00000000     	3.05422831e-01	6.10016446e-04	8.84406710e-04	5.38935511e-04	1.05873694e-02	3.63571892e+02
