/*--------------------------------*- C++ -*----------------------------------*\
| =========                 |                                                 |
| \\      /  F ield         | OpenFOAM: The Open Source CFD Toolbox           |
|  \\    /   O peration     | Version:  2212                                  |
|   \\  /    A nd           | Website:  www.openfoam.com                      |
|    \\/     M anipulation  |                                                 |
\*---------------------------------------------------------------------------*/
FoamFile
{
    version     2.0;
    format      ascii;
    arch        "LSB;label=32;scalar=64";
    class       volScalarField;
    location    "30.00000000";
    object      A2CH2-2_0;
}
// * * * * * * * * * * * * * * * * * * * * * * * * * * * * * * * * * * * * * //

dimensions      [0 0 0 0 0 0 0];

internalField   nonuniform List<scalar> 
3000
(
3.83850186e-22
4.31221216e-22
5.027023064e-22
5.979531857e-22
7.159998178e-22
8.536280219e-22
1.002539034e-21
1.144611865e-21
1.245062387e-21
1.441198024e-21
1.625581359e-21
1.903686578e-21
2.275085577e-21
2.739376498e-21
3.293942837e-21
3.929112422e-21
4.612885544e-21
5.218516241e-21
3.228450711e-21
3.670072158e-21
4.342517077e-21
5.255463146e-21
6.42520593e-21
7.868547551e-21
9.579618278e-21
1.14624203e-20
1.307131771e-20
6.149928781e-21
7.064360746e-21
8.477149341e-21
1.04359579e-20
1.300990248e-20
1.62639753e-20
2.017998309e-20
2.444456928e-20
2.788644286e-20
1.092194074e-20
1.269976386e-20
1.54897512e-20
1.943343354e-20
2.471593687e-20
3.148483848e-20
3.962661413e-20
4.827227921e-20
5.490917526e-20
1.878342242e-20
2.21201727e-20
2.743178632e-20
3.505712766e-20
4.540286881e-20
5.872949972e-20
7.463944116e-20
9.112710256e-20
1.033259155e-19
3.189187827e-20
3.80209352e-20
4.789110761e-20
6.222061319e-20
8.180720567e-20
1.070404203e-19
1.368769019e-19
1.671916759e-19
1.890652384e-19
5.39803067e-20
6.507163406e-20
8.309145544e-20
1.094542946e-19
1.456293749e-19
1.921367822e-19
2.46642834e-19
3.012139008e-19
3.399318348e-19
9.152130288e-20
1.113805124e-19
1.438526701e-19
1.915973624e-19
2.572255428e-19
3.413650871e-19
4.392622885e-19
5.362558104e-19
6.043138933e-19
1.557353606e-19
1.910159677e-19
2.489640699e-19
3.344346453e-19
4.519804103e-19
6.022740193e-19
7.761658292e-19
9.47192462e-19
1.066314632e-18
2.661001936e-19
3.284195054e-19
4.310920366e-19
5.828109159e-19
7.914324908e-19
1.057526322e-18
1.364095651e-18
1.664088636e-18
1.872052866e-18
4.564610654e-19
5.6609291e-19
7.470787907e-19
1.014783977e-18
1.382669251e-18
1.850836679e-18
2.388379869e-18
2.912566641e-18
3.275181539e-18
7.856895801e-19
9.780347142e-19
1.295986286e-18
1.766473013e-18
2.412389269e-18
3.232330022e-18
4.170441776e-18
5.082677065e-18
5.716108189e-18
1.356223349e-18
1.693163235e-18
2.250688614e-18
3.07587814e-18
4.207530149e-18
5.639689149e-18
7.268732051e-18
8.841531868e-18
9.963445437e-18
2.346151413e-18
2.93588325e-18
3.912773829e-18
5.359831587e-18
7.344458233e-18
9.851198573e-18
1.267500286e-17
1.52734407e-17
1.739346219e-17
4.064401523e-18
5.095496987e-18
6.805696701e-18
9.34351066e-18
1.28353967e-17
1.728074546e-17
2.240476623e-17
2.752019923e-17
3.073055251e-17
7.045849887e-18
8.844898123e-18
1.183044369e-17
1.626209668e-17
2.23579652e-17
3.010339843e-17
3.896606234e-17
4.755937165e-17
5.339567363e-17
1.221763958e-17
1.535067297e-17
2.055063809e-17
2.82677401e-17
3.887507127e-17
5.233278828e-17
6.769493434e-17
8.255367587e-17
9.272499205e-17
2.118843988e-17
2.663789718e-17
3.568288105e-17
4.910410838e-17
6.754438348e-17
9.092544729e-17
1.17597449e-16
1.433863509e-16
1.610515438e-16
3.675058756e-17
4.622262288e-17
6.194517012e-17
8.527346682e-17
1.173199107e-16
1.579417219e-16
2.04267797e-16
2.490498007e-16
2.79721961e-16
6.375184301e-17
8.02097559e-17
1.075299208e-16
1.480659192e-16
2.037457956e-16
2.743136076e-16
3.547740084e-16
4.325355683e-16
4.857874732e-16
1.106091692e-16
1.391996085e-16
1.866624473e-16
2.570849529e-16
3.538099536e-16
4.763810517e-16
6.161085773e-16
7.511228971e-16
8.435651919e-16
1.919374452e-16
2.415987247e-16
3.240437691e-16
4.463686977e-16
6.143683253e-16
8.272304037e-16
1.069843548e-15
1.304228112e-15
1.464686793e-15
3.33114295e-16
4.193692134e-16
5.625648697e-16
7.750156874e-16
1.066761356e-15
1.436354758e-15
1.857522323e-15
2.264323963e-15
2.54277892e-15
5.782049595e-16
7.280093909e-16
9.766962081e-16
1.345623182e-15
1.852169461e-15
2.49374474e-15
3.224667177e-15
3.930479814e-15
4.4135027e-15
1.003716956e-15
1.263875446e-15
1.695720688e-15
2.336267554e-15
3.215563901e-15
4.328938565e-15
5.596949941e-15
6.820990747e-15
7.658416944e-15
1.742461777e-15
2.194229414e-15
2.944024802e-15
4.055932772e-15
5.581811104e-15
7.513151917e-15
9.711768294e-15
1.183318157e-14
1.328395333e-14
3.024904916e-15
3.809298339e-15
5.110871568e-15
7.040425361e-15
9.687236366e-15
1.303560618e-14
1.684506441e-14
2.051846324e-14
2.302915459e-14
5.250733713e-15
6.612352636e-15
8.871055566e-15
1.221806636e-14
1.680656781e-14
2.260714249e-14
2.920109341e-14
3.555408377e-14
3.98927491e-14
9.112507102e-15
1.147527029e-14
1.539309424e-14
2.119520433e-14
2.914325993e-14
3.918119863e-14
5.057952475e-14
6.154855531e-14
6.903142741e-14
1.580879752e-14
1.990651534e-14
2.669743439e-14
3.674657412e-14
5.049825226e-14
6.784381903e-14
8.751140803e-14
1.064089107e-13
1.192813344e-13
2.741053752e-14
3.451129604e-14
4.627054645e-14
6.36539737e-14
8.74102655e-14
1.173256457e-13
1.511813129e-13
1.836454388e-13
2.057158966e-13
4.748847686e-14
5.977862235e-14
8.011298817e-14
1.101332875e-13
1.510885786e-13
2.025531478e-13
2.606549147e-13
3.162241212e-13
3.539076897e-13
8.21833571e-14
1.034211598e-13
1.385184653e-13
1.902475081e-13
2.606657083e-13
3.489186043e-13
4.482498299e-13
5.429430885e-13
6.06956643e-13
1.420222786e-13
1.786435398e-13
2.390745214e-13
3.279571385e-13
4.486255949e-13
5.993595551e-13
7.683802569e-13
9.288692523e-13
1.036945948e-12
2.449843908e-13
3.07958095e-13
4.116865186e-13
5.638615779e-13
7.697754733e-13
1.025970788e-12
1.311952709e-12
1.58220958e-12
1.763377738e-12
4.216428124e-13
5.295575318e-13
7.069191319e-13
9.663121735e-13
1.315915308e-12
1.748824953e-12
2.229498428e-12
2.681221178e-12
2.982438708e-12
7.237289474e-13
9.078728115e-13
1.209717757e-12
1.649538251e-12
2.23954007e-12
2.966085563e-12
3.76784057e-12
4.516534482e-12
5.012804429e-12
1.23828809e-12
1.550911236e-12
2.061751118e-12
2.802872862e-12
3.791652992e-12
5.00153632e-12
6.327399248e-12
7.556772113e-12
8.366314564e-12
2.110881625e-12
2.63845792e-12
3.497395959e-12
4.73730181e-12
6.381293906e-12
8.378559304e-12
1.055048606e-11
1.25488588e-11
1.385551704e-11
3.583273679e-12
4.467479474e-12
5.901027271e-12
7.958666395e-12
1.066799161e-11
1.393368773e-11
1.745547298e-11
2.066930179e-11
2.275517118e-11
6.054047856e-12
7.524433165e-12
9.897139535e-12
1.328130175e-11
1.770343122e-11
2.298856846e-11
2.863801069e-11
3.374948679e-11
3.704185195e-11
1.017508671e-11
1.259912256e-11
1.649038587e-11
2.200219263e-11
2.914572984e-11
3.76070929e-11
4.656917734e-11
5.460739262e-11
5.974555163e-11
1.700342361e-11
2.096187268e-11
2.728052537e-11
3.616456084e-11
4.757958531e-11
6.097542416e-11
7.503247615e-11
8.753106168e-11
9.546065157e-11
2.823744741e-11
3.463594575e-11
4.478837567e-11
5.895209604e-11
7.698923878e-11
9.79578146e-11
1.197582269e-10
1.389770116e-10
1.510822215e-10
4.657985133e-11
5.681136678e-11
7.294433751e-11
9.527208106e-11
1.23450094e-10
1.559020427e-10
1.893368181e-10
2.185713459e-10
2.368591649e-10
7.628843194e-11
9.246611699e-11
1.178124596e-10
1.526091866e-10
1.961309025e-10
2.457971284e-10
2.965237931e-10
3.405350395e-10
3.678907739e-10
1.240016695e-10
1.492879228e-10
1.886524814e-10
2.422640901e-10
3.087342697e-10
3.839255604e-10
4.600929078e-10
5.257009904e-10
5.662411458e-10
1.999614246e-10
2.39027282e-10
2.994627581e-10
3.811355315e-10
4.815523816e-10
5.942064083e-10
7.074522087e-10
8.043532702e-10
8.639111457e-10
3.19803519e-10
3.794636414e-10
4.712024727e-10
5.942653362e-10
7.443820425e-10
9.114995331e-10
1.078318426e-09
1.220204565e-09
1.306996155e-09
5.071533723e-10
5.972370859e-10
7.349677925e-10
9.184494112e-10
1.140634803e-09
1.386241497e-09
1.629853779e-09
1.835943948e-09
1.961478109e-09
7.973552082e-10
9.318951036e-10
1.136501752e-09
1.407332141e-09
1.733102654e-09
2.090919476e-09
2.443816197e-09
2.740942682e-09
2.921264281e-09
1.242789225e-09
1.441639608e-09
1.742564735e-09
2.138560375e-09
2.612010161e-09
3.129072376e-09
3.636472618e-09
4.061919721e-09
4.319305936e-09
1.920371969e-09
2.211390186e-09
2.649818879e-09
3.223721378e-09
3.90618534e-09
4.647774953e-09
5.372328942e-09
5.97769081e-09
6.342943921e-09
2.941965056e-09
3.363968574e-09
3.997180202e-09
4.822176154e-09
5.798576447e-09
6.854905634e-09
7.883057203e-09
8.739452683e-09
9.255007894e-09
4.469090295e-09
5.075861844e-09
5.983093215e-09
7.160240167e-09
8.547632609e-09
1.004286287e-08
1.14934553e-08
1.269859113e-08
1.342273686e-08
6.7333199e-09
7.599012825e-09
8.889373451e-09
1.055762678e-08
1.25167432e-08
1.462117114e-08
1.665708171e-08
1.834481883e-08
1.935741833e-08
1.006450965e-08
1.129093851e-08
1.311408784e-08
1.546382876e-08
1.82146554e-08
2.116117177e-08
2.400504497e-08
2.635835262e-08
2.776859969e-08
1.492975625e-08
1.665622552e-08
1.921676946e-08
2.250805151e-08
2.635085503e-08
3.045718112e-08
3.441270359e-08
3.768117706e-08
3.963807844e-08
2.198699569e-08
2.440355003e-08
2.798045573e-08
3.25676261e-08
3.791134763e-08
4.361007934e-08
4.909071501e-08
5.361421927e-08
5.632073966e-08
3.215858611e-08
3.552388714e-08
4.049668844e-08
4.686163705e-08
5.426223871e-08
6.214139173e-08
6.970913016e-08
7.59496955e-08
7.968187432e-08
4.673220513e-08
5.139767662e-08
5.828186932e-08
6.707891754e-08
7.729109974e-08
8.814875275e-08
9.856636266e-08
1.071512537e-07
1.122840419e-07
6.74990743e-08
7.394150464e-08
8.343630229e-08
9.555270682e-08
1.095995885e-07
1.24517564e-07
1.388191353e-07
1.505990435e-07
1.576412346e-07
9.694289886e-08
1.058083813e-07
1.188610543e-07
1.354985409e-07
1.547656538e-07
1.75209012e-07
1.947952748e-07
2.109229803e-07
2.205644346e-07
1.384972286e-07
1.50660383e-07
1.685530368e-07
1.913378835e-07
2.177001842e-07
2.456517469e-07
2.724189804e-07
2.944557337e-07
3.076312439e-07
1.968949848e-07
2.135389422e-07
2.380057982e-07
2.691377058e-07
3.051314609e-07
3.432739018e-07
3.79788451e-07
4.098479974e-07
4.278237086e-07
2.786416361e-07
3.013661764e-07
3.347522402e-07
3.772058855e-07
4.262614523e-07
4.782240619e-07
5.27958952e-07
5.689027867e-07
5.93393256e-07
3.92652385e-07
4.236201083e-07
4.690957344e-07
5.268935077e-07
5.936507342e-07
6.643441316e-07
7.320002607e-07
7.877027117e-07
8.210296576e-07
5.511033355e-07
5.932366461e-07
6.550870085e-07
7.336675116e-07
8.244025303e-07
9.204723291e-07
1.012414408e-06
1.088122617e-06
1.133430251e-06
7.705556218e-07
8.278008773e-07
9.118145744e-07
1.018528086e-06
1.141728278e-06
1.27216754e-06
1.397013724e-06
1.499835004e-06
1.561381218e-06
1.073418713e-06
1.151097136e-06
1.265083e-06
1.40985142e-06
1.576982721e-06
1.753951027e-06
1.923362959e-06
2.062918413e-06
2.146464766e-06
1.489821114e-06
1.595088249e-06
1.749552468e-06
1.945734791e-06
2.172249146e-06
2.412149326e-06
2.641871686e-06
2.831156182e-06
2.944479857e-06
2.059951004e-06
2.20238592e-06
2.411400083e-06
2.676901381e-06
2.983526825e-06
3.308382431e-06
3.619570736e-06
3.876048412e-06
4.029590956e-06
2.836912295e-06
3.02925197e-06
3.311532796e-06
3.670179649e-06
4.084514191e-06
4.523662968e-06
4.944505641e-06
5.29143628e-06
5.499080651e-06
3.890108167e-06
4.149128563e-06
4.529327253e-06
5.012499149e-06
5.570884483e-06
6.162946355e-06
6.730520341e-06
7.198443549e-06
7.478329209e-06
5.309106868e-06
5.65662678e-06
6.166785288e-06
6.815233961e-06
7.564809609e-06
8.359794652e-06
9.12199455e-06
9.750182562e-06
1.012555078e-05
7.207853138e-06
7.671797528e-06
8.352867553e-06
9.218570992e-06
1.02192987e-05
1.128059508e-05
1.229781741e-05
1.313569332e-05
1.363586838e-05
9.728952366e-06
1.034435803e-05
1.124759419e-05
1.239538198e-05
1.372169779e-05
1.512748739e-05
1.647404656e-05
1.758230113e-05
1.824290297e-05
1.304756361e-05
1.385734589e-05
1.504529242e-05
1.655385716e-05
1.829541794e-05
2.013970134e-05
2.190441504e-05
2.335473732e-05
2.421738437e-05
1.737420037e-05
1.842943043e-05
1.997603737e-05
2.193789527e-05
2.42000797e-05
2.659214505e-05
2.887703808e-05
3.075103139e-05
3.186283696e-05
2.295530247e-05
2.431478124e-05
2.630524801e-05
2.882636423e-05
3.172807015e-05
3.478979103e-05
3.770731138e-05
4.009383152e-05
4.150545823e-05
3.007256023e-05
3.180212774e-05
3.433073895e-05
3.75270557e-05
4.119692372e-05
4.505840221e-05
4.872687484e-05
5.17180725e-05
5.348135024e-05
3.903810897e-05
4.120799496e-05
4.437454374e-05
4.836738012e-05
5.293814176e-05
5.773146528e-05
6.226895023e-05
6.595517747e-05
6.812011513e-05
5.018497061e-05
5.286657461e-05
5.677151129e-05
6.168130314e-05
6.728247753e-05
7.313400389e-05
7.865103923e-05
8.311507944e-05
8.572660362e-05
6.385401369e-05
6.71158022e-05
7.185425493e-05
7.779308626e-05
8.454260053e-05
9.156446262e-05
9.815640741e-05
0.0001034676429
0.0001065624379
8.037729127e-05
8.428015427e-05
8.993532562e-05
9.699893319e-05
0.0001049944806
0.0001132761874
0.0001210159942
0.0001272251706
0.0001308289908
0.0001000588281
0.0001046513481
0.0001112879465
0.0001195480224
0.0001288590769
0.0001384601259
0.0001473923475
0.0001545275352
0.0001586533203
0.0001231543935
0.0001284685309
0.0001361269422
0.0001456245672
0.0001562859177
0.0001672302117
0.0001773668868
0.0001854311245
0.0001900783062
0.0001498520568
0.0001558997237
0.0001645915552
0.0001753324584
0.0001873399164
0.0001996124911
0.000210931209
0.0002199020894
0.0002250586355
0.0001802553126
0.0001870261988
0.0001967316513
0.0002086837495
0.0002219923704
0.0002355385187
0.000247982106
0.0002578104829
0.0002634456524
0.0002143702935
0.0002218311427
0.0002324984324
0.0002455918285
0.0002601167897
0.0002748439125
0.0002883232511
0.0002989375824
0.0003050113129
0.0002520981025
0.0002601934517
0.0002717402299
0.0002858694976
0.0003014892568
0.0003172706437
0.0003316685322
0.0003429778776
0.0003494408472
0.0002932327394
0.0003018869725
0.0003142034929
0.0003292318789
0.0003457931478
0.0003624732367
0.0003776492522
0.0003895469568
0.0003963424035
0.0003374645904
0.0003465850838
0.0003595387942
0.0003753039565
0.0003926281194
0.0004100289637
0.0004258252487
0.0004381933154
0.0004452594333
0.000384389221
0.0003938704151
0.0004073117994
0.0004236329965
0.0004415240952
0.0004594535157
0.0004757024319
0.0004884177751
0.0004956916733
0.0004335216072
0.000443250096
0.0004570200649
0.0004737075002
0.0004919630615
0.0005102266114
0.000526763377
0.000539708942
0.0005471398174
0.0004843178553
0.0004941791163
0.0005081191886
0.000524987963
0.000543415327
0.0005618357589
0.0005785283718
0.0005916118425
0.0005991384309
0.0005362125365
0.00054610018
0.000560066648
0.000576963133
0.0005954078818
0.0006138301307
0.0006305097833
0.0006436003913
0.0006511583193
0.0005886957014
0.0005985261329
0.0006123989865
0.0006291547671
0.0006474276278
0.0006656735258
0.0006822040862
0.000695207747
0.0007027513473
0.0006412342329
0.0006509078107
0.0006645516259
0.0006810205745
0.000698976305
0.0007169132517
0.0007331881881
0.0007460316826
0.0007535256372
0.000693288272
0.0007027301475
0.0007160439988
0.0007321127935
0.0007496370682
0.0007671602781
0.0007830938749
0.0007957177027
0.0008031330759
0.0007444148599
0.0007535668001
0.0007664718129
0.0007820504546
0.0007990513934
0.0008160757444
0.000831597327
0.0008439515928
0.0008512635613
0.0007942404641
0.0008030563494
0.0008154896886
0.0008305057557
0.000846908591
0.0008633638756
0.0008784141086
0.0008904559009
0.0008976423148
0.0008424474088
0.0008508905131
0.0008628018283
0.0008771967388
0.0008929402346
0.0009087680003
0.0009232963731
0.000934987999
0.0009420284376
0.0008887662231
0.0008968073622
0.000908156353
0.0009218827124
0.0009369165901
0.0009520678782
0.0009660309259
0.0009773387023
0.0009842138682
0.0009329704805
0.0009405866321
0.0009513412297
0.0009643608356
0.0009786438436
0.0009930775221
0.001006437558
0.001017331009
0.001024022377
0.0009748726939
0.0009820459243
0.0009921808817
0.001004463188
0.00101796164
0.00103164318
0.00104436742
0.001054818787
0.001061308455
0.001014320709
0.001021037332
0.001030533129
0.001042054071
0.001054740757
0.001067641366
0.001079701364
0.001089685369
0.001095956063
0.00105119441
0.001057444341
0.001066286354
0.001077027474
0.001088880879
0.001100976918
0.001112348254
0.001121842047
0.00112787724
0.001085402716
0.001091178985
0.001099356874
0.001109304697
0.001120308469
0.001131581101
0.001142243248
0.0011512265
0.00115701062
0.001116880852
0.001122179265
0.001129686541
0.001138832148
0.001148974762
0.001159409765
0.001169346096
0.001177801175
0.001183319848
0.001145587934
0.001150406826
0.001157240566
0.001165579319
0.001174853879
0.00118444158
0.001193639449
0.001201551645
0.001206791954
0.001171504825
0.001175844909
0.001182005563
0.001189536934
0.001197941066
0.00120667633
0.00121512719
0.001222484937
0.00122743568
0.001194632252
0.001198496509
0.001203987777
0.001210715239
0.001218251027
0.001226133273
0.001233832784
0.001240627865
0.001245279767
0.001214989127
0.001218382732
0.001223211471
0.001229142409
0.001235816341
0.001242849542
0.001249797643
0.001256025338
0.001260371233
0.001232611027
0.00123554128
0.001239717415
0.001244863037
0.001250685927
0.001256878571
0.001263079498
0.001268738667
0.001272773618
0.001247548775
0.00125002503
0.001253561457
0.001257936674
0.001262923543
0.001268288522
0.00127375076
0.001278843868
0.001282565229
0.001259867077
0.001261900653
0.001264813104
0.001268436375
0.001272606282
0.001277160753
0.001281896912
0.001286429952
0.001289837375
0.001269643187
0.001271247256
0.001273554149
0.001276447281
0.001279823101
0.001283588247
0.001287614856
0.001291597224
0.001294692608
0.001276965583
0.001278155043
0.001279877279
0.001282065181
0.001284673316
0.001287674049
0.001291011296
0.00129445559
0.001297242985
0.001281932621
0.001282723933
0.001283884671
0.001285395054
0.001287265101
0.001289529722
0.00129220113
0.001295122901
0.001297608371
0.00128465117
0.001285062185
0.001285686576
0.001286549635
0.00128771401
0.001289273811
0.001291305873
0.001293723327
0.001295914778
0.001285235247
0.001285285007
0.001285399917
0.001285647966
0.001286141499
0.001287030349
0.001288452127
0.001290385799
0.001292292785
0.001283804646
0.001283513182
0.001283146887
0.001282813992
0.001282673506
0.001282927401
0.001283770107
0.001285242517
0.001286876025
0.00128048359
0.001279871708
0.00127905359
0.001278175183
0.001277439058
0.001277095677
0.001277392245
0.001278427539
0.001279799769
0.001275399413
0.00127448848
0.001273248721
0.001271861221
0.001270568965
0.001269667218
0.001269451881
0.001270075479
0.001271199621
0.001268681299
0.001267493032
0.00126586231
0.001264002747
0.001262194579
0.001260774178
0.001260082053
0.001260320301
0.001261210319
0.001260459079
0.001259015345
0.001257024544
0.001254730209
0.001252446658
0.001250547701
0.001249414399
0.00124929424
0.001249964657
0.00125086212
0.001249184742
0.001246864685
0.001244172787
0.001241454321
0.00123911691
0.00123757817
0.001237126835
0.001237592535
0.001240018297
0.001238128882
0.001235510073
0.00123245744
0.001229344123
0.001226608007
0.00122469936
0.001223944086
0.001224220133
0.001228053076
0.001225972851
0.001223085251
0.001219708048
0.00121623923
0.001213143494
0.001210899962
0.001209867733
0.001209969204
0.001215088693
0.001212838363
0.001209711189
0.001206044671
0.001202258721
0.001198841503
0.001196297334
0.001195014658
0.001194956491
0.00120124345
0.001198843074
0.001195504621
0.001191582926
0.001187516993
0.001183815243
0.001181003681
0.001179496392
0.001179293262
0.001186631115
0.001184100003
0.001180577498
0.001176433461
0.001172123276
0.001168172558
0.001165125651
0.001163418743
0.001163084944
0.001171360434
0.001168717056
0.001165036532
0.001160701542
0.001156181261
0.00115201558
0.001148764022
0.001146881512
0.001146430869
0.001155534737
0.001152796655
0.001148982861
0.001144486742
0.001139788813
0.001135440493
0.001132013495
0.001129978312
0.001129424101
0.001139251649
0.001136435467
0.001132511786
0.001127882713
0.001123037785
0.001118537364
0.001114962567
0.001112796467
0.001112151354
0.001122602887
0.001119724211
0.001115712617
0.001110977052
0.001106013907
0.001101390076
0.001097693476
0.001095416981
0.001094692979
0.001105674141
0.001102747557
0.001098668578
0.001093851237
0.001088796753
0.001084076315
0.001080282226
0.001077914584
0.001077123019
0.001088545023
0.001085584087
0.001081456798
0.001076580637
0.001071459773
0.001066667623
0.001062798663
0.001060357827
0.001059509317
0.001071289088
0.001068306333
0.001064148355
0.001059234573
0.001054070379
0.001049229515
0.001045306602
0.001042809223
0.001041913668
0.001053973915
0.001050980853
0.001046808375
0.001041876439
0.001036690077
0.001031821625
0.001027863999
0.001025325439
0.001024392022
0.001036661222
0.001033668373
0.001029496178
0.001024563862
0.001019374648
0.0010144979
0.001010523158
0.001007957511
0.001006994703
0.001019407042
0.001016423959
0.001012265465
0.001007348895
0.001002174356
0.0009973068246
0.0009933309666
0.0009907510876
0.0009897666627
0.001002261919
0.0009992972185
0.000995164527
0.0009902782419
0.0009851341785
0.0009802916614
0.0009763291458
0.0009737466956
0.0009727477488
0.0009852711314
0.0009823325367
0.0009782364874
0.0009733935051
0.0009682940652
0.0009634907181
0.0009595545264
0.0009569800163
0.000955972988
0.0009684749479
0.0009655693268
0.0009615195565
0.0009567314469
0.0009516892054
0.0009469376207
0.0009430393277
0.0009404821725
0.0009394728752
0.0009519088839
0.0009490422953
0.0009450473016
0.0009403242636
0.0009353503061
0.0009306615971
0.0009268114451
0.0009242800188
0.0009232736666
0.0009356039776
0.0009327817172
0.0009288489242
0.0009241998652
0.0009193038759
0.0009146877631
0.0009108947392
0.0009083964335
0.0009073976736
0.0009195870677
0.0009168137159
0.0009129495411
0.0009083821585
0.0009035725083
0.0008990374079
0.0008953093229
0.0008928506073
0.0008918635525
0.0009038810749
0.0009011605441
0.0008973704662
0.0008928913291
0.0008881751652
0.0008837282773
0.0008800718446
0.0008776583269
0.0008766865893
0.0008885052807
0.0008858408629
0.0008821294891
0.0008777441194
0.0008731274536
0.0008687748504
0.000865195765
0.0008628322517
0.0008618789756
0.0008734756026
0.0008708700166
0.0008672411484
0.0008629541011
0.0008584418966
0.0008541886087
0.0008506916244
0.0008483821802
0.0008474500757
0.0008588048632
0.0008562603
0.0008527169982
0.0008485319388
0.0008441281955
0.0008399782961
0.0008365673009
0.0008343153071
0.0008334066825
0.0008445030504
0.0008420212178
0.0008385658649
0.0008344856453
0.0008301934812
0.0008261501677
0.000822828257
0.0008206364677
0.0008197532615
0.0008305775679
0.0008281597332
0.0008247940937
0.0008208208246
0.0008166425551
0.0008127082269
0.0008094777736
0.0008073483703
0.0008064921816
0.0008170334754
0.0008146805065
0.0008114057844
0.0008075409047
0.0008034781176
0.0007996544511
0.0007965171725
0.0007944518159
0.0007936239345
0.0008038737168
0.0008015861206
0.0007984030144
0.000794647357
0.0007907009839
0.0007869890034
0.0007839460251
0.0007819459047
0.0007811473387
0.0007910993356
0.0007888772955
0.0007857860495
0.0007821399036
0.000778310288
0.0007747104323
0.0007717623483
0.0007698282291
0.0007690597319
0.0007787096786
0.0007765530886
0.0007735535424
0.0007700167121
0.0007663036721
0.0007628158581
0.0007599627872
0.0007580950539
0.0007573571495
0.0007667025864
0.000764611084
0.0007617027175
0.0007582745768
0.0007546774652
0.0007513011463
0.0007485427853
0.0007467414835
0.0007460344904
0.0007550745715
0.0007530475677
0.0007502295443
0.000746909088
0.0007434268474
0.0007401610689
0.0007374967418
0.0007357616168
0.0007350856697
0.0007438209835
0.0007418576914
0.0007391288971
0.0007359147887
0.0007325460032
0.0007293894527
0.0007268181569
0.0007251486893
0.0007245037604
0.0007329361623
0.0007310356229
0.0007283947033
0.0007252853187
0.0007220282613
0.0007189793167
0.000716499765
0.0007148952041
0.0007142811221
0.0007224135795
0.000720574686
0.00071802008
0.0007150135483
0.0007118662248
0.0007089229968
0.000706533657
0.0007049930515
0.0007044095193
0.0007122459682
0.000710467488
0.0007079974589
0.0007050916992
0.0007020518886
0.0006992122612
0.0006969113916
0.0006954336175
0.0006948802288
0.0007024254417
0.0007007060367
0.0006983187005
0.0006955114562
0.0006925767471
0.0006898384139
0.0006876240963
0.0006862078827
0.000685684137
0.0006929436021
0.000691281847
0.0006889751983
0.000686264068
0.0006834318923
0.0006807923893
0.0006786625586
0.0006773065114
0.0006768118274
0.0006837916379
0.0006821860372
0.0006799579724
0.000677340438
0.0006746081011
0.000672064837
0.0006700173082
0.000668719931
0.0006682536596
0.0006749604135
0.0006734094162
0.0006712577551
0.0006687312068
0.0006660959147
0.0006636461976
0.0006616786901
0.0006604384035
0.0006599998383
0.0006664405483
0.0006649425619
0.0006628650661
0.0006604268249
0.0006578857088
0.0006555267702
0.0006536369294
0.0006524520877
0.0006520404755
0.0006582224882
0.0006567758901
0.00065477028
0.0006524176182
0.0006499677555
0.0006476967715
0.0006458821875
0.0006447510938
0.0006443656429
0.0006502965679
0.0006488997164
0.0006469636859
0.0006446938439
0.0006423322772
0.0006401463867
0.000638404611
0.0006373255295
0.0006369654173
0.0006426530658
0.0006413043091
0.000639435538
0.0006372457398
0.0006349694929
0.0006328658131
0.0006311943717
0.0006301655384
0.0006298299173
0.000635282251
0.0006339799347
0.0006321760997
0.000630063565
0.0006278696556
0.0006258452945
0.0006242416991
0.0006232613297
0.0006229493313
0.0006281744219
0.0006269168956
0.0006251756785
0.0006231376325
0.0006210230826
0.0006190751482
0.0006175369036
0.0006166031989
0.000616313937
0.0006213199377
0.0006201055591
0.0006184246531
0.0006164583338
0.0006144201764
0.0006125457829
0.0006110703913
0.0006101815397
0.0006099141104
0.00061470924
0.0006135363785
0.0006119134923
0.0006100161543
0.0006080514369
0.0006062477065
0.0006048326681
0.0006039868442
0.0006037403248
0.0006083328671
0.0006071999046
0.0006056327633
0.0006038016784
0.0006019074626
0.0006001715237
0.000598814333
0.0005980096932
0.0005977831374
0.0006021814563
0.0006010867867
0.0005995731304
0.0005978055849
0.0005959789412
0.0005943079216
0.0005930060592
0.0005922407324
0.0005920331636
0.0005962457367
0.0005951877626
0.0005937253414
0.0005920186284
0.0005902566271
0.0005886476419
0.0005873985607
0.0005866706351
0.0005864810365
0.000590516508
0.0005894936352
0.0005880802003
0.0005864316081
0.0005847313039
0.0005831814384
0.0005819825448
0.00058129005
0.0005811173515
0.0005849846051
0.0005839952344
0.0005826285254
0.0005810353204
0.0005793937317
0.0005779000172
0.0005767486467
0.0005760895313
0.0005759325944
0.0005796408467
0.0005786833619
0.0005773610892
0.0005758204932
0.000574234575
0.0005727939596
0.0005716873466
0.0005710594519
0.0005709170525
0.000574475965
0.0005735487178
0.0005722685404
0.0005707777016
0.0005692443121
0.000567853624
0.0005667888673
0.0005661898981
0.0005660607086
0.0005694805151
0.000568581806
0.0005673413037
0.000565897262
0.0005644131221
0.0005630690287
0.0005620430522
0.0005614705459
0.0005613531177
0.0005646447626
0.0005637728184
0.0005625694584
0.0005611691039
0.0005597307514
0.0005584297116
0.0005574392225
0.0005568905186
0.0005567832681
0.0005599585486
0.0005591114953
0.0005579425939
0.0005565826196
0.0005551863571
0.0005539245712
0.0005529660173
0.0005524382295
0.0005523394272
0.0005554111324
0.0005545869644
0.0005534496436
0.0005521264928
0.0005507683311
0.0005495416871
0.0005486112154
0.0005481012088
0.000548008977
0.0005509910119
0.0005501875585
0.0005490786976
0.000547788507
0.0005464641061
0.0005452681269
0.0005443615454
0.0005438659213
0.0005437782403
0.0005466857271
0.0005459006156
0.0005448168008
0.0005435553407
0.0005422599494
0.000541089741
0.0005402024871
0.0005397175787
0.0005396323038
0.0005424816498
0.0005417122671
0.0005406497385
0.000539412353
0.0005381407495
0.0005369909547
0.0005361180723
0.0005356399523
0.0005355548436
0.0005383637659
0.0005376072206
0.0005365618205
0.0005353433687
0.0005340898064
0.0005329545654
0.0005320906926
0.0005316151945
0.000531527959
0.0005343154621
0.0005335685476
0.0005325356709
0.0005313304737
0.0005300886335
0.0005289615538
0.0005281009229
0.0005276236757
0.0005275320202
0.0005303183238
0.0005295774851
0.0005285520365
0.000527353831
0.0005261167832
0.0005249909223
0.0005241273718
0.0005236438456
0.000523545538
0.0005263519592
0.0005256132656
0.0005245896245
0.0005233915294
0.0005221517096
0.0005210195687
0.0005201465661
0.0005196521256
0.0005195450583
0.0005223938632
0.0005216529889
0.0005206249851
0.0005194194788
0.0005181686753
0.0005170222071
0.0005161328807
0.0005156228385
0.0005155050877
0.0005184193276
0.0005176715427
0.0005166324476
0.0005154113631
0.0005141407214
0.0005129713463
0.0005120585169
0.0005115281812
0.0005113980518
0.0005144014138
0.0005136415868
0.0005125841198
0.0005113386571
0.0005100386993
0.0005088373314
0.0005078935425
0.0005073382436
0.0005071942888
0.0005103109955
0.0005095336097
0.0005084499622
0.0005071707194
0.0005058313773
0.0005045884547
0.0005036059895
0.0005030210787
0.0005028620823
0.0005061168782
0.0005053160619
0.0005041979404
0.0005028749625
0.0005014856248
0.00050019114
0.0004991620211
0.0004985428284
0.0004983677392
0.0005017860003
0.0005009555726
0.0004997942601
0.0004984171075
0.0004969666781
0.0004956102061
0.0004945261703
0.0004938679151
0.0004936757249
0.0004972837192
0.0004964172507
0.0004952036889
0.0004937615242
0.0004922384936
0.0004908092187
0.0004896616679
0.0004889593194
0.0004887488829
0.0004925741855
0.000491665076
0.000490389968
0.0004888716661
0.0004872641995
0.0004857509451
0.0004845308801
0.0004837789762
0.0004835487764
0.0004876208126
0.0004866623872
0.000485316326
0.0004837106116
0.000482006663
0.000480397939
0.0004790958931
0.0004782883369
0.000478036215
0.0004823868552
0.0004813724819
0.0004799461109
0.0004782417351
0.0004764292034
0.000474713293