/*--------------------------------*- C++ -*----------------------------------*\
| =========                 |                                                 |
| \\      /  F ield         | OpenFOAM: The Open Source CFD Toolbox           |
|  \\    /   O peration     | Version:  2212                                  |
|   \\  /    A nd           | Website:  www.openfoam.com                      |
|    \\/     M anipulation  |                                                 |
\*---------------------------------------------------------------------------*/
FoamFile
{
    version     2.0;
    format      ascii;
    arch        "LSB;label=32;scalar=64";
    class       volScalarField;
    location    "30.00000000";
    object      AC3H5_0;
}
// * * * * * * * * * * * * * * * * * * * * * * * * * * * * * * * * * * * * * //

dimensions      [0 0 0 0 0 0 0];

internalField   nonuniform List<scalar> 
3000
(
2.272833504e-35
2.547510664e-35
2.959465847e-35
3.502506387e-35
4.162547737e-35
4.903660076e-35
5.642334677e-35
6.20816251e-35
6.340518837e-35
8.432479959e-35
9.470764565e-35
1.10166961e-34
1.303689521e-34
1.547426509e-34
1.821964919e-34
2.106533515e-34
2.362849682e-34
2.520758352e-34
1.86017153e-34
2.101305794e-34
2.462055399e-34
2.938487299e-34
3.524508146e-34
4.206305972e-34
4.949526526e-34
5.674027224e-34
6.180358191e-34
3.483261063e-34
3.969340912e-34
4.705751355e-34
5.697709015e-34
6.950778435e-34
8.455321802e-34
1.015010595e-33
1.184227152e-33
1.303053882e-33
6.076263838e-34
7.000686902e-34
8.422907504e-34
1.037786011e-33
1.290370382e-33
1.599982504e-33
1.952935675e-33
2.303018769e-33
2.543752695e-33
1.026246044e-33
1.196593815e-33
1.462585565e-33
1.834539565e-33
2.322964617e-33
2.928264648e-33
3.618952242e-33
4.295367891e-33
4.753065674e-33
1.711401727e-33
2.019342128e-33
2.506201922e-33
3.19590063e-33
4.111037203e-33
5.250347797e-33
6.545825571e-33
7.800728218e-33
8.65129652e-33
2.846053038e-33
3.395273255e-33
4.272159657e-33
5.526077521e-33
7.200672885e-33
9.288636734e-33
1.165291101e-32
1.392495112e-32
1.547075709e-32
4.743092526e-33
5.713187331e-33
7.273576893e-33
9.519684792e-33
1.253142333e-32
1.62875323e-32
2.052608657e-32
2.457884019e-32
2.735095466e-32
7.937675733e-33
9.638901787e-33
1.239046759e-32
1.636978153e-32
2.171940241e-32
2.839061879e-32
3.590082056e-32
4.306172823e-32
4.798967832e-32
1.33468573e-32
1.631480582e-32
2.113480372e-32
2.812873045e-32
3.754749873e-32
4.929181989e-32
6.249393358e-32
7.506727092e-32
8.377677505e-32
2.254461958e-32
2.770397587e-32
3.610828224e-32
4.833231498e-32
6.481371186e-32
8.536103029e-32
1.084373938e-31
1.304135888e-31
1.457511759e-31
3.823700592e-32
4.718623191e-32
6.179782358e-32
8.308779686e-32
1.118124897e-31
1.476039845e-31
1.877489944e-31
2.259902161e-31
2.530062484e-31
6.508122579e-32
8.058876183e-32
1.05958726e-31
1.429825896e-31
1.929629993e-31
2.551651916e-31
3.246726983e-31
3.905883393e-31
4.387970063e-31
1.110923636e-31
1.379590524e-31
1.820058928e-31
2.464266381e-31
3.335447958e-31
4.419636558e-31
5.621889865e-31
6.709796953e-31
7.627471581e-31
1.900493298e-31
2.365849075e-31
3.130606711e-31
4.252797941e-31
5.778219397e-31
7.696170343e-31
9.879678938e-31
1.203941424e-30
1.343719515e-30
3.256344414e-31
4.061609285e-31
5.387373803e-31
7.336816176e-31
9.991929415e-31
1.333289679e-30
1.712098328e-30
2.078324577e-30
2.333833251e-30
5.587092937e-31
6.980198204e-31
9.277770592e-31
1.266328464e-30
1.728475944e-30
2.311279258e-30
2.973435008e-30
3.616747161e-30
4.067625386e-30
9.601534189e-31
1.201489898e-30
1.600427105e-30
2.190101365e-30
2.998232869e-30
4.022240605e-30
5.192275396e-30
6.337540648e-30
7.140155429e-30
1.653842913e-30
2.07341847e-30
2.769366351e-30
3.803113135e-30
5.229045444e-30
7.050401286e-30
9.150436746e-30
1.122360677e-29
1.268077131e-29
2.858846999e-30
3.593188616e-30
4.817717469e-30
6.650759045e-30
9.20540401e-30
1.250982069e-29
1.637254909e-29
2.02247007e-29
2.295382999e-29
4.969971005e-30
6.269994139e-30
8.455935819e-30
1.176813763e-29
1.645846344e-29
2.264216471e-29
3.001745109e-29
3.746859716e-29
4.281515846e-29
8.719949675e-30
1.106491888e-29
1.505907939e-29
2.122404566e-29
3.016251758e-29
4.227176102e-29
5.71241507e-29
7.248956609e-29
8.351679381e-29
1.552869555e-29
1.988453181e-29
2.744726525e-29
3.943409669e-29
5.738404754e-29
8.257189169e-29
1.145408553e-28
1.485969597e-28
1.735372076e-28
2.831264031e-29
3.676130377e-29
5.182299406e-29
7.653988824e-29
1.150486624e-28
1.712943426e-28
2.453139913e-28
3.264935179e-28
3.871604084e-28
5.349613907e-29
7.086777668e-29
1.028686788e-28
1.575429918e-28
2.464150781e-28
3.814417395e-28
5.650796211e-28
7.715088284e-28
9.283010072e-28
1.063077493e-28
1.446176469e-28
2.17743187e-28
3.478383261e-28
5.67731626e-28
9.131584294e-28
1.395182332e-27
1.946838996e-27
2.37045823e-27
2.253255083e-28
3.16225104e-28
4.955952159e-28
8.260658479e-28
1.40227091e-27
2.32980238e-27
3.646755337e-27
5.170630829e-27
6.347522678e-27
5.135365773e-28
7.439304842e-28
1.210928572e-27
2.094201485e-27
3.667720502e-27
6.240025091e-27
9.927975181e-27
1.421670565e-26
1.753242854e-26
1.256094311e-27
1.871026889e-27
3.141301741e-27
5.585545051e-27
9.995826436e-27
1.726248823e-26
2.771793253e-26
3.987745419e-26
4.924992739e-26
3.260507326e-27
4.961249485e-27
8.51574064e-27
1.542091798e-26
2.795313488e-26
4.864337529e-26
7.837447188e-26
1.128131421e-25
1.391789114e-25
8.840460822e-27
1.364626901e-26
2.374973523e-26
4.345030592e-26
7.922500137e-26
1.381373043e-25
2.223493057e-25
3.191600571e-25
3.925088779e-25
2.465068953e-26
3.837444578e-26
6.727278072e-26
1.235829969e-25
2.254800966e-25
3.922350048e-25
6.285481806e-25
8.97284641e-25
1.098056239e-24
6.979500423e-26
1.090845881e-25
1.91682403e-25
3.519730139e-25
6.400546617e-25
1.107069939e-24
1.761161896e-24
2.494707483e-24
3.033195895e-24
1.987672085e-25
3.108655501e-25
5.455410115e-25
9.978161294e-25
1.802793049e-24
3.091759064e-24
4.870905534e-24
6.833000306e-24
8.243722294e-24
5.654665429e-25
8.827368662e-25
1.542707427e-24
2.802692015e-24
5.017683472e-24
8.511682859e-24
1.325246449e-23
1.838150942e-23
2.198422888e-23
1.59886407e-24
2.486232151e-24
4.316696616e-24
7.770532527e-24
1.37529971e-23
2.302774334e-23
3.537238205e-23
4.84526967e-23
5.741767703e-23
4.475816274e-24
6.920223561e-24
1.191113651e-23
2.119833068e-23
3.701417017e-23
6.106610953e-23
9.242579297e-23
1.249525333e-22
1.467261502e-22
1.236659938e-23
1.897892827e-23
3.231848103e-23
5.675062354e-23
9.75841291e-23
1.584185815e-22
2.360903722e-22
3.150503128e-22
3.669122911e-22
3.364189552e-23
5.116185642e-23
8.602704555e-23
1.487758714e-22
2.515676765e-22
4.015373672e-22
5.892670729e-22
7.770840839e-22
8.99436494e-22
8.994297296e-23
1.353183971e-22
2.242661458e-22
3.81376351e-22
6.335186911e-22
9.941405172e-22
1.438437236e-21
1.880086479e-21
2.172082185e-21
2.360667377e-22
3.507904143e-22
5.720748607e-22
9.554544928e-22
1.558738867e-21
2.407765e-21
3.4474774e-21
4.498307028e-21
5.240615981e-21
6.081634281e-22
8.912795576e-22
1.428362692e-21
2.341768718e-21
3.756616837e-21
5.737998829e-21
8.217544359e-21
1.092594384e-20
1.320361868e-20
1.539601885e-21
2.222798277e-21
3.498857089e-21
5.639009773e-21
8.947578817e-21
1.372640115e-20
2.034525348e-20
2.926193445e-20
3.933081121e-20
3.840899544e-21
5.46270754e-21
8.463579694e-21
1.351698229e-20
2.168939299e-20
3.517602723e-20
5.925347334e-20
1.035547308e-19
1.676502846e-19
9.494753729e-21
1.334711709e-20
2.05765334e-20
3.355367763e-20
5.836410386e-20
1.129671235e-19
2.456593498e-19
5.465199543e-19
1.027542619e-18
2.350948828e-20
3.311547714e-20
5.272775678e-20
9.551938697e-20
2.059883369e-19
5.283737903e-19
1.452831753e-18
3.693327724e-18
7.339008255e-18
5.970937555e-20
8.784351822e-20
1.58321273e-19
3.630695962e-19
1.036401199e-18
3.265942618e-18
9.933005174e-18
2.614325501e-17
5.227944294e-17
1.642795439e-19
2.756855981e-19
6.308213933e-19
1.883664022e-18
6.407721805e-18
2.17524931e-17
6.731690275e-17
1.762201797e-16
3.485307036e-16
5.407354829e-19
1.130830612e-18
3.284826774e-18
1.138525258e-17
4.092107305e-17
1.395674629e-16
4.254917098e-16
1.090950332e-15
2.118289461e-15
2.317270275e-18
5.882965435e-18
1.931296146e-17
6.958356477e-17
2.485356063e-16
8.277625202e-16
2.45070397e-15
6.103065872e-15
1.158073683e-14
1.240305851e-17
3.410095433e-17
1.14105541e-16
4.035110715e-16
1.39339305e-15
4.465645907e-15
1.271604662e-14
3.056846752e-14
5.647705e-14
7.329782827e-17
1.991885187e-16
6.42976496e-16
2.169757583e-15
7.128507841e-15
2.173146851e-14
5.89995321e-14
1.358514607e-13
2.428517187e-13
4.359485685e-16
1.118399429e-15
3.387364984e-15
1.072458794e-14
3.309481812e-14
9.493970528e-14
2.430271225e-13
5.297155897e-13
9.063723098e-13
2.488535092e-15
5.908240096e-15
1.653557783e-14
4.851067157e-14
1.390540025e-13
3.707863395e-13
8.820441145e-13
1.789778557e-12
2.883986272e-12
1.329352993e-14
2.898971355e-14
7.43291397e-14
2.001884447e-13
5.271161569e-13
1.288616021e-12
2.800931911e-12
5.189453181e-12
7.736534873e-12
6.534657331e-14
1.307891861e-13
3.056675954e-13
7.495063558e-13
1.792604205e-12
3.961656231e-12
7.74488205e-12
1.292118486e-11
1.770046774e-11
2.917312617e-13
5.36455737e-13
1.138502649e-12
2.521825327e-12
5.41990579e-12
1.070237249e-11
1.867246015e-11
2.813667515e-11
3.591553418e-11
1.165260999e-12
1.971595431e-12
3.787980409e-12
7.528350872e-12
1.442571025e-11
2.536350973e-11
3.982892275e-11
5.541541661e-11
6.752654685e-11
4.092010581e-12
6.381705434e-12
1.108329515e-11
1.970901476e-11
3.371280549e-11
5.343183222e-11
7.740999205e-11
1.02159221e-10
1.209872551e-10
1.24074168e-11
1.78995272e-11
2.820151071e-11
4.520310948e-11
7.018696847e-11
1.029848523e-10
1.414788398e-10
1.805269121e-10
2.098301097e-10
3.21268535e-11
4.325754467e-11
6.268266466e-11
9.2503101e-11
1.34077834e-10
1.871647791e-10
2.486154708e-10
3.102878852e-10
3.560542699e-10
7.164676905e-11
9.150814857e-11
1.248037651e-10
1.742683182e-10
2.419161729e-10
3.274233804e-10
4.257043878e-10
5.237326524e-10
5.959810079e-10
1.419547269e-10
1.751975003e-10
2.300655792e-10
3.106572335e-10
4.201353261e-10
5.579630941e-10
7.161058135e-10
8.737335106e-10
9.896716122e-10
2.591623777e-10
3.134461026e-10
4.025489373e-10
5.329254107e-10
7.097020718e-10
9.325617042e-10
1.189187755e-09
1.446148739e-09
1.635802108e-09
4.473750242e-10
5.348295255e-10
6.781103829e-10
8.877348818e-10
1.17284453e-09
1.534303555e-09
1.953893143e-09
2.377995378e-09
2.693676461e-09
7.408609994e-10
8.800048365e-10
1.108261491e-09
1.443332537e-09
1.901803072e-09
2.488246585e-09
3.176846927e-09
3.881826651e-09
4.412863691e-09
1.186740548e-09
1.405551764e-09
1.765523142e-09
2.296713323e-09
3.02939511e-09
3.976852844e-09
5.104127264e-09
6.274741309e-09
7.16822952e-09
1.849252624e-09
2.188855977e-09
2.749680397e-09
3.582434799e-09
4.741308274e-09
6.256964563e-09
8.084045259e-09
1.000746184e-08
1.149413291e-08
2.815611654e-09
3.335103037e-09
4.196473472e-09
5.483499335e-09
7.289696449e-09
9.67637476e-09
1.258655015e-08
1.568605992e-08
1.810775227e-08
4.206177907e-09
4.988445853e-09
6.290113032e-09
8.245240891e-09
1.1007853e-08
1.468783795e-08
1.921434986e-08
2.40781324e-08
2.791055945e-08
6.1910158e-09
7.349358405e-09
9.281342051e-09
1.219323081e-08
1.632589325e-08
2.185899287e-08
2.870250757e-08
3.60984498e-08
4.196154549e-08
9.014416348e-09
1.069941375e-08
1.351177071e-08
1.775532214e-08
2.378708415e-08
3.187789965e-08
4.190732247e-08
5.277711856e-08
6.142741545e-08
1.302650336e-08
1.543215513e-08
1.944262662e-08
2.548569175e-08
3.406325635e-08
4.555505995e-08
5.979097858e-08
7.52266598e-08
8.75397537e-08
1.871723807e-08
2.208494881e-08
2.768247176e-08
3.608567514e-08
4.796574501e-08
6.382279962e-08
8.341271655e-08
1.046419811e-07
1.216455115e-07
2.674462518e-08
3.136353862e-08
3.90058576e-08
5.04144027e-08
6.644718325e-08
8.773114974e-08
1.139317609e-07
1.423404682e-07
1.651622958e-07
3.794824272e-08
4.41511551e-08
5.435631214e-08
6.948546904e-08
9.059507005e-08
1.184486623e-07
1.526295304e-07
1.895599932e-07
2.190592748e-07
5.334365609e-08
6.149979689e-08
7.48349738e-08
9.445729166e-08
1.216376642e-07
1.573095895e-07
2.007116752e-07
2.471501898e-07
2.840562147e-07
7.410487575e-08
8.461528873e-08
1.016968536e-07
1.266474566e-07
1.610065574e-07
2.05521603e-07
2.590120151e-07
3.157344561e-07
3.60656567e-07
1.015693892e-07
1.148762629e-07
1.364275658e-07
1.676105348e-07
2.098890333e-07
2.639358787e-07
3.281042937e-07
3.955003948e-07
4.485608908e-07
1.373738998e-07
1.539529205e-07
1.804865473e-07
2.184161413e-07
2.691616012e-07
3.331854478e-07
4.082799754e-07
4.8635642e-07
5.474073076e-07
1.829154191e-07
2.030220928e-07
2.349037098e-07
2.799616793e-07
3.394802435e-07
4.13597191e-07
4.994597568e-07
5.877907921e-07
6.56340146e-07
2.392558955e-07
2.63080706e-07
3.005340339e-07
3.528860632e-07
4.211779445e-07
5.051157006e-07
6.011406851e-07
6.988479038e-07
7.740546156e-07
3.072658352e-07
3.34884077e-07
3.779411948e-07
4.374801842e-07
5.141907256e-07
6.072533975e-07
7.123740111e-07
8.181365657e-07
8.9883448e-07
3.875045995e-07
4.188443307e-07
4.673082274e-07
5.336170515e-07
6.180092723e-07
7.190678987e-07
8.317706546e-07
9.438626988e-07
1.028605288e-06
4.801288352e-07
5.149505369e-07
5.683723752e-07
6.407062645e-07
7.316569231e-07
8.391665416e-07
9.575327828e-07
1.073884703e-06
1.161005353e-06
5.848256193e-07
6.227128205e-07
6.803850734e-07
7.57674645e-07
8.536946277e-07
9.657373081e-07
1.087509005e-06
1.205786939e-06
1.293467916e-06
7.007710259e-07
7.411323467e-07
8.02098682e-07
8.829742103e-07
9.822529991e-07
1.096604958e-06
1.219269865e-06
1.33696206e-06
1.423289275e-06
8.266161091e-07
8.686990879e-07
9.317812566e-07
1.014617942e-06
1.115091363e-06
1.22931342e-06
1.350209174e-06
1.464705591e-06
1.547570299e-06
9.605020535e-07
1.003418475e-06
1.067259317e-06
1.150241808e-06
1.249681385e-06
1.361237956e-06
1.477720661e-06
1.586623781e-06
1.664561406e-06
1.100105092e-06
1.142866541e-06
1.205986339e-06
1.287186475e-06
1.383295388e-06
1.489655939e-06
1.599167599e-06
1.700196057e-06
1.771670216e-06
1.242710306e-06
1.284272085e-06
1.345135393e-06
1.422600339e-06
1.513118404e-06
1.611871498e-06
1.712055396e-06
1.803173498e-06
1.866844274e-06
1.385311245e-06
1.424621813e-06
1.481710369e-06
1.553555072e-06
1.63636431e-06
1.725327401e-06
1.814132935e-06
1.893644396e-06
1.948444231e-06
1.524729583e-06
1.560781697e-06
1.612667403e-06
1.677162982e-06
1.750382382e-06
1.82769193e-06
1.903448107e-06
1.970043866e-06
2.015189024e-06
1.657744721e-06
1.689622771e-06
1.735032261e-06
1.790678586e-06
1.852732401e-06
1.916894332e-06
1.978323501e-06
2.031064848e-06
2.066063694e-06
1.781211738e-06
1.808126405e-06
1.845982636e-06
1.891543668e-06
1.941169776e-06
1.991032758e-06
2.037239813e-06
2.075574146e-06
2.099916456e-06
1.892109966e-06
1.91340118e-06
1.942806971e-06
1.977258299e-06
2.013498253e-06
2.04817913e-06
2.078103959e-06
2.101513443e-06
2.115750633e-06
1.987330448e-06
2.002500634e-06
2.022768181e-06
2.044993555e-06
2.066819065e-06
2.086065676e-06
2.101082794e-06
2.111180143e-06
2.116291304e-06
2.062989202e-06
2.071493948e-06
2.08219272e-06
2.092894731e-06
2.101641055e-06
2.106956382e-06
2.108237718e-06
2.10614964e-06
2.102953239e-06
2.118421654e-06
2.120881628e-06
2.12290562e-06
2.12289903e-06
2.119497023e-06
2.111968631e-06
2.100661439e-06
2.087522893e-06
2.076872223e-06
2.154993025e-06
2.151811848e-06
2.145766064e-06
2.135812422e-06
2.121218071e-06
2.101991752e-06
2.079361366e-06
2.056415234e-06
2.039232058e-06
2.173237196e-06
2.164839435e-06
2.151376817e-06
2.132355355e-06
2.107672838e-06
2.078043913e-06
2.045490535e-06
2.014077249e-06
1.991333067e-06
2.173769164e-06
2.160662049e-06
2.140552847e-06
2.113486784e-06
2.079967234e-06
2.041359144e-06
2.000377392e-06
1.96189051e-06
1.934573345e-06
2.157549572e-06
2.140319672e-06
2.114438286e-06
2.080462982e-06
2.039458271e-06
1.993367708e-06
1.945489149e-06
1.901324187e-06
1.870404568e-06
2.12591091e-06
2.105199061e-06
2.074485846e-06
2.034798465e-06
1.987703031e-06
1.935639406e-06
1.882375524e-06
1.833882839e-06
1.800284245e-06
2.080495902e-06
2.056966914e-06
2.022385196e-06
1.978192715e-06
1.926387369e-06
1.869817577e-06
1.812610473e-06
1.761056548e-06
1.725632245e-06
2.023165616e-06
1.997479424e-06
1.959975751e-06
1.91244864e-06
1.857252411e-06
1.797555458e-06
1.737739181e-06
1.684277789e-06
1.647794534e-06
1.955901623e-06
1.928688776e-06
1.889159835e-06
1.839394585e-06
1.78202715e-06
1.720460266e-06
1.659233515e-06
1.604886782e-06
1.568015099e-06
1.880714094e-06
1.852556774e-06
1.811824331e-06
1.760815955e-06
1.702371247e-06
1.640047542e-06
1.57845725e-06
1.524105828e-06
1.487416099e-06
1.799562288e-06
1.770981137e-06
1.729775144e-06
1.678399514e-06
1.61983001e-06
1.557706738e-06
1.496641322e-06
1.443022361e-06
1.406985764e-06
1.714290788e-06
1.685737212e-06
1.64468651e-06
1.593691616e-06
1.535802033e-06
1.474677944e-06
1.414868568e-06
1.362579968e-06
1.327573172e-06
1.626582637e-06
1.598435908e-06
1.558065455e-06
1.508070182e-06
1.451518926e-06
1.392038888e-06
1.334066942e-06
1.283576274e-06
1.249888836e-06
1.537928909e-06
1.510497143e-06
1.471230476e-06
1.422729296e-06
1.368035841e-06
1.310700858e-06
1.255009849e-06
1.206666456e-06
1.174509929e-06
1.449613038e-06
1.42313712e-06
1.385302695e-06
1.338674631e-06
1.28623105e-06
1.23141188e-06
1.17832212e-06
1.132371044e-06
1.101888974e-06
1.362707584e-06
1.337367085e-06
1.301207205e-06
1.256727561e-06
1.206812616e-06
1.154765453e-06
1.104490137e-06
1.061086784e-06
1.032364909e-06
1.278080729e-06
1.254001017e-06
1.219682243e-06
1.177535807e-06
1.130330244e-06
1.081213154e-06
1.033874737e-06
9.930994151e-07
9.661755426e-07
1.196409838e-06
1.173669689e-06
1.141293806e-06
1.101588491e-06
1.057190517e-06
1.011079757e-06
9.667257219e-07
9.285973478e-07
9.034705695e-07
1.118199713e-06
1.096838958e-06
1.066453853e-06
1.029233982e-06
9.876740195e-07
9.445792124e-07
9.031967669e-07
8.676855334e-07
8.443245796e-07
1.043803363e-06
1.023830105e-06
9.954399415e-07
9.606985949e-07
9.219529328e-07
8.818310998e-07
8.433603997e-07
8.103989654e-07
7.887495132e-07
9.734435096e-07
9.548407247e-07
9.284152256e-07
8.961054323e-07
8.601084636e-07
8.228763904e-07
7.872221092e-07
7.567152909e-07
7.367062337e-07
9.072338301e-07
8.899652338e-07
8.654478888e-07
8.354924281e-07
8.021472631e-07
7.676921354e-07
7.347333328e-07
7.06566309e-07
6.881150164e-07
8.451989397e-07
8.292140401e-07
8.065291349e-07
7.788289009e-07
7.480163754e-07
7.162047442e-07
6.858031126e-07
6.598482144e-07
6.428648474e-07
7.872925424e-07
7.725308975e-07
7.515894188e-07
7.260304043e-07
6.976165516e-07
6.683017155e-07
6.403083166e-07
6.164305275e-07
6.008215012e-07
7.334135004e-07
7.198082221e-07
7.005127007e-07
6.769716988e-07
6.50813815e-07
6.238417703e-07
5.981024198e-07
5.761637313e-07
5.618344314e-07
6.834197103e-07
6.709002874e-07
6.53148685e-07
6.31497845e-07
6.074493041e-07
5.826634335e-07
5.590229063e-07
5.388856855e-07
5.257425442e-07
6.371398351e-07
6.256343558e-07
6.093231162e-07
5.894334993e-07
5.673474874e-07
5.445921648e-07
5.228973951e-07
5.044269147e-07
4.923789498e-07
5.943830249e-07
5.838198864e-07
5.688462702e-07
5.505905558e-07
5.303228899e-07
5.094461733e-07
4.895486143e-07
4.726148908e-07
4.615748021e-07
5.54946819e-07
5.452560044e-07
5.315198259e-07
5.147743087e-07
4.961854955e-07
4.770410683e-07
4.587983638e-07
4.432774293e-07
4.331623383e-07
5.186234429e-07
5.097374427e-07
4.971423147e-07
4.817883216e-07
4.64744998e-07
4.471935002e-07
4.304706011e-07
4.162453248e-07
4.0697723e-07
4.85204721e-07
4.77059168e-07
4.655133496e-07
4.514381907e-07
4.35814068e-07
4.197239422e-07
4.043937844e-07
3.91354339e-07
3.828603509e-07
4.544858201e-07
4.470198949e-07
4.364368251e-07
4.235343753e-07
4.092107947e-07
3.944587526e-07
3.804025946e-07
3.684466496e-07
3.60659057e-07
4.262680186e-07
4.194246772e-07
4.097232631e-07
3.978942583e-07
3.847604453e-07
3.712316432e-07
3.583391441e-07
3.473718538e-07
3.402280647e-07
4.003606795e-07
3.940867438e-07
3.851914621e-07
3.74343578e-07
3.622966693e-07
3.498846657e-07
3.380537714e-07
3.279876124e-07
3.214300042e-07
3.765825804e-07
3.708287266e-07
3.62669585e-07
3.52717354e-07
3.416622576e-07
3.302688111e-07
3.194055021e-07
3.101600037e-07
3.04135711e-07
3.547627337e-07
3.494834057e-07
3.419958029e-07
3.328604154e-07
3.227095501e-07
3.12244306e-07
3.022622493e-07
2.937636524e-07
2.882243136e-07
3.347408084e-07
3.298940782e-07
3.230185928e-07
3.146276169e-07
3.053005712e-07
2.956806726e-07
2.865008115e-07
2.786816827e-07
2.73583162e-07
3.163672452e-07
3.119146383e-07
3.055967702e-07
2.978838191e-07
2.893069576e-07
2.804566104e-07
2.720067179e-07
2.648055387e-07
2.601076379e-07
2.995031422e-07
2.954094406e-07
2.89599324e-07
2.82503692e-07
2.746097316e-07
2.664597452e-07
2.586739611e-07
2.520347094e-07
2.477008764e-07
2.84019972e-07
2.802530055e-07
2.749051065e-07
2.683713895e-07
2.610989644e-07
2.535862849e-07
2.464046499e-07
2.402763836e-07
2.362734265e-07
2.697991791e-07
2.663296125e-07
2.614024225e-07
2.553801369e-07
2.486733625e-07
2.417406097e-07
2.351086082e-07
2.294450603e-07
2.257428718e-07
2.567316975e-07
2.53532819e-07
2.489885517e-07
2.434317576e-07
2.372398053e-07
2.308348228e-07
2.247029416e-07
2.194621316e-07
2.160334256e-07
2.447174176e-07
2.417649332e-07
2.375692296e-07
2.324361681e-07
2.267128541e-07
2.207882784e-07
2.151115862e-07
2.102554519e-07
2.070755156e-07
2.336646272e-07
2.30936463e-07
2.270581099e-07
2.223108552e-07
2.170142509e-07
2.115271029e-07
2.062648529e-07
2.017589047e-07
1.988053673e-07
2.234894434e-07
2.209655581e-07
2.173762208e-07
2.129803525e-07
2.080724162e-07
2.029837178e-07
1.98098977e-07
1.939119758e-07
1.911645932e-07
2.141152492e-07
2.117774578e-07
2.084514294e-07
2.04375725e-07
1.998219587e-07
1.950963749e-07
1.905556788e-07
1.866593377e-07
1.840997942e-07
2.05472144e-07
2.033039534e-07
2.002179209e-07
1.964340696e-07
1.922031992e-07
1.878087073e-07
1.835817409e-07
1.799504503e-07
1.775621762e-07
1.974964151e-07
1.954828715e-07
1.926156989e-07
1.89098037e-07
1.851617173e-07
1.81069301e-07
1.771286058e-07
1.737391808e-07
1.715071858e-07
1.901300347e-07
1.882575825e-07
1.855901113e-07
1.823153778e-07
1.786479212e-07
1.7483129e-07
1.711519946e-07
1.679834447e-07
1.658941654e-07
1.833201852e-07
1.815765373e-07
1.790914025e-07
1.760385154e-07
1.726166425e-07
1.690519748e-07
1.656115496e-07
1.626448678e-07
1.606860299e-07
1.77018814e-07
1.753928335e-07
1.730742953e-07
1.702241462e-07
1.670267586e-07
1.636924674e-07
1.604705003e-07
1.576884723e-07
1.558489643e-07
1.711822191e-07
1.696638101e-07
1.674976006e-07
1.648328679e-07
1.618408407e-07
1.587173597e-07
1.556953526e-07
1.530823826e-07
1.513521426e-07
1.657706643e-07
1.643506737e-07
1.623238562e-07
1.598288346e-07
1.570248276e-07
1.540944174e-07
1.512556015e-07
1.487975551e-07
1.471674674e-07
1.607480241e-07
1.594181509e-07
1.575189935e-07
1.551794392e-07
1.525477255e-07
1.497942973e-07
1.471234656e-07
1.448075274e-07
1.432693297e-07
1.560814568e-07
1.548341709e-07
1.5305203e-07
1.508550204e-07
1.483813311e-07
1.457902875e-07
1.432736431e-07
1.410881879e-07
1.396343875e-07
1.517411043e-07
1.505695721e-07
1.488947883e-07
1.468285945e-07
1.444999778e-07
1.420580683e-07
1.396830878e-07
1.376175643e-07
1.362413622e-07
1.476998173e-07
1.465978348e-07
1.450216379e-07
1.430756097e-07
1.408803038e-07
1.385754945e-07
1.363308038e-07
1.3437563e-07
1.330708531e-07
1.439329048e-07
1.428948368e-07
1.414092598e-07
1.395737214e-07
1.375010396e-07
1.353223953e-07
1.331976583e-07
1.313441268e-07
1.301051664e-07
1.404179049e-07
1.3943863e-07
1.380364319e-07
1.363025879e-07
1.343428145e-07
1.322803924e-07
1.302662104e-07
1.285064035e-07
1.273281598e-07
1.371343766e-07
1.36209238e-07
1.348838336e-07
1.332436843e-07
1.313879809e-07
1.294327347e-07
1.275205555e-07
1.258472681e-07
1.247251012e-07
1.34063711e-07
1.331884713e-07
1.319338681e-07
1.303801326e-07
1.286204536e-07
1.267641473e-07
1.249461833e-07
1.233528546e-07
1.22282539e-07
1.311889586e-07
1.303597601e-07
1.291705013e-07
1.276965484e-07
1.260255651e-07
1.242606945e-07
1.225298495e-07
1.210105e-07
1.199881852e-07
1.284946744e-07
1.277080019e-07
1.265791152e-07
1.251789013e-07
1.235899326e-07
1.219096558e-07
1.202594583e-07
1.188086345e-07
1.178308083e-07
1.259667759e-07
1.252194246e-07
1.241463756e-07
1.228143884e-07
1.213013395e-07
1.196994132e-07
1.181239567e-07
1.167366805e-07
1.158001368e-07
1.235924157e-07
1.228814612e-07
1.218601119e-07
1.205913199e-07
1.191486261e-07
1.176193488e-07
1.161132383e-07
1.147849618e-07
1.138867713e-07
1.213598656e-07
1.206826375e-07
1.197092085e-07
1.184990153e-07
1.171215921e-07
1.156597528e-07
1.142180561e-07
1.129446208e-07
1.120821047e-07
1.192584118e-07
1.186124697e-07
1.176835065e-07
1.165277099e-07
1.152109074e-07
1.138117394e-07
1.124299437e-07
1.112075438e-07
1.103782502e-07
1.172782608e-07
1.166613724e-07
1.157737147e-07
1.146684695e-07
1.134080319e-07
1.120671713e-07
1.107411437e-07
1.095662932e-07
1.087679757e-07
1.154104533e-07
1.148205751e-07
1.139713294e-07
1.129131144e-07
1.117051431e-07
1.104185908e-07
1.091445435e-07
1.080140462e-07
1.072446451e-07
1.136467869e-07
1.130820468e-07
1.122685616e-07
1.112541491e-07
1.100950698e-07
1.088591585e-07
1.076336162e-07
1.065445393e-07
1.058021641e-07
1.119797465e-07
1.114384277e-07
1.106582713e-07
1.096847003e-07
1.085712331e-07
1.073825963e-07
1.062023683e-07
1.051520181e-07
1.04434932e-07
1.104024408e-07
1.098829677e-07
1.091339077e-07
1.081984596e-07
1.071275922e-07
1.059831372e-07
1.04845291e-07
1.038311914e-07
1.031377976e-07
1.089085448e-07
1.084094702e-07
1.076894558e-07
1.067896324e-07
1.057585958e-07
1.046554789e-07
1.035573175e-07
1.025771903e-07
1.019060195e-07
1.07492248e-07
1.070122411e-07
1.063193866e-07
1.054528902e-07
1.044591371e-07
1.033947415e-07
1.023337825e-07
1.013855304e-07
1.007352295e-07
1.06148206e-07
1.056860427e-07
1.050186127e-07
1.041833285e-07
1.032245136e-07
1.021964297e-07
1.011703862e-07
1.002520769e-07
9.962139919e-08
1.048714979e-07
1.044260507e-07
1.037824468e-07
1.029764266e-07
1.020503893e-07
1.010563962e-07
1.000631609e-07
9.91730134e-08
9.856080965e-08
1.036575845e-07
1.032278143e-07
1.026065634e-07
1.018280113e-07
1.009327592e-07
9.997080946e-08
9.900843891e-08
9.814481093e-08
9.755002177e-08
1.02502271e-07
1.020872193e-07
1.01486962e-07
1.007342209e-07
9.986791603e-08
9.893612047e-08
9.800282209e-08
9.716419933e-08
9.658584833e-08
1.014016697e-07
1.01000451e-07
1.004199322e-07
9.969147177e-08
9.885241691e-08
9.794903166e-08
9.704315146e-08
9.622813766e-08
9.566532541e-08
1.003521636e-07
9.996395929e-08
9.940201811e-08
9.869642357e-08
9.788304992e-08
9.700646401e-08
9.612647537e-08
9.533378347e-08
9.478568225e-08
9.935037007e-08
9.897442142e-08
9.842998235e-08
9.774594321e-08
9.695679851e-08
9.610552199e-08
9.525001498e-08
9.447845869e-08
9.39443077e-08
9.839310167e-08
9.802870351e-08
9.750076715e-08
9.683706619e-08
9.607080265e-08
9.524345457e-08
9.44111251e-08
9.365961052e-08
9.313871106e-08
9.747732447e-08
9.712381831e-08
9.661145168e-08
9.596695323e-08
9.522231464e-08
9.441761014e-08
9.360724831e-08
9.28747648e-08
9.23664751e-08
9.660011151e-08
9.625687806e-08
9.575920392e-08
9.513284077e-08
9.440864802e-08
9.362538363e-08
9.28358601e-08
9.212146943e-08
9.162519841e-08
9.575859017e-08
9.542504077e-08
9.494122533e-08
9.433198353e-08
9.362711747e-08
9.286415337e-08
9.20944027e-08
9.139722548e-08
9.091242451e-08
9.494988205e-08
9.462544855e-08
9.415468685e-08
9.35615874e-08
9.287496802e-08
9.213120608e-08
9.138020558e-08
9.069940333e-08
9.022555515e-08
9.417103401e-08
9.385515664e-08
9.339665486e-08
9.28187314e-08
9.214929205e-08
9.142364818e-08
9.069039066e-08
9.002514232e-08
8.956174579e-08
9.341893947e-08
9.311105221e-08
9.266400622e-08
9.210027768e-08
9.144693305e-08
9.073830251e-08
9.002176148e-08
8.937123255e-08
8.891778211e-08
9.269024946e-08
9.238976239e-08
9.195333177e-08
9.140276909e-08
9.076437605e-08
9.007159025e-08
8.937067601e-08
8.873397896e-08
8.828993769e-08
9.198127351e-08
9.168755186e-08
9.1260829e-08
9.07223152e-08
9.009762532e-08
8.941939921e-08
8.873290471e-08
8.810904935e-08
8.767381461e-08
9.128787139e-08
9.100021104e-08
9.058218474e-08
9.005446793e-08
8.944207143e-08
8.877694082e-08
8.810347647e-08
8.749130967e-08
8.706417061e-08
9.060533744e-08
9.032293685e-08
8.991245073e-08
8.939409004e-08
8.879235099e-08
8.813859975e-08
8.747651734e-08
8.687465186e-08
8.645473881e-08
8.99282805e-08
8.965020934e-08
8.924591527e-08
8.873522035e-08
8.814220401e-08
8.749778213e-08
8.684508867e-08
8.625182203e-08
8.583804822e-08
8.925050346e-08
8.897566858e-08
8.857597609e-08
8.807094138e-08
8.748433515e-08
8.68467695e-08
8.620103302e-08
8.561425839e-08
8.520525543e-08
8.856488747e-08
8.829199718e-08
8.789502044e-08
8.739325626e-08
8.681028695e-08
8.617658772e-08
8.553483845e-08
8.495195074e-08
8.454600022e-08
8.786328723e-08
8.759081522e-08
8.71943197e-08
8.669298312e-08
8.611033403e-08
8.547690124e-08
8.483553273e-08
8.425333454e-08
8.384829923e-08
8.713644433e-08
8.686259503e-08
8.646394649e-08
8.595967584e-08
8.537340864e-08
8.473594425e-08
8.409062071e-08
8.350523416e-08
8.309849318e-08
8.637392779e-08
8.60966056e-08
8.56927248e-08
8.518158142e-08
8.458706771e-08
8.394050008e-08
8.328607806e-08
8.269287003e-08
8.228126382e-08
8.556410791e-08
8.528089286e-08
8.486822038e-08
8.434564475e-08
8.373751517e-08
8.307594352e-08
8.240641463e-08
8.179994444e-08
8.137973618e-08
8.469417422e-08
8.440230682e-08
8.397678222e-08
8.34375692e-08
8.280968716e-08
8.212635566e-08
8.143482283e-08
8.080882093e-08
8.037568145e-08
8.375020574e-08
8.344658462e-08
8.300364477e-08
8.244194506e-08
8.178741317e-08
8.10747239e-08
8.03534202e-08
7.97008097e-08
7.924983371e-08
8.271730242e-08
8.239849781e-08
8.193309982e-08
8.134245429e-08
8.065366225e-08
7.990323681e-08
7.914359805e-08
7.845656885e-08
7.798233075e-08
8.157978578e-08
8.124207264e-08
8.074874636e-08
8.012216036e-08
7.93908825e-08
7.859368222e-08
7.778648367e-08
7.705662966e-08
7.655328614e-08
8.032147637e-08
7.99608903e-08
7.943382569e-08
7.876388974e-08
7.798144043e-08
7.712795419e-08
7.626352115e-08
7.548204923e-08
7.494349518e-08
7.892605462e-08
7.853847387e-08