/*--------------------------------*- C++ -*----------------------------------*\
| =========                 |                                                 |
| \\      /  F ield         | OpenFOAM: The Open Source CFD Toolbox           |
|  \\    /   O peration     | Version:  2212                                  |
|   \\  /    A nd           | Website:  www.openfoam.com                      |
|    \\/     M anipulation  |                                                 |
\*---------------------------------------------------------------------------*/
FoamFile
{
    version     2.0;
    format      ascii;
    arch        "LSB;label=32;scalar=64";
    class       volScalarField;
    location    "30.00000000";
    object      AC3H4;
}
// * * * * * * * * * * * * * * * * * * * * * * * * * * * * * * * * * * * * * //

dimensions      [0 0 0 0 0 0 0];

internalField   nonuniform List<scalar> 
3000
(
9.310865427e-22
1.045992044e-21
1.219379923e-21
1.450424544e-21
1.736762949e-21
2.070598649e-21
2.431802358e-21
2.776419895e-21
3.020077517e-21
3.495843552e-21
3.943092782e-21
4.617677632e-21
5.518558666e-21
6.644760358e-21
7.989937025e-21
9.530631303e-21
1.118922745e-20
1.265828241e-20
7.83109631e-21
8.902314995e-21
1.053342862e-20
1.274791006e-20
1.55852872e-20
1.908632432e-20
2.323680159e-20
2.780387617e-20
3.170656696e-20
1.491758843e-20
1.713568106e-20
2.056261037e-20
2.531399029e-20
3.155748071e-20
3.945076128e-20
4.894975777e-20
5.929440701e-20
6.764344928e-20
2.649284161e-20
3.080522502e-20
3.757276689e-20
4.713877439e-20
5.995231691e-20
7.637141646e-20
9.612077982e-20
1.17092565e-19
1.331917226e-19
4.556209567e-20
5.365590693e-20
6.654005874e-20
8.503651872e-20
1.101317303e-19
1.424575367e-19
1.810495004e-19
2.210426875e-19
2.506325569e-19
7.735872896e-20
9.222573354e-20
1.16167414e-19
1.509259245e-19
1.984363395e-19
2.596435103e-19
3.320165546e-19
4.05549662e-19
4.586072874e-19
1.309377433e-19
1.578415469e-19
2.015515387e-19
2.654988842e-19
3.532474288e-19
4.660587171e-19
5.982719986e-19
7.306429587e-19
8.24559584e-19
2.219994947e-19
2.701712419e-19
3.489377593e-19
4.647503166e-19
6.239422152e-19
8.280364708e-19
1.065502183e-18
1.300775872e-18
1.465861903e-18
3.777611627e-19
4.633400605e-19
6.039026769e-19
8.112255341e-19
1.096351953e-18
1.460913531e-18
1.882716306e-18
2.29756906e-18
2.586519058e-18
6.454691708e-19
7.966348785e-19
1.045683825e-18
1.413702431e-18
1.919747289e-18
2.565199751e-18
3.308831434e-18
4.036510826e-18
4.540959922e-18
1.107220734e-18
1.373150555e-18
1.812160695e-18
2.461521375e-18
3.353882937e-18
4.489492289e-18
5.79338137e-18
7.064871917e-18
7.944445522e-18
1.90581846e-18
2.372382228e-18
3.143623111e-18
4.284859053e-18
5.851621642e-18
7.840501626e-18
1.011602121e-17
1.232877872e-17
1.386524364e-17
3.289741579e-18
4.107042417e-18
5.459405644e-18
7.461024499e-18
1.020600708e-17
1.367991168e-17
1.76314191e-17
2.144649505e-17
2.416783075e-17
5.690975036e-18
7.121463716e-18
9.491064769e-18
1.30011251e-17
1.78151398e-17
2.389565977e-17
3.074531995e-17
3.704601328e-17
4.219073586e-17
9.858875102e-18
1.235996573e-17
1.650833341e-17
2.266421266e-17
3.113434584e-17
4.191722766e-17
5.434633005e-17
6.675691198e-17
7.454187757e-17
1.709087167e-17
2.145476162e-17
2.869669872e-17
3.944641284e-17
5.423296526e-17
7.302081321e-17
9.451864429e-17
1.153631473e-16
1.295201365e-16
2.963590158e-17
3.723559477e-17
4.98489767e-17
6.856809803e-17
9.429795931e-17
1.269419132e-16
1.642053714e-16
2.002477197e-16
2.249199628e-16
5.139605742e-17
6.461461929e-17
8.655472884e-17
1.191101467e-16
1.638401022e-16
2.205547618e-16
2.852521311e-16
3.478073838e-16
3.906572297e-16
8.914461474e-17
1.121206029e-16
1.502582429e-16
2.068448889e-16
2.845788455e-16
3.831137734e-16
4.954853316e-16
6.041114822e-16
6.785118725e-16
1.546406192e-16
1.945620069e-16
2.608315827e-16
3.59158349e-16
4.942190958e-16
6.653929911e-16
8.605629938e-16
1.049186509e-15
1.178357804e-15
2.683008069e-16
3.376516425e-16
4.527806025e-16
6.236020306e-16
8.582245093e-16
1.15554097e-15
1.494473182e-15
1.821972734e-15
2.046206802e-15
4.655759836e-16
5.860376255e-16
7.860217087e-16
1.082741044e-15
1.490251914e-15
2.006584076e-15
2.595082367e-15
3.16362088e-15
3.552839941e-15
8.080237717e-16
1.017249335e-15
1.364594072e-15
1.879928654e-15
2.587606007e-15
3.484115909e-15
4.505727472e-15
5.49249211e-15
6.167930651e-15
1.402531699e-15
1.765907114e-15
2.369138105e-15
3.264031477e-15
4.492743226e-15
6.048990145e-15
7.821963368e-15
9.534028622e-15
1.07056805e-14
2.434681401e-15
3.065738831e-15
4.113250866e-15
5.6670032e-15
7.799881873e-15
1.050055622e-14
1.357632747e-14
1.654544084e-14
1.857675655e-14
4.22662911e-15
5.322466209e-15
7.141218898e-15
9.838335531e-15
1.353960573e-14
1.822439222e-14
2.355749979e-14
2.870333848e-14
3.222242527e-14
7.337406994e-15
9.240082936e-15
1.239726402e-14
1.70777158e-14
2.349799355e-14
3.16200182e-14
4.086048905e-14
4.977092534e-14
5.586102236e-14
1.273652278e-14
1.603935462e-14
2.151821207e-14
2.963694019e-14
4.076710918e-14
5.483736223e-14
7.083208053e-14
8.624230914e-14
9.676645931e-14
2.210389269e-14
2.783516548e-14
3.733849531e-14
5.141247274e-14
7.069179584e-14
9.504047597e-14
1.226890007e-13
1.492961981e-13
1.674471417e-13
3.834685234e-14
4.828654448e-14
6.475904152e-14
8.913489161e-14
1.224918608e-13
1.645664011e-13
2.122733903e-13
2.581124078e-13
2.893365999e-13
6.648879099e-14
8.37128549e-14
1.122368612e-13
1.544032383e-13
2.120280521e-13
2.845927533e-13
3.667152719e-13
4.45462377e-13
4.989979215e-13
1.151911525e-13
1.450029325e-13
1.94327299e-13
2.671464987e-13
3.66490329e-13
4.913261507e-13
6.322615928e-13
7.670538907e-13
8.584616161e-13
1.993493204e-13
2.508651222e-13
3.359994396e-13
4.614767859e-13
6.32287773e-13
8.463597635e-13
1.087304074e-12
1.316998228e-12
1.472273687e-12
3.444985155e-13
4.333294392e-13
5.799147762e-13
7.955142591e-13
1.08821555e-12
1.453845691e-12
1.863833346e-12
2.253125936e-12
2.515283829e-12
5.942501336e-13
7.470032642e-13
9.986137045e-13
1.367739469e-12
1.867217665e-12
2.488661755e-12
3.182358183e-12
3.837910902e-12
4.277364218e-12
1.022764318e-12
1.284529309e-12
1.714749192e-12
2.343949897e-12
3.191970097e-12
4.242064012e-12
5.40801699e-12
6.503745196e-12
7.23439811e-12
1.755524108e-12
2.20219549e-12
2.934370306e-12
4.001227625e-12
5.432374582e-12
7.194730798e-12
9.139520124e-12
1.095560099e-11
1.215938579e-11
3.003672163e-12
3.76199128e-12
5.001117866e-12
6.798831191e-12
9.19728089e-12
1.213205297e-11
1.534815276e-11
1.833019993e-11
2.029387901e-11
5.120291416e-12
6.400014931e-12
8.483511155e-12
1.149110784e-11
1.547888258e-11
2.032358019e-11
2.559194786e-11
3.043933153e-11
3.360884725e-11
8.691819958e-12
1.083660728e-11
1.431391452e-11
1.93050586e-11
2.587697527e-11
3.379846181e-11
4.234113503e-11
5.013680893e-11
5.519643045e-11
1.4685086e-11
1.825174865e-11
2.400714045e-11
3.221598612e-11
4.294259373e-11
5.57625701e-11
6.946622894e-11
8.186496181e-11
8.985113936e-11
2.468133221e-11
3.056123193e-11
4.000013522e-11
5.336993609e-11
7.069777113e-11
9.12222129e-11
1.129612386e-10
1.324592663e-10
1.449227251e-10
4.124455013e-11
5.084642296e-11
6.617336217e-11
8.772306596e-11
1.154121083e-10
1.4790595e-10
1.820036774e-10
2.123210851e-10
2.315556299e-10
6.84944138e-11
8.401503006e-11
1.086414346e-10
1.429979002e-10
1.867500099e-10
2.376128136e-10
2.904933852e-10
3.371117872e-10
3.664750132e-10
1.129866184e-10
1.378048529e-10
1.769380615e-10
2.310977515e-10
2.994482868e-10
3.781660102e-10
4.592677714e-10
5.30181124e-10
5.745413577e-10
1.850487916e-10
2.24290448e-10
2.857722505e-10
3.701776211e-10
4.757470297e-10
5.962210988e-10
7.192675163e-10
8.260245379e-10
8.923806799e-10
3.007827051e-10
3.621187127e-10
4.576041161e-10
5.876483595e-10
7.488835535e-10
9.312736064e-10
1.116031454e-09
1.275175956e-09
1.373513569e-09
4.850291859e-10
5.797899359e-10
7.263865975e-10
9.244985329e-10
1.168078277e-09
1.441342272e-09
1.716042262e-09
1.951095113e-09
2.095564608e-09
7.757091255e-10
9.204247546e-10
1.142953549e-09
1.441465772e-09
1.805604037e-09
2.210983009e-09
2.615639147e-09
2.959816093e-09
3.170348764e-09
1.230113943e-09
1.4486272e-09
1.782718518e-09
2.227790825e-09
2.766751856e-09
3.362531589e-09
3.953477475e-09
4.453405769e-09
4.757923622e-09
1.933937954e-09
2.260287299e-09
2.756600996e-09
3.413562673e-09
4.20380657e-09
5.07180066e-09
5.927870919e-09
6.648658371e-09
7.086094947e-09
3.014145124e-09
3.4964902e-09
4.226448191e-09
5.187042706e-09
6.33555397e-09
7.589896333e-09
8.820831017e-09
9.85297102e-09
1.04773998e-08
4.657093335e-09
5.363004681e-09
6.426515356e-09
7.818703499e-09
9.474318217e-09
1.127345566e-08
1.303134801e-08
1.450012136e-08
1.53863504e-08
7.13363258e-09
8.157259746e-09
9.693272778e-09
1.169463179e-08
1.406346051e-08
1.662641756e-08
1.912122461e-08
2.119943779e-08
2.245061691e-08
1.083448384e-08
1.230625697e-08
1.450697655e-08
1.736272227e-08
2.072892278e-08
2.435726493e-08
2.78778101e-08
3.080307209e-08
3.256103639e-08
1.631905597e-08
1.841876261e-08
2.154881541e-08
2.559611844e-08
3.03499378e-08
3.545743709e-08
4.039978727e-08
4.449786864e-08
4.695710902e-08
2.43826523e-08
2.735703919e-08
3.177928295e-08
3.748002009e-08
4.41555774e-08
5.130819189e-08
5.821389615e-08
6.393018831e-08
6.735665532e-08
3.614848281e-08
4.033490666e-08
4.654511471e-08
5.452989195e-08
6.38559684e-08
7.382557618e-08
8.343304399e-08
9.137483417e-08
9.613124184e-08
5.319289776e-08
5.905102987e-08
6.772438879e-08
7.885155597e-08
9.181966994e-08
1.056560845e-07
1.189694896e-07
1.299627574e-07
1.365426336e-07
7.771469819e-08
8.586888407e-08
9.792211246e-08
1.133565969e-07
1.313119582e-07
1.50439244e-07
1.688208522e-07
1.839865039e-07
1.930599614e-07
1.127621772e-07
1.240577745e-07
1.407317502e-07
1.620499747e-07
1.868126987e-07
2.131577959e-07
2.384515004e-07
2.593075199e-07
2.717826542e-07
1.625345525e-07
1.781124733e-07
2.010816531e-07
2.304106911e-07
2.644369011e-07
3.006009295e-07
3.352971136e-07
3.638952065e-07
3.810004281e-07
2.327776244e-07
2.541724392e-07
2.856890543e-07
3.258903257e-07
3.72485237e-07
4.219706163e-07
4.694254234e-07
5.085334394e-07
5.319277967e-07
3.312965512e-07
3.605646569e-07
4.036472997e-07
4.58557194e-07
5.221548742e-07
5.89664518e-07
6.543899648e-07
7.077344706e-07
7.396551049e-07
4.686104195e-07
5.084956375e-07
5.671731733e-07
6.419148234e-07
7.284417284e-07
8.202693823e-07
9.083137786e-07
9.809000351e-07
1.024357872e-06
6.58772921e-07
7.129173649e-07
7.925398552e-07
8.939213053e-07
1.011261819e-06
1.13579388e-06
1.255233361e-06
1.353761201e-06
1.412796866e-06
9.203809157e-07
9.93588697e-07
1.101216453e-06
1.23822942e-06
1.39681012e-06
1.565157164e-06
1.726716552e-06
1.860108041e-06
1.940118169e-06
1.277787703e-06
1.376347354e-06
1.521226442e-06
1.705655718e-06
1.919159167e-06
2.145927691e-06
2.363739778e-06
2.543785436e-06
2.651923233e-06
1.762530086e-06
1.894598113e-06
2.088724872e-06
2.335869845e-06
2.622076914e-06
2.926276646e-06
3.21877142e-06
3.460884478e-06
3.606526391e-06
2.41496757e-06
2.591009662e-06
2.849777316e-06
3.179273406e-06
3.561014804e-06
3.967074147e-06
4.357963798e-06
4.682007312e-06
4.877260869e-06
3.286115757e-06
3.519393621e-06
3.862300513e-06
4.299009453e-06
4.805182968e-06
5.344016647e-06
5.863311925e-06
6.294436088e-06
6.55464602e-06
4.439629921e-06
4.746709985e-06
5.198091155e-06
5.773005448e-06
6.439587129e-06
7.14962961e-06
7.834594203e-06
8.403998391e-06
8.748194596e-06
5.95385294e-06
6.355098299e-06
6.944820138e-06
7.695899294e-06
8.566845963e-06
9.494934457e-06
1.039086099e-05
1.113638288e-05
1.158761445e-05
7.923781339e-06
8.443770721e-06
9.207803205e-06
1.018062851e-05
1.130853562e-05
1.251049498e-05
1.36711616e-05
1.463759328e-05
1.522313706e-05
1.046272916e-05
1.113052875e-05
1.211128444e-05
1.335938824e-05
1.480573223e-05
1.634647183e-05
1.783408858e-05
1.907305043e-05
1.982421021e-05
1.370339725e-05
1.455259734e-05
1.579890833e-05
1.738361304e-05
1.921838348e-05
2.117129277e-05
2.305570172e-05
2.462455669e-05
2.557563994e-05
1.779800593e-05
1.886642919e-05
2.043302768e-05
2.242263119e-05
2.472317864e-05
2.716865663e-05
2.952537293e-05
3.148527947e-05
3.267264407e-05
2.291713433e-05
2.424612765e-05
2.619250961e-05
2.866068089e-05
3.150964133e-05
3.453226372e-05
3.743959947e-05
3.985331736e-05
4.131370918e-05
2.924693991e-05
3.088018814e-05
3.326880619e-05
3.62920267e-05
3.977373276e-05
4.345867539e-05
4.69944751e-05
4.992354469e-05
5.169283576e-05
3.698453549e-05
3.896627327e-05
4.185956888e-05
4.551327432e-05
4.970990592e-05
5.413876309e-05
5.837614386e-05
6.187718002e-05
6.398764115e-05
4.633043702e-05
4.870300269e-05
5.216024148e-05
5.651500526e-05
6.150191398e-05
6.674771919e-05
7.175033746e-05
7.587117987e-05
7.834929755e-05
5.747973565e-05
6.02812099e-05
6.435487899e-05
6.947183708e-05
7.531240196e-05
8.143434626e-05
8.725152949e-05
9.202739255e-05
9.489165179e-05
7.061220145e-05
7.387367904e-05
7.860560372e-05
8.453171576e-05
9.12721601e-05
9.831044707e-05
0.000104972615
0.0001104225907
0.0001136815186
8.588123589e-05
8.962411745e-05
9.504167737e-05
0.0001018052387
0.0001094698848
0.0001174412092
0.000124956034
0.0001310803053
0.0001347309911
0.0001034026741
0.0001076362317
0.000113749041
0.0001213558832
0.0001299433224
0.0001388374389
0.0001471871516
0.0001539652214
0.0001579924789
0.0001232443503
0.0001279638164
0.000134761214
0.000143191998
0.0001526725909
0.0001624503561
0.0001715905084
0.0001789806525
0.0001833569293
0.0001454173494
0.0001506027423
0.0001580523778
0.0001672612923
0.0001775762997
0.0001881694291
0.0001980292764
0.0002059693126
0.000210655384
0.0001698697722
0.000175485608
0.0001835333084
0.0001934483569
0.0002045108382
0.0002158234515
0.000226307954
0.0002347172801
0.000239663767
0.0001964836453
0.0002024796005
0.0002110505816
0.0002215754852
0.0002332729354
0.0002451847807
0.0002561780263
0.0002649605648
0.0002701093383
0.0002250753421
0.0002313878419
0.0002403891985
0.0002514067958
0.0002636053389
0.0002759764891
0.0002873464115
0.0002963947462
0.0003016819744
0.0002553995797
0.0002619541984
0.0002712784925
0.0002826553763
0.0002952051848
0.0003078818031
0.0003194856837
0.000328685535
0.0003340441959
0.0002871567683
0.0002938712617
0.0003034009352
0.0003149929758
0.0003277345081
0.0003405552622
0.000352245663
0.0003614805969
0.0003668431978
0.0003200032464
0.0003267909903
0.0003364032779
0.0003480616329
0.0003608322519
0.0003736349517
0.0003852657141
0.0003944218206
0.0003997230884
0.0003535637709
0.0003603373603
0.000369909359
0.000381486562
0.000394127105
0.0004067551604
0.0004181871532
0.0004271574706
0.00043233682
0.000387445559
0.0003941203242
0.0004035338829
0.0004148896163
0.0004272505035
0.0004395587968
0.000450664959
0.0004593531467
0.0004643571922
0.000421253206
0.0004277504117
0.0004368965187
0.000447902689
0.000459848931
0.000471708304
0.0004823781683
0.0004907014371
0.0004954830935
0.0004546038944
0.0004608532061
0.0004696351786
0.0004801799069
0.000491594898
0.0005028931216
0.0005130262034
0.0005209079618
0.0005254247735
0.0004871414287
0.0004930828158
0.0005014176057
0.0005114016777
0.0005221801731
0.0005328172387
0.0005423290281
0.0005497069389
0.0005539248576
0.000518531408
0.0005241114053
0.0005319260488
0.0005412660639
0.000551322853
0.0005612196416
0.0005700441418
0.0005768704307
0.0005807637832
0.0005484646807
0.0005536412703
0.0005608791677
0.0005695112036
0.0005787821293
0.0005878804528
0.0005959702738
0.0006022115139
0.0006057627675
0.000576676797
0.0005814196335
0.0005880405408
0.0005959200931
0.0006043617523
0.0006126236707
0.0006199492381
0.0006255855806
0.0006287848359
0.0006029525345
0.0006072425574
0.0006132218987
0.0006203229291
0.0006279114558
0.0006353178581
0.0006418659925
0.0006468899656
0.0006497342303
0.0006271277707
0.000630956359
0.0006362839593
0.0006425972764
0.0006493264662
0.0006558750953
0.0006616471541
0.0006660621693
0.0006685544842
0.0006490889904
0.0006524567944
0.0006571351963
0.0006626663811
0.0006685453884
0.0006742485124
0.0006792582728
0.0006830769681
0.0006852254592
0.0006687708176
0.0006716863919
0.0006757289249
0.0006804960025
0.0006855468155
0.0006904287359
0.0006947001777
0.0006979427138
0.0006997596297
0.0006861520144
0.0006886303679
0.0006920591229
0.0006960901547
0.0007003450267
0.0007044395837
0.0007080047028
0.0007106971049
0.0007121978893
0.0007012504105
0.0007033115678
0.0007061554041
0.0007094861438
0.000712985122
0.0007163333236
0.000719230077
0.0007214026904
0.0007226051246
0.000714117204
0.0007157848519
0.0007180775344
0.0007207492546
0.000723537909
0.0007261857719
0.0007284562226
0.0007301423296
0.0007310657676
0.0007248310257
0.0007261312957
0.0007279098277
0.0007299673876
0.0007320948062
0.0007340914644
0.0007357801671
0.0007370147889
0.0007376794979
0.000733492092
0.0007344525089
0.0007357556982
0.0007372458897
0.0007387629735
0.0007401590784
0.0007413117216
0.0007421306142
0.000742557223
0.0007402166934
0.0007408653016
0.0007417325726
0.0007427027574
0.0007436608214
0.0007445072359
0.0007451695367
0.0007456083775
0.000745817429
0.0007451321911
0.000745496856
0.000745967304
0.0007464643311
0.0007469139986
0.0007472607684
0.0007474776059
0.0007475713549
0.0007475829557
0.0007483726244
0.0007484804974
0.0007485921649
0.000748661547
0.0007486519104
0.0007485474861
0.0007483622468
0.0007481446652
0.0007479782207
0.0007500749745
0.0007499521021
0.0007497414526
0.000749426768
0.0007490047826
0.0007484954598
0.000747949567
0.0007474528712
0.0007471268947
0.0007503760818
0.0007500471379
0.0007495486968
0.0007488911838
0.0007481012578
0.000747230799
0.0007463633964
0.0007456180251
0.000745150008
0.0007494101851
0.0007488983045
0.0007481444366
0.0007471827437
0.0007460664883
0.0007448758952
0.0007437236546
0.0007427581256
0.0007421644588
0.0007473070272
0.0007466337196
0.0007456545158
0.0007444245762
0.0007430206804
0.0007415480782
0.0007401451056
0.0007389859484
0.0007382818836
0.0007441904595
0.0007433755843
0.0007421988295
0.0007407338277
0.0007390780287
0.0007373586439
0.0007357364623
0.0007344082049
0.0007336078475
0.000740177469
0.0007392392545
0.0007378904566
0.0007362208658
0.0007343459922
0.0007324121963
0.0007305997847
0.0007291249829
0.0007282413068
0.0007353775624
0.0007343326581
0.0007328351208
0.0007309887901
0.0007289248545
0.0007268062542
0.0007248301259
0.0007232294228
0.0007222743037
0.0007298924413
0.0007287559897
0.0007271309138
0.0007251331874
0.0007229075133
0.0007206310724
0.0007185153821
0.0007168075883
0.0007157918487
0.0007238159034
0.0007226016265
0.000720868228
0.0007187420851
0.0007163794548
0.0007139696369
0.0007117363049
0.000709938493
0.0007088719548
0.0007172339225
0.0007159542138
0.0007141298527
0.0007118960579
0.0007094188715
0.0007068977938
0.0007045666405
0.0007026942476
0.0007015857904
0.0007102248601
0.0007088908798
0.0007069911908
0.0007046684492
0.0007020968884
0.0006994844801
0.0006970733652
0.0006951402995
0.0006939979209
0.000702859773
0.0007014815419
0.0006995205651
0.0006971256759
0.0006944778673
0.0006917920279
0.0006893169902
0.0006873357384
0.000686166615
0.0006952027861
0.0006937892768
0.0006917795845
0.0006893275905
0.000686619765
0.0006838765196
0.0006813519142
0.000679333647
0.0006781441954
0.0006873115066
0.000685870731
0.0006838235485
0.0006813278798
0.0006785745254
0.0006757881741
0.0006732268056
0.0006711814812
0.000669977417
0.0006792374608
0.0006777765521
0.0006757018724
0.0006731744824
0.00067038849
0.000667571751
0.0006649850002
0.0006629214631
0.000661707858
0.0006710265393
0.000669551829
0.0006674585203
0.0006649100134
0.0006621028141
0.0006592669585
0.0006566649038
0.0006545909788
0.0006533723147
0.0006627194385
0.0006612365284
0.0006591324344
0.0006565721859
0.0006537538796
0.0006509088582
0.0006483003893
0.0006462229707
0.0006450031917
0.0006543520926
0.0006528659211
0.0006507579541
0.0006481942211
0.0006453736968
0.0006425282593
0.0006399211836
0.0006378463188
0.0006366288794
0.000645956088
0.0006444709918
0.0006423652188
0.0006398052438
0.0006369902909
0.0006341520961
0.0006315532392
0.0006294862066
0.000628274117
0.0006375590581
0.0006360788288
0.0006339805512
0.0006314306576
0.0006286280697
0.0006258037883
0.0006232190857
0.000621164468
0.0006199603367
0.0006291850549
0.0006277129915
0.0006256268187
0.0006230924987
0.0006203081688
0.0006175035787
0.0006149381624
0.0006128999137
0.0006117059864
0.0006208548975
0.0006193938543
0.0006173237708
0.0006148097668
0.000612048776
0.0006092688497
0.0006067271272
0.0006047086356
0.0006035268319
0.0006125864951
0.0006111389257
0.0006090883537
0.0006065987329
0.0006038654311
0.0006011144167
0.0005986001444
0.0005966042896
0.0005954362359
0.000604395146
0.0006029631441
0.000600935
0.0005984732231
0.0005957713038
0.0005930527994
0.0005905691495
0.0005885983556
0.0005874454165
0.000596293813
0.0005948791492
0.0005928758961
0.00059044488
0.0005877774487
0.0005850944704
0.0005826440928
0.0005807003768
0.0005795636826
0.0005882933758
0.0005868975315
0.0005849212269
0.0005825234024
0.0005798930389
0.0005772480831
0.0005748331618
0.000572918178
0.000571798651
0.0005804028611
0.0005790270598
0.0005770793989
0.000574716763
0.0005721255789
0.0005695206792
0.0005671429838
0.0005652580641
0.0005641564417
0.0005726296526
0.0005712748877
0.0005693572438
0.0005670314076
0.0005644810981
0.0005619178776
0.0005595788098
0.000557725001
0.0005566418571
0.0005649796813
0.0005636467422
0.0005617602022
0.000559472435
0.0005569643264
0.0005544440442
0.000552144681
0.0005503227776
0.0005492585422
0.0005574575978
0.0005561470931
0.000554292491
0.0005520437594
0.0005495788522
0.0005471024468
0.0005448435788
0.0005430541538
0.0005420091301
0.0005500669281
0.0005487793068
0.0005469572534
0.0005447482573
0.0005423272654
0.0005398953931
0.0005376775597
0.0005359209916
0.0005348953722
0.0005428102134
0.0005415457845
0.0005397566944
0.0005375878998
0.0005352112853
0.0005328243555
0.0005306478764
0.0005289243741
0.0005279182552
0.0005356891367
0.0005344480859
0.000532692202
0.0005305638703
0.0005282318759
0.0005258900827
0.0005237550861
0.0005220647114
0.0005210781054
0.0005287046348
0.0005274870411
0.0005257644565
0.0005236766709
0.0005213893483
0.000519092699
0.0005169991476
0.0005153418346
0.0005143746818
0.0005218570004
0.0005206628495
0.0005189735277
0.0005169262171
0.0005146834529
0.0005124317934
0.000510379507
0.0005087550807
0.0005078072593
0.0005151459714
0.0005139751688
0.0005123189614
0.0005103119218
0.0005081134607
0.0005059064984
0.0005038951748
0.0005023033663
0.0005013747022
0.0005085708119
0.0005074231942
0.0005057998567
0.0005038327704
0.0005016782358
0.0004995155602
0.0004975447933
0.0004959852548
0.000495075529
0.0005021303832
0.0005010057281
0.0004994149346
0.0004974873872
0.0004953762999
0.0004932574008
0.000491326697
0.000489799014
0.0004889079706
0.0004958232074
0.0004947212432
0.0004931625988
0.0004912740947
0.0004892058889
0.0004871301727
0.0004852389654
0.0004837426683
0.0004828700203
0.0004896475232
0.0004885679367
0.0004870409888
0.0004851909647
0.0004831650032
0.0004811318073
0.0004792794698
0.0004778140436
0.000476959479
0.0004836013355
0.0004825437791
0.0004810480281
0.0004792358646
0.0004772514516
0.0004752600568
0.0004734459138
0.000472010807
0.0004711739939
0.000477682459
0.0004766465572
0.0004751814645
0.0004734064977
0.0004714628898
0.0004695125323
0.0004677358696
0.0004663305019
0.0004655110926
0.0004718885562
0.0004708739112
0.0004694389079
0.0004677004377
0.0004657968545
0.0004638867351
0.0004621468087
0.000460770578
0.0004599682129
0.0004662171709
0.0004652233675
0.0004638178608
0.0004621151599
0.0004602507928
0.0004583800858
0.0004566761294
0.0004553284175
0.0004545427286
0.0004606657574
0.0004596923674
0.0004583157468
0.0004566480678
0.0004548220873
0.0004529899483
0.00045132118
0.0004500013579
0.0004492319718
0.0004552317058
0.0004542782919
0.0004529299347
0.0004512965158
0.0004495080789
0.000447713651
0.0004460792794
0.0004447867115
0.0004440332518
0.0004499123641
0.000448978483
0.0004476577584
0.0004460578299
0.0004443060853
0.0004425485049
0.0004409477341
0.0004396817824
0.0004389438717
0.0004447050569
0.0004437902622
0.000442496536
0.0004409293239
0.0004392134176
0.0004374918196
0.000435923853
0.0004346838804
0.0004339611425
0.0004396071016
0.0004387109464
0.0004374435838
0.0004359083149
0.000434227394
0.0004325409157
0.0004310049604
0.0004297903333
0.0004290823946
0.0004346158227
0.0004337378616
0.0004324962303
0.0004309921351
0.0004293453519
0.0004276931367
0.0004261884062
0.0004249984969
0.0004243049879
0.0004297285629
0.0004288683538
0.0004276518269
0.0004261781424
0.0004245646574
0.0004229458579
0.0004214715749
0.0004203057639
0.0004196263201
0.0004249426935
0.0004240997992
0.0004229077567
0.0004214637294
0.0004198827138
0.0004182964942
0.000416851893
0.0004157095704
0.0004150438333
0.0004202556223
0.0004194296118
0.0004182614428
0.0004168463304
0.0004152969687
0.000413742507
0.0004123268349
0.0004112074018
0.00041055502
0.0004156648007
0.0004148552501
0.0004137103541
0.0004123234275
0.0004108049188
0.0004092814086
0.0004078939279
0.0004067967978
0.0004061574269
0.0004111677294
0.0004103742228
0.000409252011
0.0004078925555
0.0004064041153
0.0004049107671
0.000403550756
0.0004024753553
0.0004018486592
0.0004067619623
0.0004059840928
0.000404883989
0.0004035513055
0.0004020921671
0.0004006282094
0.0003992949631
0.0003982407323
0.000397626383
0.000402445111
0.000401682481
0.0004006039223
0.0003992973284
0.0003978667433
0.0003964314239
0.0003951242555
0.0003940906493
0.0003934883275
0.0003982148472
0.0003974670688
0.0003964095067
0.0003951283372
0.0003937255764
0.0003923181626
0.0003910364034
0.0003900228916
0.000389432287
0.0003940689048
0.0003933356006
0.000392298501
0.0003910421086
0.000389666463
0.0003882862426
0.000387029243
0.0003860353105
0.0003854561219
0.0003900050824
0.0003892858853
0.000388268729
0.000387036485
0.0003856872659
0.0003843335477
0.0003831006773
0.0003821258247
0.00038155776
0.0003860212438
0.0003853157976
0.0003843180812
0.0003831093755
0.0003817859152
0.0003804580291
0.0003792486772
0.000378292421
0.0003777351977
0.0003821153202
0.0003814232797
0.0003804445151
0.0003792587571
0.0003779604091
0.0003766577069
0.0003754712831
0.0003745331559
0.000373986501
0.0003782853107
0.000377606342
0.0003766460574
0.000375482676
0.0003742088158
0.0003729306712
0.0003717666056
0.0003708461565
0.0003703098069
0.0003745292838
0.0003738630645
0.0003729208044
0.0003717792486
0.0003705292739
0.0003692750836
0.0003681328274
0.0003672296225
0.0003667033251
0.0003708453786
0.0003701915981
0.000369266924
0.0003681466635
0.000366919995
0.0003656891791
0.000364568205
0.0003636818281
0.0003631653402
0.0003672318069
0.0003665901669
0.0003656826575
0.0003645831835
0.0003633792656
0.0003621712684
0.0003610710718
0.0003602011248
0.0003596942146
0.000363686855
0.0003630570697
0.0003621663221
0.0003610871479
0.0003599054498
0.0003587197411
0.000357639841
0.0003567859446
0.0003562883917
0.0003602088867
0.0003595906838
0.0003587163139
0.0003576569762
0.0003564969932
0.0003553330692
0.0003542730094
0.0003534348048
0.0003529464007
0.000356796347
0.0003561894681
0.0003553311119
0.0003542911721
0.000353152427
0.0003520098123
0.000350969163
0.0003501463128
0.0003496668619
0.0003534477662
0.0003528519678
0.0003520092827
0.0003509883284
0.0003498703734
0.000348748623
0.0003477269827
0.000346919172
0.0003464484924
0.0003501617653
0.0003495768199
0.0003487494862
0.0003477471334
0.0003466495524
0.0003455482534
0.0003445452508
0.0003437521897
0.000343290114
0.0003469370627
0.0003463627601
0.0003455504826
0.0003445663777
0.0003434887885
0.0003424075631
0.0003414228595
0.0003406442841
0.0003401906607
0.0003437724808
0.0003432086294
0.0003424111399
0.0003414449621
0.0003403870192
0.0003393255273
0.0003383588189
0.0003375944938
0.0003371491879
0.0003406669552
0.0003401133836
0.0003393304427
0.0003383819068
0.0003373433044
0.0003363012463
0.0003353522669
0.0003346019868
0.0003341648813
0.0003376195431
0.0003370761019
0.0003363075015
0.0003353763608
0.0003343568357
0.0003333339551
0.0003324024788
0.0003316660702
0.0003312370667
0.0003346294338
0.0003340959972
0.0003333415629
0.0003324276121
0.0003314269469
0.000330423034
0.0003295088768
0.0003287861999
0.0003283652195
0.0003316959588
0.0003311724265
0.0003304320202
0.0003295350979
0.000328553124
0.0003275680177
0.0003266710405
0.0003259619903
0.0003255489738
0.0003288186022
0.000328304901
0.0003275784233
0.0003266984151
0.0003257350149
0.0003247686054
0.0003238887151
0.0003231932222
0.0003227881306
0.0003259970111
0.0003254930967
0.0003247804885
0.0003239173291
0.0003229724384
0.0003220246688
0.0003211618194
0.0003204798502
0.0003200826643
0.0003232310045
0.0003227368625
0.0003220381072
0.0003211917821
0.0003202653918
0.000319336259
0.0003184904514
0.000317822008
0.0003174327277
0.0003205205814
0.0003200362283
0.0003193513528
0.0003185218993
0.0003176140556
0.0003167036101
0.0003158748922
0.0003152200105
0.0003148386535
0.0003178659258
0.0003173914094
0.0003167204841
0.0003159079919
0.0003150187963
0.0003141271414
0.0003133156051
0.0003126743533
0.0003123009536
0.0003152674112
0.0003148028101
0.0003141459485
0.0003133505571
0.0003124801639
0.0003116074531
0.0003108132327
0.0003101857074
0.0003098203129
0.0003127255988
0.0003122710215
0.000311628378
0.000310850275
0.0003099988878
0.0003091453198
0.0003083685864
0.0003077549097
0.0003073975797
0.0003102412321
0.0003097968149
0.0003091685817
0.0003084079981
0.0003075758647
0.0003067416783
0.0003059826342
0.0003053829482
0.0003050337504
0.0003078152259
0.0003073811296
0.0003067675324
0.0003060247369
0.0003052121425
0.0003043976089
0.0003036564809
0.0003030709416
0.0003027299487
0.0003054486501
0.000305025056
0.0003044263476
0.0003037016388
0.000302908897
0.000302114311
0.0003013913419
0.0003008201136
0.0003004874
0.0003031427062
0.0003027298108
0.0003021462634
0.0003014399604
0.0003006674031
0.000299893073
0.0002991885126
0.000298631761
0.0002983073993
0.0003008986982
0.0003004967065
0.0002999286029
0.0002992410344
0.0002984889999
0.0002977352359
0.0002970493319
0.0002965072178
0.0002961912765
0.0002987179964
0.0002983271152
0.0002977747385
0.0002971062307