/*--------------------------------*- C++ -*----------------------------------*\
| =========                 |                                                 |
| \\      /  F ield         | OpenFOAM: The Open Source CFD Toolbox           |
|  \\    /   O peration     | Version:  2212                                  |
|   \\  /    A nd           | Website:  www.openfoam.com                      |
|    \\/     M anipulation  |                                                 |
\*---------------------------------------------------------------------------*/
FoamFile
{
    version     2.0;
    format      ascii;
    arch        "LSB;label=32;scalar=64";
    class       volScalarField;
    location    "30.00000000";
    object      C2H5_0;
}
// * * * * * * * * * * * * * * * * * * * * * * * * * * * * * * * * * * * * * //

dimensions      [0 0 0 0 0 0 0];

internalField   nonuniform List<scalar> 
3000
(
2.687956511e-26
3.019680991e-26
3.520241169e-26
4.187254883e-26
5.013902008e-26
5.97767503e-26
7.020459655e-26
8.015358417e-26
8.718786884e-26
1.009217261e-25
1.138335378e-25
1.333084346e-25
1.593164661e-25
1.918295204e-25
2.306643792e-25
2.751436893e-25
3.230265268e-25
3.654371879e-25
2.260768548e-25
2.5700237e-25
3.040918681e-25
3.680231217e-25
4.49937326e-25
5.510110688e-25
6.708331432e-25
8.0268085e-25
9.153475134e-25
4.30658806e-25
4.946941475e-25
5.936282573e-25
7.307990104e-25
9.110465076e-25
1.138921835e-24
1.413150443e-24
1.711788204e-24
1.95281303e-24
7.648296129e-25
8.89326526e-25
1.084703207e-24
1.360870945e-24
1.730793809e-24
2.204806067e-24
2.774957131e-24
3.380393336e-24
3.84515974e-24
1.315350531e-24
1.549016557e-24
1.920978702e-24
2.454967373e-24
3.179461523e-24
4.112703344e-24
5.226851759e-24
6.381459182e-24
7.235726421e-24
2.233309665e-24
2.662517271e-24
3.353709492e-24
4.35718258e-24
5.728802766e-24
7.49584959e-24
9.585259481e-24
1.170816645e-23
1.323994733e-23
3.780126063e-24
4.55683626e-24
5.818740129e-24
7.664895863e-24
1.019819244e-23
1.345505205e-23
1.727205066e-23
2.109360519e-23
2.380498316e-23
6.409070698e-24
7.799787805e-24
1.007377616e-23
1.341728503e-23
1.801315827e-23
2.390536678e-23
3.076101402e-23
3.75533804e-23
4.231942642e-23
1.090590539e-23
1.33765699e-23
1.743461751e-23
2.342003961e-23
3.165166087e-23
4.217658837e-23
5.435408106e-23
6.633093054e-23
7.467295626e-23
1.863463594e-23
2.299879791e-23
3.018886059e-23
4.081360018e-23
5.5423195e-23
7.405753455e-23
9.5526349e-23
1.165346313e-22
1.310982123e-22
3.196541075e-23
3.964282882e-23
5.231711355e-23
7.106429435e-23
9.682703486e-23
1.296124938e-22
1.672563146e-22
2.039648024e-22
2.293585115e-22
5.502094268e-23
6.84907012e-23
9.075658968e-23
1.237044379e-22
1.689375628e-22
2.263575948e-22
2.920531281e-22
3.559365345e-22
4.002954185e-22
9.497481479e-23
1.185704098e-22
1.576134515e-22
2.15400881e-22
2.94649783e-22
3.949431191e-22
5.090241066e-22
6.191661144e-22
6.977332819e-22
1.64298373e-22
2.055967125e-22
2.740074473e-22
3.753436404e-22
5.143254144e-22
6.898703514e-22
8.876182649e-22
1.06958359e-21
1.218047286e-21
2.846254351e-22
3.56831923e-22
4.765953519e-22
6.543157127e-22
8.988486593e-22
1.210151448e-21
1.568981173e-21
1.927209235e-21
2.152025369e-21
4.934127688e-22
6.193980407e-22
8.284723159e-22
1.138815726e-21
1.565702026e-21
2.108105139e-21
2.728746442e-21
3.330525442e-21
3.739233843e-21
8.555871898e-22
1.074989889e-21
1.439137374e-21
1.979556923e-21
2.722375699e-21
3.664803547e-21
4.740596374e-21
5.781136637e-21
6.493422143e-21
1.483802065e-21
1.865421364e-21
2.498831274e-21
3.4387045e-21
4.730055926e-21
6.367405282e-21
8.235215572e-21
1.004118375e-20
1.127825782e-20
2.573601788e-21
3.236917892e-21
4.33795043e-21
5.971605244e-21
8.215782434e-21
1.106048345e-20
1.430464825e-20
1.74406838e-20
1.958862242e-20
4.464470051e-21
5.616999805e-21
7.530201374e-21
1.036889368e-20
1.426809581e-20
1.920988462e-20
2.484444149e-20
3.029000187e-20
3.401917713e-20
7.745838386e-21
9.747996465e-21
1.307176885e-20
1.800338283e-20
2.477693351e-20
3.336046018e-20
4.314543451e-20
5.260034866e-20
5.907398803e-20
1.344117252e-20
1.691890029e-20
2.269244143e-20
3.125873031e-20
4.302357242e-20
5.793008741e-20
7.492004068e-20
9.133375605e-20
1.025705168e-19
2.332764317e-20
2.936798734e-20
3.93958341e-20
5.427355085e-20
7.470420791e-20
1.005864659e-19
1.300804134e-19
1.585683314e-19
1.780682587e-19
4.049109786e-20
5.098175293e-20
6.839704403e-20
9.4232636e-20
1.297055749e-19
1.746344658e-19
2.258202547e-19
2.752476319e-19
3.090732598e-19
7.028928799e-20
8.850793318e-20
1.187496358e-19
1.636065136e-19
2.251827913e-19
3.031513545e-19
3.919489849e-19
4.776674034e-19
5.3631157e-19
1.220228841e-19
1.5365974e-19
2.061671973e-19
2.840330593e-19
3.908888813e-19
5.261388687e-19
6.801059236e-19
8.286665264e-19
9.302627312e-19
2.118311864e-19
2.667615239e-19
3.579094841e-19
4.930343465e-19
6.783880786e-19
9.128713422e-19
1.179644222e-18
1.436889001e-18
1.612710441e-18
3.677039692e-19
4.630568965e-19
6.212318032e-19
8.556199306e-19
1.176948541e-18
1.58315757e-18
2.04492605e-18
2.489820303e-18
2.793653184e-18
6.381405946e-19
8.036027889e-19
1.077964509e-18
1.484281127e-18
2.040876433e-18
2.743824442e-18
3.542039226e-18
4.310190858e-18
4.834209881e-18
1.107076229e-18
1.394035838e-18
1.869597995e-18
2.573330536e-18
3.536348667e-18
4.751043758e-18
6.128348121e-18
7.451724062e-18
8.353168919e-18
1.919536966e-18
2.416797075e-18
3.240287433e-18
4.457634146e-18
6.121267194e-18
8.216216037e-18
1.05870999e-17
1.286053539e-17
1.440611108e-17
3.325580602e-18
4.186249436e-18
5.610248399e-18
7.712545275e-18
1.058061055e-17
1.418463183e-17
1.825345056e-17
2.214491623e-17
2.478386551e-17
5.755241319e-18
7.242507986e-18
9.700344559e-18
1.332288821e-17
1.825421819e-17
2.443449707e-17
3.139058201e-17
3.802187374e-17
4.250469089e-17
9.945731681e-18
1.251029145e-17
1.674222755e-17
2.2966609e-17
3.141692662e-17
4.197270598e-17
5.380908958e-17
6.504800371e-17
7.2616527e-17
1.715613923e-17
2.156614465e-17
2.883017288e-17
3.948688075e-17
5.390687428e-17
7.184803083e-17
9.187511408e-17
1.108009811e-16
1.234880379e-16
2.95275344e-17
3.708473709e-17
4.950525601e-17
6.767037194e-17
9.215282135e-17
1.22469144e-16
1.561303114e-16
1.877640711e-16
2.088580752e-16
5.068278489e-17
6.357829049e-17
8.471632582e-17
1.155166774e-16
1.568340821e-16
2.077134828e-16
2.638596888e-16
3.162900339e-16
3.510433495e-16
8.671802557e-17
1.086109297e-16
1.443848351e-16
1.962851836e-16
2.655287688e-16
3.50255885e-16
4.431047884e-16
5.291964688e-16
5.858878303e-16
1.478279209e-16
1.847740776e-16
2.449253335e-16
3.31755408e-16
4.468830654e-16
5.867497266e-16
7.388472833e-16
8.787907047e-16
9.70294141e-16
2.509459497e-16
3.128672559e-16
4.132587889e-16
5.57354753e-16
7.470870255e-16
9.75780237e-16
1.22240575e-15
1.447464525e-15
1.593533897e-15
4.239922151e-16
5.269649581e-16
6.931271274e-16
9.301201624e-16
1.239799103e-15
1.609910259e-15
2.005529499e-15
2.363473233e-15
2.594028065e-15
7.12637079e-16
8.823977574e-16
1.154908705e-15
1.540903354e-15
2.041161035e-15
2.6336955e-15
3.261284604e-15
3.824170075e-15
4.183972318e-15
1.19095327e-15
1.468179341e-15
1.910692361e-15
2.532852604e-15
3.332240874e-15
4.270319135e-15
5.254674246e-15
6.129875905e-15
6.685128476e-15
1.978001207e-15
2.426131369e-15
3.13715588e-15
4.129076374e-15
5.392211143e-15
6.860568782e-15
8.38710972e-15
9.732822035e-15
1.058041132e-14
3.263351778e-15
3.979977624e-15
5.109901584e-15
6.6736125e-15
8.646918814e-15
1.09193705e-14
1.326047728e-14
1.53073456e-14
1.658770806e-14
5.345907113e-15
6.479113231e-15
8.254452474e-15
1.069152924e-14
1.37393865e-14
1.721717063e-14
2.076880694e-14
2.384992799e-14
2.576486742e-14
8.692289409e-15
1.046377024e-14
1.322128791e-14
1.697636952e-14
2.163141594e-14
2.689635017e-14
3.222869194e-14
3.682101035e-14
3.965825711e-14
1.402376712e-14
1.676114783e-14
2.099536636e-14
2.671650455e-14
3.37491524e-14
4.16368955e-14
4.956398065e-14
5.634516436e-14
6.051209131e-14
2.244455568e-14
2.662614744e-14
3.30549533e-14
4.167670915e-14
5.219064463e-14
6.389118164e-14
7.556633874e-14
8.549264327e-14
9.156238706e-14
3.563001125e-14
4.194630684e-14
5.160090058e-14
6.445804136e-14
8.002068958e-14
9.72154915e-14
1.142615669e-13
1.286741257e-13
1.374484711e-13
5.610188243e-14
6.553951832e-14
7.988691582e-14
9.886887271e-14
1.216883149e-13
1.467362188e-13
1.714222046e-13
1.921913517e-13
2.047862377e-13
8.763154381e-14
1.015873621e-13
1.226959467e-13
1.504544076e-13
1.836160648e-13
2.198013444e-13
2.55278248e-13
2.849966132e-13
3.029569528e-13
1.35832861e-13
1.56266512e-13
1.87026035e-13
2.272494165e-13
2.750269946e-13
3.268818768e-13
3.774848172e-13
4.197114781e-13
4.451541267e-13
2.090388483e-13
2.386768668e-13
2.830911626e-13
3.408621235e-13
4.091080197e-13
4.827971085e-13
5.54380846e-13
6.138869735e-13
6.496275717e-13
3.196518661e-13
3.622594095e-13
4.258240522e-13
5.080586119e-13
6.046442615e-13
7.083317813e-13
8.084891586e-13
8.912861632e-13
9.407426988e-13
4.862465817e-13
5.469892401e-13
6.371723614e-13
7.531275013e-13
8.883449445e-13
1.032319875e-12
1.170066367e-12
1.282635552e-12
1.348991905e-12
7.369086018e-13
8.228371426e-13
9.496772277e-13
1.111465669e-12
1.298164896e-12
1.494228076e-12
1.678354604e-12
1.825185703e-12
1.909236177e-12
1.114506654e-12
1.23518835e-12
1.411971556e-12
1.634879247e-12
1.887837238e-12
2.147104491e-12
2.382287593e-12
2.561270406e-12
2.657984091e-12
1.684615736e-12
1.852828573e-12
2.096586311e-12
2.398626538e-12
2.732275157e-12
3.060639352e-12
3.341396508e-12
3.537950818e-12
3.632470828e-12
2.545940149e-12
2.778009962e-12
3.109094266e-12
3.508855039e-12
3.932864519e-12
4.325013661e-12
4.629697335e-12
4.811805274e-12
4.87624313e-12
3.840267346e-12
4.155240218e-12
4.595128502e-12
5.10791067e-12
5.622534051e-12
6.058086727e-12
6.346635515e-12
6.464108987e-12
6.457539329e-12
5.755049608e-12
6.172657348e-12
6.741122775e-12
7.376566429e-12
7.972471653e-12
8.419010804e-12
8.639136694e-12
8.631417049e-12
8.505620887e-12
8.51246894e-12
9.052418934e-12
9.768413533e-12
1.053500568e-11
1.120295622e-11
1.163153429e-11
1.173872538e-11
1.155482777e-11
1.126705338e-11
1.234648084e-11
1.303294105e-11
1.392410528e-11
1.484599628e-11
1.560276006e-11
1.602225932e-11
1.601831741e-11
1.565084445e-11
1.518338677e-11
1.747557825e-11
1.83503206e-11
1.947617243e-11
2.062897332e-11
2.156600907e-11
2.20820858e-11
2.207564936e-11
2.161072893e-11
2.099909869e-11
2.408749462e-11
2.523556737e-11
2.672921692e-11
2.829919197e-11
2.965885042e-11
3.056030663e-11
3.085287899e-11
3.054312164e-11
2.992082303e-11
3.236373843e-11
3.395225719e-11
3.60812924e-11
3.844824255e-11
4.072498726e-11
4.259813461e-11
4.380401714e-11
4.418056843e-11
4.385628482e-11
4.256858284e-11
4.489538755e-11
4.813515962e-11
5.196954885e-11
5.603125118e-11
5.990649996e-11
6.312237645e-11
6.516946424e-11
6.575719937e-11
5.520532095e-11
5.874779452e-11
6.385624586e-11
7.022366443e-11
7.74538113e-11
8.49955095e-11
9.203878223e-11
9.745306132e-11
1.00074045e-10
7.12123606e-11
7.667307441e-11
8.476637116e-11
9.524415584e-11
1.07715703e-10
1.214683103e-10
1.351954394e-10
1.467390368e-10
1.533037829e-10
9.218181719e-11
1.005393953e-10
1.131818491e-10
1.300040364e-10
1.506979967e-10
1.743920929e-10
1.990884743e-10
2.210202717e-10
2.34579254e-10
1.206205297e-10
1.332012439e-10
1.525279145e-10
1.787728732e-10
2.118442484e-10
2.507479825e-10
2.925580727e-10
3.311024971e-10
3.56229825e-10
1.602976185e-10
1.788778895e-10
2.07758007e-10
2.475782594e-10
2.986551741e-10
3.599421592e-10
4.273018513e-10
4.911268776e-10
5.343832044e-10
2.167025608e-10
2.436391718e-10
2.858709699e-10
3.447468128e-10
4.212356639e-10
5.143409387e-10
6.184100428e-10
7.192582446e-10
7.900513206e-10
2.975876429e-10
3.359601455e-10
3.964735255e-10
4.814612168e-10
5.928306127e-10
7.297903292e-10
8.85005266e-10
1.038664115e-09
1.149537159e-09
4.135233095e-10
4.672683066e-10
5.523103283e-10
6.722687035e-10
8.303313144e-10
1.026266125e-09
1.251164081e-09
1.476409063e-09
1.640215349e-09
5.783845481e-10
6.524129438e-10
7.697160707e-10
9.355724758e-10
1.155010961e-09
1.42912708e-09
1.744407079e-09
2.06002232e-09
2.291293449e-09
8.097617693e-10
9.101181943e-10
1.069270554e-09
1.294540677e-09
1.594128435e-09
1.966180121e-09
2.391868702e-09
2.818098881e-09
3.133710101e-09
1.129756647e-09
1.263966234e-09
1.477604571e-09
1.779089577e-09
2.175504812e-09
2.66422137e-09
3.220336646e-09
3.775761552e-09
4.18802102e-09
1.567808167e-09
1.745141303e-09
2.024639806e-09
2.415929587e-09
2.926045725e-09
3.549931949e-09
4.254960955e-09
4.955823531e-09
5.475685297e-09
2.153439129e-09
2.381048707e-09
2.737432515e-09
3.232460226e-09
3.872155265e-09
4.64748519e-09
5.51635352e-09
6.374499753e-09
7.009127217e-09
2.914514269e-09
3.199709129e-09
3.643414267e-09
4.254661438e-09
5.037048978e-09
5.975861865e-09
7.017895268e-09
8.038904057e-09
8.790283189e-09
3.878890603e-09
4.228030621e-09
4.767615683e-09
5.504470541e-09
6.438078349e-09
7.546268872e-09
8.763388372e-09
9.945097797e-09
1.080913979e-08
5.071469246e-09
5.489033837e-09
6.129909551e-09
6.997123259e-09
8.084222708e-09
9.359919057e-09
1.074527362e-08
1.207684998e-08
1.304298596e-08
6.511335877e-09
6.999085865e-09
7.742365211e-09
8.738721489e-09
9.973993496e-09
1.140642072e-08
1.29436333e-08
1.440529728e-08
1.545659658e-08
8.209061078e-09
8.765342833e-09
9.606928432e-09
1.072427854e-08
1.209399138e-08
1.36629831e-08
1.532612148e-08
1.688955393e-08
1.800329966e-08
1.016437075e-08
1.078364228e-08
1.171367149e-08
1.293647702e-08
1.441831726e-08
1.609458183e-08
1.784887301e-08
1.947812907e-08
2.062635806e-08
1.236443651e-08
1.303708992e-08
1.403983684e-08
1.534532682e-08
1.690898256e-08
1.86552136e-08
2.045857092e-08
2.211121687e-08
2.325791288e-08
1.478301188e-08
1.549554034e-08
1.654982824e-08
1.790881239e-08
1.951734752e-08
2.129036059e-08
2.30968295e-08
2.473093573e-08
2.585176684e-08
1.738057096e-08
1.81160881e-08
1.919619431e-08
2.057443662e-08
2.218613731e-08
2.393896576e-08
2.570019018e-08
2.727211156e-08
2.833764732e-08
2.010551294e-08
2.084459766e-08
2.192159916e-08
2.328168818e-08
2.485241642e-08
2.653701158e-08
2.820511084e-08
2.967279487e-08
3.065505428e-08
2.28963797e-08
2.361817718e-08
2.466162044e-08
2.596516361e-08
2.745096734e-08
2.902104028e-08
3.055145439e-08
3.187708191e-08
3.275168027e-08
2.568490624e-08
2.636837248e-08
2.734808732e-08
2.855797174e-08
2.991760022e-08
3.133112842e-08
3.268480854e-08
3.383639201e-08
3.458323193e-08
2.839955318e-08
2.902467555e-08
2.991246405e-08
3.099479595e-08
3.219158979e-08
3.341227606e-08
3.455624495e-08
3.550724845e-08
3.610986304e-08
3.096878406e-08
3.151749242e-08
3.228819823e-08
3.321313695e-08
3.421513567e-08
3.521114327e-08
3.611616176e-08
3.684294181e-08
3.727554736e-08
3.33220328e-08
3.377820646e-08
3.440896667e-08
3.514818775e-08
3.592544225e-08
3.666282245e-08
3.728196522e-08
3.775407447e-08
3.802844708e-08
3.538107303e-08
3.572993947e-08
3.619827009e-08
3.670964965e-08
3.722010814e-08
3.768240165e-08
3.805581044e-08
3.831821278e-08
3.845617142e-08
3.702107461e-08
3.724185647e-08
3.752995314e-08
3.783772914e-08
3.812403667e-08
3.835445851e-08
3.850770549e-08
3.85818132e-08
3.8596671e-08
3.823520489e-08
3.834898081e-08
3.848571704e-08
3.861112755e-08
3.86945782e-08
3.87150386e-08
3.866777562e-08
3.857122215e-08
3.847522809e-08
3.908524042e-08
3.910198953e-08
3.910116644e-08
3.90591664e-08
3.89569092e-08
3.878660399e-08
3.855870965e-08
3.831004227e-08
3.811629004e-08
3.959356258e-08
3.952139312e-08
3.939497622e-08
3.920084659e-08
3.893134003e-08
3.859119545e-08
3.82045101e-08
3.782387452e-08
3.754636824e-08
3.977677693e-08
3.962465048e-08
3.938600705e-08
3.90571146e-08
3.86411177e-08
3.815417192e-08
3.763219976e-08
3.71407817e-08
3.679395408e-08
3.965586654e-08
3.943399464e-08
3.909816989e-08
3.86537482e-08
3.811373509e-08
3.750431286e-08
3.687127474e-08
3.62904294e-08
3.588856191e-08
3.925807794e-08
3.897755853e-08
3.856067238e-08
3.802095761e-08
3.73800835e-08
3.667270653e-08
3.595251251e-08
3.530292459e-08
3.485963031e-08
3.861594661e-08
3.828820631e-08
3.780665682e-08
3.719191977e-08
3.647297876e-08
3.569135271e-08
3.490671227e-08
3.420771145e-08
3.37355352e-08
3.776542761e-08
3.740167929e-08
3.68713998e-08
3.620108856e-08
3.542563561e-08
3.459183829e-08
3.376358416e-08
3.303265314e-08
3.254280044e-08
3.674389313e-08
3.635468828e-08
3.579054998e-08
3.50826241e-08
3.427032134e-08
3.340422852e-08
3.255086773e-08
3.18033409e-08
3.130552798e-08
3.558832081e-08
3.518322333e-08
3.459861146e-08
3.386908788e-08
3.303728275e-08
3.215622558e-08
3.129370135e-08
3.054263252e-08
3.004503973e-08
3.433381732e-08
3.392120009e-08
3.332776033e-08
3.259045985e-08
3.175397475e-08
3.087260075e-08
3.001423284e-08
2.927040143e-08
2.877970885e-08
3.301253051e-08
3.259948194e-08
3.20070167e-08
3.12734824e-08
3.044458084e-08
2.957487957e-08
2.873144435e-08
2.800346614e-08
2.752494911e-08
3.16529471e-08
3.124526777e-08
3.066175309e-08
2.994130454e-08
2.912979267e-08
2.828124363e-08
2.746115414e-08
2.675566391e-08
2.629332786e-08
3.027953711e-08
2.988180388e-08
2.931349521e-08
2.861338009e-08
2.78268025e-08
2.700660493e-08
2.621615447e-08
2.553803136e-08
2.509476819e-08
2.891268517e-08
2.852836071e-08
2.79799572e-08
2.730556504e-08
2.654945785e-08
2.576280688e-08
2.500644531e-08
2.435905705e-08
2.393680893e-08
2.756884089e-08
2.720040919e-08
2.667525015e-08
2.603035807e-08
2.53085285e-08
2.455890923e-08
2.383952765e-08
2.322497532e-08
2.282489524e-08
2.626082108e-08
2.590993327e-08
2.541020593e-08
2.479723295e-08
2.4112042e-08
2.340151987e-08
2.272072608e-08
2.214007664e-08
2.176267819e-08
2.499820407e-08
2.466582283e-08
2.419276581e-08
2.36130187e-08
2.296565078e-08
2.229514501e-08
2.165351711e-08
2.110701408e-08
2.075230645e-08
2.378776831e-08
2.34743036e-08
2.302839662e-08
2.248229621e-08
2.187300325e-08
2.124252977e-08
2.063984275e-08
2.01270937e-08
1.979469995e-08
2.263393662e-08
2.23393668e-08
2.192049879e-08
2.140777963e-08
2.083609623e-08
2.024498241e-08
1.968040396e-08
1.920054025e-08
1.888979749e-08
2.15391985e-08
2.126317526e-08
2.08707899e-08
2.039067256e-08
1.985560026e-08
1.930266635e-08
1.87749217e-08
1.832673215e-08
1.803677477e-08
2.050449752e-08
2.024643454e-08
1.987965281e-08
1.943098788e-08
1.8931148e-08
1.841485689e-08
1.792236428e-08
1.750440447e-08
1.723423186e-08
1.952957336e-08
1.928871895e-08
1.894643914e-08
1.852782458e-08
1.806158254e-08
1.75801611e-08
1.71211409e-08
1.673182071e-08
1.648035121e-08
1.861325484e-08
1.838875025e-08
1.806972813e-08
1.767960297e-08
1.724516712e-08
1.679670216e-08
1.636926283e-08
1.600691503e-08
1.577302787e-08
1.775370549e-08
1.754463063e-08
1.724754213e-08
1.688425959e-08
1.647975799e-08
1.60622707e-08
1.5664475e-08
1.532740782e-08
1.510997513e-08
1.694862471e-08
1.675403317e-08
1.64775224e-08
1.613940559e-08
1.576294446e-08
1.537444659e-08
1.50043614e-08
1.46908978e-08
1.448880827e-08
1.619540925e-08
1.601435452e-08
1.575706947e-08
1.544245293e-08
1.509215983e-08
1.473069511e-08
1.438642789e-08
1.409493403e-08
1.390710994e-08
1.549128033e-08
1.532283481e-08
1.508345333e-08
1.479071284e-08
1.44647677e-08
1.412844134e-08
1.380816579e-08
1.353707085e-08
1.336247977e-08
1.483338164e-08
1.467664997e-08
1.44538978e-08
1.418147118e-08
1.387812761e-08
1.356512635e-08
1.326709968e-08
1.301490894e-08
1.285257122e-08
1.421885325e-08
1.407298119e-08
1.386564394e-08
1.361204462e-08
1.332964373e-08
1.303824859e-08
1.276082216e-08
1.252612487e-08
1.237511799e-08
1.364488593e-08
1.350906582e-08
1.331599626e-08
1.307982139e-08
1.281679978e-08
1.254539322e-08
1.228701828e-08
1.206849152e-08
1.192795201e-08
1.310875981e-08
1.298223342e-08
1.280235518e-08
1.258228967e-08
1.233718319e-08
1.208425206e-08
1.184348173e-08
1.163989135e-08
1.15090149e-08
1.260787065e-08
1.248993018e-08
1.23222389e-08
1.211705632e-08
1.188850056e-08
1.165263608e-08
1.14281246e-08
1.123832402e-08
1.111636435e-08
1.213974652e-08
1.202973417e-08
1.187329674e-08
1.168185815e-08
1.146858672e-08
1.124848213e-08
1.103898222e-08
1.086190978e-08
1.07481766e-08
1.170205721e-08
1.159936383e-08
1.145331629e-08
1.127456748e-08
1.107540864e-08
1.086985549e-08
1.06742144e-08
1.050888962e-08
1.040274598e-08
1.12926181e-08
1.119668114e-08
1.106022574e-08
1.089319348e-08
1.070706579e-08
1.051494914e-08
1.033210383e-08
1.017762309e-08
1.007848243e-08
1.090938999e-08
1.081969108e-08
1.069209279e-08
1.053588042e-08
1.03617877e-08
1.018208079e-08
1.001105265e-08
9.866584508e-09
9.773907443e-09
1.055047608e-08
1.046653835e-08
1.034712098e-08
1.020090372e-08
1.003792971e-08
9.869688296e-09
9.709577604e-09
9.574357955e-09
9.487649069e-09
1.021411683e-08
1.013550217e-08
1.002364446e-08
9.886664489e-09
9.733967377e-09
9.576324017e-09
9.426304397e-09
9.299631642e-09
9.218436249e-09
9.898683654e-09
9.824989891e-09
9.720121542e-09
9.591683172e-09
9.44849014e-09
9.30064853e-09
9.159961477e-09
9.041191806e-09
8.96509284e-09
9.60267163e-09
9.533529829e-09
9.43512763e-09
9.314592575e-09
9.180194526e-09
9.041424013e-09
8.909373613e-09
8.797916466e-09
8.726531486e-09
9.324691914e-09
9.259763756e-09
9.167347865e-09
9.054130683e-09
8.927877171e-09
8.797507512e-09
8.673455417e-09
8.568769173e-09
8.501747537e-09
9.06346395e-09
9.002439236e-09
8.915569648e-09
8.809133433e-09
8.690427873e-09
8.567844281e-09
8.451204967e-09
8.352792888e-09
8.289813095e-09
8.817807762e-09
8.760402069e-09
8.678675295e-09
8.578527629e-09
8.466822794e-09
8.351461295e-09
8.241697627e-09
8.149104071e-09
8.089871291e-09
8.586636452e-09
8.532588946e-09
8.45563491e-09
8.361324087e-09
8.256117917e-09
8.147461029e-09
8.044080135e-09
7.956887044e-09
7.901130822e-09
8.36894901e-09
8.318020413e-09
8.24549958e-09
8.1566111e-09
8.057442817e-09
7.955015551e-09
7.857565009e-09
7.775388659e-09
7.722860804e-09
8.163823488e-09
8.115794205e-09
8.047394924e-09
7.963548263e-09
7.869994788e-09
7.773360956e-09
7.68142528e-09
7.603913294e-09
7.554385936e-09
7.970410586e-09
7.925078979e-09
7.86051504e-09
7.781360677e-09
7.693033332e-09
7.601792161e-09
7.514989575e-09
7.441818185e-09
7.395081992e-09
7.787927655e-09
7.745108458e-09
7.684116855e-09
7.609333549e-09
7.525875041e-09
7.439658067e-09
7.35763755e-09
7.288509087e-09
7.244371638e-09
7.615653128e-09
7.575176004e-09
7.517514886e-09
7.446807183e-09
7.367888841e-09
7.286357072e-09
7.208795661e-09
7.143436261e-09
7.101720561e-09
7.45292137e-09
7.414629589e-09
7.360076392e-09
7.293172351e-09
7.218491609e-09
7.141332932e-09
7.067933257e-09
7.006090779e-09
6.966633904e-09
7.299117931e-09
7.262867166e-09
7.21121691e-09
7.147866032e-09
7.077144132e-09
7.004070957e-09
6.934559001e-09
6.876001118e-09
6.838652983e-09
7.153675186e-09
7.119332419e-09
7.070396158e-09
7.010367498e-09
6.9433474e-09
6.874094512e-09
6.808217566e-09
6.752730042e-09
6.717352279e-09
7.016068335e-09
6.983510863e-09
6.937114277e-09
6.88019473e-09
6.816639215e-09
6.750961823e-09
6.688486633e-09
6.635871744e-09
6.602336684e-09
6.885811753e-09
6.854926281e-09
6.810908394e-09
6.756901142e-09
6.696591083e-09
6.634263042e-09
6.574974124e-09
6.52504923e-09
6.493238981e-09
6.762455648e-09
6.73313747e-09
6.691349492e-09
6.640072584e-09
6.582805381e-09
6.523617587e-09
6.467315692e-09
6.419911942e-09
6.389717542e-09
6.645583021e-09
6.617735275e-09
6.578039544e-09
6.529324616e-09
6.474912775e-09
6.418671698e-09
6.365172424e-09
6.320133575e-09
6.291454233e-09
6.534806892e-09
6.508339885e-09
6.470608914e-09
6.424300024e-09
6.372569862e-09
6.31909622e-09
6.268228751e-09
6.225410098e-09
6.198152501e-09
6.429767778e-09
6.404598374e-09
6.368713981e-09
6.324666552e-09
6.275457031e-09
6.224584585e-09
6.176190543e-09
6.135457947e-09
6.109535631e-09
6.330131402e-09
6.306182467e-09
6.27203499e-09
6.230114853e-09
6.183276511e-09
6.134850974e-09
6.088783378e-09
6.050012386e-09
6.025345162e-09
6.235586608e-09
6.212786503e-09
6.180274087e-09
6.14035661e-09
6.095750602e-09
6.049628642e-09
6.005750966e-09
5.968826007e-09
5.945339444e-09
6.145843464e-09
6.124125593e-09
6.09315354e-09
6.055122839e-09
6.01262006e-09
5.968668403e-09
5.926853716e-09
5.891667373e-09
5.869292326e-09
6.060631545e-09
6.039933937e-09
6.010414121e-09
5.974162348e-09
5.933642635e-09
5.891737243e-09
5.851867431e-09
5.81831978e-09
5.796991959e-09
5.97969837e-09
5.959963304e-09
5.931813637e-09
5.897240324e-09
5.858591738e-09
5.818617066e-09
5.780582121e-09
5.74858013e-09
5.728239713e-09
5.90280798e-09
5.883981645e-09
5.857125592e-09
5.824137063e-09
5.787255231e-09
5.749103553e-09
5.71280093e-09
5.682257908e-09
5.662849182e-09
5.829739652e-09
5.811771832e-09
5.786137972e-09
5.754646808e-09
5.719434325e-09
5.683005117e-09
5.648339148e-09
5.619174251e-09
5.60064529e-09
5.760286722e-09
5.743130519e-09
5.718652144e-09
5.688576691e-09
5.654942581e-09
5.620141959e-09
5.587023319e-09
5.559161091e-09
5.541463461e-09
5.694255519e-09
5.677867094e-09
5.654481846e-09
5.625745774e-09
5.593604994e-09
5.560345209e-09
5.528690426e-09
5.50206039e-09
5.485148881e-09
5.631464398e-09
5.615802738e-09
5.593452278e-09
5.565984173e-09
5.535257162e-09
5.503456132e-09
5.473187149e-09
5.447723427e-09
5.431555806e-09
5.571742848e-09
5.556769555e-09
5.535399258e-09
5.50913226e-09
5.479744528e-09
5.449325417e-09
5.420369185e-09
5.396010154e-09
5.380546944e-09
5.51493069e-09
5.500609784e-09
5.480168471e-09
5.455039929e-09
5.42692169e-09
5.39781252e-09
5.37010063e-09
5.346788606e-09
5.331992879e-09
5.460877337e-09
5.447175083e-09
5.427614763e-09
5.403565937e-09
5.376651759e-09
5.34878506e-09
5.322253405e-09
5.299934362e-09
5.285771553e-09
5.409441114e-09
5.396325858e-09
5.377601505e-09
5.354577282e-09
5.328805783e-09
5.30211827e-09
5.27670674e-09
5.255330044e-09
5.241767783e-09
5.360488639e-09
5.347930663e-09
5.330000001e-09
5.307948642e-09
5.283262203e-09
5.257694484e-09
5.233346686e-09
5.212864859e-09
5.199872816e-09
5.313894239e-09
5.301865625e-09
5.284688945e-09
5.263561849e-09
5.239906355e-09
5.215402662e-09
5.192065666e-09
5.172434168e-09
5.159983909e-09
5.269539416e-09
5.258013924e-09
5.241553901e-09
5.221305396e-09
5.198629998e-09
5.175137944e-09
5.152762046e-09
5.13393908e-09
5.122003945e-09
5.227312332e-09
5.216265285e-09
5.200486822e-09
5.181073963e-09
5.159330861e-09
5.136801215e-09
5.115339729e-09
5.097286057e-09
5.08584104e-09
5.187107318e-09
5.176515498e-09
5.161385574e-09
5.142767964e-09
5.121912205e-09
5.100298685e-09
5.079707743e-09
5.062386527e-09
5.051408171e-09
5.148824393e-09
5.13866594e-09
5.12415347e-09
5.106293089e-09
5.086282375e-09
5.065541453e-09
5.045779827e-09
5.029156471e-09
5.018622772e-09
5.112368772e-09
5.102623089e-09
5.08869879e-09
5.071559828e-09
5.052354337e-09
5.032445057e-09
5.013473979e-09
4.997515987e-09
4.987406304e-09
5.077650361e-09
5.068298021e-09
5.054934278e-09
5.038482975e-09
5.020045181e-09
5.000928968e-09
4.982711963e-09
4.967388797e-09
4.957683762e-09
5.044583215e-09
5.035605865e-09
5.022776592e-09
5.00698107e-09
4.989275553e-09
4.97091603e-09
4.953418736e-09
4.93870167e-09
4.929383099e-09
5.013084941e-09
5.004465199e-09
4.992145696e-09
4.976975776e-09
4.959969026e-09
4.942331803e-09
4.925521774e-09
4.911383733e-09
4.902434528e-09
4.98307603e-09
4.974797371e-09
4.962964158e-09
4.948391161e-09
4.932051349e-09
4.915103786e-09
4.89895027e-09
4.885365644e-09
4.876769678e-09
4.954479101e-09
4.946525727e-09
4.935156356e-09
4.921152868e-09
4.905449574e-09
4.889160503e-09
4.873634173e-09
4.860578593e-09
4.852320569e-09
4.927218031e-09
4.919574717e-09
4.90864755e-09
4.89518714e-09
4.880091038e-09
4.864430421e-09
4.849503047e-09
4.836953106e-09
4.82901839e-09
4.901216972e-09
4.893868883e-09
4.883362827e-09
4.87041971e-09
4.855902176e-09
4.840840693e-09
4.826484736e-09
4.814417648e-09
4.806792044e-09
4.876399227e-09
4.869331702e-09
4.859225887e-09
4.846774524e-09
4.832807168e-09
4.81831571e-09
4.804503829e-09
4.792897e-09
4.785566488e-09
4.852686004e-09
4.845884298e-09
4.836157703e-09
4.824172313e-09
4.810726419e-09
4.796775486e-09
4.783479938e-09
4.772310453e-09
4.765260855e-09
4.829995042e-09
4.823444024e-09
4.814075032e-09
4.802529036e-09
4.789574904e-09
4.776133889e-09
4.763325824e-09
4.752569836e-09
4.745786429e-09
4.808239133e-09
4.801922943e-09
4.792888839e-09
4.781754209e-09
4.769260397e-09
4.756296774e-09
4.743945423e-09
4.733577451e-09
4.727044517e-09
4.787324582e-09
4.781226247e-09
4.772502649e-09
4.761749189e-09
4.749681673e-09
4.737160075e-09
4.72523185e-09
4.715223998e-09
4.708924326e-09
4.767149647e-09
4.761250663e-09
4.752810911e-09
4.742405471e-09
4.730726729e-09
4.718607973e-09
4.707065491e-09
4.697386615e-09
4.691300978e-09
4.747603032e-09
4.741882919e-09
4.733697429e-09
4.72360309e-09
4.712271156e-09
4.700511221e-09
4.689312316e-09
4.67992718e-09
4.67403381e-09
4.728562501e-09
4.722998364e-09
4.715033982e-09
4.705209238e-09
4.694176762e-09
4.682725795e-09
4.671822558e-09
4.662691041e-09
4.65696515e-09
4.709893727e-09
4.704459832e-09
4.696679217e-09
4.68707721e-09
4.676290588e-09
4.665092005e-09
4.65442994e-09
4.645506368e-09
4.639919777e-09
4.691449467e-09
4.686116859e-09
4.678477952e-09
4.669045817e-09
4.658444474e-09
4.647434239e-09
4.636951638e-09
4.628184341e-09
4.622705286e-09
4.673069201e-09
4.667805417e-09
4.660261026e-09
4.650939406e-09
4.640455301e-09
4.629561501e-09
4.619189161e-09
4.610520376e-09
4.605113591e-09
4.654579308e-09
4.64934821e-09
4.641845803e-09
4.632568641e-09
4.622126118e-09
4.611268943e-09
4.600930335e-09
4.592296608e-09
4.586923786e-09
4.63579393e-09
4.630555704e-09
4.623037453e-09
4.613732142e-09
4.60324824e-09
4.592340523e-09
4.581952608e-09
4.573285823e-09
4.567906587e-09
4.616516622e-09
4.611228e-09
4.603631163e-09
4.59421914e-09
4.583604482e-09
4.572552939e-09
4.56202778e-09
4.553257017e-09
4.547830527e-09
4.596542892e-09
4.591157636e-09
4.583415349e-09
4.573813256e-09
4.562973647e-09
4.551680974e-09
4.540928319e-09
4.531982707e-09
4.526470054e-09
4.57566372e-09
4.570133426e-09
4.562175983e-09
4.552297491e-09
4.541136358e-09
4.529504344e-09
4.518435358e-09
4.509248104e-09
4.503615622e-09
4.553670132e-09
4.547945412e-09
4.539702115e-09
4.529460519e-09
4.517882335e-09
4.505816148e-09
4.49434847e-09
4.484862231e-09
4.479085856e-09
4.530358929e-09
4.524391012e-09
4.51579268e-09
4.505104381e-09
4.493019201e-09