/*--------------------------------*- C++ -*----------------------------------*\
| =========                 |                                                 |
| \\      /  F ield         | OpenFOAM: The Open Source CFD Toolbox           |
|  \\    /   O peration     | Version:  2212                                  |
|   \\  /    A nd           | Website:  www.openfoam.com                      |
|    \\/     M anipulation  |                                                 |
\*---------------------------------------------------------------------------*/
FoamFile
{
    version     2.0;
    format      ascii;
    arch        "LSB;label=32;scalar=64";
    class       volScalarField;
    location    "30.00000000";
    object      C3H3_0;
}
// * * * * * * * * * * * * * * * * * * * * * * * * * * * * * * * * * * * * * //

dimensions      [0 0 0 0 0 0 0];

internalField   nonuniform List<scalar> 
3000
(
7.718816537e-23
8.671397354e-23
1.010880574e-22
1.202419921e-22
1.439799096e-22
1.716554727e-22
2.015998888e-22
2.301692201e-22
2.503687497e-22
2.898095054e-22
3.268870251e-22
3.828110153e-22
4.574953893e-22
5.508593389e-22
6.623767147e-22
7.901025473e-22
9.276020364e-22
1.049387917e-21
6.492069125e-22
7.380122715e-22
8.732337677e-22
1.056817481e-21
1.29204028e-21
1.582280898e-21
1.926359001e-21
2.304970455e-21
2.628502608e-21
1.236684939e-21
1.42056745e-21
1.704664165e-21
2.098559677e-21
2.616152498e-21
3.270511886e-21
4.05797939e-21
4.915542339e-21
5.607666539e-21
2.196285596e-21
2.553786865e-21
3.11482357e-21
3.907856048e-21
4.970111176e-21
6.331265199e-21
7.96848962e-21
9.707040886e-21
1.104165007e-20
3.777145695e-21
4.448130607e-21
5.516239494e-21
7.04961437e-21
9.130032668e-21
1.180987613e-20
1.50091958e-20
1.832468875e-20
2.077773996e-20
6.41311642e-21
7.645604469e-21
9.630390989e-21
1.251190191e-20
1.645055702e-20
2.152468768e-20
2.752448628e-20
3.362046434e-20
3.801900473e-20
1.085486404e-20
1.308521185e-20
1.670880603e-20
2.201009223e-20
2.928451567e-20
3.863666005e-20
4.959724663e-20
6.057090706e-20
6.835667129e-20
1.840395856e-20
2.239743413e-20
2.892723929e-20
3.85281885e-20
5.172531674e-20
6.86448831e-20
8.833096775e-20
1.07835332e-19
1.215210876e-19
3.131672178e-20
3.841127618e-20
5.006402241e-20
6.725124481e-20
9.088844604e-20
1.211108897e-19
1.560786799e-19
1.904703133e-19
2.144245121e-19
5.350991447e-20
6.604166425e-20
8.668801643e-20
1.171970664e-19
1.591486417e-19
2.126572747e-19
2.743050983e-19
3.346304889e-19
3.764498777e-19
9.178945843e-20
1.138352541e-19
1.502295857e-19
2.040622448e-19
2.780400507e-19
3.72183528e-19
4.8027773e-19
5.856860985e-19
6.586040866e-19
1.57993806e-19
1.966723623e-19
2.606090337e-19
3.552188979e-19
4.85105769e-19
6.499871098e-19
8.386313777e-19
1.022072165e-18
1.14944841e-18
2.727220702e-19
3.404770898e-19
4.525895e-19
6.185263165e-19
8.460894706e-19
1.134081375e-18
1.461664532e-18
1.777937814e-18
2.003542672e-18
4.717860611e-19
5.903748489e-19
7.868171338e-19
1.077805028e-18
1.476892296e-18
1.980971063e-18
2.548808026e-18
3.071326405e-18
3.49763993e-18
8.173078611e-19
1.024650174e-18
1.368553118e-18
1.878880471e-18
2.581061561e-18
3.474973853e-18
4.505359854e-18
5.53401875e-18
6.179586831e-18
1.41684538e-18
1.77861482e-18
2.378976236e-18
3.270134458e-18
4.495948703e-18
6.053472854e-18
7.835660206e-18
9.563683208e-18
1.073730141e-17
2.456837217e-18
3.086856868e-18
4.132514484e-18
5.684341525e-18
7.817362877e-18
1.052356648e-17
1.361273049e-17
1.660066521e-17
1.864600859e-17
4.260769632e-18
5.356597471e-18
7.175447418e-18
9.874313331e-18
1.358245631e-17
1.82841393e-17
2.364759486e-17
2.883346847e-17
3.238575067e-17
7.390151826e-18
9.294877276e-18
1.245651412e-17
1.714758621e-17
2.359178489e-17
3.176039863e-17
4.107607911e-17
5.008126329e-17
5.624910818e-17
1.281981681e-17
1.612932787e-17
2.162312215e-17
2.977447988e-17
4.097111025e-17
5.516154598e-17
7.134127603e-17
8.697829791e-17
9.768668912e-17
2.224232625e-17
2.799155923e-17
3.753583083e-17
5.169704704e-17
7.114741504e-17
9.579515812e-17
1.238928762e-16
1.510428187e-16
1.696319803e-16
3.859657684e-17
4.858293152e-17
6.516175236e-17
8.975999343e-17
1.235429304e-16
1.663472287e-16
2.151341497e-16
2.622663911e-16
2.945329241e-16
6.698573874e-17
8.433068478e-17
1.131258072e-16
1.558474055e-16
2.145143545e-16
2.888356541e-16
3.735279693e-16
4.553314499e-16
5.113257786e-16
1.162708632e-16
1.463949401e-16
1.964032124e-16
2.705905008e-16
3.724515669e-16
5.014655283e-16
6.484462524e-16
7.90377663e-16
8.875084257e-16
2.018367982e-16
2.541519022e-16
3.409913849e-16
4.697985437e-16
6.466156826e-16
8.705034807e-16
1.125487076e-15
1.371628658e-15
1.540026156e-15
3.503905227e-16
4.412361878e-16
5.920120625e-16
8.156049246e-16
1.122442822e-15
1.51081491e-15
1.952933271e-15
2.37952691e-15
2.671261675e-15
6.082761982e-16
7.660093703e-16
1.027741899e-15
1.415754638e-15
1.948000171e-15
2.621321716e-15
3.387363236e-15
4.126044659e-15
4.630917978e-15
1.055866702e-15
1.329673783e-15
1.783874914e-15
2.456923178e-15
3.379622005e-15
4.546055861e-15
5.872029237e-15
7.149548007e-15
8.022007445e-15
1.832428284e-15
2.30755483e-15
3.095387554e-15
4.262130172e-15
5.860399601e-15
7.878922284e-15
1.01710044e-14
1.237675974e-14
1.388148571e-14
3.178981152e-15
4.002988628e-15
5.368570224e-15
7.389345338e-15
1.015466153e-14
1.364267048e-14
1.759761338e-14
2.139770011e-14
2.398620757e-14
5.511967914e-15
6.939854958e-15
9.304515179e-15
1.280013753e-14
1.757727514e-14
2.359293987e-14
3.040095435e-14
3.692914467e-14
4.136727892e-14
9.549428642e-15
1.202084629e-14
1.610987111e-14
2.214663415e-14
3.038230768e-14
4.073128514e-14
5.24149324e-14
6.358930866e-14
7.116707338e-14
1.652620186e-14
2.079689843e-14
2.785459373e-14
3.825675456e-14
5.241710608e-14
7.016382511e-14
9.01382782e-14
1.091800854e-13
1.220525304e-13
2.855917733e-14
3.592332447e-14
4.807535354e-14
6.594870419e-14
9.021384907e-14
1.205248468e-13
1.545131135e-13
1.867857446e-13
2.085188196e-13
4.926377552e-14
6.19271206e-14
8.278580762e-14
1.133865989e-13
1.54793699e-13
2.06311858e-13
2.638197865e-13
3.181655744e-13
3.545965684e-13
8.478793752e-14
1.064884482e-13
1.42153992e-13
1.943151898e-13
2.646166808e-13
3.516702267e-13
4.483285717e-13
5.391652332e-13
5.997368909e-13
1.455343288e-13
1.825637244e-13
2.432615678e-13
3.317048379e-13
4.503479857e-13
5.964486225e-13
7.576730984e-13
9.082275517e-13
1.008022213e-12
2.490069071e-13
3.118721595e-13
4.145967236e-13
5.636285559e-13
7.624618895e-13
1.005756756e-12
1.272373909e-12
1.519587935e-12
1.682378474e-12
4.244767022e-13
5.30566851e-13
7.032904169e-13
9.526226587e-13
1.283212451e-12
1.684841846e-12
2.121593858e-12
2.523446002e-12
2.786201546e-12
7.205603512e-13
8.98365168e-13
1.186637073e-12
1.600407388e-12
2.145225146e-12
2.801923471e-12
3.510118819e-12
4.1563874e-12
4.575834844e-12
1.21740983e-12
1.513089792e-12
1.99021759e-12
2.670739158e-12
3.559985734e-12
4.622774821e-12
5.758822383e-12
6.786690653e-12
7.448753704e-12
2.046114259e-12
2.533564884e-12
3.316061058e-12
4.424433259e-12
5.860931304e-12
7.562432317e-12
9.364624687e-12
1.098103666e-11
1.201427457e-11
3.419237535e-12
4.215246426e-12
5.48587144e-12
7.272372651e-12
9.567834465e-12
1.226162261e-11
1.508837769e-11
1.760174122e-11
1.919631911e-11
5.678320688e-12
6.965007266e-12
9.006579997e-12
1.185479289e-11
1.548192373e-11
1.969854837e-11
2.408245605e-11
2.794722405e-11
3.038150499e-11
9.366876156e-12
1.14243644e-11
1.466859741e-11
1.915856279e-11
2.482498835e-11
3.135088952e-11
3.807444857e-11
4.395337683e-11
4.763098366e-11
1.534116747e-11
1.859441906e-11
2.369144803e-11
3.068891728e-11
3.944096589e-11
4.942868449e-11
5.96296943e-11
6.848028854e-11
7.398150905e-11
2.493626773e-11
3.00212718e-11
3.793740483e-11
4.871862316e-11
6.20857358e-11
7.720673532e-11
9.252411143e-11
1.057180879e-10
1.138708831e-10
4.021202274e-11
4.806821449e-11
6.022190149e-11
7.664652479e-11
9.684075801e-11
1.194961073e-10
1.422706634e-10
1.617583543e-10
1.737360963e-10
6.431331218e-11
7.631134506e-11
9.476070053e-11
1.195097203e-10
1.496997737e-10
1.833092261e-10
2.168590357e-10
2.453948544e-10
2.628503929e-10
1.019924093e-10
1.201094818e-10
1.47809213e-10
1.847105091e-10
2.293963569e-10
2.787934218e-10
3.277901664e-10
3.692409314e-10
3.944899295e-10
1.603597123e-10
1.874189278e-10
2.285706632e-10
2.83042468e-10
3.485654365e-10
4.205353688e-10
4.915171826e-10
5.512826592e-10
5.875542077e-10
2.499546202e-10
2.899511362e-10
3.504796675e-10
4.301323116e-10
5.25366646e-10
6.293762431e-10
7.314451173e-10
8.170307389e-10
8.68809647e-10
3.862569692e-10
4.447980212e-10
5.329937309e-10
6.48444674e-10
7.857388135e-10
9.349325646e-10
1.080704435e-09
1.20250088e-09
1.275991149e-09
5.91786005e-10
6.766882644e-10
8.040864241e-10
9.70076078e-10
1.166536504e-09
1.379089275e-09
1.585982611e-09
1.758322728e-09
1.862077917e-09
8.990698157e-10
1.021170092e-09
1.203738516e-09
1.440635731e-09
1.719860981e-09
2.020810033e-09
2.312796305e-09
2.555394157e-09
2.701178693e-09
1.35476378e-09
1.529016953e-09
1.788764917e-09
2.124607441e-09
2.519040844e-09
2.942774926e-09
3.352761232e-09
3.692676771e-09
3.896643994e-09
2.025359507e-09
2.272325613e-09
2.639484818e-09
3.112748241e-09
3.666875259e-09
4.260524273e-09
4.833605836e-09
5.307931806e-09
5.592235929e-09
3.005070303e-09
3.352932385e-09
3.86891918e-09
4.532283433e-09
5.30698988e-09
6.135055225e-09
6.932963785e-09
7.592498632e-09
7.987495751e-09
4.426695685e-09
4.914006019e-09
5.63545867e-09
6.560951284e-09
7.639485651e-09
8.790179977e-09
9.897370397e-09
1.081164099e-08
1.135890119e-08
6.476569047e-09
7.156003811e-09
8.160310122e-09
9.446357134e-09
1.094250702e-08
1.253644245e-08
1.406843516e-08
1.533259595e-08
1.608905438e-08
9.415112539e-09
1.035862728e-08
1.175151777e-08
1.353262791e-08
1.56019459e-08
1.780407574e-08
1.991896025e-08
2.166334062e-08
2.270705552e-08
1.360504839e-08
1.491096536e-08
1.683695072e-08
1.929703472e-08
2.215231623e-08
2.518847156e-08
2.810290718e-08
3.050633719e-08
3.194454804e-08
1.954987465e-08
2.135262822e-08
2.400938099e-08
2.740017632e-08
3.133298587e-08
3.551299954e-08
3.952469699e-08
4.283331329e-08
4.481385836e-08
2.794583739e-08
3.042943716e-08
3.408774698e-08
3.875452971e-08
4.41654277e-08
4.991580817e-08
5.543550699e-08
5.998967988e-08
6.271743714e-08
3.975138763e-08
4.316812624e-08
4.819976764e-08
5.461748985e-08
6.205883435e-08
6.996944983e-08
7.756705378e-08
8.384060802e-08
8.760164143e-08
5.627862342e-08
6.097509632e-08
6.789181026e-08
7.671605866e-08
8.695301212e-08
9.784445549e-08
1.083165032e-07
1.169748465e-07
1.221726031e-07
7.931089035e-08
8.576395562e-08
9.527173198e-08
1.074104548e-07
1.215080071e-07
1.365292303e-07
1.509984016e-07
1.629857468e-07
1.70196174e-07
1.112490664e-07
1.201148161e-07
1.331884488e-07
1.499016786e-07
1.693475707e-07
1.901164164e-07
2.101777498e-07
2.268479496e-07
2.369036446e-07
1.552857634e-07
1.674643521e-07
1.854470057e-07
2.084817364e-07
2.353554763e-07
2.641557688e-07
2.920863016e-07
3.153947084e-07
3.295108299e-07
2.156018303e-07
2.323194855e-07
2.570495072e-07
2.888132177e-07
3.260064868e-07
3.66049441e-07
4.050918669e-07
4.378607133e-07
4.578130781e-07
2.975751177e-07
3.204809867e-07
3.544417417e-07
3.982077012e-07
4.496858681e-07
5.05421891e-07
5.601260089e-07
6.063687036e-07
6.347165415e-07
4.079908259e-07
4.39260155e-07
4.857372494e-07
5.458551602e-07
6.16917688e-07
6.943357961e-07
7.708740352e-07
8.360860713e-07
8.763724806e-07
5.552488341e-07
5.97676155e-07
6.608914523e-07
7.429500796e-07
8.404006341e-07
9.471734045e-07
1.053420509e-06
1.144566311e-06
1.201233729e-06
7.495720268e-07
8.066303624e-07
8.918084205e-07
1.002673568e-06
1.134771102e-06
1.280032346e-06
1.425061165e-06
1.549688253e-06
1.626892413e-06
1.003209756e-06
1.079043671e-06
1.19235579e-06
1.339999807e-06
1.516071884e-06
1.709670851e-06
1.90245327e-06
2.066673675e-06
2.167174578e-06
1.330561096e-06
1.429863652e-06
1.578172063e-06
1.771194595e-06
2.00081243e-06
2.252008585e-06
2.499645552e-06
2.708866194e-06
2.837716159e-06
1.747971658e-06
1.875657241e-06
2.065926248e-06
2.312597293e-06
2.604087185e-06
2.919527585e-06
3.228914762e-06
3.491689742e-06
3.654673058e-06
2.272676772e-06
2.433213841e-06
2.671341048e-06
2.978037867e-06
3.336270833e-06
3.723513987e-06
4.104830312e-06
4.430369549e-06
4.633510959e-06
2.919972081e-06
3.116338025e-06
3.40503107e-06
3.774953127e-06
4.208316761e-06
4.677728494e-06
5.141344687e-06
5.538678408e-06
5.787898441e-06
3.697631808e-06
3.93109958e-06
4.275190566e-06
4.716380603e-06
5.233906995e-06
5.795151758e-06
6.35031551e-06
6.827196884e-06
7.127441264e-06
4.615709082e-06
4.890634918e-06
5.296024298e-06
5.815782102e-06
6.425356576e-06
7.086234594e-06
7.739919126e-06
8.301841468e-06
8.656472882e-06
5.689445599e-06
6.00946691e-06
6.481019677e-06
7.084887572e-06
7.792014944e-06
8.557350667e-06
9.313231687e-06
9.962572042e-06
1.037281704e-05
6.932813461e-06
7.30032481e-06
7.841012359e-06
8.531895823e-06
9.338751939e-06
1.020949009e-05
1.106714147e-05
1.180251846e-05
1.226706537e-05
8.356449599e-06
8.772191041e-06
9.382492596e-06
1.015999228e-05
1.106474134e-05
1.203732769e-05
1.299172181e-05
1.380764595e-05
1.432245114e-05
9.965995294e-06
1.042875943e-05
1.110626619e-05
1.196625479e-05
1.296266799e-05
1.402877342e-05
1.507014443e-05
1.595700576e-05
1.651533492e-05
1.176085042e-05
1.226732435e-05
1.300655513e-05
1.394103095e-05
1.501844059e-05
1.616505976e-05
1.727914805e-05
1.822354331e-05
1.881624016e-05
1.373340375e-05
1.427816239e-05
1.507060733e-05
1.606784243e-05
1.721144104e-05
1.84213602e-05
1.959001364e-05
2.057536974e-05
2.119130153e-05
1.586879517e-05
1.64444522e-05
1.727884658e-05
1.832382225e-05
1.951528474e-05
2.076788005e-05
2.196995893e-05
2.297738302e-05
2.360389809e-05
1.814522538e-05
1.874273323e-05
1.960554203e-05
2.068063731e-05
2.189901463e-05
2.317132063e-05
2.438387752e-05
2.539338534e-05
2.601766028e-05
2.053477931e-05
2.114385591e-05
2.201993096e-05
2.310580601e-05
2.432860673e-05
2.559652612e-05
2.679600919e-05
2.778746918e-05
2.839666315e-05
2.30046911e-05
2.361434358e-05
2.448770917e-05
2.556433048e-05
2.676874268e-05
2.800839227e-05
2.917200796e-05
3.012637426e-05
3.070856847e-05
2.551896664e-05
2.611808394e-05
2.697281374e-05
2.802058635e-05
2.918482744e-05
3.037405695e-05
3.148139957e-05
3.238232377e-05
3.292786223e-05
2.804032417e-05
2.861832881e-05
2.943950754e-05
3.044053025e-05
3.154540686e-05
3.266569089e-05
3.370114766e-05
3.453785762e-05
3.50437399e-05
3.053258079e-05
3.108019352e-05
3.185503666e-05
3.279459123e-05
3.382555342e-05
3.486454437e-05
3.582188477e-05
3.659282112e-05
3.705288534e-05
3.296407452e-05
3.347448561e-05
3.419393722e-05
3.506237096e-05
3.601338609e-05
3.696643674e-05
3.783122311e-05
3.851426048e-05
3.891271565e-05
3.531376453e-05
3.57856227e-05
3.644802759e-05
3.724062025e-05
3.809530989e-05
3.893568447e-05
3.967991936e-05
4.025543932e-05
4.058548066e-05
3.758248177e-05
3.800452326e-05
3.859131489e-05
3.928225928e-05
4.001493791e-05
4.072404111e-05
4.134367744e-05
4.181317914e-05
4.207598339e-05
3.970144986e-05
4.006203612e-05
4.055979937e-05
4.114191276e-05
4.175142718e-05
4.233069556e-05
4.282559995e-05
4.318970967e-05
4.338603618e-05
4.163618282e-05
4.193559454e-05
4.234523282e-05
4.281820563e-05
4.330424497e-05
4.375430536e-05
4.412553512e-05
4.438581156e-05
4.451707125e-05
4.338278959e-05
4.362107251e-05
4.394288758e-05
4.430715823e-05
4.46707457e-05
4.499351322e-05
4.524371605e-05
4.540311908e-05
4.547162832e-05
4.493516536e-05
4.511290418e-05
4.534801991e-05
4.560541265e-05
4.584928804e-05
4.604846431e-05
4.618202529e-05
4.62449565e-05
4.625391897e-05
4.628841807e-05
4.640703768e-05
4.655780111e-05
4.671171385e-05
4.684038406e-05
4.692144804e-05
4.694437603e-05
4.691652657e-05
4.686990911e-05
4.74403191e-05
4.750212536e-05
4.757212449e-05
4.762745047e-05
4.764702805e-05
4.761702067e-05
4.753669835e-05
4.742480966e-05
4.732717608e-05
4.839177867e-05
4.839987404e-05
4.839379547e-05
4.835671108e-05
4.827464425e-05
4.81418643e-05
4.796673954e-05
4.777833177e-05
4.763466496e-05
4.914683519e-05
4.910497794e-05
4.902839663e-05
4.890608951e-05
4.873084603e-05
4.850451481e-05
4.824377682e-05
4.798687492e-05
4.780240326e-05
4.971239218e-05
4.962483379e-05
4.948397867e-05
4.928435729e-05
4.902509922e-05
4.871502615e-05
4.837829182e-05
4.806116724e-05
4.7841205e-05
5.009781919e-05
4.996913885e-05
4.977065843e-05
4.950206787e-05
4.916834006e-05
4.878460939e-05
4.838163567e-05
4.801257467e-05
4.776238196e-05
5.031448254e-05
5.014943032e-05
4.990017306e-05
4.957113248e-05
4.917257968e-05
4.87252711e-05
4.826570347e-05
4.785280863e-05
4.757747424e-05
5.037524973e-05
5.017860562e-05
4.98854244e-05
4.950439627e-05
4.905051816e-05
4.854946897e-05
4.804263153e-05
4.759365985e-05
4.729800798e-05
5.029399953e-05
5.00704529e-05
4.974003922e-05
4.931523599e-05
4.881518505e-05
4.826979759e-05
4.772452687e-05
4.724676494e-05
4.693528577e-05
5.008516253e-05
4.983921403e-05
4.947796444e-05
4.901719489e-05
4.847961865e-05
4.789871338e-05
4.732323507e-05
4.682340987e-05
4.650021226e-05
4.976330963e-05
4.949919598e-05
4.911311082e-05
4.862366558e-05
4.805659178e-05
4.744830366e-05
4.685014943e-05
4.633437174e-05
4.600315587e-05
4.934279972e-05
4.906444032e-05
4.8659053e-05
4.814762658e-05
4.755838786e-05
4.693010204e-05
4.631606203e-05
4.578979826e-05
4.545384531e-05
4.883749205e-05
4.854845523e-05
4.812878888e-05
4.760143422e-05
4.699662754e-05
4.635494907e-05
4.573105484e-05
4.519912278e-05
4.486129861e-05
4.826052371e-05
4.796401005e-05
4.753455777e-05
4.699666842e-05
4.638214365e-05
4.57328953e-05
4.510442767e-05
4.45710114e-05
4.423378102e-05
4.762414888e-05
4.73229885e-05
4.688771278e-05
4.634402764e-05
4.572490007e-05
4.507314353e-05
4.444465904e-05
4.391333732e-05
4.357878748e-05
4.693963488e-05
4.663629639e-05
4.619864428e-05
4.565326979e-05
4.503394926e-05
4.438401997e-05
4.375939196e-05
4.323317859e-05
4.290304632e-05
4.621720655e-05
4.591381365e-05
4.547674198e-05
4.493318606e-05
4.431741945e-05
4.367297619e-05
4.305544564e-05
4.253683563e-05
4.22125396e-05
4.546602867e-05
4.51643825e-05
4.473039132e-05
4.419160696e-05
4.35825298e-05
4.294661101e-05
4.233884305e-05
4.182986243e-05
4.151253598e-05
4.469422191e-05
4.439582746e-05
4.396699863e-05
4.343543251e-05
4.283562507e-05
4.221070876e-05
4.161485157e-05
4.111710834e-05
4.080763252e-05
4.390890302e-05
4.36149973e-05
4.319303518e-05
4.267067858e-05
4.208222384e-05
4.147028864e-05
4.088803247e-05
4.040276693e-05
4.010180266e-05
4.311624202e-05
4.282782282e-05
4.241409558e-05
4.190253545e-05
4.132707661e-05
4.072966164e-05
4.01622961e-05
3.9690429e-05
3.939844751e-05
4.232153095e-05
4.203938509e-05
4.163496503e-05
4.113543358e-05
4.057422948e-05
3.999249159e-05
3.944095979e-05
3.898313748e-05
3.87004484e-05
4.1529259e-05
4.125398937e-05
4.085969136e-05
4.037311299e-05
3.982709026e-05
3.926185748e-05
3.872680626e-05
3.828344215e-05
3.80102192e-05
4.074319041e-05
4.04752412e-05
4.009165846e-05
3.961869338e-05
3.908849459e-05
3.85403152e-05
3.802214091e-05
3.759345298e-05
3.732975696e-05
3.996644185e-05
3.970612175e-05
3.933365867e-05
3.887474268e-05
3.836077011e-05
3.7829957e-05
3.732884661e-05
3.69148909e-05
3.666069003e-05
3.920155734e-05
3.894906054e-05
3.858796228e-05
3.814334256e-05
3.764579747e-05
3.713246769e-05
3.66484353e-05
3.62491354e-05
3.600432315e-05
3.845057901e-05
3.820600397e-05
3.785638284e-05
3.742614983e-05
3.694506718e-05
3.644917686e-05
3.598209572e-05
3.55972685e-05
3.536167896e-05
3.77151129e-05
3.747847887e-05
3.714033767e-05
3.672445302e-05
3.625973194e-05
3.578110676e-05
3.533073706e-05
3.496011485e-05
3.473353599e-05
3.699638909e-05
3.676765065e-05
3.644090294e-05
3.603922393e-05
3.559065415e-05
3.512901566e-05
3.469502842e-05
3.433827803e-05
3.412046286e-05
3.629531608e-05
3.607437564e-05
3.575886335e-05
3.537116391e-05
3.493844854e-05
3.449343672e-05
3.407543422e-05
3.373217298e-05
3.352284896e-05
3.561252937e-05
3.5399248e-05
3.509475648e-05
3.472074521e-05
3.430352012e-05
3.387471257e-05
3.347224553e-05
3.314205481e-05
3.294093171e-05
3.494843449e-05
3.47426411e-05
3.444891198e-05
3.408824742e-05
3.368609765e-05
3.327302572e-05
3.288560776e-05
3.25680442e-05
3.237482059e-05
3.430324482e-05
3.410474391e-05
3.382148593e-05
3.347378944e-05
3.3086263e-05
3.268842525e-05
3.231554488e-05
3.201014966e-05
3.182451814e-05
3.367701448e-05
3.34855927e-05
3.321249077e-05
3.287735727e-05
3.250397657e-05
3.212085001e-05
3.176198047e-05
3.146828684e-05
3.128993836e-05
3.306966688e-05
3.288509843e-05
3.262182118e-05
3.229882807e-05
3.193909941e-05
3.15701486e-05
3.122475594e-05
3.094229535e-05
3.077092257e-05
3.24810192e-05
3.230307035e-05
3.204927633e-05
3.17379908e-05
3.139141209e-05
3.103609663e-05
3.070364614e-05
3.043195309e-05
3.026725305e-05
3.191080342e-05
3.173923614e-05
3.149457891e-05
3.119456387e-05
3.086063089e-05
3.051841137e-05
3.019837276e-05
2.993698863e-05
2.977866484e-05
3.135868406e-05
3.119325903e-05
3.095739122e-05
3.066821013e-05
3.034642151e-05
3.001676429e-05
2.970861574e-05
2.945709171e-05
2.930485565e-05
3.08242733e-05
3.066475225e-05
3.04373289e-05
3.015854952e-05
2.98484107e-05
2.953079159e-05
2.923402282e-05
2.899192213e-05
2.88454944e-05
3.03071436e-05
3.015329125e-05
2.993397229e-05
2.966516968e-05
2.9366196e-05
2.906010308e-05
2.877421772e-05
2.854111722e-05
2.840022836e-05
2.980683827e-05
2.965842375e-05
2.944687609e-05
2.918763489e-05
2.889935384e-05
2.86042896e-05
2.832880685e-05
2.810429818e-05
2.796868911e-05
2.932288029e-05
2.917967827e-05
2.897557724e-05
2.872549337e-05
2.844744635e-05
2.816292918e-05
2.789738499e-05
2.768107529e-05
2.755049763e-05
2.88547795e-05
2.871657102e-05
2.85196015e-05
2.82782834e-05
2.80100269e-05
2.773559212e-05
2.747953993e-05
2.727105221e-05
2.714526837e-05
2.840203856e-05
2.826861161e-05
2.807846882e-05
2.784553829e-05
2.758664468e-05
2.732184519e-05
2.707485631e-05
2.687382961e-05
2.675261275e-05
2.796415775e-05
2.783530768e-05
2.765169766e-05
2.74267904e-05
2.717684841e-05
2.692125497e-05
2.668291872e-05
2.648900806e-05
2.637214193e-05
2.754063889e-05
2.741616865e-05
2.723880855e-05
2.702157444e-05
2.678018932e-05
2.653339063e-05
2.630331425e-05
2.611619038e-05
2.600346911e-05
2.71309884e-05
2.701070862e-05
2.683932687e-05
2.662943e-05
2.639622356e-05
2.615782613e-05
2.593563446e-05
2.575498357e-05
2.564621133e-05
2.673471977e-05
2.661844881e-05
2.645278501e-05
2.624990367e-05
2.602451402e-05
2.579414186e-05
2.557947705e-05
2.540500027e-05
2.529999098e-05
2.635135543e-05
2.623891926e-05
2.607872414e-05
2.588255053e-05
2.566463184e-05
2.544192607e-05
2.523444701e-05
2.506585997e-05
2.496443691e-05
2.598042819e-05
2.58716603e-05
2.571669546e-05
2.552693543e-05
2.53161575e-05
2.510077585e-05
2.490015765e-05
2.473718992e-05
2.463918532e-05
2.562148229e-05
2.551622352e-05
2.536626115e-05
2.518263383e-05
2.497868161e-05
2.477029785e-05
2.457623125e-05
2.441862579e-05
2.432388045e-05
2.527407421e-05
2.51721725e-05
2.502699508e-05
2.484923243e-05
2.465180553e-05
2.445010888e-05
2.426229963e-05
2.410981218e-05
2.401817509e-05
2.49377731e-05
2.483908331e-05
2.469848326e-05
2.452632964e-05
2.433514172e-05
2.413983628e-05
2.395800445e-05
2.381040298e-05
2.372173087e-05
2.46121612e-05
2.451654479e-05
2.438032411e-05
2.421353575e-05
2.402831403e-05
2.383911806e-05
2.366299746e-05
2.352006157e-05
2.343421857e-05
2.429683387e-05
2.420415871e-05
2.407212857e-05
2.391047316e-05
2.373095777e-05
2.354760313e-05
2.337694064e-05
2.323846099e-05
2.315531822e-05
2.399139973e-05
2.390153981e-05
2.377352016e-05
2.36167763e-05
2.344271975e-05
2.326495125e-05
2.309950618e-05
2.296528396e-05
2.288471917e-05
2.369548052e-05
2.360831567e-05
2.348413491e-05
2.333209163e-05
2.316325822e-05
2.299083301e-05
2.283037651e-05
2.270022286e-05
2.262212009e-05
2.340871098e-05
2.332412662e-05
2.320362118e-05
2.305607747e-05
2.289224275e-05
2.27249297e-05
2.256924418e-05
2.244297971e-05
2.236722893e-05
2.313073863e-05
2.304862555e-05
2.29316395e-05
2.278840385e-05
2.262935407e-05
2.246693324e-05
2.231581177e-05
2.219326606e-05
2.211976286e-05
2.286122354e-05
2.278147761e-05
2.266786235e-05
2.252875228e-05
2.237428389e-05
2.221654594e-05
2.206979173e-05
2.195080284e-05
2.187944813e-05
2.259983807e-05
2.252236e-05
2.24119739e-05
2.227681554e-05
2.212673467e-05
2.197348034e-05
2.18309062e-05
2.171532027e-05
2.164601997e-05
2.234626653e-05
2.227096167e-05
2.21636697e-05
2.203229739e-05
2.188641938e-05
2.1737459e-05
2.159888687e-05
2.148655763e-05
2.141922244e-05
2.210020489e-05
2.202698301e-05
2.192265647e-05
2.179491231e-05
2.165306129e-05
2.150821426e-05
2.137347474e-05
2.126426315e-05
2.119880824e-05
2.18613605e-05
2.179013553e-05
2.168865173e-05
2.156438527e-05
2.142639365e-05
2.128548804e-05
2.115441993e-05
2.104819381e-05
2.098453861e-05
2.162945169e-05
2.156014158e-05
2.146138355e-05
2.134045137e-05
2.120615952e-05
2.10690316e-05
2.094148151e-05
2.083811514e-05
2.07761831e-05
2.140420753e-05
2.133673403e-05
2.124059023e-05
2.112285565e-05
2.099211147e-05
2.08586053e-05
2.073442722e-05
2.063380106e-05
2.057351944e-05
2.118536743e-05
2.111965592e-05
2.102602003e-05
2.091135274e-05
2.078401129e-05
2.065397837e-05
2.053303334e-05
2.043503366e-05
2.037633334e-05
2.097268088e-05
2.090866019e-05
2.081743081e-05
2.070570662e-05
2.05816298e-05
2.045492868e-05
2.03370844e-05
2.024160303e-05
2.018441831e-05
2.076590706e-05
2.070350933e-05
2.061458978e-05
2.05056903e-05
2.03847465e-05
2.026124247e-05
2.0146373e-05
2.005330704e-05
1.999757546e-05
2.056481454e-05
2.050397504e-05
2.041727316e-05
2.031108553e-05
2.019314935e-05
2.007271407e-05
1.996069954e-05
1.986995109e-05
1.981561329e-05
2.036918088e-05
2.030983789e-05
2.022526578e-05
2.012168243e-05
2.000663439e-05
1.988914567e-05
1.977987196e-05
1.969134788e-05
1.963834742e-05
2.017879224e-05
2.012088691e-05
2.003836078e-05
1.993727919e-05
1.982500543e-05
1.971034687e-05
1.960370537e-05
1.951731708e-05
1.946560033e-05
1.99934429e-05
1.99369191e-05
1.985635908e-05
1.975768151e-05
1.964807357e-05
1.953613434e-05
1.943202167e-05
1.934768493e-05
1.92972009e-05
1.981293469e-05
1.975773891e-05
1.967906881e-05
1.958270212e-05
1.947565666e-05
1.93663312e-05
1.926464898e-05
1.918228365e-05
1.913298392e-05
1.963707631e-05
1.958315748e-05
1.950630465e-05
1.941216002e-05
1.930757853e-05
1.920076629e-05
1.910142086e-05
1.902095073e-05
1.897278925e-05
1.946568239e-05
1.941299173e-05
1.933788682e-05
1.924587948e-05
1.9143668e-05
1.903927313e-05
1.894217527e-05
1.88635278e-05
1.881646079e-05
1.929857229e-05
1.924706317e-05
1.917363984e-05
1.908368876e-05
1.898375751e-05
1.88816885e-05
1.878675309e-05
1.870985913e-05
1.866384493e-05
1.913556857e-05
1.908519624e-05
1.901339088e-05
1.892541836e-05
1.88276813e-05
1.872785046e-05
1.863499603e-05
1.855978949e-05
1.851478831e-05
1.897649494e-05
1.892721625e-05
1.885696751e-05
1.877089866e-05
1.867527286e-05
1.857759576e-05
1.848674391e-05
1.841316124e-05
1.836913489e-05
1.882117352e-05
1.877294654e-05
1.870419481e-05
1.861995681e-05
1.852636168e-05
1.843075625e-05
1.834183082e-05
1.826981037e-05
1.822672188e-05
1.866942146e-05
1.862220495e-05
1.855489155e-05
1.847241273e-05
1.838076887e-05
1.828715426e-05
1.820008025e-05
1.812956134e-05
1.808737436e-05
1.852104653e-05
1.847479925e-05
1.840886545e-05
1.832807397e-05
1.823830171e-05
1.814659671e-05
1.806129871e-05
1.799222035e-05
1.79508984e-05
1.83758417e-05
1.833052147e-05
1.826590714e-05
1.81867293e-05
1.809874672e-05
1.800886764e-05
1.792526781e-05
1.785756699e-05
1.781707241e-05
1.823357846e-05
1.8189141e-05
1.812578287e-05
1.804814087e-05
1.796186124e-05
1.787371917e-05
1.779173457e-05
1.772534401e-05
1.768563655e-05
1.809399886e-05
1.805039629e-05
1.798822572e-05
1.79120349e-05
1.782736341e-05
1.77408607e-05
1.766039986e-05
1.75952451e-05
1.755628015e-05
1.795680624e-05
1.791398519e-05
1.785292548e-05
1.777809081e-05
1.769492048e-05
1.760994642e-05
1.753090509e-05
1.74669009e-05
1.742862723e-05
1.782165455e-05
1.777955396e-05
1.771951701e-05
1.764592886e-05
1.756413572e-05
1.748056125e-05
1.740281725e-05
1.733986325e-05
1.73022203e-05
1.768813658e-05
1.764668501e-05
1.758756746e-05
1.75150967e-05
1.743453396e-05
1.735220554e-05
1.727561274e-05
1.721358827e-05
1.717650293e-05
1.755577118e-05
1.75148838e-05
1.745656258e-05
1.738505489e-05
1.730554645e-05
1.722427899e-05
1.714866043e-05
1.708741875e-05
1.705080172e-05
1.742398993e-05
1.738356515e-05
1.732589254e-05
1.72551622e-05
1.717649536e-05
1.709606452e-05
1.702120491e-05
1.696056676e-05
1.69243086e-05
1.729212381e-05
1.725203964e-05
1.719483801e-05
1.712466117e-05
1.704657899e-05
1.696671298e-05
1.68923507e-05
1.683209763e-05
1.679606452e-05
1.715939037e-05
1.711950071e-05
1.706255707e-05
1.699266496e-05
1.691485836e-05
1.683522967e-05
1.67610488e-05
1.670091641e-05
1.666494598e-05
1.702488247e-05
1.69850134e-05
1.692807409e-05
1.685814637e-05
1.678024664e-05
1.670046406e-05
1.66260868e-05
1.656575841e-05
1.652965588e-05
1.688755919e-05
1.684750563e-05
1.679027144e-05
1.67199302e-05
1.664150222e-05
1.656110397e-05
1.648608406e-05
1.642518536e-05
1.638872022e-05
1.67462404e-05
1.670576321e-05
1.664788538e-05
1.657669021e-05
1.649722713e-05
1.641567547e-05
1.633949345e-05
1.627758865e-05
1.624049245e-05
1.659960541e-05
1.655842946e-05
1.649950695e-05
1.642695189e-05
1.634587193e-05
1.626255025e-05
1.618461099e-05
1.612120129e-05
1.608316683e-05
1.644619726e-05
1.640401065e-05
1.634358929e-05
1.626910205e-05
1.618574818e-05
1.60999613e-05
1.601959497e-05
1.595411983e-05
1.591480231e-05
1.628443337e-05
1.624088824e-05
1.617846212e-05
1.610140637e-05
1.601504964e-05
1.592602813e-05
1.584249524e-05
1.577433725e-05
1.57333577e-05
1.611262363e-05
1.606733875e-05
1.600235445e-05
1.592203574e-05
1.583188289e-05
1.573879212e-05
1.565129328e-05
1.557978735e-05
1.553673881e-05
1.592899631e-05
1.588156195e-05
1.581342594e-05
1.572910172e-05
1.563430766e-05
1.553626226e-05
1.544395334e-05
1.536840046e-05
1.532285716e-05
1.573173241e-05
1.568171751e-05
1.560980712e-05
1.552070134e-05
1.542038701e-05
1.531647103e-05
1.521848402e-05
1.513816999e-05
1.508969968e-05
1.551900829e-05
1.546597029e-05
1.538964846e-05