/*--------------------------------*- C++ -*----------------------------------*\
| =========                 |                                                 |
| \\      /  F ield         | OpenFOAM: The Open Source CFD Toolbox           |
|  \\    /   O peration     | Version:  2212                                  |
|   \\  /    A nd           | Website:  www.openfoam.com                      |
|    \\/     M anipulation  |                                                 |
\*---------------------------------------------------------------------------*/
FoamFile
{
    version     2.0;
    format      ascii;
    arch        "LSB;label=32;scalar=64";
    class       volScalarField;
    location    "30.00000000";
    object      C4H4_0;
}
// * * * * * * * * * * * * * * * * * * * * * * * * * * * * * * * * * * * * * //

dimensions      [0 0 0 0 0 0 0];

internalField   nonuniform List<scalar> 
3000
(
3.078256038e-19
3.45796908e-19
4.03094256e-19
4.794450021e-19
5.740684904e-19
6.843883147e-19
8.037521095e-19
9.176338961e-19
9.981510302e-19
1.155568832e-18
1.30336573e-18
1.52628818e-18
1.823993716e-18
2.196161195e-18
2.640694374e-18
3.149841169e-18
3.697951984e-18
4.183428512e-18
2.588375174e-18
2.942369671e-18
3.48138891e-18
4.213192181e-18
5.150843963e-18
6.307814383e-18
7.67939864e-18
9.188645141e-18
1.047833417e-17
4.930344466e-18
5.663337318e-18
6.795806652e-18
8.365961373e-18
1.042920629e-17
1.303763798e-17
1.6176668e-17
1.959510755e-17
2.235406743e-17
8.755659676e-18
1.018073368e-17
1.241714442e-17
1.557834301e-17
1.981272431e-17
2.523857987e-17
3.176489993e-17
3.869511223e-17
4.401512473e-17
1.505742402e-17
1.773210413e-17
2.198980042e-17
2.810214087e-17
3.639510627e-17
4.707750027e-17
5.983063258e-17
7.304686366e-17
8.28252361e-17
2.556502795e-17
3.047795318e-17
3.838967458e-17
4.987589414e-17
6.557606564e-17
8.580242393e-17
1.09718637e-16
1.34018226e-16
1.51551537e-16
4.327069768e-17
5.216122629e-17
6.660544529e-17
8.77371801e-17
1.167340941e-16
1.54013045e-16
1.977034008e-16
2.414458075e-16
2.724808169e-16
7.336254842e-17
8.928107164e-17
1.153097014e-16
1.535802274e-16
2.061854392e-16
2.736285512e-16
3.520991147e-16
4.298451666e-16
4.843976598e-16
1.248342527e-16
1.531138263e-16
1.995627039e-16
2.680723393e-16
3.622918701e-16
4.827603257e-16
6.221436572e-16
7.592300722e-16
8.547122765e-16
2.132977469e-16
2.632499709e-16
3.455472732e-16
4.671574572e-16
6.343775466e-16
8.476638198e-16
1.093392388e-15
1.333849127e-15
1.500540695e-15
3.658805759e-16
4.537552848e-16
5.988231085e-16
8.133996826e-16
1.10827404e-15
1.483527599e-15
1.914387344e-15
2.334540383e-15
2.625187584e-15
6.297686619e-16
7.839398258e-16
1.038788446e-15
1.415898412e-15
1.933619855e-15
2.590825985e-15
3.342747821e-15
4.073926793e-15
4.581636018e-15
1.087065169e-15
1.357130487e-15
1.803999689e-15
2.465406762e-15
3.372448578e-15
4.520350422e-15
5.826054236e-15
7.086671294e-15
7.985898989e-15
1.880505438e-15
2.353182941e-15
3.136171577e-15
4.296001791e-15
5.886694253e-15
7.895857657e-15
1.015913401e-14
1.224176756e-14
1.394096298e-14
3.257686727e-15
4.084110873e-15
5.454834247e-15
7.488882961e-15
1.028760647e-14
1.385050996e-14
1.795735172e-14
2.205729747e-14
2.463032486e-14
5.647293224e-15
7.089212746e-15
9.482091254e-15
1.303399452e-14
1.79197223e-14
2.412752177e-14
3.123073319e-14
3.811804678e-14
4.279567172e-14
9.792388066e-15
1.230345163e-14
1.647110757e-14
2.265617084e-14
3.115764858e-14
4.194359178e-14
5.425583645e-14
6.616458807e-14
7.431651846e-14
1.698223039e-14
2.134980735e-14
2.8599071e-14
3.93557169e-14
5.413490219e-14
7.287387879e-14
9.425034191e-14
1.149189832e-13
1.290768082e-13
2.945469527e-14
3.704615452e-14
4.964711588e-14
6.834370462e-14
9.402740965e-14
1.265837532e-13
1.637116601e-13
1.996019761e-13
2.241839734e-13
5.109489718e-14
6.428509606e-14
8.618079072e-14
1.186681845e-13
1.632924159e-13
2.198482803e-13
2.843322539e-13
3.466531003e-13
3.893309522e-13
8.864831312e-14
1.115618445e-13
1.496003758e-13
2.060394773e-13
2.835580647e-13
3.817902234e-13
4.937716971e-13
6.019755717e-13
6.76060986e-13
1.538273721e-13
1.936274298e-13
2.59701215e-13
3.577355465e-13
4.923742838e-13
6.629662246e-13
8.574006378e-13
1.045239989e-12
1.173833719e-12
2.669695535e-13
3.360960025e-13
4.508556113e-13
6.211170165e-13
8.549257428e-13
1.15112162e-12
1.48864846e-12
1.814661412e-12
2.03781615e-12
4.633880246e-13
5.834428444e-13
7.827424973e-13
1.078402641e-12
1.48435026e-12
1.998508732e-12
2.584268132e-12
3.14990299e-12
3.53699432e-12
8.043938536e-13
1.012884932e-12
1.358964893e-12
1.87229629e-12
2.576958024e-12
3.469205372e-12
4.48537377e-12
5.466301918e-12
6.137401304e-12
1.396417155e-12
1.758459258e-12
2.359336258e-12
3.250403073e-12
4.473215507e-12
6.020953276e-12
7.782874683e-12
9.48292246e-12
1.064553214e-11
2.424141671e-12
3.052738724e-12
4.095790506e-12
5.642087028e-12
7.763168494e-12
1.044645083e-11
1.349922581e-11
1.644295896e-11
1.845493442e-11
4.207852479e-12
5.299012205e-12
7.10906293e-12
9.791239662e-12
1.346829107e-11
1.811663665e-11
2.340074527e-11
2.849174426e-11
3.196854632e-11
7.302515315e-12
9.195936261e-12
1.233551083e-11
1.698505657e-11
2.335424413e-11
3.139813679e-11
4.053214657e-11
4.932211762e-11
5.531846143e-11
1.266856128e-11
1.595225837e-11
2.139413296e-11
2.944694522e-11
4.046672742e-11
5.436639567e-11
7.012674229e-11
8.526995025e-11
9.558503524e-11
2.196542254e-11
2.765551859e-11
3.707861144e-11
5.100851156e-11
7.004513548e-11
9.401714779e-11
1.211465418e-10
1.471607911e-10
1.64846316e-10
3.805426743e-11
4.790265985e-11
6.419704544e-11
8.825292357e-11
1.210711402e-10
1.623105145e-10
2.088682548e-10
2.533965092e-10
2.83592727e-10
6.585541875e-11
8.287351153e-11
1.109973242e-10
1.524482089e-10
2.088747149e-10
2.79592083e-10
3.591863617e-10
4.350640558e-10
4.863580009e-10
1.138035458e-10
1.431480595e-10
1.915711487e-10
2.627922624e-10
3.594829662e-10
4.802646625e-10
6.156990685e-10
7.442968564e-10
8.308971699e-10
1.963036018e-10
2.467632537e-10
3.29878781e-10
4.518134335e-10
6.168075974e-10
8.220907935e-10
1.051240928e-09
1.267790638e-09
1.412955668e-09
3.378496918e-10
4.243177734e-10
5.664309412e-10
7.742725972e-10
1.054395856e-09
1.401269051e-09
1.786413184e-09
2.148359947e-09
2.389712801e-09
5.798846402e-10
7.27428383e-10
9.692790676e-10
1.32168142e-09
1.794415275e-09
2.376553707e-09
3.018953305e-09
3.618838159e-09
4.016470143e-09
9.921361752e-10
1.242614844e-09
1.651908176e-09
2.245707725e-09
3.037936588e-09
4.007319112e-09
5.069628704e-09
6.054629762e-09
6.703253515e-09
1.691194037e-09
2.113879997e-09
2.802049087e-09
3.795446814e-09
5.112597984e-09
6.712794561e-09
8.452935486e-09
1.005403065e-08
1.110092627e-08
2.87067563e-09
3.579052914e-09
4.727536852e-09
6.376018115e-09
8.546611581e-09
1.116296247e-08
1.398450096e-08
1.655932955e-08
1.823047474e-08
4.84972633e-09
6.027645639e-09
7.928421061e-09
1.063949454e-08
1.418212277e-08
1.841616161e-08
2.294209947e-08
2.703709268e-08
2.967474348e-08
8.150170418e-09
1.00919017e-08
1.320895638e-08
1.762418062e-08
2.334657831e-08
3.012473391e-08
3.730410884e-08
4.3743469e-08
4.785964726e-08
1.361784222e-08
1.678836656e-08
2.184936281e-08
2.896525046e-08
3.810857557e-08
4.883873879e-08
6.009876635e-08
7.011059555e-08
7.646255864e-08
2.261109079e-08
2.773530416e-08
3.586599037e-08
4.720943699e-08
6.165543224e-08
7.844970453e-08
9.591068751e-08
1.11304257e-07
1.210002291e-07
3.728991965e-08
4.548239789e-08
5.840058415e-08
7.627974968e-08
9.88444656e-08
1.248327474e-07
1.516090574e-07
1.750222247e-07
1.896686689e-07
6.105360225e-08
7.400436405e-08
9.429576238e-08
1.221542521e-07
1.570000189e-07
1.96767642e-07
2.373863307e-07
2.726289493e-07
2.945347618e-07
9.91939527e-08
1.194304909e-07
1.509358307e-07
1.938471428e-07
2.470551826e-07
3.072493407e-07
3.682291892e-07
4.207577534e-07
4.532164493e-07
1.598568728e-07
1.911089222e-07
2.394609878e-07
3.048122035e-07
3.851725433e-07
4.75337863e-07
5.659870887e-07
6.435589508e-07
6.912379969e-07
2.554374706e-07
3.031388908e-07
3.765000016e-07
4.749292587e-07
5.950233038e-07
7.287476976e-07
8.62259641e-07
9.758336781e-07
1.045311791e-06
4.045749196e-07
4.765469766e-07
5.866122179e-07
7.332838572e-07
9.109584155e-07
1.107436992e-06
1.302391146e-06
1.467367837e-06
1.567878117e-06
6.349629557e-07
7.423353274e-07
9.056841865e-07
1.122007502e-06
1.382365461e-06
1.668520841e-06
1.950930286e-06
2.188856408e-06
2.333318434e-06
9.872510151e-07
1.145691876e-06
1.385590072e-06
1.701508854e-06
2.079564527e-06
2.492887157e-06
2.898963171e-06
3.239856277e-06
3.446302711e-06
1.520354977e-06
1.75168059e-06
2.100436817e-06
2.557436745e-06
3.101622553e-06
3.693934258e-06
4.273748133e-06
4.759180345e-06
5.052649145e-06
2.318494911e-06
2.652763744e-06
3.154818733e-06
3.809859347e-06
4.586570435e-06
5.428845092e-06
6.250956068e-06
6.937877967e-06
7.352711659e-06
3.500656377e-06
3.978854774e-06
4.694705288e-06
5.625174815e-06
6.724439245e-06
7.912714638e-06
9.069668713e-06
1.003471201e-05
1.061695761e-05
5.232904378e-06
5.910321118e-06
6.921422198e-06
8.231262029e-06
9.773620784e-06
1.143595194e-05
1.305044238e-05
1.439445236e-05
1.520425433e-05
7.744197569e-06
8.694560959e-06
1.010927823e-05
1.193630054e-05
1.408083382e-05
1.638518046e-05
1.861697701e-05
2.047049147e-05
2.158559364e-05
1.134613184e-05
1.266647352e-05
1.462698022e-05
1.715117884e-05
2.010446736e-05
2.326764608e-05
2.632233399e-05
2.885387666e-05
3.037558783e-05
1.645638131e-05
1.827238425e-05
2.09621379e-05
2.441464175e-05
2.84407466e-05
3.273955274e-05
3.688092963e-05
4.03089248e-05
4.236981917e-05
2.362433424e-05
2.609581061e-05
2.974733631e-05
3.442031328e-05
3.985320162e-05
4.563969871e-05
5.120622168e-05
5.581280263e-05
5.858468167e-05
3.355657517e-05
3.688330563e-05
4.178723668e-05
4.804673904e-05
5.530726333e-05
6.302815558e-05
7.04509897e-05
7.659573364e-05
8.029729129e-05
4.714240284e-05
5.157190754e-05
5.80895347e-05
6.639288018e-05
7.600919625e-05
8.622591787e-05
9.604608263e-05
0.0001041787515
0.0001090826018
6.548475508e-05
7.132298728e-05
7.990205351e-05
9.081688346e-05
0.0001034439787
0.0001168505549
0.0001297338582
0.0001404053671
0.0001468439776
8.993874869e-05
9.756119774e-05
0.0001087506485
0.0001229710425
0.0001394064369
0.0001568435048
0.0001735920623
0.0001874626138
0.0001958323652
0.0001221492868
0.0001320092238
0.000146469636
0.0001648271097
0.0001860210177
0.0002084845448
0.0002300432502
0.0002478861181
0.0002586486918
0.0001640785994
0.0001767113185
0.0001952197536
0.0002186875815
0.0002457461826
0.0002743887761
0.0003018445262
0.0003245438709
0.0003382240754
0.0002180198366
0.0002340421215
0.0002574905149
0.0002871802993
0.0003213596348
0.0003574818906
0.0003920533335
0.000420594302
0.0004377733828
0.0002865948867
0.0003066993862
0.0003360852224
0.0003732333629
0.0004159216878
0.0004609513638
0.0005039670918
0.0005394165612
0.0005607200805
0.000372735483
0.0003976787897
0.0004340866528
0.000480029395
0.0005327164628
0.0005881739692
0.0006410377937
0.0006845146873
0.0007105943747
0.0004796456021
0.000510229748
0.0005548033695
0.0006109400424
0.0006751730884
0.0007426232579
0.0008067666975
0.0008594020754
0.0008909118016
0.000610744658
0.0006477923248
0.0007016977395
0.0007694432424
0.0008467712664
0.0009277635184
0.001004587905
0.001067477063
0.001105044349
0.0007695913605
0.0008139158728
0.000878297483
0.0009590267085
0.001050936726
0.001146938205
0.001237751533
0.001311902939
0.001356099157
0.0009597886803
0.001012160572
0.00108809299
0.001183081262
0.001290931889
0.001403260178
0.0015092162
0.001595504787
0.001646819366
0.001184871534
0.001245984005
0.001334423231
0.001444787534
0.001569745828
0.001699508161
0.001821555604
0.0019206901
0.001979526747
0.001448181073
0.001518616929
0.001620354604
0.001747000184
0.001889986632
0.002038029776
0.00217687399
0.002289381311
0.002356032729
0.00175273283
0.001832935548
0.00194855995
0.002092136285
0.002253781384
0.002420653641
0.002576730587
0.002702885454
0.002777446935
0.002101089422
0.002191340822
0.002321207954
0.002482077641
0.002662693929
0.002848627898
0.003022027249
0.003161782906
0.00324418984
0.002495250553
0.002595656718
0.002739873144
0.002918097083
0.003117673233
0.003322496171
0.003512917003
0.003665955423
0.003755979363
0.002936571593
0.003047059673
0.003205489618
0.003400815915
0.003618901355
0.003842033417
0.004048846785
0.004214601101
0.004311887606
0.003425734928
0.003546043247
0.003718225844
0.00392999374
0.004165772282
0.004406289378
0.004628562621
0.004806233037
0.00491029003
0.003962550933
0.004092182595
0.00427737709
0.004504619339
0.00475694747
0.005013613298
0.005250143911
0.005438728288
0.005548950781
0.004545951244
0.004684239435
0.004881467381
0.00512294145
0.005390388814
0.005661697194
0.005911054262
0.006109383316
0.006225075673
0.005174082155
0.005320210474
0.005528288634
0.005782516922
0.006063413017
0.006347636631
0.006608206875
0.00681498175
0.006935380176
0.005844356073
0.00599738373
0.006214961165
0.006480276839
0.006772762403
0.007068005185
0.007338041125
0.007551871621
0.007676166476
0.00655352292
0.006712412811
0.006938011057
0.007212606997
0.007514687684
0.007818938392
0.008096606546
0.008316048559
0.00844340578
0.007297757129
0.007461405233
0.007693459752
0.007975438334
0.008285038408
0.00859622328
0.008879650691
0.009103241729
0.009232822819
0.008072755439
0.008240020207
0.008476921403
0.008764343181
0.009079357274
0.009395390026
0.009682707761
0.009908999702
0.0100399801
0.008873841029
0.009043571652
0.00928370402
0.009574633676
0.009892975025
0.01021180273
0.01050118517
0.01072877359
0.01086036074
0.009696070076
0.009867132782
0.01010891104
0.01040145935
0.01072110326
0.01104074694
0.01133044519
0.01155799113
0.01168942711
0.01053433754
0.01070563924
0.01094754058
0.01123990155
0.0115589234
0.01187751329
0.01216588514
0.01239213896
0.01252272257
0.01138347946
0.01155398827
0.0117945801
0.01208506243
0.01240166945
0.01271747386
0.01300300702
0.01322682408
0.01335591603
0.01223836974
0.01240713194
0.01264509457
0.01293214709
0.01324470342
0.01355615073
0.01383747998
0.01405783179
0.01418485972
0.01309400948
0.01326016276
0.01349430687
0.01377653757
0.01408358237
0.01438927634
0.01466519473
0.01488117574
0.01500563707
0.01394560765
0.01410839054
0.01433766922
0.01461385792
0.01491411678
0.01521284527
0.01548230955
0.01569313965
0.01581460203
0.01478865197
0.01494740953
0.01517092528
0.01544003028
0.01573242042
0.01602315829
0.01628528936
0.01649031286
0.01660841081
0.01561896918
0.01577315543
0.01599016261
0.01625132226
0.01653495313
0.01681686172
0.01707093987
0.01726962488
0.01738407248
0.01643277445
0.01658195251
0.01679185719
0.01704438678
0.01731855771
0.01759099365
0.01783649661
0.01802846443
0.01813905227
0.01722671137
0.01737055147
0.01757291403
0.01781632869
0.01808055694
0.01834307399
0.01857962038
0.01876458787
0.01887115803
0.01799796419
0.01813625239
0.01833078531
0.01856475642
0.01881870771
0.01907099704
0.0192983257
0.01947609864
0.01957854196
0.01874422222
0.01887682361
0.01906334716
0.01928767305
0.0195311459
0.019773024
0.01999098163
0.02016144607
0.02025969765
0.01946359875
0.01959044884
0.01976887983
0.01998347133
0.02021638136
0.02044777546
0.02065630369
0.02081941646
0.02091345056
0.02015462083
0.02027571638
0.02044605536
0.02065092045
0.0208732841
0.02109421673
0.02129333886
0.02144911777
0.02153894249
0.02081620966
0.02093159906
0.02109391712
0.02128914532
0.02150106355
0.02171163706
0.0219014449
0.02204995906
0.02213561111
0.02144765312
0.02155742691
0.02171185261
0.02189759987
0.02209924237
0.02229962421
0.02248026553
0.02262162621
0.02270316597
0.0220485726
0.02215285447
0.02229956162
0.02247603609
0.02266762674
0.02285803569
0.02302970271
0.02316405488
0.02324156189
0.02261888618
0.02271782485
0.02285702133
0.0230244706
0.02320627426
0.02338696825
0.02354988734
0.02367740215
0.023750971
0.02315877014
0.02325253213
0.02338445018
0.02354315008
0.0237154612
0.02388672664
0.02404114932
0.02416201758
0.02423175436
0.02366862039
0.02375738394
0.02388227187
0.02403251703
0.02419564994
0.02435779273
0.02450398812
0.02461841468
0.02468443398
0.02414901516
0.02423296521
0.02435108063
0.02449317673
0.02464745775
0.02480079586
0.02493904442
0.0250472436
0.02510966589
0.02460068009
0.02468000434
0.02479160875
0.02492586636
0.02507162744
0.02521648506
0.02534707355
0.02544926532
0.02550821489
0.02502445628
0.02509934212
0.02520469686
0.02533142669
0.02546900059
0.02560570347
0.02572892099
0.02582532803
0.02588093126
0.02542127184
0.02549190414
0.02559126729
0.02571077674
0.02584049338
0.02596936542
0.02608550038
0.02617634566
0.02622872968
0.02579211696
0.02585867652
0.02595230085
0.02606489151
0.02618707537
0.02630843604
0.02641777388
0.0265032789
0.02655257051
0.02613802265
0.0262006852
0.02628881672
0.02639478275
0.02650975108
0.02662391367
0.02672673517
0.02680711861
0.02685344341
0.02646004279
0.02651897842
0.02660185559
0.02670148265
0.02680954433
0.0269168147
0.02701339482
0.02708887148
0.02713235328
0.02675923941
0.02681461229
0.02689246558
0.02698603028
0.02708748504
0.02718816073
0.02727876786
0.02734954806
0.02739030841
0.02703667057
0.02708863882
0.0271616905
0.02724946017
0.02734459838
0.02743896847
0.02752386388
0.02759015279
0.02762831052
0.02729338077
0.02734209655
0.02741056089
0.02749279365
0.02758189627
0.02767024097
0.02774967843
0.02781167575
0.02784734673
0.02753039371
0.02757600347
0.02764008689
0.02771703179
0.0278003703
0.02788296083
0.02795718643
0.02801508611
0.02804838307
0.0277487067
0.02779135132
0.02785125261
0.02792314978
0.02800098633
0.02807808499
0.02814733701
0.0282013271
0.02823235946
0.02794928637
0.02798910144
0.02804501204
0.02811209297
0.02818468054
0.02825654071
0.02832104961
0.02837131218
0.02840018593
0.02813306588
0.02817018186
0.02822228612
0.02828477389
0.02835235648
0.02841922277
0.0284792112
0.02852592221
0.0285527399
0.0283009429
0.02833548537
0.02838396079
0.02844207034
0.02850488317
0.0285669915
0.0286226743
0.02866600365
0.02869086427
0.02845377854
0.02848586836
0.02853088584
0.02858482416
0.02864309385
0.0287006716
0.02875225588
0.02879236736
0.02881536637
0.02859239678
0.02862215025
0.02866387429
0.02871384065
0.02876778541
0.02882105156
0.02886873676
0.02890578811
0.02892701742
0.02871758451
0.02874511354
0.0287837024
0.02882988855
0.02887971834
0.02892888357
0.02897286157
0.02900700449
0.02902655248
0.02883009187
0.02885550408
0.02889110997
0.0289337003
0.02897961701
0.02902488384
0.02906533906
0.0290967193
0.02911467084
0.02893063292
0.02895403175
0.02898680096
0.02902597267
0.02906817026
0.02910973323
0.02914684271
0.02917560014
0.02919203664
0.0290198865
0.02904137133
0.02907144438
0.02910736763
0.02914603231
0.02918407808
0.02921801163
0.02924428033
0.02925927979
0.02909849727
0.02911816351
0.02914567528
0.02917851335
0.02921382371
0.02924853122
0.02927945155
0.02930335992
0.02931699698
0.02916707686
0.02918501605
0.02921009589
0.02924000531
0.0292721325
0.02930367316
0.02933173601
0.02935340688
0.02936575292
0.0292262051
0.02924250497
0.02926527683
0.02929240755
0.02932151542
0.02935005325
0.02937540757
0.02939495835
0.02940608153
0.02927643125
0.02929117582
0.02931175839
0.02933625392
0.02936249923
0.02938819103
0.02941097915
0.02942852192
0.02943848729
0.02931827528
0.02933154497
0.02935005179
0.02937204936
0.02939558193
0.02941857749
0.02943893526
0.02945457698
0.02946344656
0.02935222922
0.02936410091
0.02938064049
0.02940027123
0.02942123413
0.02944167642
0.02945973343
0.02947357604
0.0294814089
0.02937875837
0.0293893055
0.0294039815
0.02942137057
0.02943990033
0.02945792567
0.02947380544
0.02948594603
0.02949279842
0.02939830259
0.02940759528
0.0294205066
0.0294357734
0.02945200017
0.02946773849
0.02948155863
0.02949208962
0.02949801505
0.02941127753
0.02941938265
0.0294306236
0.02944388195
0.02945792974
0.02947150474
0.0294833772
0.0294923865
0.02949743581
0.02941807585
0.02942505712
0.02943471758
0.02944607587
0.02945806273
0.02946959213
0.02947962337
0.02948719454
0.02949141606
0.02941906833
0.02942498647
0.02943315198
0.0294427134
0.02945275166
0.02946234739
0.02947063861
0.02947685102
0.02948029063
0.02941460507
0.02941951784
0.02942626982
0.0294341325
0.02944232896
0.02945009742
0.02945674473
0.02946167377
0.02946437501
0.02940501649
0.02940897885
0.02941439472
0.02942065196
0.0294271081
0.02943315034
0.02943824503
0.0294419622
0.02944396639
0.02939061444
0.02939367862
0.02939783196
0.02940257239
0.02940738461
0.02941179657
0.02941542524
0.02941799841
0.0294193447
0.02937169314
0.02937390877
0.02937686947
0.02938017728
0.02938343707
0.0293863098
0.0293885546
0.02939004812
0.02939077363
0.02934853018
0.02934994439
0.02935177881
0.02935373388
0.02935552806
0.02935694793
0.02935788677
0.0293583616
0.02935850152
0.0293213874
0.02932204492
0.02932281601
0.02932349416
0.02932390509
0.02932395397
0.02932366069
0.02932317463
0.02932276227
0.02929051175
0.02929045501
0.02929022252
0.02928969563
0.02928880139
0.0292875569
0.02928610147
0.02928470925
0.02928377618
0.02925613613
0.02925540539
0.02925422596
0.02925256219
0.02925043679
0.02924797247
0.02924542118
0.02924317465
0.02924175073
0.02921848019
0.02921711361
0.02921504093
0.02921230488
0.02920901844
0.02920540397
0.0292018196
0.02919876783
0.02919688135
0.02917775104
0.02917578479
0.02917286975
0.02916912261
0.02916474157
0.02916004294
0.02915548492
0.02915167438
0.02914935211
0.02913414398
0.02913161232
0.02912790313
0.0291232029
0.02911779017
0.02911206986
0.02910659447
0.02910206914
0.0290993364
0.02908784316
0.02908477856
0.02908032089
0.02907472247
0.02906833764
0.02906165481
0.0290553153
0.02905011681
0.02904699756
0.02903902222
0.02903545544
0.02903029253
0.02902384792
0.02901654739
0.02900895804
0.02900180484
0.02899597256
0.02899248947
0.02898784491
0.02898380505
0.02897797785
0.02897073629
0.02896257346
0.02895413059
0.0289462114
0.02893978259
0.02893595713
0.02893446559
0.02892998024
0.02892352753
0.02891553561
0.02890656103
0.0288973148
0.02888867477
0.02888168469
0.02887753713
0.02887902987
0.02887412512
0.0288670836
0.02885838545
0.02884864695
0.02883864483
0.02882932667
0.02882180869
0.02881735823
0.02882167503
0.0288163756
0.02880878001
0.02879941738
0.02878896024
0.02877824715
0.02876829128
0.02876027694
0.02875554175
0.02876253055
0.02875685983
0.02874874306
0.02873875547
0.02872762253
0.02871624099
0.02870568565
0.02869720481
0.02869220205
0.02870171854
0.02869569866
0.02868709184
0.0286765167
0.02866474852
0.02865273874
0.02864162012
0.02863270103
0.02862744695
0.02863935416
0.0286330061
0.02862393869
0.02861281139
0.02860044635
0.02858784641
0.02857619875
0.02856686814
0.02856137811
0.02857554609
0.02856888966
0.02855938956
0.02854774362
0.02853481804
0.02852166395
0.02850951966
0.02849980281
0.02849409139
0.0285103968
0.02850345081
0.0284935444
0.02848141154
0.0284679598
0.02845428567
0.02844167541
0.02843159625
0.0284256772
0.02844400303
0.02843678524
0.02842649753
0.02841390778
0.02839996242
0.02838580054
0.02837275333
0.02836233453
0.02835622087
0.02837645605
0.02836898331
0.02835833796
0.02834531974
0.02833091159
0.02831629251
0.02830283584
0.02829209884
0.02828580291
0.02830784203
0.02830013028
0.02828914971
0.02827572996
0.0282608882
0.02824584086
0.02823200077
0.02822096589
0.02821449937
0.02823824236
0.02823030671
0.02821901215
0.02820521638
0.02818996866
0.0281745205
0.02816032164
0.02814900813
0.0281423821
0.02816773392
0.02815958868
0.02814800027
0.02813385266
0.0281182252
0.02810240221
0.02808786799
0.02807629408
0.02806951904
0.0280963894
0.02808804817
0.02807618498
0.02806170849
0.02804572615
0.02802955301
0.0280147056
0.02800288864
0.02799597454
0.02802427761
0.02801575327
0.02800363344
0.02798884984
0.02797253624
0.02795603639
0.02794089688
0.02792885332
0.02792180964
0.02795146375
0.02794276855
0.02793040932
0.02791533932
0.02789871694
0.02788191266
0.02786650112
0.02785424664
0.02784708238
0.02787800973
0.02786915535
0.02785657312
0.02784123646
0.0278243267
0.02780723926
0.02779157484
0.02777912439
0.02777184818
0.02780397452
0.02779497209
0.02778218254
0.02776659807
0.02774942141
0.02773207114
0.02771617216
0.02770354008
0.02769616018
0.02772941448
0.02772027468
0.02770729284
0.02769147865
0.02767405473
0.02765646118
0.02764034527
0.02762754535
0.02762006971
0.02765438383
0.02764511694
0.02763195727
0.02761593081
0.0275982786
0.02758046066
0.02756414489
0.02755119051
0.02754362685
0.0275789351
0.02756955107
0.02755622763
0.02754000583
0.0275221438
0.02750411989
0.02748762092
0.02747452516
0.02746688105
0.02750311972
0.02749362831
0.02748015486
0.02746375436
0.02744570065
0.02742748893
0.02741082322
0.02739759905
0.027389882
0.02742698879
0.02741739966
0.02740378985
0.02738722718
0.02736899991
0.02735061852
0.0273338026
0.02732046305
0.02731268063
0.02735059397
0.02734091683
0.02732718443
0.02731047632
0.02729209383
0.02727356125
0.027256612
0.02724317046
0.02723533047
0.02727398859
0.02726423341
0.02725039258
0.02723355627
0.02721503759
0.02719637304
0.02717930809
0.02716577858
0.02715788923
0.02719722911
0.02718740636
0.02717347199
0.02715652569
0.02713789098
0.02711911495
0.0271019532
0.02708835083
0.02708042098
0.02712037688
0.0271104978
0.02709648598
0.02707944942
0.02706072063
0.02704185553
0.02702461773
0.02701095918
0.02700299867
0.02704350031
0.02703357734
0.02701950585
0.02700240098
0.02698360263
0.0269646736
0.02694738319
0.02693368734
0.02692570735
0.02696667761
0.0269567248
0.02694261385
0.02692546566
0.02690662579
0.02688766175
0.02687034575
0.02685663452
0.02684864806
0.02688999996
0.02688003359
0.02686590661
0.02684874418
0.02682989557
0.02681093041
0.02679362066
0.02677991992
0.02677194238
0.02681357543
0.02680361467
0.02678949934
0.0267723571
0.02675353863
0.02673461273
0.02671734725
0.02670368798
0.02669573785
0.02673753344
0.02672760118
0.02671353057
0.02669644978
0.02667770818
0.02665887013
0.02664169478
0.02662811442
0.02662021408
0.02666202991
0.02665215371
0.02663816772
0.02662119816
0.0266025899
0.02658389851
0.02656686889
0.02655341291
0.02654558955
0.02658725305
0.02657746622
0.02656361307
0.02654681501
0.02652840848
0.02650993507
0.02649311864
0.02647984223
0.02647212889
0.02651342954
0.02650377235
0.02649011034
0.02647355664
0.02645543455
0.0264372654
0.02642074377
0.02640771374
0.02640015042
0.02644083113
0.02643135206
0.02641795141
0.02640172979
0.02638399172
0.02636623063
0.026350102
0.02633739869
0.0263300335
0.02636978122
0.0263605383
0.02634748298
0.02633169832
0.02631446324
0.02629723416
0.02628161569
0.02626933491
0.0262622252
0.0263006611
0.02629172316
0.02627911274
0.02626388929
0.02624729797
0.02623074739
0.0262157774
0.02620403215
0.02619724552
0.02623391535
0.02622536319
0.02621331444
0.02619879769
0.02618301476
0.02616731375
0.02615315353
0.02614207541
0.0261356905
0.02617005582
0.02616198308
0.02615063115
0.02613698928
0.02612220469
0.02610755023
0.02609438513
0.02608412514
0.02607823208
0.02610966342
0.02610217706
0.02609167614
0.02607910062
0.02606553014
0.02605214547
0.02604018505
0.02603091352
0.0260256138
0.02605338706
0.02604660727
0.02603713026
0.02602583537
0.02601371981
0.02600185336
0.02599133016
0.02598323561
0.02597864136
0.02600193867
0.02599599798
0.02598773521
0.0259779561
0.0259675589
0.02595748145
0.02594864804
0.02594193456
0.02593816681
0.02595608369
0.0259511252
0.0259442816
0.02593627064
0.02592787337
0.0259198731
0.02591299705
0.02590787994
0.02590506595
0.02591662622
0.0259128006
0.0259075913
0.02590161234
0.02589550792
0.02588988291
0.02588523942
0.02588193892
0.02588020828
0.02588438816
0.02588184948
0.02587849361
0.02587481394
0.02587129715
0.02586834528
0.02586620725
0.02586494014
0.0258644196
0.0258601823
0.02585908247
0.02585779495
0.02585667487
0.02585603037
0.02585603636
0.02585666191
0.02585763111
0.0258584382
0.02584477928
0.02584526116
0.02584624268
0.02584792286
0.0258504105
0.02585363052
0.02585724818
0.02586063045
0.02586286603
0.02583886922
0.0258410586
0.02584448392
0.02584917067
0.02585500881
0.025861653
0.02586844514
0.02587437742
0.02587811745
0.02584301936
0.02584701598
0.02585302101
0.02586087028
0.02587021774
0.02588043151
0.02589051678
0.02589908197
0.02590436903
0.02585762954
0.02586349773
0.02587216614
0.02588326703
0.02589620472
0.02591005006
0.02592346616
0.02593467932
0.02594151445
0.02588288842
0.02589064792
0.0259019981
0.02591635709
0.02593287081
0.02595030914
0.02596699736
0.02598079359
0.02598912935
0.02591873354
0.02592835126
0.02594232489
0.02595985225
0.02597981831
0.02600069664
0.02602048983
0.02603671539
0.02604645096
0.02596481905
0.02597620267
0.02599265603
0.02601315605
0.02603633143
0.02606037366
0.02608298954
0.02610139748
0.02611237664
0.02602049491
0.02603348921
0.02605218861
0.02607535501
0.02610137393
0.02612817907
0.02615322035
0.02617347198
0.02618548479
0.02608480115
0.02609918786
0.02611981023
0.02614522835
0.02617360645
0.02620265513
0.02622961762
0.02625129075
0.02626407926
0.0261564801
0.02617198183
0.02619412132
0.02622127779
0.02625142506
0.02628209502
0.02631038428
0.02633298846
0.02634625676
0.0262340081
0.02625029675
0.02627347773
0.026301778
0.02633302031
0.0263646108
0.02639356707
0.02641656558
0.0264299935
0.02631564689
0.02633235636
0.02635605245
0.02638484558
0.02641645415
0.02644821814
0.02647714699
0.02649998041
0.02651323777
0.0263995128
0.02641625533
0.02643991359
0.02646852312
0.02649974949
0.02653092835
0.0265591351
0.0265812537
0.02659402078
0.02648365994
0.02650004506
0.02652311245
0.02655086819
0.0265809812
0.02661084731
0.02663767699
0.02665857071
0.02667055543
0.02656616704
0.02658182045
0.02660377243
0.02663004797
0.02665837497
0.02668627046
0.02671114233
0.02673036798
0.02674132146
0.02664523029
0.0266598148
0.02668018383
0.02670442891
0.02673039014
0.02675576058
0.02677819757
0.026795401
0.02680512982
0.02671925062
0.02673248286
0.02675088146
0.02677264898
0.0267957854
0.02681820578
0.02683785598
0.02685278723
0.02686116124
0.02678690332
0.02679856674
0.0268147048
0.02683367014
0.0268536623
0.026872853
0.02688950143
0.02690202163
0.02690897648
0.02684718836
0.02685714126
0.02687083625
0.02688680749
0.0269034838
0.02691931579
0.02693288583
0.02694296593
0.02694850118