/*--------------------------------*- C++ -*----------------------------------*\
| =========                 |                                                 |
| \\      /  F ield         | OpenFOAM: The Open Source CFD Toolbox           |
|  \\    /   O peration     | Version:  2212                                  |
|   \\  /    A nd           | Website:  www.openfoam.com                      |
|    \\/     M anipulation  |                                                 |
\*---------------------------------------------------------------------------*/
FoamFile
{
    version     2.0;
    format      ascii;
    arch        "LSB;label=32;scalar=64";
    class       volScalarField;
    location    "30.00000000";
    object      C4H4;
}
// * * * * * * * * * * * * * * * * * * * * * * * * * * * * * * * * * * * * * //

dimensions      [0 0 0 0 0 0 0];

internalField   nonuniform List<scalar> 
3000
(
3.078267453e-19
3.457980682e-19
4.030953743e-19
4.794459152e-19
5.740689191e-19
6.843879616e-19
8.037508878e-19
9.176320866e-19
9.981490748e-19
1.155572819e-18
1.303369691e-18
1.526291785e-18
1.823996227e-18
2.196161535e-18
2.64069178e-18
3.14983627e-18
3.697947064e-18
4.183425467e-18
2.588382985e-18
2.942377154e-18
3.48139512e-18
4.213195371e-18
5.150842362e-18
6.307808921e-18
7.67939665e-18
9.188659409e-18
1.047836989e-17
4.930356604e-18
5.663348491e-18
6.795815149e-18
8.365964789e-18
1.042920464e-17
1.303764183e-17
1.617670796e-17
1.959522642e-17
2.235426977e-17
8.755675655e-18
1.018074782e-17
1.241715452e-17
1.557834683e-17
1.98127248e-17
2.523859704e-17
3.176498155e-17
3.869531386e-17
4.401543336e-17
1.505744074e-17
1.773211733e-17
2.198980677e-17
2.810213497e-17
3.639507938e-17
4.707743606e-17
5.98304977e-17
7.304660755e-17
8.282485121e-17
2.556503644e-17
3.047795388e-17
3.838966209e-17
4.987586078e-17
6.557599825e-17
8.580229614e-17
1.097184018e-16
1.340178362e-16
1.515510177e-16
4.327067933e-17
5.216119026e-17
6.660538031e-17
8.773707221e-17
1.167339249e-16
1.540127886e-16
1.977030247e-16
2.414452933e-16
2.724802014e-16
7.336247199e-17
8.928095958e-17
1.1530953e-16
1.535799667e-16
2.061850512e-16
2.736279928e-16
3.520983485e-16
4.298441859e-16
4.843965228e-16
1.248340719e-16
1.531135798e-16
1.99562342e-16
2.680717893e-16
3.622910314e-16
4.827590809e-16
6.221419095e-16
7.592278044e-16
8.547096174e-16
2.13297394e-16
2.632494916e-16
3.455465423e-16
4.671562599e-16
6.343755531e-16
8.476606246e-16
1.093387646e-15
1.333842761e-15
1.500533104e-15
3.658799392e-16
4.53754365e-16
5.988215506e-16
8.133968216e-16
1.108268821e-15
1.483518726e-15
1.914373766e-15
2.334522026e-15
2.625165582e-15
6.297675503e-16
7.839380606e-16
1.03878512e-15
1.415891802e-15
1.933607277e-15
2.590804335e-15
3.342715513e-15
4.073885796e-15
4.581584751e-15
1.087063368e-15
1.357127444e-15
1.803993667e-15
2.465394548e-15
3.372425519e-15
4.520313214e-15
5.826011828e-15
7.086623661e-15
7.985831596e-15
1.880503003e-15
2.353178928e-15
3.136163884e-15
4.29598686e-15
5.886668711e-15
7.895831536e-15
1.015912609e-14
1.224102572e-14
1.394095657e-14
3.25768419e-15
4.084107373e-15
5.454828735e-15
7.488874083e-15
1.02875924e-14
1.385048028e-14
1.795730141e-14
2.205798362e-14
2.463027052e-14
5.647290983e-15
7.089210763e-15
9.482090229e-15
1.30339963e-14
1.791973048e-14
2.412753879e-14
3.123074536e-14
3.811806458e-14
4.279571817e-14
9.792385981e-15
1.230345064e-14
1.647110939e-14
2.265617877e-14
3.115766742e-14
4.19436261e-14
5.42558858e-14
6.616464549e-14
7.431658904e-14
1.698222824e-14
2.134980637e-14
2.859907287e-14
3.935572448e-14
5.413491888e-14
7.287390679e-14
9.425037991e-14
1.149190263e-13
1.290768528e-13
2.945469331e-14
3.704615341e-14
4.964711677e-14
6.834370933e-14
9.402741997e-14
1.265837697e-13
1.637116812e-13
1.996019986e-13
2.241839954e-13
5.109489613e-14
6.428509559e-14
8.618079153e-14
1.186681876e-13
1.632924222e-13
2.1984829e-13
2.843322659e-13
3.466531132e-13
3.89330965e-13
8.864831374e-14
1.115618456e-13
1.496003779e-13
2.060394811e-13
2.835580706e-13
3.817902314e-13
4.937717069e-13
6.019755825e-13
6.760609973e-13
1.538273748e-13
1.936274331e-13
2.597012192e-13
3.577355519e-13
4.923742908e-13
6.629662333e-13
8.574006479e-13
1.04524e-12
1.173833731e-12
2.669695582e-13
3.360960077e-13
4.508556174e-13
6.211170237e-13
8.549257509e-13
1.151121629e-12
1.48864847e-12
1.814661422e-12
2.037816161e-12
4.63388031e-13
5.83442851e-13
7.827425047e-13
1.078402649e-12
1.484350268e-12
1.99850874e-12
2.58426814e-12
3.149902999e-12
3.536994329e-12
8.043938612e-13
1.012884939e-12
1.3589649e-12
1.872296298e-12
2.576958031e-12
3.469205379e-12
4.485373776e-12
5.466301923e-12
6.137401309e-12
1.396417163e-12
1.758459265e-12
2.359336264e-12
3.250403079e-12
4.473215512e-12
6.02095328e-12
7.782874686e-12
9.482922463e-12
1.064553214e-11
2.424141677e-12
3.052738729e-12
4.09579051e-12
5.64208703e-12
7.763168494e-12
1.044645083e-11
1.34992258e-11
1.644295895e-11
1.845493442e-11
4.207852484e-12
5.299012207e-12
7.109062931e-12
9.79123966e-12
1.346829106e-11
1.811663664e-11
2.340074526e-11
2.849174425e-11
3.196854631e-11
7.302515318e-12
9.195936259e-12
1.233551083e-11
1.698505657e-11
2.335424412e-11
3.139813678e-11
4.053214655e-11
4.93221176e-11
5.531846141e-11
1.266856128e-11
1.595225837e-11
2.139413295e-11
2.944694521e-11
4.046672741e-11
5.436639564e-11
7.012674227e-11
8.526995023e-11
9.558503522e-11
2.196542254e-11
2.765551859e-11
3.707861143e-11
5.100851155e-11
7.004513546e-11
9.401714777e-11
1.211465418e-10
1.471607911e-10
1.648463159e-10
3.805426744e-11
4.790265986e-11
6.419704544e-11
8.825292357e-11
1.210711401e-10
1.623105145e-10
2.088682547e-10
2.533965092e-10
2.83592727e-10
6.585541879e-11
8.287351154e-11
1.109973242e-10
1.524482089e-10
2.088747149e-10
2.79592083e-10
3.591863616e-10
4.350640558e-10
4.863580007e-10
1.138035459e-10
1.431480595e-10
1.915711487e-10
2.627922624e-10
3.594829661e-10
4.802646625e-10
6.156990685e-10
7.442968563e-10
8.308971697e-10
1.963036019e-10
2.467632537e-10
3.29878781e-10
4.518134334e-10
6.168075972e-10
8.220907934e-10
1.051240928e-09
1.267790637e-09
1.412955668e-09
3.378496921e-10
4.243177734e-10
5.664309413e-10
7.74272597e-10
1.054395855e-09
1.40126905e-09
1.786413183e-09
2.148359946e-09
2.3897128e-09
5.798846407e-10
7.274283831e-10
9.692790675e-10
1.321681419e-09
1.794415274e-09
2.376553705e-09
3.018953304e-09
3.618838157e-09
4.016470141e-09
9.921361757e-10
1.242614844e-09
1.651908175e-09
2.245707724e-09
3.037936585e-09
4.007319109e-09
5.069628701e-09
6.054629759e-09
6.703253511e-09
1.691194037e-09
2.113879997e-09
2.802049086e-09
3.795446811e-09
5.112597979e-09
6.712794556e-09
8.452935481e-09
1.005403065e-08
1.110092626e-08
2.87067563e-09
3.579052914e-09
4.72753685e-09
6.376018109e-09
8.546611573e-09
1.116296246e-08
1.398450095e-08
1.655932954e-08
1.823047473e-08
4.849726328e-09
6.027645638e-09
7.928421057e-09
1.063949453e-08
1.418212276e-08
1.841616159e-08
2.294209946e-08
2.703709267e-08
2.967474346e-08
8.150170415e-09
1.009190169e-08
1.320895638e-08
1.762418061e-08
2.334657829e-08
3.012473389e-08
3.730410882e-08
4.374346899e-08
4.785964724e-08
1.361784221e-08
1.678836656e-08
2.18493628e-08
2.896525044e-08
3.810857555e-08
4.883873876e-08
6.009876632e-08
7.011059553e-08
7.646255861e-08
2.261109078e-08
2.773530415e-08
3.586599036e-08
4.720943697e-08
6.165543221e-08
7.844970449e-08
9.591068749e-08
1.11304257e-07
1.210002291e-07
3.728991966e-08
4.548239789e-08
5.840058414e-08
7.627974966e-08
9.884446557e-08
1.248327474e-07
1.516090574e-07
1.750222247e-07
1.896686689e-07
6.105360228e-08
7.400436406e-08
9.42957624e-08
1.221542521e-07
1.570000189e-07
1.967676421e-07
2.373863308e-07
2.726289494e-07
2.945347619e-07
9.919395276e-08
1.194304909e-07
1.509358308e-07
1.938471429e-07
2.470551827e-07
3.072493409e-07
3.682291895e-07
4.207577537e-07
4.532164497e-07
1.59856873e-07
1.911089224e-07
2.39460988e-07
3.048122038e-07
3.851725436e-07
4.753378635e-07
5.659870894e-07
6.435589516e-07
6.912379976e-07
2.554374709e-07
3.031388911e-07
3.765000019e-07
4.749292592e-07
5.950233046e-07
7.287476987e-07
8.622596422e-07
9.758336795e-07
1.045311792e-06
4.045749202e-07
4.765469773e-07
5.866122186e-07
7.332838581e-07
9.109584169e-07
1.107436994e-06
1.302391148e-06
1.46736784e-06
1.567878119e-06
6.349629566e-07
7.423353285e-07
9.056841876e-07
1.122007504e-06
1.382365463e-06
1.668520844e-06
1.950930289e-06
2.188856412e-06
2.333318437e-06
9.872510165e-07
1.145691878e-06
1.385590074e-06
1.701508856e-06
2.07956453e-06
2.492887161e-06
2.898963176e-06
3.239856283e-06
3.446302716e-06
1.520354979e-06
1.751680591e-06
2.100436819e-06
2.557436748e-06
3.101622558e-06
3.693934264e-06
4.27374814e-06
4.759180354e-06
5.052649152e-06
2.318494913e-06
2.652763747e-06
3.154818736e-06
3.809859352e-06
4.586570441e-06
5.4288451e-06
6.250956078e-06
6.937877977e-06
7.352711668e-06
3.50065638e-06
3.978854777e-06
4.694705292e-06
5.625174821e-06
6.724439253e-06
7.912714649e-06
9.069668726e-06
1.003471202e-05
1.061695762e-05
5.232904381e-06
5.910321122e-06
6.921422204e-06
8.231262037e-06
9.773620795e-06
1.143595195e-05
1.30504424e-05
1.439445238e-05
1.520425434e-05
7.744197573e-06
8.694560964e-06
1.010927823e-05
1.193630055e-05
1.408083383e-05
1.638518048e-05
1.861697703e-05
2.047049149e-05
2.158559366e-05
1.134613185e-05
1.266647352e-05
1.462698023e-05
1.715117885e-05
2.010446737e-05
2.326764609e-05
2.632233401e-05
2.885387668e-05
3.037558785e-05
1.645638132e-05
1.827238426e-05
2.096213791e-05
2.441464176e-05
2.844074661e-05
3.273955275e-05
3.688092965e-05
4.030892483e-05
4.236981918e-05
2.362433425e-05
2.609581061e-05
2.974733632e-05
3.442031329e-05
3.985320163e-05
4.563969872e-05
5.12062217e-05
5.581280266e-05
5.858468169e-05
3.355657518e-05
3.688330564e-05
4.178723669e-05
4.804673906e-05
5.530726335e-05
6.30281556e-05
7.045098973e-05
7.659573368e-05
8.029729133e-05
4.714240286e-05
5.157190756e-05
5.808953472e-05
6.639288021e-05
7.600919629e-05
8.622591792e-05
9.604608269e-05
0.0001041787516
0.0001090826018
6.548475512e-05
7.132298732e-05
7.990205356e-05
9.081688353e-05
0.0001034439788
0.000116850555
0.0001297338584
0.0001404053672
0.0001468439777
8.993874874e-05
9.756119781e-05
0.0001087506486
0.0001229710426
0.000139406437
0.0001568435049
0.0001735920625
0.0001874626139
0.0001958323653
0.0001221492869
0.0001320092239
0.0001464696362
0.0001648271098
0.0001860210179
0.000208484545
0.0002300432505
0.0002478861184
0.000258648692
0.0001640785996
0.0001767113187
0.0001952197539
0.0002186875818
0.0002457461829
0.0002743887764
0.0003018445266
0.0003245438713
0.0003382240757
0.0002180198368
0.0002340421218
0.0002574905153
0.0002871802997
0.0003213596351
0.000357481891
0.0003920533339
0.0004205943024
0.0004377733831
0.0002865948869
0.0003066993866
0.0003360852228
0.0003732333634
0.0004159216882
0.0004609513643
0.0005039670923
0.0005394165617
0.0005607200809
0.0003727354833
0.0003976787901
0.0004340866532
0.0004800293954
0.0005327164633
0.0005881739697
0.0006410377943
0.0006845146879
0.0007105943752
0.0004796456024
0.0005102297484
0.00055480337
0.0006109400429
0.0006751730889
0.0007426232585
0.0008067666982
0.0008594020761
0.0008909118021
0.0006107446583
0.0006477923252
0.00070169774
0.0007694432429
0.000846771267
0.000927763519
0.001004587906
0.001067477064
0.001105044349
0.0007695913609
0.0008139158733
0.0008782974836
0.0009590267091
0.001050936726
0.001146938206
0.001237751534
0.00131190294
0.001356099158
0.0009597886808
0.001012160573
0.001088092991
0.001183081263
0.001290931889
0.001403260179
0.001509216201
0.001595504788
0.001646819367
0.001184871534
0.001245984006
0.001334423232
0.001444787535
0.001569745829
0.001699508162
0.001821555605
0.0019206901
0.001979526747
0.001448181074
0.00151861693
0.001620354605
0.001747000185
0.001889986632
0.002038029777
0.002176873991
0.002289381312
0.00235603273
0.001752732831
0.001832935548
0.001948559951
0.002092136285
0.002253781385
0.002420653642
0.002576730589
0.002702885456
0.002777446936
0.002101089423
0.002191340822
0.002321207955
0.002482077642
0.00266269393
0.0028486279
0.003022027251
0.003161782907
0.003244189841
0.002495250554
0.002595656719
0.002739873145
0.002918097084
0.003117673235
0.003322496173
0.003512917006
0.003665955425
0.003755979364
0.002936571594
0.003047059675
0.00320548962
0.003400815917
0.003618901357
0.003842033419
0.004048846788
0.004214601103
0.004311887609
0.00342573493
0.003546043248
0.003718225846
0.003929993743
0.004165772285
0.004406289381
0.004628562624
0.00480623304
0.004910290032
0.003962550935
0.004092182597
0.004277377093
0.004504619341
0.004756947473
0.005013613302
0.005250143915
0.005438728291
0.005548950784
0.004545951246
0.004684239438
0.004881467385
0.005122941453
0.005390388817
0.005661697197
0.005911054266
0.00610938332
0.006225075676
0.005174082158
0.005320210478
0.005528288638
0.005782516926
0.00606341302
0.006347636635
0.00660820688
0.006814981755
0.00693538018
0.005844356077
0.005997383734
0.00621496117
0.006480276844
0.006772762408
0.00706800519
0.00733804113
0.007551871626
0.00767616648
0.006553522924
0.006712412815
0.006938011062
0.007212607001
0.007514687689
0.007818938397
0.008096606551
0.008316048564
0.008443405785
0.007297757132
0.007461405237
0.007693459756
0.007975438339
0.008285038413
0.008596223286
0.008879650697
0.009103241734
0.009232822824
0.008072755443
0.008240020211
0.008476921407
0.008764343186
0.009079357279
0.009395390032
0.009682707767
0.009908999708
0.0100399801
0.008873841032
0.009043571656
0.009283704025
0.009574633681
0.00989297503
0.01021180274
0.01050118517
0.0107287736
0.01086036074
0.00969607008
0.009867132787
0.01010891104
0.01040145936
0.01072110326
0.01104074694
0.01133044519
0.01155799113
0.01168942711
0.01053433754
0.01070563924
0.01094754059
0.01123990155
0.0115589234
0.0118775133
0.01216588515
0.01239213897
0.01252272258
0.01138347947
0.01155398828
0.0117945801
0.01208506243
0.01240166946
0.01271747386
0.01300300703
0.01322682408
0.01335591604
0.01223836975
0.01240713194
0.01264509457
0.0129321471
0.01324470343
0.01355615073
0.01383747999
0.0140578318
0.01418485973
0.01309400948
0.01326016276
0.01349430687
0.01377653757
0.01408358237
0.01438927634
0.01466519474
0.01488117575
0.01500563707
0.01394560765
0.01410839054
0.01433766923
0.01461385792
0.01491411678
0.01521284528
0.01548230956
0.01569313965
0.01581460203
0.01478865197
0.01494740953
0.01517092529
0.01544003029
0.01573242042
0.0160231583
0.01628528936
0.01649031287
0.01660841081
0.01561896918
0.01577315543
0.01599016261
0.01625132226
0.01653495313
0.01681686173
0.01707093988
0.01726962489
0.01738407249
0.01643277445
0.01658195251
0.01679185719
0.01704438678
0.01731855772
0.01759099365
0.01783649661
0.01802846443
0.01813905227
0.01722671138
0.01737055148
0.01757291403
0.0178163287
0.01808055695
0.01834307399
0.01857962038
0.01876458788
0.01887115803
0.01799796419
0.0181362524
0.01833078532
0.01856475643
0.01881870771
0.01907099704
0.01929832571
0.01947609865
0.01957854196
0.01874422222
0.01887682361
0.01906334717
0.01928767306
0.01953114591
0.019773024
0.01999098163
0.02016144607
0.02025969765
0.01946359875
0.01959044884
0.01976887983
0.01998347133
0.02021638136
0.02044777546
0.02065630369
0.02081941646
0.02091345057
0.02015462083
0.02027571638
0.02044605536
0.02065092045
0.02087328411
0.02109421673
0.02129333886
0.02144911777
0.02153894249
0.02081620966
0.02093159906
0.02109391712
0.02128914533
0.02150106355
0.02171163707
0.0219014449
0.02204995907
0.02213561111
0.02144765312
0.02155742691
0.02171185261
0.02189759987
0.02209924238
0.02229962421
0.02248026553
0.02262162621
0.02270316597
0.0220485726
0.02215285448
0.02229956163
0.02247603609
0.02266762674
0.02285803569
0.02302970272
0.02316405488
0.02324156189
0.02261888618
0.02271782485
0.02285702134
0.0230244706
0.02320627426
0.02338696826
0.02354988734
0.02367740216
0.023750971
0.02315877015
0.02325253214
0.02338445019
0.02354315008
0.0237154612
0.02388672665
0.02404114932
0.02416201758
0.02423175437
0.02366862039
0.02375738394
0.02388227187
0.02403251703
0.02419564995
0.02435779273
0.02450398812
0.02461841468
0.02468443398
0.02414901516
0.02423296522
0.02435108063
0.02449317674
0.02464745775
0.02480079587
0.02493904442
0.0250472436
0.02510966589
0.02460068009
0.02468000434
0.02479160876
0.02492586637
0.02507162744
0.02521648506
0.02534707355
0.02544926532
0.02550821489
0.02502445628
0.02509934212
0.02520469686
0.02533142669
0.02546900059
0.02560570348
0.025728921
0.02582532803
0.02588093126
0.02542127184
0.02549190414
0.02559126729
0.02571077674
0.02584049338
0.02596936542
0.02608550038
0.02617634566
0.02622872969
0.02579211696
0.02585867652
0.02595230085
0.02606489151
0.02618707537
0.02630843605
0.02641777388
0.02650327891
0.02655257051
0.02613802265
0.02620068521
0.02628881673
0.02639478276
0.02650975108
0.02662391367
0.02672673517
0.02680711862
0.02685344342
0.02646004279
0.02651897842
0.02660185559
0.02670148265
0.02680954433
0.02691681471
0.02701339482
0.02708887148
0.02713235328
0.02675923941
0.02681461229
0.02689246558
0.02698603028
0.02708748504
0.02718816073
0.02727876786
0.02734954806
0.02739030841
0.02703667057
0.02708863882
0.0271616905
0.02724946017
0.02734459838
0.02743896847
0.02752386388
0.02759015279
0.02762831052
0.02729338077
0.02734209655
0.02741056089
0.02749279365
0.02758189627
0.02767024097
0.02774967843
0.02781167575
0.02784734673
0.02753039371
0.02757600347
0.02764008689
0.02771703179
0.0278003703
0.02788296084
0.02795718643
0.02801508611
0.02804838307
0.0277487067
0.02779135133
0.02785125261
0.02792314978
0.02800098633
0.02807808499
0.02814733701
0.0282013271
0.02823235946
0.02794928637
0.02798910144
0.02804501204
0.02811209297
0.02818468054
0.02825654071
0.02832104962
0.02837131218
0.02840018594
0.02813306588
0.02817018186
0.02822228612
0.02828477389
0.02835235648
0.02841922277
0.0284792112
0.02852592221
0.0285527399
0.0283009429
0.02833548537
0.0283839608
0.02844207034
0.02850488317
0.0285669915
0.0286226743
0.02866600365
0.02869086427
0.02845377854
0.02848586836
0.02853088584
0.02858482416
0.02864309385
0.0287006716
0.02875225588
0.02879236736
0.02881536637
0.02859239678
0.02862215025
0.02866387429
0.02871384065
0.02876778541
0.02882105156
0.02886873676
0.02890578811
0.02892701742
0.02871758451
0.02874511354
0.0287837024
0.02882988855
0.02887971834
0.02892888357
0.02897286157
0.02900700449
0.02902655248
0.02883009187
0.02885550408
0.02889110997
0.0289337003
0.02897961701
0.02902488384
0.02906533906
0.0290967193
0.02911467084
0.02893063292
0.02895403175
0.02898680096
0.02902597267
0.02906817026
0.02910973323
0.02914684271
0.02917560014
0.02919203664
0.0290198865
0.02904137133
0.02907144438
0.02910736763
0.02914603231
0.02918407808
0.02921801163
0.02924428033
0.02925927979
0.02909849727
0.02911816351
0.02914567528
0.02917851335
0.02921382371
0.02924853122
0.02927945155
0.02930335992
0.02931699698
0.02916707686
0.02918501605
0.02921009589
0.02924000531
0.0292721325
0.02930367316
0.02933173601
0.02935340688
0.02936575292
0.0292262051
0.02924250497
0.02926527683
0.02929240755
0.02932151542
0.02935005325
0.02937540757
0.02939495835
0.02940608153
0.02927643125
0.02929117582
0.02931175839
0.02933625392
0.02936249923
0.02938819103
0.02941097915
0.02942852192
0.02943848729
0.02931827528
0.02933154497
0.02935005179
0.02937204936
0.02939558193
0.02941857749
0.02943893526
0.02945457698
0.02946344656
0.02935222922
0.02936410091
0.02938064049
0.02940027123
0.02942123413
0.02944167642
0.02945973343
0.02947357604
0.0294814089
0.02937875837
0.0293893055
0.0294039815
0.02942137057
0.02943990033
0.02945792567
0.02947380544
0.02948594602
0.02949279842
0.02939830259
0.02940759527
0.0294205066
0.0294357734
0.02945200017
0.02946773849
0.02948155863
0.02949208962
0.02949801505
0.02941127753
0.02941938265
0.0294306236
0.02944388195
0.02945792974
0.02947150474
0.0294833772
0.0294923865
0.02949743581
0.02941807585
0.02942505712
0.02943471758
0.02944607587
0.02945806273
0.02946959213
0.02947962337
0.02948719454
0.02949141606
0.02941906833
0.02942498647
0.02943315198
0.0294427134
0.02945275166
0.02946234739
0.02947063861
0.02947685102
0.02948029063
0.02941460507
0.02941951784
0.02942626982
0.0294341325
0.02944232896
0.02945009742
0.02945674473
0.02946167377
0.02946437501
0.02940501649
0.02940897885
0.02941439472
0.02942065196
0.0294271081
0.02943315034
0.02943824503
0.0294419622
0.02944396639
0.02939061444
0.02939367862
0.02939783196
0.02940257239
0.02940738461
0.02941179657
0.02941542524
0.02941799841
0.0294193447
0.02937169314
0.02937390877
0.02937686947
0.02938017728
0.02938343707
0.0293863098
0.0293885546
0.02939004812
0.02939077363
0.02934853018
0.02934994439
0.02935177881
0.02935373388
0.02935552806
0.02935694793
0.02935788677
0.0293583616
0.02935850152
0.0293213874
0.02932204492
0.02932281601
0.02932349416
0.02932390509
0.02932395397
0.02932366069
0.02932317463
0.02932276227
0.02929051175
0.02929045501
0.02929022252
0.02928969563
0.02928880139
0.0292875569
0.02928610147
0.02928470925
0.02928377618
0.02925613613
0.02925540539
0.02925422596
0.02925256219
0.02925043679
0.02924797247
0.02924542118
0.02924317465
0.02924175073
0.02921848019
0.02921711361
0.02921504093
0.02921230488
0.02920901844
0.02920540397
0.0292018196
0.02919876783
0.02919688135
0.02917775104
0.02917578479
0.02917286975
0.02916912261
0.02916474157
0.02916004294
0.02915548492
0.02915167438
0.02914935211
0.02913414398
0.02913161232
0.02912790313
0.0291232029
0.02911779017
0.02911206986
0.02910659447
0.02910206914
0.0290993364
0.02908784316
0.02908477856
0.02908032089
0.02907472247
0.02906833764
0.02906165481
0.02905531531
0.02905011681
0.02904699756
0.02903902222
0.02903545544
0.02903029253
0.02902384792
0.02901654739
0.02900895804
0.02900180484
0.02899597256
0.02899248947
0.02898784491
0.02898380505
0.02897797785
0.02897073629
0.02896257346
0.02895413059
0.0289462114
0.02893978259
0.02893595713
0.02893446559
0.02892998024
0.02892352753
0.02891553562
0.02890656103
0.0288973148
0.02888867477
0.02888168469
0.02887753713
0.02887902987
0.02887412512
0.0288670836
0.02885838545
0.02884864695
0.02883864483
0.02882932667
0.02882180869
0.02881735823
0.02882167503
0.0288163756
0.02880878001
0.02879941738
0.02878896024
0.02877824715
0.02876829128
0.02876027694
0.02875554175
0.02876253055
0.02875685983
0.02874874306
0.02873875547
0.02872762253
0.02871624099
0.02870568565
0.02869720481
0.02869220205
0.02870171854
0.02869569866
0.02868709184
0.0286765167
0.02866474852
0.02865273874
0.02864162012
0.02863270103
0.02862744695
0.02863935416
0.0286330061
0.02862393869
0.02861281139
0.02860044635
0.02858784641
0.02857619875
0.02856686814
0.02856137811
0.02857554609
0.02856888966
0.02855938956
0.02854774362
0.02853481804
0.02852166395
0.02850951966
0.02849980281
0.02849409139
0.0285103968
0.02850345081
0.0284935444
0.02848141154
0.0284679598
0.02845428568
0.02844167541
0.02843159625
0.0284256772
0.02844400303
0.02843678524
0.02842649753
0.02841390778
0.02839996242
0.02838580054
0.02837275333
0.02836233453
0.02835622087
0.02837645605
0.02836898331
0.02835833796
0.02834531974
0.02833091159
0.02831629251
0.02830283584
0.02829209884
0.02828580291
0.02830784203
0.02830013028
0.02828914971
0.02827572996
0.0282608882
0.02824584086
0.02823200077
0.02822096589
0.02821449937
0.02823824236
0.02823030671
0.02821901215
0.02820521638
0.02818996866
0.0281745205
0.02816032164
0.02814900813
0.0281423821
0.02816773392
0.02815958868
0.02814800027
0.02813385266
0.0281182252
0.02810240221
0.02808786799
0.02807629409
0.02806951904
0.0280963894
0.02808804817
0.02807618498
0.02806170849
0.02804572615
0.02802955301
0.0280147056
0.02800288864
0.02799597454
0.02802427761
0.02801575327
0.02800363344
0.02798884984
0.02797253624
0.02795603639
0.02794089688
0.02792885332
0.02792180964
0.02795146375
0.02794276855
0.02793040932
0.02791533932
0.02789871694
0.02788191266
0.02786650112
0.02785424664
0.02784708238
0.02787800973
0.02786915535
0.02785657312
0.02784123646
0.0278243267
0.02780723926
0.02779157484
0.02777912439
0.02777184818
0.02780397452
0.02779497209
0.02778218254
0.02776659807
0.02774942141
0.02773207114
0.02771617216
0.02770354008
0.02769616018
0.02772941448
0.02772027469
0.02770729284
0.02769147865
0.02767405473
0.02765646118
0.02764034527
0.02762754535
0.02762006971
0.02765438383
0.02764511694
0.02763195727
0.02761593081
0.0275982786
0.02758046066
0.02756414489
0.02755119051
0.02754362685
0.0275789351
0.02756955107
0.02755622763
0.02754000583
0.0275221438
0.02750411989
0.02748762092
0.02747452516
0.02746688105
0.02750311972
0.02749362831
0.02748015486
0.02746375436
0.02744570065
0.02742748893
0.02741082322
0.02739759905
0.027389882
0.02742698879
0.02741739966
0.02740378985
0.02738722718
0.02736899991
0.02735061852
0.0273338026
0.02732046305
0.02731268064
0.02735059397
0.02734091683
0.02732718443
0.02731047632
0.02729209383
0.02727356125
0.027256612
0.02724317046
0.02723533047
0.02727398859
0.02726423341
0.02725039258
0.02723355627
0.02721503759
0.02719637304
0.02717930809
0.02716577858
0.02715788923
0.02719722911
0.02718740636
0.02717347199
0.02715652569
0.02713789098
0.02711911495
0.0271019532
0.02708835083
0.02708042098
0.02712037688
0.02711049781
0.02709648598
0.02707944942
0.02706072064
0.02704185553
0.02702461773
0.02701095918
0.02700299867
0.02704350031
0.02703357734
0.02701950585
0.02700240098
0.02698360263
0.0269646736
0.02694738319
0.02693368734
0.02692570736
0.02696667761
0.0269567248
0.02694261385
0.02692546566
0.02690662579
0.02688766175
0.02687034575
0.02685663452
0.02684864806
0.02688999996
0.02688003359
0.02686590661
0.02684874418
0.02682989557
0.02681093041
0.02679362066
0.02677991992
0.02677194238
0.02681357543
0.02680361467
0.02678949934
0.0267723571
0.02675353863
0.02673461273
0.02671734725
0.02670368798
0.02669573785
0.02673753344
0.02672760118
0.02671353057
0.02669644978
0.02667770818
0.02665887013
0.02664169478
0.02662811442
0.02662021408
0.02666202991
0.02665215371
0.02663816772
0.02662119816
0.0266025899
0.02658389851
0.02656686889
0.02655341291
0.02654558955
0.02658725305
0.02657746622
0.02656361308
0.02654681501
0.02652840848
0.02650993507
0.02649311864
0.02647984223
0.02647212889
0.02651342954
0.02650377235
0.02649011034
0.02647355664
0.02645543455
0.0264372654
0.02642074377
0.02640771374
0.02640015042
0.02644083113
0.02643135206
0.02641795141
0.02640172979
0.02638399172
0.02636623063
0.026350102
0.02633739869
0.0263300335
0.02636978122
0.0263605383
0.02634748298
0.02633169832
0.02631446324
0.02629723416
0.02628161569
0.02626933491
0.0262622252
0.0263006611
0.02629172316
0.02627911274
0.02626388929
0.02624729797
0.02623074739
0.0262157774
0.02620403215
0.02619724552
0.02623391535
0.02622536319
0.02621331444
0.02619879769
0.02618301476
0.02616731375
0.02615315353
0.02614207541
0.0261356905
0.02617005582
0.02616198308
0.02615063115
0.02613698928
0.02612220469
0.02610755023
0.02609438513
0.02608412514
0.02607823208
0.02610966342
0.02610217706
0.02609167614
0.02607910062
0.02606553014
0.02605214547
0.02604018505
0.02603091352
0.0260256138
0.02605338706
0.02604660727
0.02603713026
0.02602583537
0.02601371981
0.02600185336
0.02599133016
0.02598323561
0.02597864136
0.02600193867
0.02599599798
0.02598773521
0.0259779561
0.0259675589
0.02595748145
0.02594864804
0.02594193456
0.02593816681
0.02595608369
0.0259511252
0.0259442816
0.02593627064
0.02592787337
0.0259198731
0.02591299705
0.02590787994
0.02590506595
0.02591662622
0.0259128006
0.0259075913
0.02590161234
0.02589550792
0.02588988291
0.02588523942
0.02588193892
0.02588020828
0.02588438816
0.02588184948
0.02587849361
0.02587481394
0.02587129715
0.02586834528
0.02586620725
0.02586494014
0.0258644196
0.0258601823
0.02585908247
0.02585779495
0.02585667487
0.02585603037
0.02585603636
0.02585666191
0.02585763111
0.0258584382
0.02584477928
0.02584526116
0.02584624268
0.02584792286
0.0258504105
0.02585363052
0.02585724818
0.02586063045
0.02586286603
0.02583886922
0.0258410586
0.02584448392
0.02584917067
0.02585500881
0.025861653
0.02586844514
0.02587437742
0.02587811745
0.02584301936
0.02584701598
0.02585302101
0.02586087028
0.02587021774
0.02588043151
0.02589051678
0.02589908197
0.02590436903
0.02585762954
0.02586349773
0.02587216614
0.02588326703
0.02589620472
0.02591005006
0.02592346616
0.02593467932
0.02594151444
0.02588288842
0.02589064792
0.0259019981
0.02591635709
0.02593287081
0.02595030914
0.02596699736
0.02598079359
0.02598912935
0.02591873354
0.02592835126
0.02594232489
0.02595985225
0.02597981831
0.02600069664
0.02602048983
0.02603671539
0.02604645096
0.02596481905
0.02597620267
0.02599265603
0.02601315604
0.02603633143
0.02606037366
0.02608298954
0.02610139748
0.02611237664
0.02602049491
0.02603348921
0.02605218861
0.02607535501
0.02610137393
0.02612817907
0.02615322035
0.02617347198
0.02618548479
0.02608480115
0.02609918786
0.02611981022
0.02614522834
0.02617360645
0.02620265513
0.02622961762
0.02625129075
0.02626407926
0.0261564801
0.02617198183
0.02619412132
0.02622127779
0.02625142506
0.02628209502
0.02631038428
0.02633298846
0.02634625676
0.02623400809
0.02625029675
0.02627347773
0.026301778
0.02633302031
0.0263646108
0.02639356707
0.02641656558
0.0264299935
0.02631564689
0.02633235636
0.02635605245
0.02638484558
0.02641645415
0.02644821814
0.02647714699
0.02649998041
0.02651323777
0.0263995128
0.02641625533
0.02643991359
0.02646852312
0.02649974949
0.02653092835
0.0265591351
0.0265812537
0.02659402078
0.02648365994
0.02650004506
0.02652311245
0.02655086819
0.0265809812
0.02661084731
0.02663767699
0.02665857071
0.02667055543
0.02656616704
0.02658182045
0.02660377243
0.02663004797
0.02665837497
0.02668627046
0.02671114233
0.02673036798
0.02674132146
0.02664523029
0.0266598148
0.02668018383
0.02670442891
0.02673039014
0.02675576058
0.02677819757
0.026795401
0.02680512982
0.02671925062
0.02673248286
0.02675088146
0.02677264898
0.0267957854
0.02681820578
0.02683785598
0.02685278723
0.02686116124
0.02678690332
0.02679856674
0.0268147048
0.02683367014
0.0268536623
0.026872853
0.02688950143
0.02690202163
0.02690897648
0.02684718836
0.02685714126
0.02687083625
0.0268868075
0.0269034838
0.02691931579
0.02693288583
0.02694296593
0.02694850118
0.02689945763