/*--------------------------------*- C++ -*----------------------------------*\
| =========                 |                                                 |
| \\      /  F ield         | OpenFOAM: The Open Source CFD Toolbox           |
|  \\    /   O peration     | Version:  2212                                  |
|   \\  /    A nd           | Website:  www.openfoam.com                      |
|    \\/     M anipulation  |                                                 |
\*---------------------------------------------------------------------------*/
FoamFile
{
    version     2.0;
    format      ascii;
    arch        "LSB;label=32;scalar=64";
    class       volScalarField;
    location    "30.00000000";
    object      C4H612_0;
}
// * * * * * * * * * * * * * * * * * * * * * * * * * * * * * * * * * * * * * //

dimensions      [0 0 0 0 0 0 0];

internalField   nonuniform List<scalar> 
3000
(
3.052243204e-22
3.428921247e-22
3.997314166e-22
4.754716257e-22
5.693382345e-22
6.787754392e-22
7.97184349e-22
9.101557744e-22
9.900305739e-22
1.145990589e-21
1.292605845e-21
1.513745513e-21
1.809069185e-21
2.178257328e-21
2.619229397e-21
3.124294406e-21
3.668007273e-21
4.149583958e-21
2.567151956e-21
2.918314096e-21
3.453019117e-21
4.178962396e-21
5.109101632e-21
6.256797305e-21
7.617381986e-21
9.11452147e-21
1.039386137e-20
4.890210285e-21
5.617335104e-21
6.740735996e-21
8.298313251e-21
1.034502563e-20
1.29325527e-20
1.604642776e-20
1.943748027e-20
2.217433986e-20
8.684749662e-21
1.009841354e-20
1.231691572e-20
1.545279666e-20
1.965326228e-20
2.503566098e-20
3.150972205e-20
3.838445858e-20
4.366189076e-20
1.493592972e-20
1.758919922e-20
2.181281249e-20
2.787622299e-20
3.610280257e-20
4.669968406e-20
5.935072617e-20
7.246115188e-20
8.216123197e-20
2.535932476e-20
3.02329414e-20
3.808136539e-20
4.94756991e-20
6.505028925e-20
8.511488119e-20
1.088398348e-19
1.329451108e-19
1.503382234e-19
4.292328862e-20
5.174273407e-20
6.607148206e-20
8.703431395e-20
1.157995065e-19
1.527806147e-19
1.961219736e-19
2.395150312e-19
2.703022169e-19
7.277460964e-20
8.856597744e-20
1.143867329e-19
1.52351689e-19
2.045369879e-19
2.714418952e-19
3.492864251e-19
4.264123805e-19
4.805298576e-19
1.23835444e-19
1.51889384e-19
1.979677462e-19
2.659310448e-19
3.593994456e-19
4.789078208e-19
6.171806848e-19
7.531752575e-19
8.478971632e-19
2.115938084e-19
2.611480087e-19
3.427897189e-19
4.634314201e-19
6.293202137e-19
8.409089951e-19
1.084682518e-18
1.323226756e-18
1.488592852e-18
3.629623062e-19
4.501378258e-19
5.940516523e-19
8.069217275e-19
1.099451609e-18
1.47172246e-18
1.899158562e-18
2.315974094e-18
2.604313155e-18
6.247536353e-19
7.77699953e-19
1.030524246e-18
1.40463932e-18
1.918250009e-18
2.570239082e-18
3.316193733e-18
4.041572305e-18
4.545255241e-18
1.078422701e-18
1.346345852e-18
1.789671098e-18
2.445833797e-18
3.345685076e-18
4.484489336e-18
5.779849044e-18
7.030486335e-18
7.92259371e-18
1.865579849e-18
2.334514566e-18
3.111304764e-18
4.261955942e-18
5.840063657e-18
7.833338506e-18
1.007873232e-17
1.214492515e-17
1.38306909e-17
3.231873919e-18
4.051765981e-18
5.411658656e-18
7.429642045e-18
1.020627112e-17
1.374106126e-17
1.78155078e-17
2.188312291e-17
2.443588976e-17
5.602620284e-18
7.033162271e-18
9.407166583e-18
1.293106634e-17
1.777829366e-17
2.393719872e-17
3.098448751e-17
3.781759441e-17
4.245842356e-17
9.71505159e-18
1.220633321e-17
1.634116867e-17
2.247754576e-17
3.091213478e-17
4.161325369e-17
5.382870981e-17
6.564387579e-17
7.373176059e-17
1.684832695e-17
2.118155013e-17
2.837381377e-17
3.904591742e-17
5.370899721e-17
7.23008242e-17
9.350949312e-17
1.140159513e-16
1.280627121e-16
2.922281766e-17
3.675465814e-17
4.92566932e-17
6.780656168e-17
9.328880447e-17
1.255898878e-16
1.62426808e-16
1.980359351e-16
2.224253945e-16
5.069329804e-17
6.378007092e-17
8.550413735e-17
1.177369854e-16
1.620117306e-16
2.181248561e-16
2.821042321e-16
3.439375816e-16
3.862816866e-16
8.795265105e-17
1.106867966e-16
1.484276328e-16
2.044252158e-16
2.813376491e-16
3.788020207e-16
4.899086005e-16
5.972673994e-16
6.70774371e-16
1.52622132e-16
1.921110937e-16
2.576685912e-16
3.549372174e-16
4.885248123e-16
6.577855038e-16
8.507032317e-16
1.037077874e-15
1.164669165e-15
2.648811654e-16
3.334681455e-16
4.473324656e-16
6.162661368e-16
8.482523798e-16
1.142140495e-15
1.477038633e-15
1.800513476e-15
2.021931397e-15
4.59768934e-16
5.788883279e-16
7.766356353e-16
1.069993831e-15
1.472782221e-15
1.982941087e-15
2.564145777e-15
3.125384008e-15
3.509467398e-15
7.981216168e-16
1.00499081e-15
1.348379474e-15
1.857720581e-15
2.556907165e-15
3.442224876e-15
4.450504448e-15
5.423820117e-15
6.089712982e-15
1.385546402e-15
1.74477668e-15
2.340988501e-15
3.225139948e-15
4.438466564e-15
5.974203176e-15
7.722468237e-15
9.409344017e-15
1.056294844e-14
2.405301622e-15
3.029024627e-15
4.063991447e-15
5.598307082e-15
7.70296129e-15
1.036547123e-14
1.339462303e-14
1.631558502e-14
1.83120015e-14
4.175205075e-15
5.257918193e-15
7.053962044e-15
9.715391346e-15
1.336401185e-14
1.797643183e-14
2.321971764e-14
2.827139981e-14
3.172135912e-14
7.245956103e-15
9.124745139e-15
1.224006568e-14
1.685370656e-14
2.317373042e-14
3.115555836e-14
4.021912017e-14
4.894132073e-14
5.489144649e-14
1.25706188e-14
1.582898483e-14
2.122889301e-14
2.921962762e-14
4.015449503e-14
5.394710061e-14
6.958609941e-14
8.461275175e-14
9.48484659e-14
2.179592836e-14
2.744221036e-14
3.67927669e-14
5.061547784e-14
6.950567423e-14
9.329336856e-14
1.202142452e-13
1.460286155e-13
1.63578294e-13
3.776122368e-14
4.753392993e-14
6.370312697e-14
8.757424936e-14
1.201405058e-13
1.610633832e-13
2.072639348e-13
2.514506804e-13
2.81415374e-13
6.53494137e-14
8.223699301e-14
1.101451782e-13
1.512783559e-13
2.072725168e-13
2.77448222e-13
3.564330385e-13
4.317299011e-13
4.826313051e-13
1.129312906e-13
1.420512735e-13
1.901039371e-13
2.607803748e-13
3.567318322e-13
4.765903566e-13
6.109898768e-13
7.386052736e-13
8.245441902e-13
1.948032621e-13
2.448778121e-13
3.273591303e-13
4.483635672e-13
6.120993007e-13
8.158171103e-13
1.043220217e-12
1.258119298e-12
1.402178061e-12
3.352760306e-13
4.210861482e-13
5.621180653e-13
7.683785971e-13
1.04637113e-12
1.390606168e-12
1.77282138e-12
2.132015958e-12
2.371533899e-12
5.754846429e-13
7.219095839e-13
9.619264242e-13
1.31165673e-12
1.780806122e-12
2.358530401e-12
2.996058728e-12
3.591394673e-12
3.986011661e-12
9.84644538e-13
1.233231832e-12
1.639434335e-12
2.228749144e-12
3.014993481e-12
3.977051562e-12
5.031332673e-12
6.00888816e-12
6.652608776e-12
1.678501127e-12
2.098011845e-12
2.781010148e-12
3.766941097e-12
5.074187681e-12
6.662345174e-12
8.389387427e-12
9.978425411e-12
1.101743556e-11
2.849296879e-12
3.552387214e-12
4.692295609e-12
6.328460185e-12
8.482823359e-12
1.107959373e-11
1.387999743e-11
1.643552461e-11
1.809413685e-11
4.813971532e-12
5.983171796e-12
7.869867023e-12
1.056083749e-11
1.407716416e-11
1.827972518e-11
2.277196904e-11
2.683644047e-11
2.945441684e-11
8.090878887e-12
1.001838941e-11
1.311258916e-11
1.749538982e-11
2.31756869e-11
2.99038741e-11
3.70302177e-11
4.342193183e-11
4.750762008e-11
1.352053314e-11
1.666815634e-11
2.169253284e-11
2.875681423e-11
3.783365173e-11
4.848556512e-11
5.966325226e-11
6.960169956e-11
7.590703745e-11
2.245342791e-11
2.75412941e-11
3.561415827e-11
4.687666377e-11
6.121918271e-11
7.789267708e-11
9.522761874e-11
1.105097372e-10
1.201353838e-10
3.703863334e-11
4.517438163e-11
5.800276518e-11
7.575702115e-11
9.816321275e-11
1.239678928e-10
1.50554082e-10
1.738003756e-10
1.883422193e-10
6.066175293e-11
7.352568719e-11
9.368022442e-11
1.213493878e-10
1.559563697e-10
1.954492604e-10
2.357853759e-10
2.70781615e-10
2.925339548e-10
9.860134676e-11
1.187080925e-10
1.500094276e-10
1.926395434e-10
2.454943762e-10
3.052839578e-10
3.65849673e-10
4.180190094e-10
4.50255164e-10
1.590010516e-10
1.900648445e-10
2.381210411e-10
3.030644569e-10
3.829125927e-10
4.724913837e-10
5.625407676e-10
6.395933456e-10
6.869518149e-10
2.54293078e-10
3.017326768e-10
3.746802187e-10
4.725357062e-10
5.919037064e-10
7.247903805e-10
8.574397571e-10
9.702634042e-10
1.03927748e-09
4.032614221e-10
4.748927072e-10
5.844114093e-10
7.303100934e-10
9.069853397e-10
1.102285108e-09
1.295999459e-09
1.459877434e-09
1.559699206e-09
6.340054524e-10
7.409864933e-10
9.036826478e-10
1.119038783e-09
1.378083188e-09
1.662611717e-09
1.943229425e-09
2.179500437e-09
2.322889899e-09
9.881639861e-10
1.146281787e-09
1.385566972e-09
1.700451797e-09
2.07693003e-09
2.488092701e-09
2.891576504e-09
3.229893991e-09
3.434569354e-09
1.526870709e-09
1.758275197e-09
2.106897725e-09
2.563250959e-09
3.105939404e-09
3.695655439e-09
4.271835551e-09
4.753239181e-09
5.043702918e-09
2.339012755e-09
2.674566808e-09
3.17807069e-09
3.834088917e-09
4.610522337e-09
5.450541388e-09
6.268178624e-09
6.949245609e-09
7.359259051e-09
3.552895132e-09
4.03535605e-09
4.756738768e-09
5.692775682e-09
6.796039516e-09
7.985110944e-09
9.138737606e-09
1.00971956e-08
1.067313039e-08
5.352381429e-09
6.040690611e-09
7.066685539e-09
8.393211161e-09
9.951103048e-09
1.162464431e-08
1.324378568e-08
1.458608074e-08
1.539143411e-08
7.999199928e-09
8.974261676e-09
1.04238005e-08
1.229211987e-08
1.447948372e-08
1.682259134e-08
1.908417035e-08
2.095564669e-08
2.207711833e-08
1.186363994e-08
1.323609463e-08
1.527168754e-08
1.788834938e-08
2.094364696e-08
2.420856967e-08
2.735356583e-08
2.995214607e-08
3.150781496e-08
1.746660373e-08
1.938726431e-08
2.223027323e-08
2.587639756e-08
3.012392825e-08
3.465349702e-08
3.900930185e-08
4.260386391e-08
4.475417398e-08
2.553691878e-08
2.82107494e-08
3.216183785e-08
3.721898912e-08
4.309864222e-08
4.935766876e-08
5.536806617e-08
6.032308724e-08
6.32855823e-08
3.70889647e-08
4.079375845e-08
4.626022091e-08
5.324500515e-08
6.135208079e-08
6.996940663e-08
7.823471507e-08
8.504325264e-08
8.911228446e-08
5.352707329e-08
5.863837261e-08
6.617062564e-08
7.578092574e-08
8.691937353e-08
9.874407425e-08
1.100747794e-07
1.194025202e-07
1.249755548e-07
7.67848838e-08
8.380918685e-08
9.414941667e-08
1.073260414e-07
1.225794387e-07
1.387557501e-07
1.542440036e-07
1.669879662e-07
1.746006047e-07
1.095096695e-07
1.191285008e-07
1.332752324e-07
1.512837556e-07
1.721095722e-07
1.941764592e-07
2.152911213e-07
2.326576532e-07
2.430300877e-07
1.553030284e-07
1.68431013e-07
1.8772424e-07
2.122629968e-07
2.406171368e-07
2.706399808e-07
2.993523893e-07
3.229603259e-07
3.370586413e-07
2.190298285e-07
2.368904894e-07
2.631228997e-07
2.96464287e-07
3.349642835e-07
3.757076935e-07
4.146568493e-07
4.466729307e-07
4.657893308e-07
3.072062746e-07
3.314296311e-07
3.669899773e-07
4.121628637e-07
4.642989451e-07
5.19450659e-07
5.721574862e-07
6.154719041e-07
6.413283211e-07
4.284740737e-07
4.612197803e-07
5.092739519e-07
5.70294387e-07
6.406968952e-07
7.151519663e-07
7.862915815e-07
8.447409127e-07
8.796199994e-07
5.941592734e-07
6.382674364e-07
7.029803003e-07
7.851343438e-07
8.799018789e-07
9.801117864e-07
1.075848202e-06
1.154489193e-06
1.201394364e-06
8.188999242e-07
8.78067844e-07
9.648628895e-07
1.075037166e-06
1.202119602e-06
1.336499302e-06
1.464875242e-06
1.570302931e-06
1.633143117e-06
1.121304581e-06
1.200280397e-06
1.316122837e-06
1.463162716e-06
1.632773358e-06
1.812136244e-06
1.983486889e-06
2.124169785e-06
2.207951786e-06
1.524572975e-06
1.629345561e-06
1.783016255e-06
1.978066141e-06
2.203064686e-06
2.441016836e-06
2.668335201e-06
2.854903161e-06
2.965889469e-06
2.056971323e-06
2.194919803e-06
2.397222351e-06
2.653967786e-06
2.950110908e-06
3.263282096e-06
3.562405047e-06
3.807772434e-06
3.953552474e-06
2.752010553e-06
2.931958534e-06
3.195773871e-06
3.530467319e-06
3.916376007e-06
4.324307959e-06
4.713726773e-06
5.032884864e-06
5.222188922e-06
3.648132519e-06
3.880236311e-06
4.220316798e-06
4.65144254e-06
5.148108305e-06
5.67259745e-06
6.172709228e-06
6.581951986e-06
6.824120654e-06
4.787677357e-06
5.083070672e-06
5.515459888e-06
6.062896307e-06
6.692567863e-06
7.356343621e-06
7.9879704e-06
8.50354639e-06
8.807665715e-06
6.214899175e-06
6.585026388e-06
7.126007915e-06
7.809593672e-06
8.594003613e-06
9.418634563e-06
1.020088419e-05
1.083720427e-05
1.121108055e-05
7.972837734e-06
8.428453132e-06
9.093055965e-06
9.930558811e-06
1.08884464e-05
1.189163186e-05
1.283937412e-05
1.360699004e-05
1.405576707e-05
1.009907439e-05
1.064891458e-05
1.144892165e-05
1.245355154e-05
1.35977503e-05
1.479048853e-05
1.591177771e-05
1.681536004e-05
1.734079053e-05
1.262038079e-05
1.326968228e-05
1.421144562e-05
1.538919068e-05
1.672395396e-05
1.810776943e-05
1.940123928e-05
2.043746988e-05
2.103637232e-05
1.554697159e-05
1.629600998e-05
1.737858546e-05
1.872604099e-05
2.024457518e-05
2.180913744e-05
2.326199814e-05
2.44181731e-05
2.508182781e-05
1.886760605e-05
1.971062883e-05
2.092423003e-05
2.242681669e-05
2.410955744e-05
2.583124629e-05
2.741830824e-05
2.86718609e-05
2.938591511e-05
2.254591307e-05
2.347039861e-05
2.479550196e-05
2.642663934e-05
2.824072037e-05
3.00825432e-05
3.176659706e-05
3.308576391e-05
3.383081475e-05
2.651845457e-05
2.750501903e-05
2.891244024e-05
3.063398756e-05
3.253419419e-05
3.444727675e-05
3.618095494e-05
3.752662106e-05
3.827946947e-05
3.069534268e-05
3.171842538e-05
3.317052198e-05
3.493461216e-05
3.686587515e-05
3.879248249e-05
4.052146565e-05
4.185000718e-05
4.258543939e-05
3.496377165e-05
3.599310561e-05
3.744607234e-05
3.919822709e-05
4.109943884e-05
4.297720354e-05
4.464438504e-05
4.591114015e-05
4.660399821e-05
3.919438128e-05
4.019711528e-05
4.160414032e-05
4.328731745e-05
4.509600524e-05
4.686281445e-05
4.8412862e-05
4.957576468e-05
5.020306257e-05
4.324988553e-05
4.419310074e-05
4.550798764e-05
4.706703575e-05
4.872426772e-05
5.032313963e-05
5.170681942e-05
5.272972455e-05
5.327289145e-05
4.69949862e-05
4.784827554e-05
4.902904994e-05
5.041497703e-05
5.18698462e-05
5.325313231e-05
5.443070667e-05
5.528534402e-05
5.572944094e-05
5.030634765e-05
5.104411837e-05
5.205615241e-05
5.32296739e-05
5.444284249e-05
5.557538682e-05
5.651916632e-05
5.718723853e-05
5.752374493e-05
5.308139688e-05
5.368461521e-05
5.450290116e-05
5.543687144e-05
5.638280188e-05
5.724369625e-05
5.793917508e-05
5.841282739e-05
5.863924378e-05
5.524493926e-05
5.570214315e-05
5.63125098e-05
5.69930525e-05
5.766081439e-05
5.824376222e-05
5.868957253e-05
5.897109925e-05
5.909065083e-05
5.675298441e-05
5.706051526e-05
5.745975002e-05
5.788609324e-05
5.827881697e-05
5.859124237e-05
5.879814256e-05
5.889917243e-05
5.89207575e-05
5.759365762e-05
5.775517294e-05
5.795014396e-05
5.813327195e-05
5.8266361e-05
5.832724644e-05
5.831605327e-05
5.825552305e-05
5.818978165e-05
5.778547975e-05
5.781089556e-05
5.781684836e-05
5.777704657e-05
5.767526696e-05
5.75110066e-05
5.730372104e-05
5.709591218e-05
5.69497626e-05
5.737335326e-05
5.727743243e-05
5.711578821e-05
5.687854796e-05
5.656721565e-05
5.619991882e-05
5.581421104e-05
5.547350686e-05
5.525712487e-05
5.642156953e-05
5.621806067e-05
5.59071088e-05
5.5493113e-05
5.499529705e-05
5.445151916e-05
5.391843587e-05
5.347181473e-05
5.320077741e-05
5.497915766e-05
5.468171654e-05
5.424263205e-05
5.36823373e-05
5.30351951e-05
5.235299468e-05
5.170541073e-05
5.117794771e-05
5.08661238e-05
5.311768665e-05
5.274686923e-05
5.22086369e-05
5.153584284e-05
5.077505318e-05
4.99891299e-05
4.925707802e-05
4.867119152e-05
4.83307334e-05
5.092873163e-05
5.050351812e-05
4.989240903e-05
4.913777574e-05
4.8295513e-05
4.743666265e-05
4.664662016e-05
4.602186786e-05
4.566324079e-05
4.849709835e-05
4.803427843e-05
4.737340329e-05
4.656386538e-05
4.566827531e-05
4.476324687e-05
4.393807418e-05
4.329121565e-05
4.292329356e-05
4.589858848e-05
4.54126594e-05
4.47219237e-05
4.388063278e-05
4.295582636e-05
4.202742843e-05
4.118651962e-05
4.053168193e-05
4.01618733e-05
4.319949117e-05
4.270272946e-05
4.199895708e-05
4.114543413e-05
4.021167539e-05
3.927899978e-05
3.843851085e-05
3.778738976e-05
3.742177079e-05
4.045674257e-05
3.995934057e-05
3.925647063e-05
3.840684448e-05
3.748081679e-05
3.655951439e-05
3.573262191e-05
3.509469417e-05
3.473814018e-05
3.771835762e-05
3.72285878e-05
3.653790588e-05
3.570519065e-05
3.480029821e-05
3.390287971e-05
3.310005316e-05
3.248279155e-05
3.213910447e-05
3.502398649e-05
3.454837966e-05
3.387876721e-05
3.307315982e-05
3.219984736e-05
3.133599724e-05
3.056527797e-05
2.997436681e-05
2.964639861e-05
3.240554188e-05
3.194907321e-05
3.130726692e-05
3.053645526e-05
2.970253734e-05
2.88794344e-05
2.814671754e-05
2.758626685e-05
2.727603923e-05
2.988787715e-05
2.94541554e-05
2.884501066e-05
2.811448564e-05
2.732547851e-05
2.654811729e-05
2.585743225e-05
2.533018854e-05
2.503900842e-05
2.748950317e-05
2.708095907e-05
2.650771156e-05
2.582107615e-05
2.508052539e-05
2.435203208e-05
2.370581676e-05
2.321336741e-05
2.294193732e-05
2.522333082e-05
2.48414002e-05
2.430591976e-05
2.366518804e-05
2.297498463e-05
2.229692086e-05
2.169628425e-05
2.123925217e-05
2.098777425e-05
2.309742265e-05
2.274272005e-05
2.224575101e-05
2.165163075e-05
2.101230892e-05
2.03849572e-05
1.982992539e-05
1.940815048e-05
1.917642277e-05
2.111573444e-05
2.078821384e-05
2.0329597e-05
1.978175003e-05
1.919276122e-05
1.861538687e-05
1.810512819e-05
1.771783296e-05
1.750533675e-05
1.927882794e-05
1.897792772e-05
1.855680039e-05
1.805407693e-05
1.75140357e-05
1.698512155e-05
1.651814792e-05
1.616408514e-05
1.597006261e-05
1.758453762e-05
1.730930826e-05
1.692428021e-05
1.646492456e-05
1.597182423e-05
1.548927603e-05
1.506361885e-05
1.474120044e-05
1.456472211e-05
1.602857843e-05
1.577779227e-05
1.542709684e-05
1.500892384e-05
1.456032111e-05
1.412164303e-05
1.373500341e-05
1.344241017e-05
1.328243223e-05
1.460508545e-05
1.437732874e-05
1.405894948e-05
1.367949241e-05
1.327266208e-05
1.287510396e-05
1.252497743e-05
1.226024987e-05
1.211566174e-05
1.330708213e-05
1.31008309e-05
1.281260564e-05
1.246923692e-05
1.210129727e-05
1.174197268e-05
1.142575118e-05
1.118686424e-05
1.105652742e-05
1.21268757e-05
1.194055594e-05
1.168025919e-05
1.137028628e-05
1.103829918e-05
1.07142809e-05
1.04293334e-05
1.021425498e-05
1.009703337e-05
1.105638188e-05
1.088841631e-05
1.065382353e-05
1.03745637e-05
1.007561243e-05
9.784005704e-06
9.527740255e-06
9.33447595e-06
9.229259059e-06
1.008738633e-05
9.936229922e-06
9.725166022e-06
9.474002409e-06
9.205249563e-06
8.943246383e-06
8.713155955e-06
8.539782258e-06
8.445502271e-06
9.211748364e-06
9.075913926e-06
8.886288223e-06
8.660710113e-06
8.419439105e-06
8.184357029e-06
7.978052064e-06
7.822739642e-06
7.738383338e-06
8.421554026e-06
8.299629903e-06
8.129460109e-06
7.927090413e-06
7.710733529e-06
7.500041611e-06
7.315271533e-06
7.176300453e-06
7.100916874e-06
7.709226703e-06
7.599888014e-06
7.447315367e-06
7.265927743e-06
7.072083362e-06
6.883417792e-06
6.718083701e-06
6.593852198e-06
6.526556927e-06
7.067602264e-06
6.969617092e-06
6.832914537e-06
6.670442397e-06
6.49688373e-06
6.328055415e-06
6.180215889e-06
6.069244081e-06
6.009220884e-06
6.48997555e-06
6.402207245e-06
6.279782275e-06
6.13432158e-06
5.978998935e-06
5.827994921e-06
5.695866569e-06
5.596796339e-06
5.543296789e-06
5.970124191e-06
5.891530773e-06
5.781924291e-06
5.651731725e-06
5.512769948e-06
5.377750301e-06
5.259704438e-06
5.171296491e-06
5.123638123e-06
5.502314949e-06
5.431946421e-06
5.333828739e-06
5.217316556e-06
5.093009033e-06
4.972300462e-06
4.866857039e-06
4.787985965e-06
4.745549394e-06
5.081297005e-06
5.018291211e-06
4.93045607e-06
4.826184669e-06
4.714984978e-06
4.60707227e-06
4.512891953e-06
4.442539965e-06
4.404765315e-06
4.702285815e-06
4.64586336e-06
4.567220681e-06
4.47388972e-06
4.374401798e-06
4.277917877e-06
4.193792994e-06
4.131042856e-06
4.09742578e-06
4.360940487e-06
4.310399119e-06
4.239967016e-06
4.156405702e-06
4.067373193e-06
3.981088446e-06
3.905933343e-06
3.849960895e-06
3.820048396e-06
4.053337021e-06
4.00804575e-06
3.944942229e-06
3.870099272e-06
3.79039455e-06
3.713205891e-06
3.646047101e-06
3.596113682e-06
3.569499902e-06
3.77593921e-06
3.735332412e-06
3.678767043e-06
3.61170061e-06
3.540313862e-06
3.471233886e-06
3.411200424e-06
3.366645409e-06
3.342967483e-06
3.525568596e-06
3.489140238e-06
3.438406027e-06
3.378273958e-06
3.31430257e-06
3.25244905e-06
3.19876303e-06
3.158996639e-06
3.137930722e-06
3.29937449e-06
3.266672595e-06
3.221138199e-06
3.167188657e-06
3.109827089e-06
3.054412973e-06
3.006380699e-06
2.970877181e-06
2.952134676e-06
3.094804788e-06
3.065426202e-06
3.024528584e-06
2.976091244e-06
2.924621511e-06
2.874945535e-06
2.831949149e-06
2.800240399e-06
2.783564434e-06
2.909578079e-06
2.883163594e-06
2.846401175e-06
2.802879018e-06
2.756661833e-06
2.712099798e-06
2.673589533e-06
2.64525918e-06
2.630421349e-06
2.741657371e-06
2.717887214e-06
2.684813546e-06
2.645675287e-06
2.604141897e-06
2.564138645e-06
2.5296257e-06
2.50430368e-06
2.491101048e-06
2.589225617e-06
2.567815312e-06
2.538033283e-06
2.502806438e-06
2.465451159e-06
2.429513227e-06
2.398563268e-06
2.375920863e-06
2.364173235e-06
2.450663134e-06
2.431359731e-06
2.404516282e-06
2.372780853e-06
2.339154276e-06
2.306843238e-06
2.279070487e-06
2.258815832e-06
2.248363279e-06
2.324526905e-06
2.307105565e-06
2.282886906e-06
2.254269671e-06
2.22397252e-06
2.194898952e-06
2.169960854e-06
2.15183488e-06
2.1425355e-06
2.20953175e-06
2.193792657e-06
2.171919953e-06
2.14608931e-06
2.118766903e-06
2.092584959e-06
2.070177386e-06
2.053950164e-06
2.045678075e-06
2.104533261e-06
2.090298852e-06
2.070524341e-06
2.047185683e-06
2.022522962e-06
1.998925505e-06
1.978778443e-06
1.964245917e-06
1.956889455e-06
2.008512412e-06
1.995624891e-06
1.97772841e-06
1.956619978e-06
1.934337061e-06
1.913051305e-06
1.894925011e-06
1.88190607e-06
1.87536618e-06
1.920561733e-06
1.908880848e-06
1.892666728e-06
1.873555909e-06
1.853404116e-06
1.834187737e-06
1.817869305e-06
1.806203176e-06
1.800391974e-06
1.839872918e-06
1.829273981e-06
1.814568275e-06
1.797248302e-06
1.779006616e-06
1.761644293e-06
1.746944595e-06
1.73648852e-06
1.731328016e-06
1.765725753e-06
1.756097872e-06
1.742745893e-06
1.727032907e-06
1.710504825e-06
1.694805158e-06
1.681556127e-06
1.672183302e-06
1.66760427e-06
1.697478232e-06
1.68872275e-06
1.676586876e-06
1.662317318e-06
1.647328055e-06
1.633120831e-06
1.621173053e-06
1.612770797e-06
1.608711761e-06
1.634557775e-06
1.626586868e-06
1.615544602e-06
1.602572896e-06
1.588966906e-06
1.576100677e-06
1.565321249e-06
1.557789384e-06
1.554195729e-06
1.576453401e-06
1.569188849e-06
1.559131092e-06
1.547327594e-06
1.534966368e-06
1.523306305e-06
1.513576944e-06
1.506826356e-06
1.503649539e-06
1.52270879e-06
1.516080884e-06
1.506910406e-06
1.496159585e-06
1.484919709e-06
1.474345696e-06
1.465561066e-06
1.459512434e-06
1.456709284e-06
1.472916126e-06
1.466862695e-06
1.458492787e-06
1.448691617e-06
1.438463046e-06
1.428868004e-06
1.420934229e-06
1.415516904e-06
1.413049002e-06
1.42671064e-06
1.421176196e-06
1.41352947e-06
1.404586006e-06
1.395270541e-06
1.386558936e-06
1.379392295e-06
1.374543304e-06
1.37237644e-06
1.383765772e-06
1.378700751e-06
1.371708082e-06
1.363540201e-06
1.355050146e-06
1.347136677e-06
1.34066244e-06
1.336325612e-06
1.3344293e-06
1.343788891e-06
1.339148983e-06
1.332748575e-06
1.325282865e-06
1.317539829e-06
1.310348268e-06
1.304499679e-06
1.300624865e-06
1.298971918e-06
1.306517508e-06
1.302263064e-06
1.296399621e-06
1.289570394e-06
1.282504246e-06
1.275966406e-06
1.270683777e-06
1.267226168e-06
1.265792322e-06
1.271715918e-06
1.267811425e-06
1.262435423e-06
1.256183847e-06
1.249731783e-06
1.243786615e-06
1.239016528e-06
1.235936052e-06
1.23469963e-06
1.239172239e-06
1.235585858e-06
1.230652892e-06
1.224926225e-06
1.219031945e-06
1.213624739e-06
1.20931934e-06
1.206580122e-06
1.205521748e-06
1.20869578e-06
1.205398935e-06
1.200869155e-06
1.195620062e-06
1.190233046e-06
1.185314719e-06
1.181431095e-06
1.179000993e-06
1.178103323e-06
1.18011472e-06
1.177081738e-06
1.17291934e-06
1.168105296e-06
1.163180163e-06
1.158706632e-06
1.155206262e-06
1.153056444e-06
1.152303947e-06
1.153274056e-06
1.150481844e-06
1.146654623e-06
1.142237381e-06
1.137733318e-06
1.133664952e-06
1.13051322e-06
1.128617798e-06
1.127996546e-06
1.128033774e-06
1.125461537e-06
1.121940497e-06
1.117885617e-06
1.113765881e-06
1.110067009e-06
1.107232772e-06
1.105568477e-06
1.105065971e-06
1.104267245e-06
1.101896238e-06
1.098655235e-06
1.094931671e-06
1.091163144e-06
1.087801621e-06
1.085256833e-06
1.083802727e-06
1.083407737e-06
1.081859795e-06
1.079673097e-06
1.076688534e-06
1.073268267e-06
1.069821062e-06
1.066767891e-06
1.06448726e-06
1.063224483e-06
1.06292691e-06
1.060707437e-06
1.058689758e-06
1.055940314e-06
1.052798024e-06
1.049645138e-06
1.046874126e-06
1.044834825e-06
1.043746365e-06
1.043537117e-06
1.040715755e-06
1.03885326e-06
1.036319642e-06
1.033432423e-06
1.030549431e-06
1.028036894e-06
1.026218289e-06
1.02528879e-06
1.02515967e-06
1.021798906e-06
1.020079062e-06
1.017743794e-06
1.015090896e-06
1.012455677e-06
1.01018017e-06
1.008563593e-06
1.007779174e-06
1.00772279e-06
1.003878738e-06
1.002290179e-06
1.00013741e-06
9.977000152e-07
9.952925096e-07
9.932345963e-07
9.918031347e-07
9.911512332e-07
9.911609068e-07
9.868840108e-07
9.854164129e-07
9.834317489e-07
9.811927706e-07
9.789947681e-07
9.771368077e-07
9.758751236e-07
9.753443601e-07
9.754140531e-07
9.707496971e-07
9.693936749e-07
9.675640291e-07
9.65507933e-07
9.635028816e-07
9.61828846e-07
9.607230123e-07
9.603030661e-07
9.604273134e-07
9.554163698e-07
9.541633797e-07
9.524768395e-07
9.505894869e-07
9.48762324e-07
9.472576338e-07
9.462949908e-07
9.459764911e-07
9.461503409e-07
9.40829655e-07
9.396719106e-07
9.381176202e-07
9.363861278e-07
9.347231317e-07
9.333745099e-07
9.325435374e-07
9.323179674e-07
9.325369286e-07
9.269397493e-07
9.258701472e-07
9.244382029e-07
9.22850819e-07
9.213394757e-07
9.201348197e-07
9.194250235e-07
9.192846345e-07
9.195446298e-07
9.137009943e-07
9.127130474e-07
9.113944058e-07
9.099404007e-07
9.085692875e-07
9.074975543e-07
9.068993663e-07
9.068371021e-07
9.071344265e-07
9.010715041e-07
9.001592837e-07
8.989456802e-07
8.976152497e-07
8.963739318e-07
8.954250379e-07
8.949297276e-07
8.949391573e-07
8.952704413e-07
8.890128423e-07
8.88170927e-07
8.870548051e-07
8.858389863e-07
8.847179267e-07
8.838826602e-07
8.834822572e-07
8.835575165e-07
8.839196935e-07
8.774897466e-07
8.767131787e-07
8.756876286e-07
8.74578227e-07
8.735687091e-07
8.728386542e-07
8.725258817e-07
8.726616223e-07
8.730518999e-07
8.664699015e-07
8.657541496e-07
8.648128567e-07
8.638023858e-07
8.628964482e-07
8.622639218e-07
8.620321407e-07
8.622234871e-07
8.626393237e-07
8.559237586e-07
8.552646878e-07
8.544018915e-07
8.534835236e-07
8.526739087e-07
8.521319103e-07
8.51975075e-07
8.522175909e-07
8.526566759e-07
8.45824408e-07
8.452182578e-07
8.444287209e-07
8.435962515e-07
8.428763684e-07
8.424185449e-07
8.423311728e-07
8.426208378e-07
8.430810783e-07
8.361475043e-07
8.355908749e-07
8.348698654e-07
8.341176934e-07
8.334815978e-07
8.331022259e-07
8.33079383e-07
8.33412582e-07
8.338920968e-07
8.268712521e-07
8.263611008e-07
8.257043881e-07
8.250275133e-07
8.244699082e-07
8.241638975e-07
8.242012043e-07
8.245747336e-07
8.250718574e-07
8.17976457e-07
8.175101061e-07
8.169139746e-07
8.163080168e-07
8.158242773e-07
8.155872e-07
8.156808622e-07
8.160919571e-07
8.166052573e-07
8.094466487e-07
8.090218076e-07
8.084830897e-07
8.079443336e-07
8.075305615e-07
8.07358714e-07
8.075055849e-07
8.07951974e-07
8.084802848e-07
8.012682824e-07
8.008830857e-07
8.003992195e-07
7.999246898e-07
7.995778041e-07
7.994683069e-07
7.996659886e-07
8.001459815e-07
8.006884606e-07
7.934310251e-07
7.930840894e-07
7.926532039e-07
7.922407764e-07
7.919586459e-07
7.9190959e-07
7.921565803e-07
7.926691971e-07
7.932254082e-07
7.859281299e-07
7.856186329e-07
7.852396652e-07
7.84888219e-07
7.84669843e-07
7.846804894e-07
7.849763837e-07
7.855215325e-07
7.860915616e-07
7.787569032e-07
7.784846866e-07
7.781575346e-07
7.778671502e-07
7.777128946e-07
7.777839345e-07
7.781296892e-07
7.787083994e-07
7.79293008e-07
7.719192622e-07
7.71684961e-07
7.71410676e-07
7.711828844e-07
7.710947774e-07
7.712286591e-07
7.716269226e-07
7.7224164e-07
7.728424606e-07
7.654223832e-07
7.652275833e-07
7.650086041e-07
7.648466894e-07
7.648287813e-07
7.65030108e-07
7.654856255e-07
7.661405739e-07
7.667603505e-07
7.59279433e-07
7.591268587e-07
7.589672887e-07
7.588766474e-07
7.58935438e-07
7.592114394e-07
7.597315333e-07
7.604331443e-07
7.610760205e-07
7.53510379e-07
7.534041104e-07
7.533100404e-07
7.532985979e-07
7.534435306e-07
7.538046102e-07
7.543997369e-07
7.551571497e-07
7.558290035e-07
7.481428701e-07
7.480885909e-07
7.48068466e-07
7.481471511e-07
7.483911765e-07
7.488515336e-07
7.495359163e-07
7.503615453e-07
7.510703701e-07
7.432131842e-07
7.432184604e-07
7.432834927e-07
7.434667699e-07
7.438269768e-07
7.44405303e-07
7.451976401e-07
7.461078088e-07
7.468641376e-07
7.387672418e-07
7.388418318e-07
7.390064595e-07
7.39312921e-07
7.398112375e-07
7.405314888e-07
7.414557364e-07
7.424713751e-07
7.43288746e-07
7.348616938e-07
7.350178926e-07
7.353002884e-07
7.357533092e-07
7.364172777e-07
7.373095255e-07
7.383957568e-07
7.395431655e-07
7.404386261e-07
7.315651033e-07
7.318181242e-07
7.322407598e-07
7.328692249e-07
7.3373286e-07
7.348342309e-07
7.361195797e-07
7.37431259e-07
7.384259098e-07
7.289592563e-07
7.293276579e-07
7.299179356e-07
7.307570517e-07
7.318617972e-07
7.332175178e-07
7.347472221e-07
7.362627812e-07
7.373823611e-07
7.271406566e-07
7.276468266e-07
7.284377939e-07
7.295300091e-07
7.309258185e-07
7.325903888e-07
7.344189541e-07
7.361861127e-07
7.374616319e-07
7.262222773e-07
7.268929895e-07
7.279241621e-07
7.293202208e-07
7.310667949e-07
7.331053263e-07
7.352978381e-07
7.37373541e-07
7.388419705e-07
7.263356679e-07
7.272027321e-07
7.285210527e-07
7.302812252e-07
7.324494474e-07
7.349392039e-07
7.375728268e-07
7.400244948e-07
7.417295208e-07
7.276335274e-07
7.287345571e-07
7.303955268e-07
7.325910533e-07
7.352646685e-07
7.38296855e-07
7.414625494e-07
7.443694866e-07
7.463623347e-07
7.302928692e-07
7.316721921e-07
7.337412079e-07
7.364559991e-07
7.397335752e-07
7.434154069e-07
7.472198867e-07
7.506748498e-07
7.530151736e-07
7.345188957e-07
7.362286286e-07
7.387825554e-07