/*--------------------------------*- C++ -*----------------------------------*\
| =========                 |                                                 |
| \\      /  F ield         | OpenFOAM: The Open Source CFD Toolbox           |
|  \\    /   O peration     | Version:  2212                                  |
|   \\  /    A nd           | Website:  www.openfoam.com                      |
|    \\/     M anipulation  |                                                 |
\*---------------------------------------------------------------------------*/
FoamFile
{
    version     2.0;
    format      ascii;
    arch        "LSB;label=32;scalar=64";
    class       volScalarField;
    location    "30.00000000";
    object      C4H6;
}
// * * * * * * * * * * * * * * * * * * * * * * * * * * * * * * * * * * * * * //

dimensions      [0 0 0 0 0 0 0];

internalField   nonuniform List<scalar> 
3000
(
7.69874833e-23
8.648859802e-23
1.008254195e-22
1.199296966e-22
1.436060652e-22
1.712098721e-22
2.010766815e-22
2.295720322e-22
2.497193139e-22
2.890563478e-22
3.26037807e-22
3.81816906e-22
4.563077737e-22
5.494298248e-22
6.606583729e-22
7.880536955e-22
9.251978024e-22
1.046669156e-21
6.475210243e-22
7.360965302e-22
8.709680429e-22
1.054076646e-21
1.288690925e-21
1.578181467e-21
1.921372005e-21
2.299008887e-21
2.621709367e-21
1.233476915e-21
1.416884142e-21
1.700246655e-21
2.093124547e-21
2.609381264e-21
3.262054356e-21
4.047497973e-21
4.902863356e-21
5.593216991e-21
2.190596119e-21
2.547174906e-21
3.106764311e-21
3.897751938e-21
4.957270276e-21
6.314922371e-21
7.947942912e-21
9.682038816e-21
1.101323046e-20
3.767376658e-21
4.436633286e-21
5.501991776e-21
7.031419499e-21
9.106484155e-21
1.177943269e-20
1.497051981e-20
1.827747662e-20
2.072420837e-20
6.396558677e-21
7.625877686e-21
9.605562406e-21
1.247966917e-20
1.640820691e-20
2.14693058e-20
2.745369506e-20
3.35340149e-20
3.792125832e-20
1.082688763e-20
1.305150942e-20
1.666580338e-20
2.195348808e-20
2.920925376e-20
3.853741799e-20
4.946990592e-20
6.041543897e-20
6.818125139e-20
1.835660381e-20
2.233983914e-20
2.885290402e-20
3.842924584e-20
5.159255802e-20
6.846877934e-20
8.810444022e-20
1.075588527e-19
1.212095615e-19
3.12362547e-20
3.831263109e-20
4.993552362e-20
6.707871861e-20
9.065537601e-20
1.20800414e-19
1.556786485e-19
1.899822022e-19
2.138750496e-19
5.337256977e-20
6.587222012e-20
8.646568702e-20
1.16896585e-19
1.587406886e-19
2.121122294e-19
2.736020908e-19
3.337728908e-19
3.754850964e-19
9.155402518e-20
1.135433456e-19
1.498444306e-19
2.03539134e-19
2.7732731e-19
3.712294058e-19
4.790464026e-19
5.841844295e-19
6.569153272e-19
1.575887092e-19
1.961681454e-19
2.599409259e-19
3.543081906e-19
4.838618839e-19
6.48320165e-19
8.364804827e-19
1.019451041e-18
1.146499699e-18
2.720228905e-19
3.396042124e-19
4.514291276e-19
6.169402772e-19
8.439195109e-19
1.131172707e-18
1.457918238e-18
1.773381703e-18
1.998406115e-18
4.705765185e-19
5.888612334e-19
7.847997166e-19
1.07504118e-18
1.473104874e-18
1.975893867e-18
2.542280106e-18
3.063273818e-18
3.488682024e-18
8.152123262e-19
1.022022977e-18
1.365044008e-18
1.874062542e-18
2.57444239e-18
3.466058872e-18
4.49379871e-18
5.52000467e-18
6.163727275e-18
1.413212288e-18
1.774054059e-18
2.37287596e-18
3.261748948e-18
4.48441976e-18
6.037949134e-18
7.815561221e-18
9.53915132e-18
1.070976259e-17
2.450536732e-18
3.078940747e-18
4.121916852e-18
5.669764368e-18
7.797315801e-18
1.049657956e-17
1.357782103e-17
1.655809187e-17
1.859819139e-17
4.249842241e-18
5.342859758e-18
7.157045153e-18
9.848989692e-18
1.354762297e-17
1.823724824e-17
2.358694874e-17
2.875952245e-17
3.230269438e-17
7.371198051e-18
9.271038608e-18
1.242456709e-17
1.710360847e-17
2.353128044e-17
3.167894511e-17
4.097073474e-17
4.995282433e-17
5.610485126e-17
1.278693737e-17
1.608796087e-17
2.156766585e-17
2.969811885e-17
4.086603486e-17
5.502007864e-17
7.115831532e-17
8.675523576e-17
9.743616522e-17
2.218528159e-17
2.791977038e-17
3.743956534e-17
5.156446482e-17
7.096495223e-17
9.554948636e-17
1.235751484e-16
1.506554658e-16
1.691969561e-16
3.849759097e-17
4.845833562e-17
6.499464017e-17
8.952979951e-17
1.232261011e-16
1.659206295e-16
2.145824387e-16
2.61593812e-16
2.937775994e-16
6.681394908e-17
8.411441448e-17
1.128356928e-16
1.554477333e-16
2.139642338e-16
2.880949404e-16
3.725700669e-16
4.541637673e-16
5.100145021e-16
1.159726835e-16
1.460195084e-16
1.95899537e-16
2.698965759e-16
3.714964248e-16
5.00179537e-16
6.467833375e-16
7.883507733e-16
8.852324496e-16
2.013191883e-16
2.535001327e-16
3.4011692e-16
4.685937597e-16
6.449574604e-16
8.682711103e-16
1.122600814e-15
1.368111179e-15
1.536076831e-15
3.494919526e-16
4.401046481e-16
5.904938655e-16
8.135133349e-16
1.119564362e-15
1.50694049e-15
1.94792506e-15
2.373424721e-15
2.664411346e-15
6.067162878e-16
7.6404496e-16
1.025106288e-15
1.412123986e-15
1.9430046e-15
2.614599444e-15
3.378676487e-15
4.115463597e-15
4.619042191e-15
1.053158953e-15
1.326263866e-15
1.779300217e-15
2.450622477e-15
3.370955082e-15
4.534397673e-15
5.856970651e-15
7.131213284e-15
8.00143534e-15
1.82772904e-15
2.301637138e-15
3.087449493e-15
4.251200045e-15
5.845370778e-15
7.85871705e-15
1.014492123e-14
1.234502002e-14
1.384588718e-14
3.17082863e-15
3.992722958e-15
5.354802559e-15
7.370395465e-15
1.012862011e-14
1.360768421e-14
1.755248486e-14
2.134282645e-14
2.392469581e-14
5.497832279e-15
6.922057525e-15
9.280653617e-15
1.276731154e-14
1.753219834e-14
2.353243616e-14
3.032299181e-14
3.683444092e-14
4.12611938e-14
9.524938409e-15
1.199001808e-14
1.606855661e-14
2.208983844e-14
3.03043918e-14
4.062682969e-14
5.228051475e-14
6.342623486e-14
7.098456675e-14
1.648381814e-14
2.074356233e-14
2.778315797e-14
3.815864235e-14
5.228267974e-14
6.998388769e-14
8.990711694e-14
1.089000921e-13
1.217395261e-13
2.848593072e-14
3.583119178e-14
4.795205603e-14
6.57795695e-14
8.998248567e-14
1.202157505e-13
1.541168544e-13
1.863067226e-13
2.07984063e-13
4.913742032e-14
6.176828784e-14
8.257347938e-14
1.130957909e-13
1.543966984e-13
2.057827353e-13
2.631431814e-13
3.173495963e-13
3.536871603e-13
8.457044988e-14
1.062153022e-13
1.41789371e-13
1.938167879e-13
2.639379752e-13
3.507682558e-13
4.471787035e-13
5.377823977e-13
5.981987061e-13
1.451609774e-13
1.820953899e-13
2.426375418e-13
3.308539572e-13
4.491927939e-13
5.94918698e-13
7.55729651e-13
9.058979448e-13
1.005436635e-12
2.483679973e-13
3.110719728e-13
4.135330092e-13
5.621825267e-13
7.605057986e-13
1.003176554e-12
1.269109764e-12
1.515689606e-12
1.678062516e-12
4.233872903e-13
5.292052117e-13
7.014855791e-13
9.501780645e-13
1.279919617e-12
1.680518499e-12
2.116149852e-12
2.516970835e-12
2.779052092e-12
7.187103702e-13
8.960587867e-13
1.183590755e-12
1.596299023e-12
2.139718375e-12
2.794731092e-12
3.501108551e-12
4.145718048e-12
4.564088561e-12
1.214282593e-12
1.509203201e-12
1.985105678e-12
2.663879592e-12
3.550842437e-12
4.61090194e-12
5.744031439e-12
6.769259078e-12
7.429620912e-12
2.040854363e-12
2.527052192e-12
3.307537266e-12
4.413060747e-12
5.84586646e-12
7.542993393e-12
9.340551867e-12
1.095280647e-11
1.198338603e-11
3.410438512e-12
4.204399298e-12
5.471754897e-12
7.253658881e-12
9.543212779e-12
1.223006602e-11
1.504954125e-11
1.755642904e-11
1.914689634e-11
5.663686418e-12
6.947056984e-12
8.983367639e-12
1.18242379e-11
1.544201512e-11
1.964776098e-11
2.402035147e-11
2.787513518e-11
3.030312243e-11
9.342685127e-12
1.139485829e-11
1.463070863e-11
1.910906819e-11
2.476083883e-11
3.126984941e-11
3.797598951e-11
4.383966995e-11
4.750772719e-11
1.530143071e-11
1.854624955e-11
2.363006119e-11
3.060937344e-11
3.933869159e-11
4.930043922e-11
5.947488411e-11
6.830239146e-11
7.378923743e-11
2.487141162e-11
2.994317067e-11
3.783867075e-11
4.859175993e-11
6.192394736e-11
7.700536703e-11
9.228256127e-11
1.054418417e-10
1.135731451e-10
4.010683321e-11
4.794242038e-11
6.006419938e-11
7.644563621e-11
9.658666088e-11
1.191821597e-10
1.418963624e-10
1.61332233e-10
1.732780157e-10
6.414372063e-11
7.610997908e-11
9.451040345e-11
1.19193642e-10
1.493032198e-10
1.82822757e-10
2.16282431e-10
2.447412337e-10
2.621494493e-10
1.017204377e-10
1.197888721e-10
1.474140893e-10
1.842158284e-10
2.287806538e-10
2.780433073e-10
3.269060127e-10
3.682427358e-10
3.934218657e-10
1.599254401e-10
1.869106116e-10
2.279494423e-10
2.822712352e-10
3.476128893e-10
4.193825293e-10
4.901655512e-10
5.497624771e-10
5.859309802e-10
2.492632504e-10
2.891473685e-10
3.495052335e-10
4.289322534e-10
5.238953009e-10
6.276067124e-10
7.293808154e-10
8.147172435e-10
8.663440506e-10
3.851577349e-10
4.435280932e-10
5.314655825e-10
6.465766661e-10
7.83464074e-10
9.322126105e-10
1.077545931e-09
1.198972654e-09
1.272237592e-09
5.900375482e-10
6.746794139e-10
8.016848726e-10
9.6715947e-10
1.163005556e-09
1.374887976e-09
1.581122823e-09
1.75290895e-09
1.856326777e-09
8.962831078e-10
1.017982496e-09
1.199947295e-09
1.436054155e-09
1.714338081e-09
2.014260995e-09
2.305239411e-09
2.546988259e-09
2.69225422e-09
1.350307799e-09
1.523934391e-09
1.782738717e-09
2.117344693e-09
2.510302604e-09
2.932422546e-09
3.340813834e-09
3.67937346e-09
3.882503391e-09
2.018204985e-09
2.264171701e-09
2.629821872e-09
3.101099104e-09
3.652839517e-09
4.243849948e-09
4.814285476e-09
5.286322222e-09
5.569189654e-09
2.993532298e-09
3.339760596e-09
3.853266489e-09
4.513336089e-09
5.284031786e-09
6.107585045e-09
6.900876869e-09
7.556343001e-09
7.948754227e-09
4.4080036e-09
4.892566626e-09
5.609810539e-09
6.529640201e-09
7.601161753e-09
8.743814352e-09
9.842634905e-09
1.074944461e-08
1.129193787e-08
6.446120063e-09
7.120792369e-09
8.117723783e-09
9.393703849e-09
1.087718857e-08
1.245640015e-08
1.397293319e-08
1.522326247e-08
1.597088146e-08
9.365110277e-09
1.030012943e-08
1.167973575e-08
1.344251176e-08
1.548854419e-08
1.766344665e-08
1.974968789e-08
2.146845757e-08
2.249583477e-08
1.352199787e-08
1.481245442e-08
1.671412506e-08
1.914047635e-08
2.195278686e-08
2.493867312e-08
2.780029271e-08
3.015659521e-08
3.156480815e-08
1.941023758e-08
2.118466116e-08
2.37967751e-08
2.712558241e-08
3.097945888e-08
3.506726764e-08
3.898227636e-08
4.220478882e-08
4.413062519e-08
2.770915616e-08
3.014103668e-08
3.371785012e-08
3.827152149e-08
4.353853801e-08
4.912106526e-08
5.446497804e-08
5.886278894e-08
6.149129593e-08
3.935032612e-08
4.267352786e-08
4.755778235e-08
5.377097133e-08
6.095219105e-08
6.855936714e-08
7.583916086e-08
8.182995915e-08
8.541148281e-08
5.56060877e-08
6.013542589e-08
6.678856128e-08
7.524661035e-08
8.501713715e-08
9.536349133e-08
1.052634437e-07
1.134117114e-07
1.182850721e-07
7.820677094e-08
8.436540206e-08
9.340783114e-08
1.04898118e-07
1.181667464e-07
1.322151575e-07
1.456586456e-07
1.567273644e-07
1.633513694e-07
1.094946449e-07
1.1785037e-07
1.301149276e-07
1.456951391e-07
1.6368388e-07
1.827308507e-07
2.00963337e-07
2.15983722e-07
2.249798582e-07
1.526240716e-07
1.639371111e-07
1.805394821e-07
2.016277442e-07
2.259770686e-07
2.517659223e-07
2.764655071e-07
2.968302737e-07
3.090400449e-07
2.118184692e-07
2.27103684e-07
2.495342155e-07
2.78026754e-07
3.109332387e-07
3.45802507e-07
3.792252362e-07
4.068115518e-07
4.233723159e-07
2.926950473e-07
3.133017642e-07
3.435432921e-07
3.819655092e-07
4.263586967e-07
4.734329476e-07
5.185998799e-07
5.559278602e-07
5.783707659e-07
4.026670227e-07
4.303792896e-07
4.710550147e-07
5.227509054e-07
5.8251478e-07
6.459432595e-07
7.068740725e-07
7.573044662e-07
7.876764782e-07
5.51429014e-07
5.885878362e-07
6.431411946e-07
7.125029873e-07
7.927433701e-07
8.779867246e-07
9.599789007e-07
1.027948008e-06
1.068956381e-06
7.51523067e-07
8.011694285e-07
8.740735203e-07
9.668072162e-07
1.074158263e-06
1.188313763e-06
1.29825539e-06
1.389535202e-06
1.444705605e-06
1.018968715e-06
1.085001444e-06
1.181988146e-06
1.305400331e-06
1.448350163e-06
1.600490083e-06
1.747177985e-06
1.869133782e-06
1.942962275e-06
1.373919427e-06
1.461254909e-06
1.589542961e-06
1.752819531e-06
1.942016535e-06
2.14349418e-06
2.337907649e-06
2.499707913e-06
2.597781504e-06
1.841279519e-06
1.955991044e-06
2.124478291e-06
2.338907643e-06
2.587388367e-06
2.852042845e-06
3.107503859e-06
3.320226771e-06
3.449270499e-06
2.451181395e-06
2.600585655e-06
2.819956189e-06
3.099031981e-06
3.422290738e-06
3.766468437e-06
4.098609253e-06
4.375166251e-06
4.542976035e-06
3.239188427e-06
3.431838814e-06
3.714524198e-06
4.073848397e-06
4.489672325e-06
4.931974381e-06
5.358412547e-06
5.713214753e-06
5.928409916e-06
4.246062399e-06
4.491603812e-06
4.851545646e-06
5.308476412e-06
5.836448109e-06
6.397112155e-06
6.936772208e-06
7.385102793e-06
7.656720834e-06
5.516960488e-06
5.825821757e-06
6.277972627e-06
6.850923968e-06
7.511539201e-06
8.211416903e-06
8.88346636e-06
9.440537049e-06
9.777429619e-06
7.099921407e-06
7.482795649e-06
8.042330662e-06
8.749723751e-06
9.56311762e-06
1.042225938e-05
1.124469439e-05
1.192443637e-05
1.233452104e-05
9.043549488e-06
9.510684627e-06
1.019194304e-05
1.105083809e-05
1.203518019e-05
1.307111609e-05
1.405910538e-05
1.487280204e-05
1.536224196e-05
1.139395784e-05
1.195429109e-05
1.276951307e-05
1.379402212e-05
1.496371631e-05
1.6189598e-05
1.735376135e-05
1.830868105e-05
1.888109336e-05
1.419112996e-05
1.485134253e-05
1.58093202e-05
1.700896295e-05
1.837285108e-05
1.97956768e-05
2.114051794e-05
2.223873114e-05
2.28945355e-05
1.746499889e-05
1.822859811e-05
1.933340001e-05
2.071160683e-05
2.227141163e-05
2.389057845e-05
2.541329784e-05
2.66508553e-05
2.738686246e-05
2.123165172e-05
2.209820316e-05
2.334814763e-05
2.490112265e-05
2.665035918e-05
2.845676381e-05
3.014663879e-05
3.151324423e-05
3.232255285e-05
2.549012144e-05
2.64547484e-05
2.784178585e-05
2.955791256e-05
3.148144902e-05
3.345729211e-05
3.52957363e-05
3.677497623e-05
3.764719334e-05
3.022020952e-05
3.127344894e-05
3.278306726e-05
3.464297315e-05
3.671733766e-05
3.883669147e-05
4.07980107e-05
4.236813048e-05
4.328994183e-05
3.538168491e-05
3.650974318e-05
3.81214413e-05
4.009874994e-05
4.229317963e-05
4.452327795e-05
4.657605143e-05
4.821118318e-05
4.916709101e-05
4.091504402e-05
4.210044051e-05
4.378873643e-05
4.58514394e-05
4.812956482e-05
5.043267393e-05
5.254160523e-05
5.421332583e-05
5.518660753e-05
4.674382145e-05
4.796635387e-05
4.970221978e-05
5.181451763e-05
5.413649331e-05
5.647215236e-05
5.860018149e-05
6.027921804e-05
6.125292993e-05
5.277825131e-05
5.401617436e-05
5.576873646e-05
5.789313924e-05
6.021797882e-05
6.254535894e-05
6.46558068e-05
6.631371733e-05
6.727167054e-05
5.891993091e-05
6.015121556e-05
6.188952708e-05
6.398897806e-05
6.627683073e-05
6.855694466e-05
7.06154445e-05
7.222606714e-05
7.315358541e-05
6.506705584e-05
6.627059347e-05
6.796529267e-05
7.000509039e-05
7.221921541e-05
7.441672853e-05
7.639262832e-05
7.793290688e-05
7.881763662e-05
7.11197827e-05
7.227640678e-05
7.390110402e-05
7.585046488e-05
7.795862659e-05
8.004302806e-05
8.19111518e-05
8.336240534e-05
8.419312981e-05
7.698533802e-05
7.807843349e-05
7.961044684e-05
8.144379075e-05
8.341967885e-05
8.536520971e-05
8.710068588e-05
8.844350097e-05
8.920958788e-05
8.258225916e-05
8.359851967e-05
8.501918477e-05
8.671294555e-05
8.853088439e-05
9.031328624e-05
9.18964271e-05
9.311662029e-05
9.381051104e-05
8.783378738e-05
8.876049411e-05
9.005262773e-05
9.158782541e-05
9.322903669e-05
9.483139719e-05
9.624867383e-05
9.73368518e-05
9.795370472e-05
9.266964081e-05
9.349801083e-05
9.465005321e-05
9.601413242e-05
9.746660363e-05
9.887863861e-05
0.0001001222574
0.0001010733616
0.0001016107518
9.703651138e-05
9.776142972e-05
9.876690371e-05
9.995320941e-05
0.0001012111052
0.0001024284431
0.0001034957029
0.0001043084795
0.0001047660824
0.000100897643
0.0001015172629
0.0001023741778
0.0001033812564
0.0001044441465
0.0001054675276
0.0001063600911
0.0001070365167
0.0001074157769
0.0001042318445
0.0001047471242
0.0001054573171
0.0001062881282
0.0001071601307
0.0001079945553
0.0001087176872
0.0001092623811
0.0001095661797
0.0001070320828
0.0001074462918
0.0001080147365
0.0001086758303
0.0001093647308
0.0001100185991
0.0001105804096
0.0001110000592
0.0001112323927
0.0001093037677
0.0001096219912
0.0001100561097
0.0001105568138
0.0001110732052
0.0001115574888
0.0001119682142
0.0001122710343
0.0001124367153
0.0001110628439
0.0001112915075
0.0001116005137
0.0001119521664
0.0001123086443
0.00011263612
0.0001129074633
0.0001131027062
0.0001132070942
0.0001123337954
0.0001124802292
0.0001126745312
0.0001128897859
0.0001131002266
0.000113284794
0.0001134293442
0.0001135268696
0.0001135756362
0.0001131476653
0.0001132197201
0.0001133103961
0.000113402617
0.0001134815533
0.0001135376504
0.0001135683871
0.0001135782985
0.0001135772299
0.0001135401749
0.0001135458984
0.0001135442561
0.0001135270125
0.0001134891161
0.0001134312369
0.0001133611243
0.0001132934731
0.0001132483091
0.0001135500084
0.000113497383
0.0001134146053
0.0001133012669
0.0001131609361
0.0001130032492
0.0001128449178
0.0001127094702
0.0001126257784
0.0001132173077
0.0001131140485
0.0001129609216
0.0001127643503
0.0001125353976
0.0001122914592
0.0001120569662
0.0001118630303
0.0001117461125
0.0001125824025
0.0001124358111
0.0001122225277
0.0001119548559
0.0001116502861
0.0001113328371
0.0001110334988
0.0001107898028
0.0001106446292
0.0001116847817
0.0001115016478
0.0001112376768
0.0001109101619
0.0001105420264
0.0001101628613
0.0001098091455
0.0001095237608
0.0001093549283
0.0001105622987
0.0001103488427
0.0001100428532
0.0001096657938
0.0001092451103
0.0001088150059
0.0001084164744
0.0001080967744
0.0001079084842
0.0001092505914
0.0001090124391
0.0001086722689
0.0001082549722
0.0001077916942
0.0001073203845
0.0001068856752
0.0001065383231
0.000106334374
0.0001077826925
0.0001075248747
0.0001071575316
0.0001067083187
0.0001062113448
0.0001057075335
0.000105244371
0.0001048753288
0.0001046591229
0.0001061888006
0.0001059157717
0.0001055274605
0.0001050536989
0.0001045309089
0.0001040023047
0.0001035175346
0.0001031320892
0.0001029066458
0.0001044961837
0.0001042118518
0.000103808017
0.0001033161721
0.0001027744826
0.000102227855
0.0001017274919
0.000101330292
0.0001010982681
0.000102729184
0.0001024369493
0.0001020223281
0.0001015180272
0.0001009634602
0.0001004047054
9.989399108e-05
9.948909045e-05
9.925280463e-05
0.0001009093026
0.0001006121
0.0001001907821
9.967888415e-05
9.911664099e-05
9.855085386e-05
9.803431969e-05
9.762522478e-05
9.738668404e-05
9.905533964e-05
9.87556826e-05
9.833117114e-05
9.781583882e-05
9.725037685e-05
9.668192477e-05
9.616345651e-05
9.575317547e-05
9.551410237e-05
9.718357117e-05
9.688359562e-05
9.645886743e-05
9.594363876e-05
9.537874677e-05
9.481134268e-05
9.429424443e-05
9.388533572e-05
9.364719574e-05
9.530794881e-05
9.500945479e-05
9.458701872e-05
9.407487533e-05
9.351374621e-05
9.295051889e-05
9.243757484e-05
9.203219429e-05
9.179622237e-05
9.344030935e-05
9.31448004e-05
9.272675173e-05
9.222018322e-05
9.166548225e-05
9.110904265e-05
9.060257536e-05
9.020252081e-05
8.996974658e-05
9.159058593e-05
9.129930533e-05
9.088737608e-05
9.03884395e-05
8.984236761e-05
8.929487033e-05
8.879679508e-05
8.840354809e-05
8.817481955e-05
8.976701402e-05
8.948097779e-05
8.90765826e-05
8.858695674e-05
8.805130836e-05
8.751450809e-05
8.702638278e-05
8.664114707e-05
8.641715253e-05
8.797632782e-05
8.769635447e-05
8.730063197e-05
8.68216664e-05
8.629788191e-05
8.577318465e-05
8.52962553e-05
8.491999188e-05
8.470127998e-05
8.622394399e-05
8.595068112e-05
8.556453098e-05
8.509729009e-05
8.458650287e-05
8.407501211e-05
8.361025394e-05
8.324371294e-05
8.303071091e-05
8.451413115e-05
8.424807908e-05
8.387219499e-05
8.34174972e-05
8.292057577e-05
8.242313376e-05
8.197128805e-05
8.161503733e-05
8.140806744e-05
8.285016436e-05
8.259169706e-05
8.222659591e-05
8.178504845e-05
8.130263378e-05
8.081985837e-05
8.038146534e-05
8.003591609e-05
7.983521034e-05
8.12344645e-05
8.098384798e-05
8.06298956e-05
8.020192522e-05
7.973446382e-05
7.9266781e-05
7.884220901e-05
7.85076385e-05
7.831335176e-05
7.966872296e-05
7.942613142e-05
7.908356517e-05
7.866944516e-05
7.821721819e-05
7.776489088e-05
7.735436222e-05
7.703093393e-05
7.684315554e-05
7.815401233e-05
7.791954231e-05
7.758849091e-05
7.718836477e-05
7.675151362e-05
7.63146669e-05
7.59182805e-05
7.560606186e-05
7.54248259e-05
7.669088412e-05
7.646456685e-05
7.614506764e-05
7.57589698e-05
7.533751844e-05
7.491616174e-05
7.453391305e-05
7.423289103e-05
7.40581853e-05
7.527945439e-05
7.506126654e-05
7.475328056e-05
7.438115442e-05
7.397502892e-05
7.356907533e-05
7.320087377e-05
7.291096845e-05
7.274274236e-05
7.391947855e-05
7.370935151e-05
7.341277663e-05
7.305449025e-05
7.266353579e-05
7.227281889e-05
7.191850292e-05
7.16395794e-05
7.147775078e-05
7.261041618e-05
7.240824424e-05
7.212292645e-05
7.177828619e-05
7.140228175e-05
7.102657018e-05
7.068592049e-05
7.041779911e-05
7.026226023e-05
7.135148717e-05
7.115713443e-05
7.08828777e-05
7.055163996e-05
7.019031106e-05
6.982932117e-05
6.950207203e-05
6.92445373e-05
6.909515991e-05
7.014171989e-05
6.995502633e-05
6.969160104e-05
6.937348242e-05
6.90265121e-05
6.867991882e-05
6.836576782e-05
6.811857603e-05
6.797521588e-05
6.897999247e-05
6.880077914e-05
6.854792938e-05
6.824261536e-05
6.790965362e-05
6.757709977e-05
6.727571624e-05
6.703860205e-05
6.69011026e-05
6.786506804e-05
6.769314147e-05
6.745059123e-05
6.715774368e-05
6.683841553e-05
6.651951979e-05
6.623055197e-05
6.600323397e-05
6.587142966e-05
6.679562452e-05
6.663078054e-05
6.639823906e-05
6.611750256e-05
6.581141485e-05
6.55057786e-05
6.522885969e-05
6.501104521e-05
6.488476416e-05
6.577027982e-05
6.561230675e-05
6.5389473e-05
6.512048027e-05
6.482722758e-05
6.453444059e-05
6.426919397e-05
6.406058303e-05
6.393964938e-05
6.478761297e-05
6.463629437e-05
6.442286088e-05
6.416523731e-05
6.388440682e-05
6.360405215e-05
6.335009565e-05
6.315038436e-05
6.303462021e-05
6.384618171e-05
6.370129867e-05
6.349695474e-05
6.325032224e-05
6.298149787e-05
6.271315587e-05
6.247010544e-05
6.227898881e-05
6.216821581e-05
6.294453712e-05
6.280587015e-05
6.261030453e-05
6.23742847e-05
6.211705054e-05
6.186030225e-05
6.162777494e-05
6.14449492e-05
6.13389899e-05
6.208123555e-05
6.194856619e-05
6.176146928e-05
6.15356861e-05
6.128962921e-05
6.104405915e-05
6.082167556e-05
6.064684009e-05
6.0545519e-05
6.125484838e-05
6.112796053e-05
6.094902622e-05
6.073310813e-05
6.04978209e-05
6.026301929e-05
6.005040561e-05
5.988326444e-05
5.978640897e-05
6.046396988e-05
6.03426508e-05
6.017157793e-05
5.996515967e-05
5.974024165e-05
5.951580625e-05
5.931259585e-05
5.915285893e-05
5.906030003e-05
5.970722333e-05
5.959126454e-05
5.942775811e-05
5.923048205e-05
5.901554144e-05
5.8801079e-05
5.860691369e-05
5.845429786e-05
5.836587057e-05
5.89832659e-05
5.887246384e-05
5.871623589e-05
5.852775316e-05
5.832240798e-05
5.811753535e-05
5.793206636e-05
5.778629605e-05
5.770183997e-05
5.829079225e-05
5.818494879e-05
5.803571916e-05
5.785569046e-05
5.765956942e-05
5.746391437e-05
5.728680308e-05
5.714761091e-05
5.706697045e-05
5.762853722e-05
5.752746004e-05
5.738495685e-05
5.721305309e-05
5.702579621e-05
5.683899805e-05
5.666991652e-05
5.653704365e-05
5.646006826e-05
5.699527762e-05
5.689878048e-05
5.676274056e-05
5.659864324e-05
5.641990231e-05
5.62416123e-05
5.608024358e-05
5.595343997e-05
5.587998429e-05
5.638983339e-05
5.629773632e-05
5.616790539e-05
5.601130691e-05
5.584074574e-05
5.567062734e-05
5.551666568e-05
5.539569023e-05
5.532561414e-05
5.58110682e-05
5.572319758e-05
5.55993304e-05
5.544993417e-05
5.528722874e-05
5.512495767e-05
5.497810861e-05
5.486272919e-05
5.479589783e-05
5.52578895e-05
5.517407811e-05
5.50559385e-05
5.491345899e-05
5.475829744e-05
5.46035617e-05
5.446354202e-05
5.435353544e-05
5.428981918e-05
5.472924827e-05
5.464933526e-05
5.453669609e-05
5.440085873e-05
5.425294127e-05
5.410544105e-05
5.397197866e-05
5.386713057e-05
5.380640494e-05
5.422413847e-05
5.414796926e-05
5.404061233e-05
5.391115342e-05
5.377019217e-05
5.362963963e-05
5.35024734e-05
5.340257812e-05
5.334472373e-05
5.374159614e-05
5.366902236e-05
5.356673823e-05
5.344340472e-05
5.33091235e-05
5.317524257e-05
5.305412208e-05
5.295898242e-05
5.290388485e-05
5.328069844e-05
5.32115778e-05
5.311416562e-05
5.299671485e-05
5.28688489e-05
5.274137497e-05
5.262606024e-05
5.253548731e-05
5.248303692e-05
5.284056248e-05
5.277475859e-05
5.268202587e-05
5.257022534e-05
5.244852097e-05
5.232720057e-05
5.221746181e-05
5.21312747e-05
5.208136656e-05
5.242034407e-05
5.235772626e-05
5.226948862e-05
5.216311565e-05
5.204732997e-05
5.193192042e-05
5.182753763e-05
5.174556323e-05
5.169809692e-05
5.201923635e-05
5.195967952e-05
5.187576045e-05
5.177460187e-05
5.166450238e-05
5.155477145e-05
5.145553414e-05
5.137760681e-05
5.133248626e-05
5.163646846e-05
5.157985288e-05
5.150008345e-05
5.140393527e-05
5.129929952e-05
5.119502503e-05
5.110073184e-05
5.102669319e-05
5.098382654e-05
5.127130413e-05
5.121751524e-05
5.114173383e-05
5.105040093e-05
5.095101613e-05
5.085198559e-05
5.076244398e-05
5.069214253e-05
5.065144197e-05
5.092304033e-05
5.087196855e-05
5.080002058e-05
5.071331633e-05
5.061897901e-05
5.052498925e-05
5.044001514e-05
5.037330611e-05
5.033468769e-05
5.059100586e-05
5.054254641e-05
5.047428407e-05
5.039203005e-05
5.030254569e-05
5.021340248e-05
5.013281994e-05
5.006956495e-05
5.003294848e-05
5.02745601e-05
5.022861282e-05
5.016389481e-05
5.008592047e-05
5.000110315e-05
4.991662091e-05
4.984026182e-05
4.978032868e-05
4.974563752e-05
4.997309176e-05
4.99295609e-05
4.986825221e-05
4.979439458e-05
4.971406668e-05
4.963406812e-05
4.95617719e-05
4.950503437e-05
4.947219537e-05
4.968601771e-05
4.964481183e-05
4.958678348e-05
4.951688691e-05
4.944087881e-05
4.936519463e-05
4.9296808e-05
4.924314558e-05
4.921208892e-05
4.941278199e-05
4.937381377e-05
4.931894263e-05
4.925285857e-05
4.918100839e-05
4.910947707e-05
4.90448538e-05
4.899415157e-05
4.896481067e-05
4.915285489e-05
4.911604104e-05
4.906420968e-05
4.900179644e-05
4.893394984e-05
4.886641743e-05
4.880541818e-05
4.875756667e-05
4.872987813e-05
4.890573227e-05
4.887099343e-05
4.882208997e-05
4.876321262e-05
4.869922266e-05
4.863554265e-05
4.857803487e-05
4.853292996e-05
4.850683351e-05
4.867093508e-05
4.863819576e-05
4.859211383e-05
4.853664412e-05
4.84763712e-05
4.841640443e-05
4.83622623e-05
4.831980525e-05
4.829524374e-05
4.844800917e-05
4.841719777e-05
4.837383648e-05
4.832165284e-05
4.82649647e-05
4.820857947e-05
4.815768399e-05
4.811778144e-05
4.809470089e-05
4.823652547e-05
4.82075743e-05
4.816683835e-05
4.8117826e-05
4.806459791e-05
4.801167011e-05
4.796390925e-05
4.792647342e-05
4.790482312e-05
4.803608056e-05
4.800892598e-05
4.797072582e-05
4.792477705e-05
4.787489207e-05
4.782530551e-05
4.778057457e-05
4.774552355e-05
4.772525623e-05
4.784629782e-05
4.782088045e-05
4.778513262e-05
4.774214718e-05
4.769549667e-05
4.764914363e-05
4.760734574e-05
4.757460387e-05
4.755567597e-05
4.766682916e-05
4.764309423e-05
4.760972183e-05
4.756960754e-05
4.752609187e-05
4.748287384e-05
4.74439207e-05
4.741341927e-05
4.739579131e-05
4.749735763e-05
4.747525538e-05
4.744418877e-05
4.740686237e-05
4.73663919e-05
4.732622067e-05
4.729003355e-05
4.726171159e-05
4.724534868e-05
4.733760075e-05
4.73170871e-05
4.728826476e-05
4.725365309e-05
4.72161495e-05
4.717894852e-05
4.714545963e-05
4.7119265e-05
4.710413753e-05
4.718731504e-05
4.716835239e-05
4.714172211e-05
4.710976356e-05
4.707516156e-05
4.704086771e-05
4.70100219e-05
4.698591274e-05
4.697199719e-05
4.704630155e-05
4.702885979e-05
4.700438018e-05
4.697502657e-05
4.6943276e-05
4.69118419e-05
4.688359876e-05
4.686154521e-05
4.684882525e-05
4.691441279e-05
4.689847054e-05
4.687611284e-05
4.68493317e-05
4.682040017e-05
4.679179685e-05
4.676613334e-05
4.67461197e-05
4.67345874e-05
4.679156079e-05
4.677710695e-05
4.675685721e-05
4.673263454e-05
4.670651053e-05
4.668073069e-05
4.665764418e-05
4.66396714e-05
4.662932879e-05
4.667772659e-05
4.66647621e-05
4.664662377e-05
4.662496722e-05
4.660166371e-05
4.657872551e-05
4.655823735e-05
4.654232591e-05
4.65331867e-05
4.65729709e-05
4.656151076e-05
4.654550759e-05
4.652645011e-05
4.650600867e-05
4.648595993e-05
4.646811944e-05
4.645431261e-05
4.644640409e-05
4.647744567e-05
4.646752118e-05
4.645370047e-05
4.64373043e-05
4.641979959e-05
4.640272246e-05
4.63876112e-05
4.637597855e-05
4.636934369e-05
4.639140638e-05
4.638306756e-05
4.63715036e-05
4.635786451e-05
4.6343409e-05
4.632942477e-05
4.631716111e-05
4.630780208e-05
4.630250166e-05
4.631522434e-05
4.63085424e-05
4.629933996e-05
4.628859156e-05
4.62773403e-05
4.626661424e-05
4.625735775e-05
4.625040523e-05
4.624651992e-05
4.624939836e-05
4.624446804e-05
4.623776578e-05
4.623008358e-05
4.622223865e-05
4.621498448e-05
4.620893999e-05
4.620456351e-05
4.620219572e-05
4.619456476e-05
4.619150649e-05
4.618747984e-05
4.618308479e-05
4.617889905e-05
4.617538259e-05
4.617280345e-05
4.617121164e-05
4.617048691e-05
4.615150462e-05
4.615046604e-05
4.614932942e-05
4.614849033e-05
4.614826998e-05
4.614881147e-05
4.615000139e-05
4.615144329e-05
4.615251101e-05
4.612114665e-05
4.612230345e-05
4.61243112e-05
4.612734572e-05
4.613145092e-05
4.61364253e-05
4.614173828e-05
4.6146503e-05
4.614953602e-05
4.610456446e-05
4.610811995e-05
4.611356558e-05
4.612083886e-05
4.612968188e-05
4.613951635e-05
4.614935388e-05
4.615776798e-05
4.616296093e-05
4.610296603e-05
4.610914929e-05
4.611836246e-05
4.613028308e-05
4.614432307e-05
4.615949108e-05
4.617429596e-05
4.618671797e-05
4.619428375e-05
4.611767417e-05
4.612673617e-05
4.614007695e-05
4.615708919e-05
4.617682291e-05
4.619783384e-05
4.621807981e-05
4.623489134e-05
4.624505556e-05
4.615009596e-05
4.616230354e-05
4.618015324e-05
4.620272526e-05
4.622867299e-05
4.625605683e-05
4.628223345e-05
4.630382629e-05
4.631681933e-05
4.62016802e-05
4.62173073e-05
4.624005565e-05
4.626866295e-05
4.630134915e-05
4.633563564e-05
4.63682279e-05
4.639498689e-05
4.64110334e-05
4.627386183e-05
4.62931781e-05
4.632120637e-05
4.635631028e-05
4.639623865e-05
4.643793068e-05
4.647739334e-05
4.650967493e-05
4.652898071e-05
4.636799359e-05
4.639125006e-05
4.642491021e-05
4.646693153e-05
4.651455471e-05
4.656409627e-05
4.661082311e-05
4.664892988e-05
4.667166652e-05
4.648526564e-05
4.651267791e-05
4.655226805e-05