/*--------------------------------*- C++ -*----------------------------------*\
| =========                 |                                                 |
| \\      /  F ield         | OpenFOAM: The Open Source CFD Toolbox           |
|  \\    /   O peration     | Version:  2212                                  |
|   \\  /    A nd           | Website:  www.openfoam.com                      |
|    \\/     M anipulation  |                                                 |
\*---------------------------------------------------------------------------*/
FoamFile
{
    version     2.0;
    format      ascii;
    arch        "LSB;label=32;scalar=64";
    class       volScalarField;
    location    "30.00000000";
    object      C5H5;
}
// * * * * * * * * * * * * * * * * * * * * * * * * * * * * * * * * * * * * * //

dimensions      [0 0 0 0 0 0 0];

internalField   nonuniform List<scalar> 
3000
(
5.185592497e-22
5.825545612e-22
6.791209461e-22
8.077985494e-22
9.672713213e-22
1.153197087e-21
1.3543651e-21
1.546295651e-21
1.681997812e-21
1.946974182e-21
2.196064434e-21
2.571766515e-21
3.073501412e-21
3.700725719e-21
4.449905283e-21
5.307975983e-21
6.231710936e-21
7.04988349e-21
4.361446373e-21
4.958048702e-21
5.866477512e-21
7.099805467e-21
8.680046953e-21
1.062990531e-20
1.294146168e-20
1.548503794e-20
1.765859456e-20
8.308187036e-21
9.543525833e-21
1.14521105e-20
1.409833024e-20
1.757556092e-20
2.197162097e-20
2.726196593e-20
3.30232901e-20
3.76731874e-20
1.475488311e-20
1.715660831e-20
2.092570078e-20
2.625336e-20
3.338968878e-20
4.253408365e-20
5.353322639e-20
6.52131843e-20
7.41793969e-20
2.537525639e-20
2.988299298e-20
3.705864203e-20
4.735998505e-20
6.13364056e-20
7.933979709e-20
1.008330265e-19
1.231066366e-19
1.395862658e-19
4.308395332e-20
5.136391714e-20
6.469788798e-20
8.405613007e-20
1.105163506e-19
1.446047657e-19
1.84911833e-19
2.258649663e-19
2.554145866e-19
7.292401029e-20
8.790768036e-20
1.122513006e-19
1.478658015e-19
1.967360069e-19
2.595645084e-19
3.331986339e-19
4.069205619e-19
4.592259441e-19
1.236394863e-19
1.504679978e-19
1.943357881e-19
2.588357848e-19
3.474952135e-19
4.611622876e-19
5.934150509e-19
7.244469885e-19
8.163890209e-19
2.103885561e-19
2.580503803e-19
3.363345153e-19
4.517997007e-19
6.105963297e-19
8.136330891e-19
1.048549406e-18
1.279595013e-18
1.440521092e-18
3.594843797e-19
4.436737318e-19
5.823775949e-19
7.873397e-19
1.069173296e-18
1.428647697e-18
1.842801423e-18
2.248070778e-18
2.529015604e-18
6.166497522e-19
7.647551635e-19
1.009254895e-18
1.370905959e-18
1.867892393e-18
2.500351681e-18
3.226531594e-18
3.934667678e-18
4.424531981e-18
1.061416456e-18
1.321261809e-18
1.750792211e-18
2.386385345e-18
3.258968509e-18
4.366642909e-18
5.633956489e-18
6.86631594e-18
7.722025143e-18
1.832171367e-18
2.287354347e-18
3.040531851e-18
4.155301811e-18
5.68407603e-18
7.61881143e-18
9.819540606e-18
1.194428848e-17
1.34598915e-17
3.169502288e-18
3.966191083e-18
5.285904016e-18
7.240777991e-18
9.921869029e-18
1.330832128e-17
1.712313955e-17
2.063222129e-17
2.349749192e-17
5.490752417e-18
6.883697363e-18
9.194068628e-18
1.262249357e-17
1.733980811e-17
2.334517402e-17
3.026737548e-17
3.717926346e-17
4.151499238e-17
9.518506403e-18
1.194891039e-17
1.598220048e-17
2.196909584e-17
3.020424999e-17
4.066786841e-17
5.264077278e-17
6.424981403e-17
7.213434761e-17
1.650527662e-17
2.073781398e-17
2.776265195e-17
3.818799257e-17
5.251786309e-17
7.069843728e-17
9.145177714e-17
1.115250368e-16
1.252658822e-16
2.862427619e-17
3.598616005e-17
4.820538211e-17
6.63366449e-17
9.124833842e-17
1.228347375e-16
1.588669892e-16
1.937062194e-16
2.175708118e-16
4.964778133e-17
6.244392035e-17
8.368411877e-17
1.151992204e-16
1.584920061e-16
2.133695871e-16
2.759532753e-16
3.364510129e-16
3.77887216e-16
8.61248193e-17
1.083584492e-16
1.452663153e-16
2.000279622e-16
2.752480593e-16
3.705808429e-16
4.792779048e-16
5.84328996e-16
6.562690479e-16
1.494261903e-16
1.88050118e-16
2.521694986e-16
3.473059797e-16
4.779755169e-16
6.435615442e-16
8.323248507e-16
1.014720905e-15
1.139604768e-15
2.592956979e-16
3.263850366e-16
4.377632283e-16
6.030166948e-16
8.299738749e-16
1.117537471e-15
1.44529293e-15
1.761932083e-15
1.978701908e-15
4.50016953e-16
5.665420506e-16
7.599905884e-16
1.046998596e-15
1.441129079e-15
1.940427069e-15
2.509398587e-15
3.058962623e-15
3.435138173e-15
7.811193901e-16
9.834959771e-16
1.319456596e-15
1.817854284e-15
2.502167201e-15
3.368896009e-15
4.356327341e-15
5.309836877e-15
5.96237114e-15
1.355959967e-15
1.707418111e-15
2.290814516e-15
3.156154002e-15
4.344029377e-15
5.848130191e-15
7.56113571e-15
9.214739691e-15
1.034605107e-14
2.353958853e-15
2.964269191e-15
3.977196723e-15
5.479316123e-15
7.540684068e-15
1.014980694e-14
1.312000269e-14
1.59859018e-14
1.794580539e-14
4.086460776e-15
5.146128128e-15
6.904473649e-15
9.511182361e-15
1.308686154e-14
1.761030361e-14
2.275664783e-14
2.771918416e-14
3.111097405e-14
7.093418771e-15
8.932882334e-15
1.198425132e-14
1.650585742e-14
2.270464119e-14
3.054086151e-14
3.944888443e-14
4.803138442e-14
5.389265495e-14
1.231043738e-14
1.550238537e-14
2.079512498e-14
2.863341949e-14
3.937075466e-14
5.293139363e-14
6.83298325e-14
8.314831942e-14
9.325722026e-14
2.13567142e-14
2.689247933e-14
3.606659396e-14
4.964236472e-14
6.822003755e-14
9.165283331e-14
1.182225386e-13
1.437519046e-13
1.611417587e-13
3.702995145e-14
4.662264005e-14
6.250866509e-14
8.599260772e-14
1.18085899e-13
1.584997407e-13
2.042366682e-13
2.480937088e-13
2.77909542e-13
6.415401151e-14
8.075724281e-14
1.082277216e-13
1.487833016e-13
2.04111384e-13
2.736368557e-13
3.521287741e-13
4.271993588e-13
4.781075448e-13
1.110246556e-13
1.397156211e-13
1.871299229e-13
2.570126798e-13
3.521433401e-13
4.71367579e-13
6.055579608e-13
7.334827338e-13
8.199611115e-13
1.918633408e-13
2.413364103e-13
3.229749472e-13
4.430498941e-13
6.060655559e-13
8.096978655e-13
1.038034439e-12
1.254845201e-12
1.400850169e-12
3.309587703e-13
4.160323619e-13
5.561630687e-13
7.617421975e-13
1.039919187e-12
1.386023281e-12
1.772367247e-12
2.137467636e-12
2.382214657e-12
5.696132902e-13
7.153994064e-13
9.550039713e-13
1.305427953e-12
1.77772021e-12
2.362554429e-12
3.011914635e-12
3.622164189e-12
4.029090469e-12
9.777126991e-13
1.226479637e-12
1.634253447e-12
2.228423685e-12
3.025479609e-12
4.006997594e-12
5.09011897e-12
6.101558064e-12
6.771987985e-12
1.672849463e-12
2.095183837e-12
2.785296684e-12
3.78650601e-12
5.122286425e-12
6.756763512e-12
8.547921783e-12
1.020872789e-11
1.130236919e-11
2.851667125e-12
3.564389535e-12
4.724760876e-12
6.399795863e-12
8.62072605e-12
1.131890628e-11
1.425304288e-11
1.695271864e-11
1.87179314e-11
4.840771806e-12
6.035277592e-12
7.971909562e-12
1.075164934e-11
1.441177565e-11
1.882352351e-11
2.358123096e-11
2.79229081e-11
3.074078353e-11
8.178619585e-12
1.016501498e-11
1.337038788e-11
1.794217229e-11
2.391618315e-11
3.105606082e-11
3.868808924e-11
4.559335828e-11
5.004112599e-11
1.374584912e-11
1.702056073e-11
2.227739948e-11
2.972348485e-11
3.937392877e-11
5.080466501e-11
6.291183765e-11
7.377091951e-11
8.071221838e-11
2.297041107e-11
2.831800371e-11
3.685406936e-11
4.885578997e-11
6.427669892e-11
8.237354318e-11
1.013636276e-10
1.182483194e-10
1.289606157e-10
3.814663336e-11
4.679054266e-11
6.050574238e-11
7.963990273e-11
1.040067659e-10
1.323337602e-10
1.617844722e-10
1.877475648e-10
2.041007431e-10
6.292546069e-11
7.674744766e-11
9.854184457e-11
1.28704893e-10
1.667711761e-10
2.106111597e-10
2.557787875e-10
2.952721439e-10
3.199773729e-10
1.030583437e-10
1.249130273e-10
1.591537931e-10
2.061612143e-10
2.649552996e-10
3.320499741e-10
4.005770363e-10
4.600319982e-10
4.969868378e-10
1.675120321e-10
2.016713464e-10
2.548491224e-10
3.272732945e-10
4.170680728e-10
5.186439993e-10
6.215381203e-10
7.101673739e-10
7.649323531e-10
2.701190885e-10
3.228926953e-10
4.045343446e-10
5.148652777e-10
6.505172852e-10
8.026999739e-10
9.556813946e-10
1.086582218e-09
1.167036612e-09
4.319937505e-10
5.125864028e-10
6.365132869e-10
8.027550681e-10
1.005543141e-09
1.231296635e-09
1.456645677e-09
1.64831252e-09
1.765553657e-09
6.850311063e-10
8.067182279e-10
9.927689331e-10
1.24062263e-09
1.540759988e-09
1.872536198e-09
2.20161726e-09
2.480009654e-09
2.649582337e-09
1.076928059e-09
1.258658646e-09
1.535035036e-09
1.900868628e-09
2.340919416e-09
2.824262496e-09
3.300961082e-09
3.702322453e-09
3.945898749e-09
1.678328956e-09
1.946905098e-09
2.35335479e-09
2.888224576e-09
3.527726504e-09
4.226152998e-09
4.911540928e-09
5.486232047e-09
5.833903315e-09
2.592878744e-09
2.985886085e-09
3.577980195e-09
4.353057409e-09
5.27478909e-09
6.276420237e-09
7.255083461e-09
8.072776507e-09
8.56614203e-09
3.971124592e-09
4.54089008e-09
5.39584636e-09
6.509800907e-09
7.82826723e-09
9.254758549e-09
1.064328865e-08
1.179991544e-08
1.249621442e-08
6.030086944e-09
6.849009549e-09
8.073488652e-09
9.662348283e-09
1.153509974e-08
1.355354057e-08
1.551182025e-08
1.713875239e-08
1.811629082e-08
9.080229442e-09
1.024791624e-08
1.198844795e-08
1.423875597e-08
1.688144165e-08
1.972009115e-08
2.246609589e-08
2.474207756e-08
2.610722131e-08
1.356252475e-08
1.52152988e-08
1.76721439e-08
2.083838854e-08
2.454458503e-08
2.851344934e-08
3.23424723e-08
3.550910891e-08
3.740544433e-08
2.009899479e-08
2.242246091e-08
2.586786684e-08
3.029531353e-08
3.546233587e-08
4.097984256e-08
4.628953619e-08
5.067181382e-08
5.329251354e-08
2.956076481e-08
3.280619638e-08
3.760810164e-08
4.37623009e-08
5.092451726e-08
5.855223483e-08
6.587581105e-08
7.19096666e-08
7.551405506e-08
4.315786779e-08
4.766322465e-08
5.431562593e-08
6.282034107e-08
7.269253693e-08
8.318123095e-08
9.32318776e-08
1.015007276e-07
1.064359504e-07
6.255462403e-08
6.877134564e-08
7.793335092e-08
8.962012644e-08
1.031551666e-07
1.175062457e-07
1.312356041e-07
1.425177971e-07
1.492467651e-07
9.001485607e-08
9.854273834e-08
1.110900861e-07
1.270642919e-07
1.455296353e-07
1.65075419e-07
1.837490438e-07
1.990787165e-07
2.08215702e-07
1.285843543e-07
1.402178126e-07
1.573110598e-07
1.790383144e-07
2.041146035e-07
2.306208142e-07
2.559141285e-07
2.766581559e-07
2.890133286e-07
1.823183025e-07
1.98105895e-07
2.212771666e-07
2.50692154e-07
2.845968723e-07
3.203909772e-07
3.545090698e-07
3.824622263e-07
3.990955962e-07
2.565517468e-07
2.778688908e-07
3.09127619e-07
3.487668081e-07
3.944050163e-07
4.425327002e-07
4.883553597e-07
5.258535058e-07
5.48137009e-07
3.581993395e-07
3.868333169e-07
4.287898012e-07
4.819464787e-07
5.430872704e-07
6.074943492e-07
6.687422636e-07
7.187885445e-07
7.484715253e-07
4.960588814e-07
5.343020301e-07
5.903030344e-07
6.61197104e-07
7.426646749e-07
8.283911578e-07
9.097987254e-07
9.761884559e-07
1.015455747e-06
6.810763177e-07
7.318185108e-07
8.060800324e-07
9.000210834e-07
1.00787387e-06
1.121229329e-06
1.228691586e-06
1.316106232e-06
1.367608769e-06
9.265099131e-07
9.933115536e-07
1.091019969e-06
1.214524774e-06
1.356173873e-06
1.504838118e-06
1.64547419e-06
1.759494137e-06
1.826320383e-06
1.247907968e-06
1.335025309e-06
1.462363227e-06
1.623168352e-06
1.807361806e-06
2.000327937e-06
2.182377682e-06
2.32934379e-06
2.414890844e-06
1.662802608e-06
1.775128552e-06
1.939169321e-06
2.146064583e-06
2.382648312e-06
2.629911228e-06
2.862372765e-06
3.049025141e-06
3.156733034e-06
2.190026105e-06
2.332907513e-06
2.541321284e-06
2.803732667e-06
3.103109379e-06
3.415024958e-06
3.706976491e-06
3.939844552e-06
4.072796993e-06
2.848586571e-06
3.027488884e-06
3.288021988e-06
3.615305417e-06
3.987565475e-06
4.373883681e-06
4.733538892e-06
5.018182965e-06
5.178693005e-06
3.656102629e-06
3.876117874e-06
4.195850262e-06
4.596323102e-06
5.050113948e-06
5.51881299e-06
5.952520591e-06
6.292950589e-06
6.482608669e-06
4.626893158e-06
4.892127723e-06
5.276576712e-06
5.756400089e-06
6.297703651e-06
6.853853236e-06
7.365324334e-06
7.763947071e-06
7.983611362e-06
5.769943025e-06
6.082872591e-06
6.535086959e-06
7.097205941e-06
7.728290197e-06
8.373239659e-06
8.963232576e-06
9.419676714e-06
9.667371778e-06
7.087104325e-06
7.448035386e-06
7.967898258e-06
8.611335065e-06
9.330263998e-06
1.006162136e-05
1.072632201e-05
1.123516909e-05
1.1506831e-05
8.572023811e-06
8.97883749e-06
9.562860496e-06
1.028267549e-05
1.108378239e-05
1.189316518e-05
1.262233585e-05
1.317433045e-05
1.346338887e-05
1.021042379e-05
1.065876243e-05
1.1300831e-05
1.208856984e-05
1.295887183e-05
1.383129644e-05
1.461033454e-05
1.519377014e-05
1.549422088e-05
1.198262262e-05
1.246606872e-05
1.315490001e-05
1.399487661e-05
1.491614299e-05
1.583226769e-05
1.6643154e-05
1.724414809e-05
1.754877565e-05
1.385932162e-05
1.436729612e-05
1.508757234e-05
1.596042346e-05
1.691075689e-05
1.784820789e-05
1.867076882e-05
1.927427368e-05
1.957559296e-05
1.580149223e-05
1.632167782e-05
1.705573225e-05
1.793971312e-05
1.889512321e-05
1.983002227e-05
2.064326269e-05
2.123401849e-05
2.152472646e-05
1.776491721e-05
1.828404442e-05
1.901309231e-05
1.988552283e-05
2.082150456e-05
2.172998108e-05
2.251334894e-05
2.307673173e-05
2.335003123e-05
1.970262692e-05
2.020731748e-05
2.091265909e-05
2.175133783e-05
2.264435356e-05
2.350392747e-05
2.42384409e-05
2.476119998e-05
2.501106882e-05
2.156737516e-05
2.204494699e-05
2.27090751e-05
2.349355363e-05
2.432233044e-05
2.511309163e-05
2.578227893e-05
2.625314349e-05
2.647455944e-05
2.331404137e-05
2.375321269e-05
2.436075831e-05
2.507340129e-05
2.581997756e-05
2.652550595e-05
2.711611245e-05
2.752622994e-05
2.771532834e-05
2.490185008e-05
2.529329941e-05
2.583176506e-05
2.645854483e-05
2.710902063e-05
2.771700822e-05
2.821943281e-05
2.856258578e-05
2.871666074e-05
2.629628958e-05
2.663304345e-05
2.709329138e-05
2.762428713e-05
2.816925923e-05
2.867183384e-05
2.908031504e-05
2.935289877e-05
2.946980337e-05
2.747061036e-05
2.774824447e-05
2.812472512e-05
2.855431751e-05
2.898900512e-05
2.938280868e-05
2.969559281e-05
2.98972865e-05
2.997776818e-05
2.840680718e-05
2.862346317e-05
2.891418913e-05
2.924095276e-05
2.956498376e-05
2.985083726e-05
3.006967272e-05
3.020253624e-05
3.024812635e-05
2.909604858e-05
2.925229362e-05
2.94586069e-05
2.968497924e-05
2.990197265e-05
3.008440674e-05
3.021408328e-05
3.028222304e-05
3.029533107e-05
2.953861573e-05
2.963720284e-05
2.976343038e-05
2.989529386e-05
3.001241507e-05
3.009925409e-05
3.014724726e-05
3.015652683e-05
3.014013949e-05
2.974360105e-05
2.978924395e-05
2.984243894e-05
2.988892067e-05
2.991683633e-05
2.991941518e-05
2.989623049e-05
2.985453392e-05
2.981049346e-05
2.972908649e-05
2.972849103e-05
2.97187439e-05
2.969307593e-05
2.964753416e-05
2.958372377e-05
2.95062627e-05
2.942997223e-05
2.938073996e-05
2.952500995e-05
2.94876548e-05
2.943024798e-05
2.935444641e-05
2.926237036e-05
2.917174945e-05
2.910742009e-05
2.908000189e-05
2.914064241e-05
2.918644734e-05
2.912650374e-05
2.904859718e-05
2.897475523e-05
2.892045713e-05
2.894081454e-05
2.9118236e-05
2.93054885e-05
2.943921697e-05
2.884851127e-05
2.881204437e-05
2.879810772e-05
2.891745974e-05
2.910721847e-05
2.932729546e-05
2.955625213e-05
2.974302373e-05
2.98513008e-05
2.905342672e-05
2.914074945e-05
2.927651084e-05
2.946591592e-05
2.967795223e-05
2.988037689e-05
3.004689391e-05
3.015596466e-05
3.020240976e-05
2.976834467e-05
2.986426215e-05
2.999521044e-05
3.014379122e-05
3.028390771e-05
3.03905761e-05
3.04469872e-05
3.045081657e-05
3.042380583e-05
3.056297554e-05
3.062197707e-05
3.069243375e-05
3.075418702e-05
3.078561122e-05
3.076970726e-05
3.070091227e-05
3.059319842e-05
3.049174973e-05
3.126013057e-05
3.126556972e-05
3.125637465e-05
3.121556942e-05
3.112758965e-05
3.098394421e-05
3.079006101e-05
3.057436223e-05
3.040248496e-05
3.17869369e-05
3.173443206e-05
3.164151646e-05
3.149648025e-05
3.129070067e-05
3.10242533e-05
3.071283245e-05
3.039760831e-05
3.016182574e-05
3.211580465e-05
3.200656718e-05
3.183279147e-05
3.158874306e-05
3.127296649e-05
3.08937828e-05
3.047621332e-05
3.007246515e-05
2.978059371e-05
3.224056333e-05
3.207859834e-05
3.183033291e-05
3.149610262e-05
3.108142683e-05
3.060228552e-05
3.009195261e-05
2.961194762e-05
2.927240139e-05
3.216641507e-05
3.195722471e-05
3.164272701e-05
3.122909092e-05
3.072835507e-05
3.016339716e-05
2.957459116e-05
2.903106503e-05
2.865240026e-05
3.190532243e-05
3.165520539e-05
3.128371296e-05
3.080240986e-05
3.022923121e-05
2.959308496e-05
2.894026463e-05
2.834586434e-05
2.793645306e-05
3.147354396e-05
3.118914831e-05
3.077028432e-05
3.023334883e-05
2.960144896e-05
2.890860302e-05
2.82058588e-05
2.757273283e-05
2.714052211e-05
3.089004438e-05
3.057804647e-05
3.012138767e-05
2.954065927e-05
2.886336402e-05
2.812770133e-05
2.738835814e-05
2.67278566e-05
2.628019526e-05
3.017530206e-05
2.984216499e-05
2.935691683e-05
2.874367197e-05
2.803353977e-05
2.72679965e-05
2.650432974e-05
2.582679653e-05
2.537031915e-05
2.935034685e-05
2.900214087e-05
2.849689802e-05
2.78615829e-05
2.713014106e-05
2.634647236e-05
2.556952151e-05
2.488416587e-05
2.442472636e-05
2.843597578e-05
2.807825199e-05
2.7560833e-05
2.69128843e-05
2.617045927e-05
2.53790977e-05
2.459856406e-05
2.391339991e-05
2.34560468e-05
2.745213145e-05
2.70898424e-05
2.656718922e-05
2.591493095e-05
2.517055948e-05
2.438055234e-05
2.360476706e-05
2.292660816e-05
2.247559378e-05
2.641743527e-05
2.60548957e-05
2.553302815e-05
2.488363279e-05
2.414504024e-05
2.336405111e-05
2.259999968e-05
2.193449848e-05
2.149331409e-05
2.534886475e-05
2.498974522e-05
2.447376043e-05
2.383326151e-05
2.310689316e-05
2.234125328e-05
2.159464257e-05
2.094636136e-05
2.051779089e-05
2.426155952e-05
2.390890573e-05
2.340301199e-05
2.277635586e-05
2.206744764e-05
2.132224315e-05
2.059759842e-05
1.997010228e-05
1.9556288e-05
2.316873651e-05
2.282500709e-05
2.233258247e-05
2.172370764e-05
2.103638433e-05
2.031556851e-05
1.961634829e-05
1.90123095e-05
1.861482422e-05
2.208169461e-05
2.174881205e-05
2.127247979e-05
2.068441356e-05
2.00218017e-05
1.932831681e-05
1.865703773e-05
1.807834756e-05
1.769826927e-05
2.100988648e-05
2.068929436e-05
2.02310059e-05
1.966596896e-05
1.903031771e-05
1.836622513e-05
1.772458879e-05
1.71724676e-05
1.681045224e-05
1.99610363e-05
1.96537594e-05
1.921488096e-05
1.86743952e-05
1.80671984e-05
1.743380623e-05
1.682282233e-05
1.629792517e-05
1.595427549e-05
1.894129024e-05
1.864799453e-05
1.822939281e-05
1.771438631e-05
1.71364995e-05
1.653448346e-05
1.59545853e-05
1.545709991e-05
1.513182898e-05
1.795538385e-05
1.767643361e-05
1.727855665e-05
1.678946219e-05
1.624121175e-05
1.567072697e-05
1.512187702e-05
1.46516127e-05
1.434450089e-05
1.700681473e-05
1.674232538e-05
1.636527712e-05
1.590212234e-05
1.538340444e-05
1.484418606e-05
1.432597026e-05
1.388243661e-05
1.359308185e-05
1.609801276e-05
1.584789849e-05
1.549150565e-05
1.505399357e-05
1.456436211e-05
1.405581392e-05
1.356752431e-05
1.31499997e-05
1.287786093e-05
1.523050177e-05
1.499451757e-05
1.465838851e-05
1.424596801e-05
1.378471114e-05
1.330598245e-05
1.28466882e-05
1.245427837e-05
1.219871246e-05
1.440504897e-05
1.418282701e-05
1.386640252e-05
1.347832899e-05
1.304453466e-05
1.259458569e-05
1.216319327e-05
1.179488063e-05
1.155517332e-05
1.362179982e-05
1.341288049e-05
1.311547697e-05
1.275086365e-05
1.234347484e-05
1.192113154e-05
1.151643493e-05
1.117111942e-05
1.094651083e-05
1.288039771e-05
1.268425559e-05
1.240510118e-05
1.206296195e-05
1.168082253e-05
1.128482193e-05
1.09055438e-05
1.058207628e-05
1.037178162e-05
1.218008822e-05
1.19961536e-05
1.173441794e-05
1.141370254e-05
1.105559482e-05
1.068462188e-05
1.032944692e-05
1.002665601e-05
9.829882111e-06
1.151980882e-05
1.134748522e-05
1.110230371e-05
1.080192616e-05
1.046660116e-05
1.011931834e-05
9.786919852e-06
9.503633122e-06
9.319591386e-06
1.089826502e-05
1.073694326e-05
1.050743637e-05
1.022629778e-05
9.912499169e-06
9.58756975e-06
9.276630389e-06
9.011690809e-06
8.839607207e-06
1.031399422e-05
1.016306348e-05
9.948352076e-06
9.68535837e-06
9.391841241e-06
9.087947329e-06
8.797175041e-06
8.549453442e-06
8.388575953e-06
9.76541857e-06
9.624275075e-06
9.423492167e-06
9.177567843e-06
8.90311295e-06
8.618969113e-06
8.347109011e-06
8.115513259e-06
7.965117281e-06
9.250888429e-06
9.118941926e-06
8.931241624e-06
8.701340006e-06
8.444764394e-06
8.179127671e-06
7.924970626e-06
7.708452109e-06
7.567844183e-06
8.768717431e-06
8.645396067e-06
8.469960106e-06
8.255070832e-06
8.015235468e-06
7.766912426e-06
7.529300975e-06
7.326858926e-06
7.195379124e-06
8.317210608e-06
8.201964359e-06
8.038006737e-06
7.837160972e-06
7.612975948e-06
7.380827367e-06
7.158659479e-06
6.969343576e-06
6.846366818e-06
7.894686527e-06
7.786989527e-06
7.633759577e-06
7.446033408e-06
7.236461222e-06
7.019404892e-06
6.811636036e-06
6.634547638e-06
6.519484179e-06
7.49949446e-06
7.398846436e-06
7.255630678e-06
7.080147059e-06
6.884204363e-06
6.681216396e-06
6.486860284e-06
6.321152617e-06
6.213447893e-06
7.130027425e-06
7.03595442e-06
6.90207744e-06
6.738007018e-06
6.554765178e-06
6.364880172e-06
6.183008478e-06
6.02788602e-06
5.927020011e-06
6.78473181e-06
6.69678637e-06
6.571610953e-06
6.41817201e-06
6.246756758e-06
6.069067083e-06
5.898808399e-06
5.753525664e-06
5.659011899e-06
6.462114224e-06
6.379875163e-06
6.262801854e-06
6.119259596e-06
5.958849987e-06
5.79250442e-06
5.633042641e-06
5.496902529e-06
5.408286838e-06
6.160746084e-06
6.083817937e-06
5.974284176e-06
5.839949525e-06
5.689776395e-06
5.533978279e-06
5.384550583e-06
5.256902429e-06
5.173761526e-06
5.879266396e-06
5.80727864e-06
5.704757584e-06
5.578985624e-06
5.438329684e-06
5.292334753e-06
5.152229311e-06
5.032466731e-06
4.954406685e-06
5.616383084e-06
5.5489892e-06
5.45298833e-06
5.335176497e-06
5.203366183e-06
5.066480175e-06
4.935033681e-06
4.822592306e-06
4.749246956e-06
5.370873183e-06
5.307749602e-06
5.217809186e-06
5.107395308e-06
4.983804481e-06
4.855380616e-06
4.731975724e-06
4.626330877e-06
4.557360231e-06
5.14158214e-06
5.082427134e-06
4.998118597e-06
4.894578838e-06
4.7786244e-06
4.658060797e-06
4.542123531e-06
4.442787896e-06
4.377876534e-06
4.927422449e-06
4.871954973e-06
4.792879233e-06
4.695726e-06
4.586865479e-06
4.47360257e-06
4.364599738e-06
4.271121064e-06
4.209976579e-06
4.72737176e-06
4.675330294e-06
4.601116085e-06
4.50989593e-06
4.407625088e-06
4.301143058e-06
4.198579721e-06
4.11053858e-06
4.052890063e-06
4.540470627e-06
4.491612024e-06
4.421914238e-06
4.336205797e-06
4.240056274e-06
4.139872566e-06
4.043289579e-06
3.960297201e-06
3.905893787e-06
4.365819992e-06
4.319918347e-06
4.254416413e-06
4.173828394e-06
4.083365426e-06
3.989032325e-06
3.898003969e-06
3.819700167e-06
3.768309648e-06
4.202578495e-06
4.159424053e-06
4.097820367e-06
4.021989607e-06
3.936809827e-06
3.847912143e-06
3.762043858e-06
3.688095054e-06
3.639502557e-06
4.049959687e-06
4.009357787e-06
3.951376205e-06
3.879965804e-06
3.799695136e-06
3.715847993e-06
3.634774227e-06
3.564871575e-06
3.51887832e-06
3.907229195e-06
3.868999264e-06
3.814383658e-06
3.747081204e-06
3.671372862e-06
3.592219598e-06
3.51560177e-06
3.44945939e-06
3.405881515e-06
3.773701896e-06
3.737676485e-06
3.686189376e-06
3.622705256e-06
3.551237845e-06
3.47644803e-06
3.403972602e-06
3.341325918e-06
3.299993383e-06
3.64873911e-06
3.61476299e-06
3.566184252e-06
3.506250057e-06
3.438725783e-06
3.367993348e-06
3.299370023e-06
3.2399742e-06
3.200729759e-06
3.531745874e-06
3.499675176e-06
3.45380081e-06
3.397167833e-06
3.333310817e-06
3.266352301e-06
3.201312328e-06
3.144940817e-06
3.107639055e-06
3.422168281e-06
3.391869689e-06
3.348510674e-06
3.294948497e-06
3.234503197e-06
3.171056099e-06
3.109350687e-06
3.055793862e-06
3.020300307e-06
3.319490919e-06
3.290840911e-06
3.249822127e-06
3.199117301e-06
3.141847028e-06
3.081668272e-06
3.023067113e-06
2.972131005e-06
2.938321291e-06
3.223234416e-06
3.196118557e-06
3.157277773e-06
3.109232577e-06
3.054918116e-06
2.997782617e-06
2.942072511e-06
2.893577625e-06
2.861336725e-06
3.132953096e-06
3.107265373e-06
3.070452307e-06
3.024883595e-06
2.973321913e-06
2.919021238e-06
2.866004808e-06
2.819785031e-06
2.789006542e-06
3.04823275e-06
3.023874955e-06
2.988950389e-06
2.945688514e-06
2.896691561e-06
2.845032688e-06
2.794527191e-06
2.750428774e-06
2.721014253e-06
2.968688521e-06
2.94556967e-06
2.912404638e-06
2.871292447e-06
2.82468604e-06
2.775490203e-06
2.727326426e-06
2.685207043e-06
2.657065393e-06
2.893962907e-06
2.871998711e-06
2.840473731e-06
2.801365637e-06
2.756988419e-06
2.710090036e-06
2.66411127e-06
2.623839145e-06
2.596886055e-06
2.82372388e-06
2.802836241e-06
2.772840611e-06
2.735601728e-06
2.693304209e-06
2.648549885e-06
2.604610981e-06
2.566064083e-06
2.540221495e-06
2.757663118e-06
2.737779668e-06
2.709210808e-06
2.673716146e-06
2.633359809e-06
2.590607421e-06
2.548573905e-06
2.511639203e-06
2.486834836e-06
2.69549434e-06
2.676548011e-06
2.649310855e-06
2.615444578e-06
2.576901053e-06
2.536018893e-06
2.495766162e-06
2.460338932e-06
2.436505836e-06
2.636951751e-06
2.61888038e-06
2.592886809e-06
2.560541548e-06
2.523691848e-06
2.484557837e-06
2.445970402e-06
2.411953599e-06
2.38902974e-06
2.581788587e-06
2.564534545e-06
2.539702869e-06
2.508779083e-06
2.473512892e-06
2.436013853e-06
2.398984653e-06
2.366288316e-06
2.344216203e-06
2.529775751e-06
2.513285605e-06
2.489540077e-06
2.459945465e-06
2.426160492e-06
2.390191475e-06
2.354621234e-06
2.323161953e-06
2.301888285e-06
2.480700545e-06
2.464924742e-06
2.442195113e-06
2.413844072e-06
2.381445442e-06
2.346909108e-06
2.312705747e-06
2.282406164e-06
2.261881514e-06
2.434365483e-06
2.419258059e-06
2.397479168e-06
2.370292289e-06
2.339191991e-06
2.305998037e-06
2.273076138e-06
2.24386449e-06
2.224043008e-06
2.390587181e-06
2.376105495e-06
2.355216887e-06
2.329120494e-06
2.299236868e-06
2.267301508e-06
2.235581812e-06
2.207391515e-06
2.188230665e-06
2.349195321e-06
2.335299806e-06
2.315245386e-06
2.290171114e-06
2.261428382e-06
2.230673863e-06
2.200082821e-06
2.172852088e-06
2.1543124e-06
2.310031679e-06
2.296685618e-06
2.277413327e-06
2.253297729e-06
2.225625566e-06
2.195979729e-06
2.166449086e-06
2.140120583e-06
2.122165435e-06
2.272949205e-06
2.260118519e-06
2.241580042e-06
2.218364234e-06
2.191697372e-06
2.163093255e-06
2.134559675e-06
2.109080208e-06
2.091675631e-06
2.23781115e-06
2.225464208e-06
2.2076147e-06
2.185244031e-06
2.159521902e-06
2.131897371e-06
2.104302102e-06
2.079622339e-06
2.062736837e-06
2.204490218e-06
2.192597661e-06
2.175395498e-06
2.153819251e-06
2.128985657e-06
2.102283078e-06
2.075571641e-06
2.051645862e-06
2.035250264e-06
2.172867741e-06
2.161402312e-06
2.144808861e-06
2.123979972e-06
2.099982782e-06
2.074148718e-06
2.048270635e-06
2.025056512e-06
2.009123839e-06
2.142832842e-06
2.131769234e-06
2.115748632e-06
2.095623427e-06
2.072414291e-06
2.04739922e-06
2.022307761e-06
1.999766161e-06
1.984271507e-06
2.114281574e-06
2.103596277e-06
2.08811522e-06
2.068653164e-06
2.046187242e-06
2.021945289e-06
1.99759723e-06
1.975692028e-06
1.960612461e-06
2.087116002e-06
2.076787153e-06
2.061814683e-06
2.042978124e-06
2.021213812e-06
1.997702477e-06
1.974057864e-06
1.952755767e-06
1.938070227e-06
2.061243207e-06
2.051250432e-06
2.036757715e-06
2.018511615e-06
1.997410251e-06
1.974590123e-06
1.951612013e-06
1.930882358e-06
1.916571551e-06
2.036574167e-06
2.026898406e-06
2.012858485e-06
1.995170122e-06
1.974695657e-06
1.952530082e-06
1.930184242e-06
1.909998766e-06
1.896045031e-06
2.013022492e-06
2.003645802e-06
1.990033312e-06
1.972871928e-06
1.952990537e-06
1.931445214e-06
1.909699748e-06
1.890032282e-06
1.876419413e-06
1.990502977e-06
1.981408294e-06
1.968199123e-06
1.9515355e-06
1.932215097e-06
1.911257573e-06
1.890082433e-06
1.870908495e-06
1.85762149e-06
1.96892994e-06
1.960100796e-06
1.94727167e-06
1.931077606e-06
1.912287239e-06
1.89188626e-06
1.871252611e-06
1.852548858e-06
1.839573559e-06
1.948215338e-06
1.939635512e-06
1.927163483e-06
1.911411143e-06
1.893120233e-06
1.873244919e-06
1.853124303e-06
1.834867787e-06
1.822190393e-06
1.928266625e-06
1.919919722e-06
1.907781549e-06
1.892442664e-06
1.874620061e-06
1.855238856e-06
1.835602127e-06
1.81776933e-06
1.805375735e-06
1.90898439e-06
1.900853335e-06
1.889024732e-06
1.874069627e-06
1.856682451e-06
1.837761831e-06
1.818577815e-06
1.801143416e-06
1.789018353e-06
1.890259766e-06
1.882326205e-06
1.870780953e-06
1.856177394e-06
1.839189645e-06
1.82069256e-06
1.801926422e-06
1.78486178e-06
1.772987748e-06
1.871971679e-06
1.864215287e-06
1.852924203e-06
1.838636052e-06
1.822006993e-06
1.803891031e-06
1.785502349e-06
1.76877369e-06
1.757129666e-06
1.85398399e-06
1.846381692e-06
1.835311466e-06
1.821297163e-06
1.804979481e-06
1.787194789e-06
1.769135346e-06
1.75270168e-06
1.741261619e-06
1.836142636e-06
1.828667752e-06
1.817779673e-06
1.803990566e-06
1.787928358e-06
1.770415348e-06
1.752626708e-06
1.736437524e-06
1.725168697e-06
1.818272884e-06
1.810894221e-06
1.800142824e-06
1.786521408e-06
1.770648054e-06
1.753334986e-06
1.73574593e-06
1.719738767e-06
1.708599997e-06
1.800176843e-06
1.79285777e-06
1.782189463e-06
1.768667598e-06
1.752903613e-06
1.735704174e-06
1.718228145e-06
1.702326165e-06
1.691266065e-06
1.781631411e-06
1.774328959e-06
1.763680702e-06
1.750177904e-06
1.734428914e-06
1.717239949e-06
1.699772669e-06
1.683882422e-06
1.672837784e-06
1.76238686e-06
1.755050916e-06
1.744349032e-06
1.730770968e-06
1.714925944e-06
1.697625534e-06
1.680043065e-06
1.664052683e-06
1.652947185e-06
1.742166224e-06
1.734738888e-06
1.723898148e-06
1.710135502e-06
1.694065492e-06
1.676511632e-06
1.658669081e-06
1.642447189e-06
1.631190655e-06
1.720665763e-06
1.713080951e-06
1.702004043e-06
1.687931937e-06
1.671489521e-06
1.653519692e-06
1.635250976e-06
1.618646617e-06
1.607135061e-06
1.697556742e-06
1.689740144e-06
1.678317695e-06
1.66379587e-06
1.646815605e-06
1.628247564e-06
1.609366541e-06
1.592210513e-06
1.580327244e-06
1.672488804e-06
1.664358307e-06
1.652469636e-06
1.637343643e-06
1.619643796e-06
1.600277923e-06
1.580581288e-06
1.562689237e-06
1.550307293e-06
1.645095254e-06
1.636561962e-06
1.624076748e-06
1.608180385e-06
1.589566274e-06
1.569189836e-06
1.548462137e-06
1.529639759e-06
1.516625918e-06
1.615000578e-06
1.605970557e-06
1.592751625e-06
1.575910902e-06
1.556180132e-06
1.534573784e-06
1.512594902e-06
1.492645522e-06
1.478866071e-06
1.581830569e-06
1.572207461e-06
1.558114884e-06