/*--------------------------------*- C++ -*----------------------------------*\
| =========                 |                                                 |
| \\      /  F ield         | OpenFOAM: The Open Source CFD Toolbox           |
|  \\    /   O peration     | Version:  2212                                  |
|   \\  /    A nd           | Website:  www.openfoam.com                      |
|    \\/     M anipulation  |                                                 |
\*---------------------------------------------------------------------------*/
FoamFile
{
    version     2.0;
    format      ascii;
    arch        "LSB;label=32;scalar=64";
    class       volScalarField;
    location    "30.00000000";
    object      C5H6;
}
// * * * * * * * * * * * * * * * * * * * * * * * * * * * * * * * * * * * * * //

dimensions      [0 0 0 0 0 0 0];

internalField   nonuniform List<scalar> 
3000
(
1.715428429e-20
1.927129183e-20
2.24657722e-20
2.672251311e-20
3.199797876e-20
3.814852708e-20
4.48032991e-20
5.115248964e-20
5.564160753e-20
6.440719942e-20
7.264727104e-20
8.507574652e-20
1.016734718e-19
1.224224705e-19
1.472058305e-19
1.755913815e-19
2.061491493e-19
2.332148425e-19
1.442795465e-19
1.6401555e-19
1.940669821e-19
2.348662952e-19
2.871417399e-19
3.516443569e-19
4.281121846e-19
5.122553827e-19
5.841580838e-19
2.748403605e-19
3.157061949e-19
3.788434539e-19
4.663821758e-19
5.814112959e-19
7.268359053e-19
9.018440535e-19
1.092432504e-18
1.24625421e-18
4.881013797e-19
5.675520615e-19
6.922361716e-19
8.684787185e-19
1.104553271e-18
1.407055998e-18
1.770915028e-18
2.157295879e-18
2.453904216e-18
8.394304558e-19
9.885494178e-19
1.225924723e-18
1.566700096e-18
2.02904952e-18
2.624613871e-18
3.335624432e-18
4.072450535e-18
4.617607841e-18
1.425246075e-18
1.699152872e-18
2.14024964e-18
2.780633383e-18
3.655955392e-18
4.783623265e-18
6.117008397e-18
7.471765851e-18
8.449287371e-18
2.412375314e-18
2.908045271e-18
3.713348729e-18
4.891500578e-18
6.508160145e-18
8.586569656e-18
1.102243658e-17
1.34612081e-17
1.519150573e-17
4.090077595e-18
4.97758297e-18
6.428759271e-18
8.562462999e-18
1.14953772e-17
1.525556134e-17
1.963057277e-17
2.396519847e-17
2.700670351e-17
6.95979562e-18
8.536481163e-18
1.112617359e-17
1.494584047e-17
2.019894104e-17
2.691553526e-17
3.468672696e-17
4.232987295e-17
4.765341717e-17
1.189198651e-17
1.467702752e-17
1.926544564e-17
2.604573152e-17
3.536897867e-17
4.726063649e-17
6.096112359e-17
7.436770954e-17
8.366155546e-17
2.039919111e-17
2.529861871e-17
3.338683594e-17
4.535049896e-17
6.179114809e-17
8.271333137e-17
1.067358565e-16
1.301614793e-16
1.46366523e-16
3.511237403e-17
4.370823445e-17
5.791739144e-17
7.894324348e-17
1.078088867e-16
1.444515076e-16
1.863751006e-16
2.271423861e-16
2.554498262e-16
6.060946544e-17
7.566722608e-17
1.005828471e-16
1.374601912e-16
1.880330764e-16
2.520354315e-16
3.248370373e-16
3.95125121e-16
4.452622993e-16
1.048492699e-16
1.312042717e-16
1.748612641e-16
2.395298112e-16
3.282221068e-16
4.402482218e-16
5.664449487e-16
6.825276514e-16
7.773127943e-16
1.816377783e-16
2.277173316e-16
3.041459624e-16
4.175605572e-16
5.736124813e-16
7.722740055e-16
1.001265077e-15
1.229915015e-15
1.373343753e-15
3.148785725e-16
3.952779628e-16
5.287018965e-16
7.267523972e-16
9.991767975e-16
1.34532028e-15
1.741391949e-15
2.125426791e-15
2.386252405e-15
5.46005598e-16
6.860207626e-16
9.184070961e-16
1.263284327e-15
1.737326011e-15
2.33875154e-15
3.025285873e-15
3.689322701e-15
4.143879038e-15
9.469101974e-16
1.190446233e-15
1.594666261e-15
2.194460542e-15
3.018555999e-15
4.06345517e-15
5.255426117e-15
6.40793112e-15
7.197387774e-15
1.642381789e-15
2.065686615e-15
2.768326566e-15
3.810867176e-15
5.243021446e-15
7.05840848e-15
9.128718691e-15
1.113002427e-14
1.250076155e-14
2.849066571e-15
3.584569902e-15
4.805506766e-15
6.617058629e-15
9.105389693e-15
1.225906187e-14
1.58548333e-14
1.932999358e-14
2.170981857e-14
4.943118213e-15
6.220823546e-15
8.341935495e-15
1.148911386e-14
1.581174945e-14
2.128944587e-14
2.753386218e-14
3.356764553e-14
3.769888717e-14
8.577674936e-15
1.079703509e-14
1.448150009e-14
1.994819518e-14
2.745609035e-14
3.696888627e-14
4.781125585e-14
5.828589063e-14
6.545678128e-14
1.48868615e-14
1.874158959e-14
2.514099649e-14
3.463541318e-14
4.767351291e-14
6.419062404e-14
8.301258204e-14
1.011925276e-13
1.136366661e-13
2.583995139e-14
3.253470412e-14
4.364850589e-14
6.013583443e-14
8.2773363e-14
1.114453311e-13
1.441102194e-13
1.756529519e-13
1.972392213e-13
4.485606185e-14
5.648253212e-14
7.5781675e-14
1.044076834e-13
1.437033945e-13
1.934600544e-13
2.501274215e-13
3.04829746e-13
3.422542823e-13
7.787053201e-14
9.806000579e-14
1.315683254e-13
1.812594388e-13
2.494508677e-13
3.357623955e-13
4.340184552e-13
5.288243124e-13
5.936592323e-13
1.351828536e-13
1.702373577e-13
2.284046024e-13
3.146362682e-13
4.329221244e-13
5.825606099e-13
7.528051145e-13
9.169691314e-13
1.029171807e-12
2.346550342e-13
2.95505718e-13
3.964470429e-13
5.460247938e-13
7.510847021e-13
1.010312105e-12
1.304995453e-12
1.588910286e-12
1.782805029e-12
4.07237498e-13
5.128292704e-13
6.879166336e-13
9.47212653e-13
1.302410874e-12
1.751005869e-12
2.260396512e-12
2.750601956e-12
3.085011148e-12
7.064943855e-13
8.896211961e-13
1.193107039e-12
1.642202607e-12
2.256764436e-12
3.031936974e-12
3.910880572e-12
4.755409049e-12
5.330677038e-12
1.224975561e-12
1.542308113e-12
2.067828442e-12
2.844692961e-12
3.906360484e-12
5.243277371e-12
6.756285486e-12
8.207105689e-12
9.193433367e-12
2.122257627e-12
2.671503626e-12
3.58024544e-12
4.921851151e-12
6.752141111e-12
9.052090192e-12
1.164865531e-11
1.413204043e-11
1.581611725e-11
3.672769933e-12
4.621886286e-12
6.190383141e-12
8.502151527e-12
1.164913744e-11
1.559315505e-11
2.003226266e-11
2.426409975e-11
2.712486235e-11
6.346967819e-12
7.983570156e-12
1.068422773e-11
1.465638752e-11
2.004905493e-11
2.678534827e-11
3.433887521e-11
4.15111206e-11
4.634106285e-11
1.094833785e-11
1.376262951e-11
1.83982476e-11
2.519894353e-11
3.440122552e-11
4.585058183e-11
5.863110022e-11
7.070886689e-11
7.880526318e-11
1.884318906e-11
2.366589236e-11
3.159217342e-11
4.318443583e-11
5.880818334e-11
7.815489526e-11
9.963617082e-11
1.198236399e-10
1.332850375e-10
3.234338923e-11
4.057276895e-11
5.406220455e-11
7.371776155e-11
1.000849162e-10
1.325542029e-10
1.683846004e-10
2.018437002e-10
2.240219834e-10
5.533897068e-11
6.931008247e-11
9.213949168e-11
1.252601892e-10
1.694487329e-10
2.235183737e-10
2.827711417e-10
3.377117735e-10
3.73890198e-10
9.433501433e-11
1.179123701e-10
1.562982699e-10
2.117096126e-10
2.851795658e-10
3.744373039e-10
4.715006633e-10
5.608079016e-10
6.192024321e-10
1.601358044e-10
1.996509106e-10
2.637160967e-10
3.556719243e-10
4.767516195e-10
6.226955579e-10
7.800841468e-10
9.237101746e-10
1.016927688e-09
2.705536194e-10
3.362650479e-10
4.423011994e-10
5.935393547e-10
7.91164357e-10
1.027357292e-09
1.279831112e-09
1.508263241e-09
1.655399205e-09
4.547199311e-10
5.630499244e-10
7.369503575e-10
9.832730651e-10
1.302518133e-09
1.680657223e-09
2.08117384e-09
2.440402745e-09
2.670027745e-09
7.598703855e-10
9.367731468e-10
1.219153629e-09
1.616181708e-09
2.12632071e-09
2.724983472e-09
3.353196672e-09
3.911761932e-09
4.266137495e-09
1.261897359e-09
1.547845574e-09
2.001557763e-09
2.63453648e-09
3.440621463e-09
4.377715535e-09
5.351986666e-09
6.210884505e-09
6.751872837e-09
2.081561075e-09
2.538806003e-09
3.259789342e-09
4.257622732e-09
5.516913214e-09
6.967215221e-09
8.461445992e-09
9.767966486e-09
1.058526757e-08
3.4090813e-09
4.132058481e-09
5.26478975e-09
6.819874439e-09
8.764902461e-09
1.09845542e-08
1.325161394e-08
1.521855809e-08
1.644113694e-08
5.540972917e-09
6.671006452e-09
8.430217891e-09
1.082617251e-08
1.379684026e-08
1.715732366e-08
2.056147339e-08
2.349372067e-08
2.530559995e-08
8.934540742e-09
1.068036897e-08
1.338125341e-08
1.703134421e-08
2.151927607e-08
2.655427262e-08
3.16158433e-08
3.594694991e-08
3.860897217e-08
1.428754566e-08
1.695368492e-08
2.105354062e-08
2.655355144e-08
3.326303439e-08
4.073277341e-08
4.818952414e-08
5.453201345e-08
5.841176929e-08
2.265337549e-08
2.667900523e-08
3.283425851e-08
4.103481939e-08
5.096615381e-08
6.194546994e-08
7.283665338e-08
8.205105076e-08
8.766401879e-08
3.560583588e-08
4.161779669e-08
5.076165463e-08
6.286670469e-08
7.742973092e-08
9.342819337e-08
1.092095501e-07
1.224991437e-07
1.305654741e-07
5.54727182e-08
6.435751195e-08
7.780526124e-08
9.550543311e-08
1.166734036e-07
1.39798562e-07
1.624994196e-07
1.815404931e-07
1.930637377e-07
8.566252767e-08
9.86629633e-08
1.182533624e-07
1.439059783e-07
1.744245105e-07
2.076046353e-07
2.400425846e-07
2.671630139e-07
2.835381506e-07
1.311127225e-07
1.499580837e-07
1.782454491e-07
2.151192166e-07
2.587894175e-07
3.060742862e-07
3.521447467e-07
3.905642899e-07
4.13722557e-07
1.989148825e-07
2.259955597e-07
2.665061172e-07
3.19107183e-07
3.811630027e-07
4.481245086e-07
5.131841854e-07
5.673273135e-07
5.999190087e-07
2.991661219e-07
3.377662122e-07
3.953394533e-07
4.698449756e-07
5.574530737e-07
6.517110147e-07
7.430716068e-07
8.189581859e-07
8.645726797e-07
4.461238188e-07
5.007292246e-07
5.819692507e-07
6.867982591e-07
8.097103419e-07
9.416077958e-07
1.069157755e-06
1.174892783e-06
1.238345274e-06
6.597577045e-07
7.364603705e-07
8.503254062e-07
9.968780732e-07
1.168264538e-06
1.351720346e-06
1.528716481e-06
1.675144284e-06
1.762882307e-06
9.678073795e-07
1.074826259e-06
1.233382577e-06
1.43697581e-06
1.67447412e-06
1.928070836e-06
2.172191637e-06
2.373790663e-06
2.494438702e-06
1.408446328e-06
1.556781213e-06
1.776144491e-06
2.057182185e-06
2.384236023e-06
2.732661974e-06
3.067423414e-06
3.343478712e-06
3.50853251e-06
2.033618522e-06
2.237857863e-06
2.53936962e-06
2.924843469e-06
3.372472798e-06
3.848436125e-06
4.305026921e-06
4.68112714e-06
4.905842671e-06
2.913113622e-06
3.192457949e-06
3.604207934e-06
4.129671362e-06
4.738784814e-06
5.385460442e-06
6.005069453e-06
6.515020828e-06
6.819561813e-06
4.139551867e-06
4.519142057e-06
5.077938928e-06
5.790022804e-06
6.614313191e-06
7.488398796e-06
8.325152273e-06
9.013416332e-06
9.424319565e-06
5.834432045e-06
6.347003241e-06
7.100794985e-06
8.060268444e-06
9.169743067e-06
1.034522892e-05
1.146984449e-05
1.239458698e-05
1.294660889e-05
8.155099334e-06
8.84292511e-06
9.853641947e-06
1.113902596e-05
1.262422268e-05
1.419691441e-05
1.570110903e-05
1.693790886e-05
1.767628568e-05
1.130228897e-05
1.221937762e-05
1.356616405e-05
1.527786497e-05
1.725466098e-05
1.934735936e-05
2.134892665e-05
2.299507078e-05
2.397815033e-05
1.552784256e-05
1.674231558e-05
1.852500947e-05
2.078973627e-05
2.340449374e-05
2.617252836e-05
2.88207581e-05
3.099983089e-05
3.230189168e-05
2.114205652e-05
2.273849999e-05
2.508105503e-05
2.805613422e-05
3.149065954e-05
3.512715227e-05
3.860792324e-05
4.147407878e-05
4.318794157e-05
2.851990054e-05
3.060141491e-05
3.365481946e-05
3.753176282e-05
4.20072547e-05
4.674712942e-05
5.12866131e-05
5.502755348e-05
5.726635008e-05
3.810531423e-05
4.079485709e-05
4.47389201e-05
4.97453832e-05
5.552427279e-05
6.164571885e-05
6.751131359e-05
7.23487152e-05
7.524599962e-05
5.041263458e-05
5.385316808e-05
5.889642428e-05
6.529555131e-05
7.267999644e-05
8.050197963e-05
8.799903092e-05
9.418514575e-05
9.789254012e-05
6.602403958e-05
7.037695145e-05
7.675390016e-05
8.484005165e-05
9.416593087e-05
0.0001040405533
0.0001135037576
0.0001213133323
0.0001259952063
8.558162894e-05
9.102291947e-05
9.898788724e-05
0.0001090779237
0.0001207035081
0.000133002554
0.0001447816953
0.0001544992355
0.0001603247943
0.0001097725062
0.0001164863423
0.0001263034633
0.0001387230912
0.0001530120605
0.0001681077075
0.0001825481382
0.0001944516072
0.0002015859008
0.0001393052377
0.0001474746939
0.0001594038506
0.0001744690043
0.0001917679872
0.0002100080125
0.0002274262971
0.0002417668363
0.000250356499
0.0001748766761
0.0001846718386
0.0001989509383
0.0002169448386
0.0002375563344
0.0002592347968
0.0002798891857
0.0002968601035
0.0003070082663
0.0002171294957
0.0002286935706
0.0002455181851
0.0002666655916
0.0002908184115
0.0003161437903
0.000340197056
0.0003599014009
0.0003716565131
0.0002666026041
0.0002800371288
0.0002995393446
0.0003239800435
0.0003517991815
0.0003808556111
0.0004083427324
0.0004307770815
0.0004441181558
0.0003236784839
0.000339028773
0.0003612569354
0.0003890192939
0.0004204882997
0.0004532099166
0.0004840248095
0.0005090709461
0.0005239156248
0.000388530963
0.0004057713425
0.0004306638448
0.0004616350618
0.0004965828449
0.0005327439352
0.0005666301846
0.0005940475854
0.0006102382021
0.0004610586571
0.0004800783817
0.0005074554868
0.0005413793128
0.0005794751445
0.0006186884049
0.0006552420213
0.0006846739043
0.0007019854374
0.0005408493715
0.0005614546274
0.0005910189584
0.0006274974385
0.0006682571209
0.0007099844778
0.0007486684416
0.0007796570154
0.0007978080878
0.000627173461
0.0006490914791
0.0006804358864
0.0007189419014
0.0007617457561
0.0008053210502
0.0008454902556
0.0008774995845
0.0008961672985
0.0007189934539
0.0007418827133
0.0007745066056
0.0008144065707
0.000858527991
0.0009031894527
0.000944123571
0.0009765677805
0.0009954051272
0.0008149956564
0.0008384615423
0.0008717945321
0.000912379287
0.0009570212025
0.001001950554
0.001042891563
0.001075165616
0.001093819789
0.0009136419669
0.0009372564774
0.0009706871706
0.001011208128
0.001055543885
0.001099908321
0.001140099172
0.001171609414
0.001189739434
0.00101323761
0.001036561241
0.001069468448
0.001109175604
0.001152390477
0.001195383756
0.001234104859
0.001264296924
0.001281589461
0.001112008856
0.001134612652
0.001166396197
0.00120457464
0.001245904438
0.001286783735
0.001323384446
0.001351766684
0.001367950892
0.001208184114
0.001229670022
0.001259778623
0.0012957807
0.001334544636
0.001372660548
0.001406583046
0.001432740779
0.001447586305
0.001300072069
0.001320090128
0.001348044463
0.001381315627
0.001416941805
0.001451760845
0.001482558145
0.001506168009
0.001519501883
0.0013861316
0.001404393033
0.001429802858
0.001459900138
0.001491942822
0.001523061507
0.001550407241
0.001571242225
0.001582947874
0.001465029866
0.001481315739
0.001503890792
0.001530493867
0.001558642929
0.001585794418
0.00160948631
0.001627416484
0.001637432863
0.001535686911
0.001549852563
0.001569407726
0.001592323521
0.001616407484
0.00163946273
0.001659422092
0.00167441314
0.00168273294
0.001597307171
0.001609282998
0.001625738736
0.001644901021
0.001664885734
0.001683851944
0.001700122734
0.001712236687
0.001718912371
0.001649400392
0.001659189626
0.001672568704
0.001688034264
0.001704018677
0.001719037922
0.001731796564
0.001741208982
0.001746375781
0.001691797226
0.001699470758
0.001709891244
0.001721834439
0.001734048219
0.001745398037
0.001754967323
0.001761944699
0.001765717653
0.001724669475
0.001730361878
0.00173803094
0.00174674709
0.001755529468
0.001763502199
0.00177000919
0.001774601191
0.001777007747
0.001748599702
0.001752490933
0.001757632518
0.001763291131
0.00176875348
0.001773443517
0.00177700364
0.001779306401
0.001780405294
0.001763964368
0.001766113376
0.001768810229
0.001771534711
0.001773828285
0.00177539482
0.001776166251
0.001776311733
0.001776182505
0.001770845391
0.001771340398
0.001771722319
0.001771682152
0.001771004014
0.001769653865
0.001767833159
0.001765981488
0.001764718878
0.001769479517
0.001768434823
0.001766667793
0.001764071249
0.001760656873
0.001756632573
0.001752445194
0.001748776802
0.001746486089
0.001760247236
0.001757797027
0.001754073437
0.001749157395
0.001743269939
0.001736838356
0.001730528734
0.00172523675
0.001722029505
0.001743651695
0.001739943384
0.001734472699
0.001727492063
0.001719411305
0.00171085289
0.001702675127
0.001695958454
0.001691948755
0.001720293217
0.001715481164
0.001708481316
0.001699699146
0.001689711299
0.001679310455
0.00166952015
0.001661577474
0.001656878672
0.001690842501
0.00168508247
0.001676772332
0.001666451249
0.001654840165
0.001642877094
0.001631724521
0.001622749374
0.00161747146
0.001656014457
0.001649458992
0.001640052144
0.001628447257
0.00161548729
0.001602231447
0.001589956163
0.001580133075
0.00157438064
0.001616544034
0.001609338823
0.001599038691
0.001586392133
0.001572342681
0.001558047858
0.001544874709
0.001534376396
0.001528247166
0.001573164953
0.001565446168
0.001554442484
0.001540979494
0.001526081158
0.001510982078
0.001497118493
0.001486103989
0.001479687854
0.001526591856
0.001518484381
0.00150695088
0.001492877291
0.001477349464
0.00146165972
0.001447294122
0.001435907717
0.001429286208
0.001477506078
0.001469122528
0.001457215685
0.001442716614
0.001426756303
0.001410667415
0.001395968567
0.001384339419
0.001377585526
0.00142654499
0.001417985362
0.001405844006
0.001391083521
0.001374865147
0.001358546522
0.001343663608
0.001331905878
0.001325084149
0.00137429465
0.001365646482
0.001353392074
0.001338513616
0.001322189566
0.001305789135
0.001290852397
0.001279065769
0.001272232617
0.001321285386
0.001312624281
0.001300361678
0.001285489027
0.001269190752
0.001252836083
0.00123795784
0.001226228323
0.001219432472
0.001267989857
0.001259380256
0.00124719881
0.001232437413
0.001216276862
0.001200076595
0.001185352518
0.001173753411
0.001167036435
0.001214823126
0.001206319227
0.001194294077
0.001179732581
0.001163803854
0.001147849299
0.001133359819
0.001121952785
0.001115349692
0.001162144281
0.001153791028
0.001141984468
0.001127696362
0.001112077453
0.001096444286
0.001082256039
0.001071092175
0.001064632013
0.001110259215
0.001102093311
0.001090556199
0.001076601439
0.001061355939
0.001046105816
0.001032273093
0.001021394045
0.001015100512
0.001059424181
0.001051475055
0.001040248136
0.001026674714
0.00101185347
0.0009970356463
0.0009836017884
0.0009730407937
0.0009669328126
0.001009849776
0.00100214049
0.0009912556578
0.0009781010875
0.0009637437767
0.0009493966176
0.0009363953225
0.0009261781931
0.0009202704602
0.0009617052035
0.0009542532966
0.0009437347638
0.0009310274463
0.0009171640142
0.0009033163757
0.0008907729054
0.0008809189429
0.0008752224401
0.0009151225852
0.0009079408351
0.0008978061796
0.0008855666411
0.0008722186095
0.0008588911013
0.000846823387
0.000837346223
0.0008318686879
0.0008702011732
0.0008632982745
0.0008535593836
0.0008418013855
0.0008289830276
0.0008161891507
0.0008046087919
0.0007955171502
0.0007902635071
0.0008270113829
0.0008203925505
0.0008110564564
0.0007997879809
0.0007875073694
0.0007752545338
0.0007641676956
0.0007554660803
0.0007504388291
0.0007855985794
0.0007792660781
0.0007703356942
0.0007595598159
0.0007478197509
0.0007361101812
0.0007255183956
0.0007172077085
0.0007124072763
0.0007459865774
0.0007399401865
0.000731414953
0.000721130605
0.0007099294335
0.0006987609703
0.000688661849
0.0006807399404
0.0006761649964
0.0007081808373
0.0007024182553
0.0006942947041
0.0006844973499
0.0006738296866
0.0006631964947
0.0006535843606
0.0006460465197
0.0006416942564
0.000672171353
0.0006666885506
0.0006589607985
0.0006496430201
0.0006395003801
0.0006293935714
0.000620260017
0.0006130994063
0.0006089657897
0.0006379352382
0.0006327267654
0.0006253869437
0.0006165389556
0.0006069103084
0.0005973184903
0.0005886528689
0.0005818609088
0.0005779409002
0.0006054390243
0.0006004982776
0.0005935369068
0.0005851470041
0.0005760192587
0.0005669290139
0.0005587188724
0.0005522855791
0.0005485733306
0.000574640688
0.0005699601422
0.0005633664574
0.0005554214069
0.0005467798352
0.000538176142
0.0005304075993
0.000524321882
0.0005208109089
0.0005454914273
0.0005410628372
0.0005348250713
0.0005273104515
0.0005191390568
0.0005110056556
0.0005036637336
0.0004979136542
0.0004945969852
0.0005179372083
0.0005137517835
0.0005078574128
0.0005007579091
0.000493039747
0.0004853594591
0.0004784283705
0.0004730013696
0.0004698716785
0.000491920104
0.0004879686597
0.0004824046166
0.000475704277
0.0004684217328
0.0004611767364
0.0004546401343
0.0004495232272
0.0004465729461
0.0004673794444
0.0004636525322
0.0004584053885
0.0004520878442
0.0004452228725
0.0004383949408
0.0004322361335
0.000427416079
0.0004246374966
0.0004442527991
0.0004407408188
0.0004357969435
0.0004298455984
0.0004233799284
0.0004169506341
0.0004111527692
0.0004066162141
0.0004040015593
0.0004224768099
0.0004191701055
0.0004145157993
0.0004089139919
0.0004028293031
0.000396780192
0.0003913264135
0.000387060015
0.000384601528
0.0004019878907
0.0003988768321
0.0003944984419
0.0003892295825
0.0003835076528
0.0003778203911
0.0003726939711
0.0003686845005
0.0003663744926
0.0003827228109
0.0003797978624
0.0003756818778
0.0003707295636
0.0003653523944
0.0003600088916
0.0003551933408
0.0003514277694
0.0003492586726
0.0003646191755
0.0003618709532
0.0003580040868
0.0003533521983
0.0003483021175
0.0003432846282
0.0003387637871
0.0003352293569
0.0003331937644
0.000347615816
0.0003450351353
0.0003414043889
0.0003370371686
0.0003322969151
0.0003275881224
0.0003233462348
0.0003200305158
0.0003181212153
0.000331653103
0.0003292310172
0.0003258237351
0.0003217258513
0.0003172786435
0.0003128617247
0.000308883497
0.0003057744324
0.0003039844319
0.0003166731915
0.0003144010219
0.0003112049341
0.0003073615309
0.0003031911197
0.0002990497989
0.0002953204454
0.0002924063867
0.0002907289341
0.0003026202073
0.0003004895675
0.000297492822
0.0002938895581
0.0002899802677
0.0002860988546
0.0002826041317
0.0002798738646
0.0002783024628
0.000289440384
0.0002874431975
0.0002846343847
0.0002812574617
0.0002775942195
0.0002739576373
0.0002706838677
0.0002681266303
0.0002666550469
0.0002770821574
0.0002752106697
0.0002725788396
0.0002694150215
0.0002659833776
0.000262577182
0.0002595112702
0.0002571167642
0.0002557390379
0.0002654962233
0.0002637430103
0.0002612776829
0.0002583143078
0.0002551004469
0.000251910836
0.0002490402766
0.000246798673
0.0002455091165
0.0002546355658
0.0002529935374
0.0002506847077
0.0002479096933
0.0002449004393
0.0002419142573
0.0002392271367
0.0002371290763
0.0002359222765
0.0002444554594
0.0002429178604
0.0002407559989
0.000238157842
0.0002353406565
0.0002325453909
0.0002300303843
0.0002280669746
0.0002269377902
0.0002349134507
0.0002334738586
0.000231449908
0.0002290176794
0.0002263806553
0.0002237644297
0.0002214107931
0.0002195736019
0.0002185171592
0.0002259693231
0.0002246216434
0.0002227270116
0.0002204503474
0.0002179821985
0.0002155337609
0.0002133313202
0.0002116123655
0.0002106240528
0.0002175850473
0.0002163235076
0.0002145500582
0.0002124191477
0.0002101091945
0.0002078179027
0.0002057570391
0.0002041487779
0.0002032242386
0.0002097247216
0.0002085438629
0.0002068839036
0.0002048894749
0.0002027276282
0.0002005834321
0.0001986550661
0.000197150381
0.0001962855053
0.0002023545031
0.000201249171
0.0001996954404
0.0001978287433
0.0001958054852
0.0001937989078
0.0001919944808
0.0001905866649
0.0001897775815
0.0001954425332
0.0001944078675
0.0001929535201
0.0001912063083
0.000189312672
0.0001874347881
0.0001857462428
0.0001844289844
0.0001836720508
0.0001889588582
0.0001879902822
0.0001866288731
0.0001849933845
0.0001832209326
0.000181463347
0.0001798831071
0.0001786504732
0.0001779422664
0.0001828753478
0.0001819685564
0.0001806940245
0.0001791629616
0.000177503764
0.0001758585885
0.0001743795376
0.0001732259569
0.0001725632636
0.0001771656105
0.000176316559
0.0001751232105
0.0001736897195
0.0001721363301
0.0001705961607
0.0001692116213
0.0001681318675
0.0001675116737
0.0001718049103
0.0001710098018
0.0001698922931
0.0001685499433
0.0001670953777
0.0001656532709
0.0001643569827
0.0001633461574
0.0001627656391
0.0001667700818
0.0001660253559
0.0001649786766
0.0001637214394
0.0001623591516
0.0001610086017
0.0001597947005
0.0001588482163
0.0001583047293
0.0001620394479
0.0001613417684
0.0001603612245
0.0001591834529
0.0001579073127
0.0001566422288
0.0001555052256
0.0001546187898
0.00015410986
0.0001575927385
0.0001569389816
0.0001560201786
0.0001549165873
0.000153720858
0.0001525355415
0.0001514703023
0.0001506399003
0.0001501632145
0.000153411011
0.000152798254
0.0001519370808
0.0001509027259
0.0001497820428
0.0001486711658
0.0001476728911
0.0001468947711
0.0001464481679
0.0001494765737
0.0001489020838
0.0001480946967
0.0001471249568
0.000146074306
0.0001450328898
0.0001440970961
0.0001433677536
0.0001429492143
0.0001457729119
0.0001452341353
0.0001444769428
0.0001435675004
0.0001425821983
0.0001416055932
0.0001407280939
0.0001400442571
0.0001396518975
0.0001422846169
0.0001417791681
0.0001410688163
0.0001402156396
0.0001392913135
0.0001383751792
0.0001375520668
0.0001369106828
0.0001365427447
0.0001389973177
0.00013852297
0.0001378563278
0.0001370556539
0.0001361882231
0.0001353285098
0.0001345561392
0.0001339543602
0.0001336092038
0.0001358976166
0.0001354522921
0.0001348264381
0.0001340747561
0.0001332604142
0.0001324533448
0.0001317283166
0.0001311634874
0.0001308395842
0.0001329730274
0.0001325547877
0.0001319669972
0.0001312610332
0.0001304962307
0.0001297382835
0.000129057429
0.0001285270746
0.0001282229999
0.0001302119171
0.0001298189549
0.0001292666875
0.0001286033893
0.0001278848176
0.0001271727105
0.0001265330765
0.000126034891
0.0001257493176
0.0001276034509
0.0001272340817
0.0001267149696
0.0001260914927
0.0001254160688
0.0001247467438
0.0001241455796
0.000123677415
0.0001234091066
0.0001251375406
0.0001247901947
0.0001243020318
0.0001237157263
0.0001230805784
0.0001224511875
0.0001218859312
0.0001214457876
0.0001211935933
0.0001228047957
0.0001224780112
0.0001220187429
0.000121467141
0.000120869595
0.0001202774864
0.0001197457532
0.000119331769
0.0001190946178
0.0001205964787
0.0001202888944
0.000119856608
0.0001193374123
0.0001187749793
0.0001182176853
0.0001177172562
0.0001173276993
0.0001171045948
0.0001185044634
0.0001182148124
0.0001178077279
0.0001173188011
0.0001167891656
0.0001162643908
0.0001157932021
0.0001154264623
0.0001152164781
0.0001165211961
0.0001162483002
0.0001158647624
0.0001154041171
0.0001149051265
0.0001144107375
0.0001139668714
0.0001136214524
0.000113423728
0.0001146396614
0.0001143824259
0.0001140208967
0.0001135866868
0.0001131163417
0.0001126503574
0.0001122320337
0.0001119065468
0.0001117202838
0.0001128533516
0.0001126107603
0.0001122698125
0.0001118603248
0.0001114167709
0.0001109773543
0.0001105829228
0.0001102760814
0.0001101005401
0.0001111562398
0.0001109273511
0.0001106056624
0.0001102193106
0.0001098008311
0.0001093862825
0.0001090142169
0.0001087248314
0.0001085593284
0.0001095427583
0.0001093267017
0.0001090230503
0.0001086583691
0.0001082633793
0.0001078721305
0.0001075210238
0.0001072479981
0.0001070919039
0.0001080077814
0.0001078037552
0.0001075170162
0.0001071726575
0.0001067997005
0.0001064303113
0.0001060988722
0.0001058412017
0.0001056939398
0.0001065466144
0.0001063538841
0.0001060830275
0.000105757758
0.0001054055026
0.0001050566587
0.0001047437106
0.0001045004809
0.0001043615272
0.0001051549887
0.0001049728862
0.0001047169764
0.0001044096774
0.000104076918
0.0001037474313
0.0001034519131
0.0001032223012
0.0001030911847
0.0001038290635
0.0001036569882
0.000103415185
0.0001031248541
0.0001028105132
0.0001024993252
0.0001022202942
0.0001020035713
0.0001018798762
0.0001025654354
0.0001024028561
0.0001021744182
0.0001019001734
0.000101603307
0.0001013094945
0.0001010461325
0.0001008416692
0.0001007250378
0.0001013611558
0.0001012076142
0.0001009919045
0.0001007329919
0.0001004527977
0.000100175582
9.992720449e-05
9.973447837e-05
9.96246161e-05
0.0001002137566
0.0001000688729
9.986536632e-05
9.96211697e-05
9.935699917e-05
9.909575859e-05
9.886182711e-05
9.868043337e-05
9.857711496e-05
9.912128455e-05
9.898476443e-05
9.879305846e-05
9.856311267e-05
9.831448621e-05
9.806877267e-05
9.78489104e-05
9.767857488e-05
9.758165255e-05
9.808234327e-05
9.795398676e-05
9.777381437e-05
9.755782175e-05
9.732444756e-05
9.709400643e-05
9.688801749e-05
9.672861262e-05
9.663802575e-05
9.709614281e-05
9.697585485e-05
9.680709984e-05
9.660494953e-05
9.638674573e-05
9.617153907e-05
9.59794307e-05
9.583099395e-05
9.57467803e-05
9.61625545e-05
9.605035699e-05
9.589307148e-05
9.570486126e-05
9.550198074e-05
9.530221327e-05
9.512422052e-05
9.498697472e-05
9.490928275e-05
9.528216927e-05
9.517821423e-05
9.50326376e-05
9.485869749e-05
9.467155456e-05
9.448770129e-05
9.432431314e-05
9.419868792e-05
9.412778978e-05
9.445635603e-05
9.436093925e-05
9.422751775e-05
9.406843419e-05
9.389773162e-05
9.373056582e-05
9.358255127e-05
9.346920433e-05
9.340550867e-05
9.368731603e-05
9.360089038e-05
9.348029611e-05
9.333693518e-05
9.318368999e-05
9.303430922e-05
9.290274141e-05
9.280257795e-05
9.274664149e-05
9.297812811e-05
9.290131546e-05
9.279446313e-05
9.266799075e-05
9.253355603e-05
9.240340391e-05
9.228967974e-05
9.220386787e-05
9.215640444e-05
9.233277856e-05
9.226637889e-05
9.217443841e-05
9.206633497e-05
9.195241508e-05
9.184329547e-05
9.174914754e-05
9.167912706e-05
9.164101252e-05
9.175616896e-05
9.170116513e-05
9.162556751e-05
9.153763368e-05
9.1446289e-05
9.136036888e-05
9.128786627e-05
9.123534778e-05
9.120761883e-05
9.125409341e-05
9.12116496e-05
9.115408358e-05
9.108843431e-05
9.102207176e-05
9.096186848e-05
9.091340198e-05
9.088035298e-05
9.08641978e-05
9.083317737e-05
9.080462919e-05
9.076702551e-05
9.072606802e-05
9.068741302e-05
9.065576158e-05
9.063400935e-05
9.062262338e-05
9.06193619e-05
9.050076939e-05
9.048760344e-05
9.047210363e-05
9.045849558e-05
9.045054096e-05
9.045053648e-05
9.04584056e-05
9.047105119e-05
9.048210267e-05
9.026477758e-05
9.026859833e-05
9.027750482e-05
9.029408898e-05
9.03200166e-05
9.035492784e-05
9.039546776e-05
9.043461375e-05
9.046144992e-05
9.013344365e-05
9.015592573e-05
9.019163074e-05
9.024134276e-05
9.030441431e-05
9.037756472e-05
9.045384955e-05
9.052196455e-05
9.056604689e-05
9.011504942e-05
9.015787381e-05
9.022276502e-05
9.030851218e-05
9.041192718e-05
9.052654158e-05
9.064151995e-05
9.074094505e-05
9.080364588e-05
9.021755386e-05
9.028232754e-05
9.037866986e-05
9.050318049e-05
9.064990129e-05
9.080891894e-05
9.096523254e-05
9.109802886e-05
9.118053744e-05
9.044816342e-05
9.05363231e-05
9.066611803e-05
9.083176356e-05
9.102431075e-05
9.123016886e-05
9.142994448e-05
9.159772006e-05
9.170093692e-05
9.081284479e-05
9.092554718e-05