/*--------------------------------*- C++ -*----------------------------------*\
| =========                 |                                                 |
| \\      /  F ield         | OpenFOAM: The Open Source CFD Toolbox           |
|  \\    /   O peration     | Version:  2212                                  |
|   \\  /    A nd           | Website:  www.openfoam.com                      |
|    \\/     M anipulation  |                                                 |
\*---------------------------------------------------------------------------*/
FoamFile
{
    version     2.0;
    format      ascii;
    arch        "LSB;label=32;scalar=64";
    class       volScalarField;
    location    "30.00000000";
    object      C6H5_0;
}
// * * * * * * * * * * * * * * * * * * * * * * * * * * * * * * * * * * * * * //

dimensions      [0 0 0 0 0 0 0];

internalField   nonuniform List<scalar> 
3000
(
2.972649849e-27
3.339634306e-27
3.893406896e-27
4.631337534e-27
5.545884805e-27
6.612149386e-27
7.765836558e-27
8.866552113e-27
9.644803235e-27
1.116146627e-26
1.258995404e-26
1.474457172e-26
1.762202934e-26
2.121923274e-26
2.551591279e-26
3.043711121e-26
3.573485285e-26
4.042708681e-26
2.500457383e-26
2.842623116e-26
3.363638045e-26
4.07100821e-26
4.977366108e-26
6.095733608e-26
7.421560883e-26
8.880456455e-26
1.012711021e-25
4.763588563e-26
5.472153366e-26
6.566900685e-26
8.08478509e-26
1.007938559e-25
1.260108284e-25
1.563578735e-25
1.894066049e-25
2.160798553e-25
8.460839066e-26
9.838582884e-26
1.200076641e-25
1.505712744e-25
1.915119913e-25
2.439741563e-25
3.070783425e-25
3.740894382e-25
4.255317667e-25
1.455283733e-25
1.71390516e-25
2.125604021e-25
2.716658364e-25
3.518605239e-25
4.5516519e-25
5.784991316e-25
7.063153085e-25
8.008855928e-25
2.47127629e-25
2.946396294e-25
3.711549958e-25
4.822443386e-25
6.340956576e-25
8.297324914e-25
1.061068336e-24
1.296120922e-24
1.465727498e-24
4.18362208e-25
5.043563111e-25
6.440740388e-25
8.484889052e-25
1.129000292e-24
1.489648486e-24
1.912342261e-24
2.335557148e-24
2.635835905e-24
7.094493496e-25
8.634519023e-25
1.115274282e-24
1.485553347e-24
1.994552285e-24
2.647155324e-24
3.406502515e-24
4.158872827e-24
4.686811655e-24
1.207461604e-24
1.481106283e-24
1.930584271e-24
2.593575799e-24
3.505423132e-24
4.67137176e-24
6.020460252e-24
7.347380736e-24
8.271630712e-24
2.063581992e-24
2.547043428e-24
3.343592416e-24
4.520712888e-24
6.139408786e-24
8.204149608e-24
1.058308529e-23
1.291109982e-23
1.452501058e-23
3.540570446e-24
4.391251226e-24
5.795662113e-24
7.873109264e-24
1.072814136e-23
1.436164037e-23
1.853380058e-23
2.260249236e-23
2.541718791e-23
6.095581786e-24
7.588388845e-24
1.005615185e-23
1.370801078e-23
1.87218291e-23
2.508685731e-23
3.236962199e-23
3.945185041e-23
4.436976879e-23
1.052424905e-23
1.313983387e-23
1.746797438e-23
2.387438711e-23
3.266056784e-23
4.378054666e-23
5.642990756e-23
6.864312127e-23
7.735556486e-23
1.821009482e-23
2.278904217e-23
3.037442725e-23
4.161122229e-23
5.70233235e-23
7.649118089e-23
9.842257072e-23
1.186043184e-22
1.350716487e-22
3.155361977e-23
3.956126645e-23
5.284357939e-23
7.255472475e-23
9.967780944e-23
1.342090013e-22
1.740143674e-22
2.137550483e-22
2.386964188e-22
5.471196275e-23
6.868670451e-23
9.187909943e-23
1.263071857e-22
1.736669623e-22
2.338461521e-22
3.027097226e-22
3.694836767e-22
4.148362608e-22
9.489261437e-23
1.192348872e-22
1.596382489e-22
2.196030818e-22
3.020312279e-22
4.066157732e-22
5.260071291e-22
6.41491899e-22
7.205483164e-22
1.64603907e-22
2.069530577e-22
2.772473879e-22
3.815584002e-22
5.248868751e-22
7.066292619e-22
9.139642516e-22
1.114444508e-21
1.251777342e-21
2.855625898e-22
3.591884286e-22
4.814052515e-22
6.6275487e-22
9.118933078e-22
1.22771879e-21
1.587914484e-21
1.936122172e-21
2.174626616e-21
4.954790791e-22
6.234340621e-22
8.358499419e-22
1.151038309e-21
1.584005468e-21
2.132775575e-21
2.758511678e-21
3.363289589e-21
3.777464147e-21
8.598421833e-22
1.08217246e-21
1.451279914e-21
1.998971849e-21
2.751271978e-21
3.704655644e-21
4.791549073e-21
5.841833557e-21
6.560976466e-21
1.492387374e-21
1.878657107e-21
2.519953517e-21
3.471511316e-21
4.778453075e-21
6.434503779e-21
8.322126442e-21
1.014582119e-20
1.139436574e-20
2.59064648e-21
3.261690576e-21
4.375776674e-21
6.028779357e-21
8.298892913e-21
1.117493383e-20
1.445250025e-20
1.761843287e-20
1.978559601e-20
4.497673386e-21
5.66336944e-21
7.598612601e-21
1.046972305e-20
1.441209067e-20
1.940569052e-20
2.50950512e-20
3.058924702e-20
3.434935234e-20
7.809188583e-21
9.834028052e-21
1.319529855e-20
1.818131491e-20
2.502621856e-20
3.369388594e-20
4.35660105e-20
5.309630072e-20
5.961670037e-20
1.355946479e-20
1.707634084e-20
2.291359217e-20
3.157050595e-20
4.345127755e-20
5.849009143e-20
7.561118465e-20
9.213195846e-20
1.034304729e-19
2.354344463e-20
2.965090885e-20
3.978583709e-20
5.481169569e-20
7.54245261e-20
1.015028492e-19
1.311742451e-19
1.597874369e-19
1.793447021e-19
4.087419912e-20
5.14779723e-20
6.906899171e-20
9.513783481e-20
1.308791351e-19
1.760651781e-19
2.274351178e-19
2.76930578e-19
3.10733852e-19
7.094586596e-20
8.934896937e-20
1.198662184e-19
1.650645442e-19
2.269851836e-19
3.05194013e-19
3.940085738e-19
4.794827975e-19
5.377935231e-19
1.230930019e-19
1.550127669e-19
2.079155762e-19
2.862078063e-19
3.933566379e-19
5.285203372e-19
6.817899257e-19
8.29065896e-19
9.293879842e-19
2.134415713e-19
2.687559945e-19
3.603671691e-19
4.958072112e-19
6.809195967e-19
9.140469333e-19
1.177900402e-18
1.430919537e-18
1.602932402e-18
3.69790265e-19
4.655225726e-19
6.239271662e-19
8.578084646e-19
1.176914754e-18
1.577941287e-18
2.03071429e-18
2.463758078e-18
2.757409515e-18
6.399354745e-19
8.053239597e-19
1.078661612e-18
1.481560378e-18
2.030066161e-18
2.717530978e-18
3.491303619e-18
4.22891096e-18
4.727481218e-18
1.105811267e-18
1.390856163e-18
1.861237492e-18
2.553095644e-18
3.492377832e-18
4.665647207e-18
5.981119337e-18
7.229952999e-18
8.070715048e-18
1.907412854e-18
2.397151259e-18
3.203764338e-18
4.386959946e-18
5.987700485e-18
7.978805901e-18
1.020059689e-17
1.22992081e-17
1.370522574e-17
3.283148473e-18
4.121231177e-18
5.498208106e-18
7.511159079e-18
1.022260259e-17
1.357769734e-17
1.729958482e-17
2.07935725e-17
2.312080265e-17
5.637804325e-18
7.064929348e-18
9.402427855e-18
1.280477609e-17
1.736267637e-17
2.296601531e-17
2.913714346e-17
3.488716049e-17
3.86902041e-17
9.657154365e-18
1.207279244e-17
1.601368703e-17
2.17183467e-17
2.930767834e-17
3.856193946e-17
4.866252686e-17
5.798722208e-17
6.410187205e-17
1.650211326e-17
2.056202996e-17
2.71516312e-17
3.662315379e-17
4.911231483e-17
6.418330671e-17
8.044469255e-17
9.528149453e-17
1.049059541e-16
2.814025616e-17
3.49079382e-17
4.581998745e-17
6.136079865e-17
8.161686573e-17
1.057285561e-16
1.31353102e-16
1.543696722e-16
1.690853097e-16
4.791738143e-17
5.909496554e-17
7.69629057e-17
1.021050287e-16
1.34375268e-16
1.720858519e-16
2.113328885e-16
2.458127149e-16
2.673966101e-16
8.155037208e-17
9.982399367e-17
1.287098862e-16
1.687126758e-16
2.190014933e-16
2.762799395e-16
3.341151071e-16
3.832415027e-16
4.129635307e-16
1.388511364e-16
1.683943072e-16
2.14422141e-16
2.768334552e-16
3.530977743e-16
4.368350788e-16
5.175869811e-16
5.8247701e-16
6.193678601e-16
2.366742543e-16
2.838497425e-16
3.55995588e-16
4.511386422e-16
5.629489293e-16
6.792973047e-16
7.835251436e-16
8.592092261e-16
8.967287815e-16
4.037696459e-16
4.780206717e-16
5.889368264e-16
7.299819448e-16
8.870346568e-16
1.037775968e-15
1.156641825e-15
1.2256764e-15
1.24681904e-15
6.882304948e-16
8.02976041e-16
9.694209829e-16
1.171294097e-15
1.379821713e-15
1.556064036e-15
1.663470404e-15
1.688740108e-15
1.661469657e-15
1.167616365e-15
1.340538769e-15
1.582352673e-15
1.858068096e-15
2.113936894e-15
2.2872362e-15
2.332211895e-15
2.253539685e-15
2.130844036e-15
1.959880862e-15
2.211264326e-15
2.546947734e-15
2.899415786e-15
3.177271964e-15
3.290406385e-15
3.195035999e-15
2.935610978e-15
2.663835e-15
3.229390806e-15
3.576540057e-15
4.013280341e-15
4.421813807e-15
4.662833514e-15
4.626444929e-15
4.295672598e-15
3.779562975e-15
3.311775364e-15
5.177878072e-15
5.624589583e-15
6.143435123e-15
6.549833359e-15
6.65783297e-15
6.363093076e-15
5.708510564e-15
4.880541533e-15
4.184430757e-15
8.011336459e-15
8.536332371e-15
9.081641312e-15
9.390989007e-15
9.252983098e-15
8.606627129e-15
7.575844683e-15
6.410821012e-15
5.465331476e-15
1.189234667e-14
1.244958148e-14
1.294222718e-14
1.305806836e-14
1.259660511e-14
1.156711984e-14
1.016284939e-14
8.662491733e-15
7.451484842e-15
1.692629824e-14
1.747406482e-14
1.786419145e-14
1.775889434e-14
1.69954696e-14
1.564504851e-14
1.39294452e-14
1.212094403e-14
1.063470426e-14
2.325448411e-14
2.381399589e-14
2.415873313e-14
2.394510942e-14
2.304062026e-14
2.153655141e-14
1.963566913e-14
1.757629414e-14
1.580851195e-14
3.127678586e-14
3.199145548e-14
3.25164503e-14
3.248927791e-14
3.176512377e-14
3.039611442e-14
2.850746405e-14
2.625734256e-14
2.414922678e-14
4.193162122e-14
4.310393158e-14
4.424161345e-14
4.491633535e-14
4.489928547e-14
4.410689328e-14
4.246694345e-14
3.997695237e-14
3.730207705e-14
5.699269053e-14
5.912678804e-14
6.158307804e-14
6.378278806e-14
6.527666516e-14
6.564120924e-14
6.440276641e-14
6.139942383e-14
5.776451521e-14
7.950913957e-14
8.340298341e-14
8.828170042e-14
9.324181935e-14
9.732575252e-14
9.943673204e-14
9.859198414e-14
9.474100113e-14
8.981557937e-14
1.145410609e-13
1.214019811e-13
1.303019063e-13
1.396556612e-13
1.47554451e-13
1.520140306e-13
1.51784162e-13
1.471899439e-13
1.40939923e-13
1.700523227e-13
1.815239487e-13
1.964890042e-13
2.121901624e-13
2.254869149e-13
2.336887428e-13
2.354576902e-13
2.311974351e-13
2.240362822e-13
2.575282707e-13
2.756802874e-13
2.993381706e-13
3.243148617e-13
3.463389476e-13
3.620545966e-13
3.694754413e-13
3.682233568e-13
3.613095435e-13
3.928239184e-13
4.207656724e-13
4.576697413e-13
4.979721447e-13
5.36180205e-13
5.67521091e-13
5.880799222e-13
5.95357162e-13
5.913039288e-13
6.000119825e-13
6.43709901e-13
7.03037738e-13
7.709318736e-13
8.399305393e-13
9.023912247e-13
9.504701998e-13
9.772846545e-13
9.81734328e-13
9.199253363e-13
9.907525023e-13
1.089770073e-12
1.207896912e-12
1.334483006e-12
1.456780642e-12
1.559808549e-12
1.628086855e-12
1.653047099e-12
1.4226036e-12
1.540787378e-12
1.710142613e-12
1.918906509e-12
2.151509323e-12
2.386910405e-12
2.597463518e-12
2.750991936e-12
2.821860591e-12
2.225878876e-12
2.426549027e-12
2.719853832e-12
3.090928584e-12
3.517457516e-12
3.965227693e-12
4.384392048e-12
4.710622723e-12
4.880715932e-12
3.526369978e-12
3.87027787e-12
4.381447202e-12
5.042595023e-12
5.823021473e-12
6.668317707e-12
7.490160183e-12
8.162778458e-12
8.542510406e-12
5.651468669e-12
6.244107501e-12
7.138061436e-12
8.317105567e-12
9.742150316e-12
1.132901048e-11
1.292333527e-11
1.428291758e-11
1.509620686e-11
9.145802766e-12
1.017018733e-11
1.173595314e-11
1.383764408e-11
1.643241101e-11
1.939406688e-11
2.245581427e-11
2.515708918e-11
2.684564228e-11
1.491180672e-11
1.668387141e-11
1.942472373e-11
2.316195173e-11
2.786392347e-11
3.334797752e-11
3.91568535e-11
4.442607177e-11
4.783289513e-11
2.443529583e-11
2.749514666e-11
3.227730128e-11
3.888786693e-11
4.734132397e-11
5.73825141e-11
6.823307565e-11
7.829490717e-11
8.49697203e-11
4.014159557e-11
4.539886551e-11
5.368767245e-11
6.527719442e-11
8.029644958e-11
9.83995251e-11
1.182696861e-10
1.370082429e-10
1.496811441e-10
6.594772078e-11
7.490368841e-11
8.91215504e-11
1.091769306e-10
1.354294145e-10
1.674131558e-10
2.029134868e-10
2.367948763e-10
2.600290158e-10
1.08100327e-10
1.231710766e-10
1.472103845e-10
1.813196745e-10
2.26255728e-10
2.81358726e-10
3.42918111e-10
4.020766087e-10
4.43019682e-10
1.764103062e-10
2.013702448e-10
2.412818606e-10
2.980692869e-10
3.73076469e-10
4.652490009e-10
5.683861009e-10
6.676931622e-10
7.367472783e-10
2.859886107e-10
3.265342272e-10
3.913764141e-10
4.836049648e-10
6.052912986e-10
7.545311457e-10
9.211451054e-10
1.081566401e-09
1.193820025e-09
4.595010021e-10
5.238876008e-10
6.266445034e-10
7.723356763e-10
9.637236261e-10
1.197304295e-09
1.457469388e-09
1.708567378e-09
1.885261679e-09
7.29716129e-10
8.293403322e-10
9.876887954e-10
1.211041073e-09
1.502544351e-09
1.857250948e-09
2.252227745e-09
2.634030631e-09
2.904018817e-09
1.141678646e-09
1.291471206e-09
1.528206547e-09
1.860444202e-09
2.292978385e-09
2.818064326e-09
3.401773045e-09
3.965641302e-09
4.364959381e-09
1.753839714e-09
1.972851125e-09
2.318213939e-09
2.801314553e-09
3.428077879e-09
4.186115825e-09
5.02580611e-09
5.834816003e-09
6.407399933e-09
2.643743996e-09
2.957474267e-09
3.450681308e-09
4.137672579e-09
5.024528466e-09
6.091359091e-09
7.266897144e-09
8.394570591e-09
9.190857238e-09
3.914175963e-09
4.354355742e-09
5.043527884e-09
5.998267639e-09
7.222910657e-09
8.685983482e-09
1.02873143e-08
1.181457545e-08
1.288896704e-08
5.694650604e-09
6.298887016e-09
7.240267834e-09
8.53597554e-09
1.018545558e-08
1.214019548e-08
1.426270087e-08
1.627290559e-08
1.767993596e-08
8.141505768e-09
8.952210493e-09
1.02082424e-08
1.192445414e-08
1.40907798e-08
1.663482843e-08
1.93725864e-08
2.194477009e-08
2.373414831e-08
1.143534087e-08
1.249775078e-08
1.413380814e-08
1.635162211e-08
1.912543426e-08
2.235094403e-08
2.578826139e-08
2.898909805e-08
3.120005516e-08
1.577514868e-08
1.713439622e-08
1.921418483e-08
2.200993754e-08
2.547258451e-08
2.945711905e-08
3.365907316e-08
3.753432241e-08
4.018982804e-08
2.136890591e-08
2.306626415e-08
2.564614473e-08
2.908396973e-08
3.329866968e-08
3.809561743e-08
4.309862453e-08
4.76649255e-08
5.076604308e-08
2.842092211e-08
3.048952475e-08
3.361226537e-08
3.773627978e-08
4.273936735e-08
4.836908685e-08
5.417281763e-08
5.941069994e-08
6.292841836e-08
3.711681673e-08
3.957730381e-08
4.326596028e-08
4.809302306e-08
5.388645762e-08
6.032964812e-08
6.689279291e-08
7.274794806e-08
7.66396807e-08
4.760750188e-08
5.04641333e-08
5.471684275e-08
6.02308248e-08
6.677683064e-08
7.39702688e-08
8.120730385e-08
8.758583591e-08
9.177873145e-08
5.99939076e-08
6.323171294e-08
6.801820373e-08
7.416675036e-08
8.138575885e-08
8.922215237e-08
9.700540978e-08
1.037780812e-07
1.081766868e-07
7.431433261e-08
7.789780118e-08
8.315829115e-08
8.985282035e-08
9.762542617e-08
1.05957895e-07
1.141245911e-07
1.211354657e-07
1.256296316e-07
9.053626353e-08
9.440994204e-08
1.000568567e-07
1.071761855e-07
1.153494226e-07
1.24000809e-07
1.323656439e-07
1.394467755e-07
1.439295894e-07
1.085543715e-07
1.126455795e-07
1.185681677e-07
1.259655251e-07
1.343630815e-07
1.431386664e-07
1.515128355e-07
1.584990336e-07
1.62835222e-07
1.281960938e-07
1.32420049e-07
1.384914881e-07
1.460025961e-07
1.544386704e-07
1.631290768e-07
1.712549127e-07
1.778728694e-07
1.818257091e-07
1.492337883e-07
1.535034792e-07
1.595910062e-07
1.670252629e-07
1.752311862e-07
1.834822863e-07
1.909295895e-07
1.968393513e-07
2.003168687e-07
1.713823627e-07
1.755536694e-07
1.814258859e-07
1.884124632e-07
1.95979531e-07
2.034746094e-07
2.101768933e-07
2.153723493e-07
2.183405271e-07
1.93803489e-07
1.976729693e-07
2.030865457e-07
2.095265288e-07
2.164155139e-07
2.231145803e-07
2.289674918e-07
2.333577533e-07
2.357550481e-07
2.160722977e-07
2.196239435e-07
2.245531672e-07
2.303535518e-07
2.364501969e-07
2.422341236e-07
2.471181395e-07
2.506061296e-07
2.523741158e-07
2.38096565e-07
2.412719212e-07
2.456316163e-07
2.506789602e-07
2.558588938e-07
2.606068233e-07
2.644160087e-07
2.66922388e-07
2.68017071e-07
2.596085119e-07
2.623434643e-07
2.660448958e-07
2.702347998e-07
2.743909624e-07
2.780053776e-07
2.806613389e-07
2.821330619e-07
2.825286857e-07
2.802983449e-07
2.825377561e-07
2.855073179e-07
2.887581245e-07
2.918120769e-07
2.942275835e-07
2.956845033e-07
2.960971785e-07
2.957868277e-07
2.998689886e-07
3.015723878e-07
3.037583185e-07
3.060165283e-07
3.079223877e-07
3.091079798e-07
3.093531314e-07
3.08710322e-07
3.077048945e-07
3.180609144e-07
3.192043935e-07
3.205787317e-07
3.218202014e-07
3.225647668e-07
3.225227973e-07
3.215745353e-07
3.199053061e-07
3.182315378e-07
3.346643527e-07
3.352405639e-07
3.357987001e-07
3.360274129e-07
3.356280128e-07
3.343911823e-07
3.322953781e-07
3.296507646e-07
3.273486866e-07
3.495249108e-07
3.495419227e-07
3.493006816e-07
3.485459602e-07
3.470468239e-07
3.446739095e-07
3.414994292e-07
3.379482869e-07
3.350683888e-07
3.625447986e-07
3.620242057e-07
3.610189709e-07
3.593316818e-07
3.567993905e-07
3.533702413e-07
3.492039307e-07
3.448285287e-07
3.414288478e-07
3.736807042e-07
3.726552729e-07
3.709365377e-07
3.683847279e-07
3.649032024e-07
3.605134422e-07
3.554550073e-07
3.503466691e-07
3.464899849e-07
3.829390918e-07
3.814501837e-07
3.790798556e-07
3.757441985e-07
3.714096164e-07
3.661654236e-07
3.603225231e-07
3.54577553e-07
3.50328824e-07
3.903696645e-07
3.884646418e-07
3.855123776e-07
3.814817442e-07
3.763977036e-07
3.704109598e-07
3.6389475e-07
3.576108196e-07
3.530349557e-07
3.960577232e-07
3.937875009e-07
3.903272915e-07
3.856946891e-07
3.79967856e-07
3.733518692e-07
3.662731628e-07
3.595462622e-07
3.547062857e-07
4.001160975e-07
3.975329611e-07
3.936401198e-07
3.884991614e-07
3.822355534e-07
3.751014799e-07
3.675676026e-07
3.604896056e-07
3.554452165e-07
4.026772187e-07
3.998329819e-07
3.955816273e-07
3.90023624e-07
3.833256042e-07
3.75779617e-07
3.678919838e-07
3.605488224e-07
3.553553561e-07
4.038857764e-07
4.008303089e-07
3.962913774e-07
3.904030792e-07
3.833670704e-07
3.755082641e-07
3.673606439e-07
3.598310541e-07
3.545387974e-07
4.038922541e-07
4.006723796e-07
3.95912158e-07
3.89774121e-07
3.824890004e-07
3.744079733e-07
3.660853784e-07
3.584401523e-07
3.530939686e-07
4.028475084e-07
3.99506245e-07
3.945853809e-07
3.882709018e-07
3.808170065e-07
3.725950537e-07
3.641731559e-07
3.564748058e-07
3.5111402e-07
4.008984552e-07
3.974745648e-07
3.924475011e-07
3.860220424e-07
3.784706761e-07
3.701794375e-07
3.617244274e-07
3.540272138e-07
3.486857059e-07
3.981848212e-07
3.947126037e-07
3.896273435e-07
3.831483459e-07
3.755617046e-07
3.672632456e-07
3.58832036e-07
3.511822466e-07
3.458886928e-07
3.948368428e-07
3.913461303e-07
3.862442809e-07
3.797612969e-07
3.721927203e-07
3.639398999e-07
3.55580582e-07
3.480169987e-07
3.427952199e-07
3.909738263e-07
3.874901327e-07
3.824071553e-07
3.759622132e-07
3.684566637e-07
3.602937094e-07
3.520461769e-07
3.446006667e-07
3.394700432e-07
3.867034104e-07
3.832481866e-07
3.78213786e-07
3.718419091e-07
3.644366031e-07
3.563998205e-07
3.482965006e-07
3.40994677e-07
3.359705999e-07
3.821213835e-07
3.787123419e-07
3.737509462e-07
3.67480768e-07
3.602058977e-07
3.523244534e-07
3.443910881e-07
3.372530011e-07
3.323473324e-07
3.773119236e-07
3.739634015e-07
3.690946899e-07
3.629491171e-07
3.558286103e-07
3.481253399e-07
3.40381777e-07
3.334225997e-07
3.286441244e-07
3.723481423e-07
3.69071479e-07
3.643109244e-07
3.583078108e-07
3.513600922e-07
3.438522974e-07
3.363132605e-07
3.295439488e-07
3.248988042e-07
3.672928308e-07
3.640967421e-07
3.594561454e-07
3.536089477e-07
3.46847674e-07
3.395478843e-07
3.322237001e-07
3.256516102e-07
3.211436855e-07
3.621993277e-07
3.590902639e-07
3.545782623e-07
3.488966617e-07
3.423314108e-07
3.352480922e-07
3.281453625e-07
3.217748173e-07
3.174061158e-07
3.571124432e-07
3.540949226e-07
3.497174621e-07
3.442079376e-07
3.378448421e-07
3.309830434e-07
3.24105254e-07
3.179380522e-07
3.137090174e-07
3.52069392e-07
3.491463059e-07
3.449070707e-07
3.395734189e-07
3.334157364e-07
3.267776696e-07
3.20125733e-07
3.141616016e-07
3.100714037e-07
3.471007013e-07
3.442735871e-07
3.40174384e-07
3.350181821e-07
3.290668024e-07
3.226523544e-07
3.162250875e-07
3.104620775e-07
3.065088639e-07
3.422310686e-07
3.395003514e-07
3.355414486e-07
3.305624624e-07
3.248163513e-07
3.186235313e-07
3.124180705e-07
3.068528994e-07
3.030340103e-07
3.374801569e-07
3.348453602e-07
3.310257829e-07
3.262223201e-07
3.206789039e-07
3.147042294e-07
3.08716387e-07
3.033447322e-07
2.99656885e-07
3.328633174e-07
3.303232452e-07
3.266410296e-07
3.220102441e-07
3.166657392e-07
3.109045655e-07
3.051291334e-07
2.999458808e-07
2.963853254e-07
3.283922385e-07
3.259451307e-07
3.22397541e-07
3.179356919e-07
3.127853841e-07
3.072321827e-07
3.016631882e-07
2.966626411e-07
2.9322529e-07
3.240755209e-07
3.217191847e-07
3.183028962e-07
3.140055656e-07
3.090440452e-07
3.036926375e-07
2.98323557e-07
2.934996097e-07
2.901811462e-07
3.199191824e-07
3.176511022e-07
3.143623548e-07
3.1022463e-07
3.054459875e-07
3.002897385e-07
2.951136741e-07
2.90459955e-07
2.872559217e-07
3.159270965e-07
3.137445258e-07
3.10579251e-07
3.065958752e-07
3.019938627e-07
2.970258406e-07
2.920356648e-07
2.875456534e-07
2.844515239e-07
3.121013712e-07
3.100014078e-07
3.069553331e-07
3.031208291e-07
2.986889923e-07
2.939020981e-07
2.890905712e-07
2.847576922e-07
2.817689294e-07
3.084426732e-07
3.064223206e-07
3.034910548e-07
2.997998252e-07
2.9553161e-07
2.909186822e-07
2.862785464e-07
2.820962447e-07
2.792083464e-07
3.049505041e-07
3.03006721e-07
3.001858223e-07
2.966322298e-07
2.925210681e-07
2.880749657e-07
2.835990192e-07
2.795608194e-07
2.76769354e-07
3.016234328e-07
2.99753173e-07
2.970382038e-07
2.936166353e-07
2.896560117e-07
2.853696797e-07
2.81050835e-07
2.771503864e-07
2.744510206e-07
2.984592925e-07
2.966595354e-07
2.940461048e-07
2.907510213e-07
2.869345258e-07
2.828010451e-07
2.786323729e-07
2.748634845e-07
2.722520036e-07
2.954553435e-07
2.937231186e-07
2.912069156e-07
2.880328899e-07
2.843542575e-07
2.803668831e-07
2.763416455e-07
2.726983108e-07
2.701706335e-07
2.926084095e-07
2.909408146e-07
2.885176326e-07
2.854593783e-07
2.819125185e-07
2.780647069e-07
2.741763808e-07
2.706527957e-07
2.682049843e-07
2.899149895e-07
2.883092039e-07
2.859749592e-07
2.830273513e-07
2.796063692e-07
2.758917977e-07
2.721340909e-07
2.687246653e-07
2.66352932e-07
2.873713498e-07
2.858246442e-07
2.835753883e-07
2.807334776e-07
2.774326876e-07
2.738452671e-07
2.70212128e-07
2.669114929e-07
2.646122032e-07
2.849735983e-07
2.834833408e-07
2.813152693e-07
2.785742913e-07
2.753882263e-07
2.719221082e-07
2.684077313e-07
2.652107408e-07
2.629804146e-07
2.827177454e-07
2.812814055e-07
2.791908625e-07
2.765462423e-07
2.734696577e-07
2.701192369e-07
2.667180636e-07
2.636197955e-07
2.614551057e-07
2.805997517e-07
2.79214902e-07
2.771983823e-07
2.746457366e-07
2.716736107e-07
2.68433525e-07
2.651402421e-07
2.621359947e-07
2.600337655e-07
2.786155666e-07
2.772798829e-07
2.75334032e-07
2.728691677e-07
2.699967003e-07
2.668618271e-07
2.636713625e-07
2.607566504e-07
2.587138534e-07
2.767611577e-07
2.754724184e-07
2.735940301e-07
2.712129419e-07
2.684355499e-07
2.654010015e-07
2.623085181e-07
2.594790661e-07
2.574928163e-07
2.750325344e-07
2.737886178e-07
2.719746318e-07
2.696734975e-07
2.669868093e-07
2.640479259e-07
2.610488149e-07
2.583005517e-07
2.563681024e-07
2.73425765e-07
2.722246471e-07
2.704721442e-07
2.682473195e-07
2.656471686e-07
2.627995107e-07
2.598893834e-07
2.572184336e-07
2.553371714e-07
2.719369897e-07
2.707767408e-07
2.690829386e-07
2.669309506e-07
2.644133678e-07
2.616527082e-07
2.588273871e-07
2.562300636e-07
2.54397503e-07
2.705624295e-07
2.694412109e-07
2.678034583e-07
2.657209989e-07
2.632822047e-07
2.606045194e-07
2.578600297e-07
2.553328254e-07
2.53546603e-07
2.69298393e-07
2.682144528e-07
2.666302249e-07
2.646141437e-07
2.622505398e-07
2.59651999e-07
2.569845591e-07
2.545241391e-07
2.527820083e-07
2.6814128e-07
2.670929497e-07
2.655598414e-07
2.63607139e-07
2.613152999e-07
2.587922592e-07
2.561982719e-07
2.538014649e-07
2.521012901e-07
2.670875837e-07
2.660732741e-07
2.645889952e-07
2.626968152e-07
2.604734802e-07
2.580224714e-07
2.554985148e-07
2.531623053e-07
2.515020568e-07
2.661338915e-07
2.651520888e-07
2.637144581e-07
2.618800807e-07
2.597221456e-07
2.573398679e-07
2.548826865e-07
2.526042071e-07
2.509819555e-07
2.652768849e-07
2.643261469e-07
2.629330865e-07
2.611539215e-07
2.590584305e-07
2.567417422e-07
2.543482386e-07
2.521247623e-07
2.505386736e-07
2.645133381e-07
2.635922907e-07
2.622418209e-07
2.605154008e-07
2.58479539e-07
2.562254491e-07
2.538926758e-07
2.517216087e-07
2.501699394e-07
2.638401166e-07
2.6294745e-07
2.616376843e-07
2.599616579e-07
2.57982744e-07
2.557884043e-07
2.535135558e-07
2.513924304e-07
2.498735228e-07
2.632541752e-07
2.623886407e-07
2.611177806e-07
2.594899072e-07
2.575653861e-07
2.554280838e-07
2.532084892e-07
2.511349578e-07
2.496472355e-07
2.627525559e-07
2.619129626e-07
2.60679293e-07
2.590974361e-07
2.572248728e-07
2.551420233e-07
2.529751391e-07
2.509469672e-07
2.494889311e-07
2.623323852e-07
2.615175969e-07
2.603194819e-07
2.58781604e-07
2.569586768e-07
2.549278168e-07
2.528112205e-07
2.508262812e-07
2.49396505e-07
2.619908718e-07
2.611998042e-07
2.600356828e-07
2.585398401e-07
2.567643347e-07
2.547831162e-07
2.527144997e-07
2.507707678e-07
2.493678947e-07
2.617253042e-07
2.609569221e-07
2.598253041e-07
2.583696416e-07
2.566394458e-07
2.547056298e-07
2.526827934e-07
2.507783405e-07
2.494010794e-07
2.615330479e-07
2.607863626e-07
2.596858252e-07
2.582685721e-07
2.565816702e-07
2.546931212e-07
2.527139683e-07
2.508469576e-07
2.494940798e-07
2.614115428e-07
2.606856099e-07
2.596147939e-07
2.582342594e-07
2.565887274e-07
2.547434082e-07
2.528059399e-07
2.509746216e-07
2.496449578e-07
2.613583003e-07
2.606522172e-07
2.596098243e-07
2.582643933e-07
2.566583944e-07
2.548543609e-07
2.529566715e-07
2.511593787e-07
2.498518157e-07
2.613709e-07
2.606838039e-07
2.596685932e-07
2.583567229e-07
2.567885031e-07
2.550239003e-07
2.531641724e-07
2.513993171e-07
2.501127959e-07
2.614469858e-07
2.60778052e-07
2.597888373e-07
2.585090534e-07
2.569769376e-07
2.552499952e-07
2.53426496e-07
2.516925657e-07
2.504260784e-07
2.615842611e-07
2.609327006e-07
2.59968348e-07
2.587192416e-07
2.572216301e-07
2.555306587e-07
2.537417363e-07
2.520372907e-07
2.507898792e-07
2.617804822e-07
2.611455403e-07
2.602049653e-07
2.589851898e-07
2.575205547e-07
2.558639423e-07
2.541080224e-07
2.524316912e-07
2.512024453e-07
2.62033449e-07
2.614144035e-07
2.604965685e-07
2.593048367e-07
2.578717186e-07
2.562479276e-07
2.545235111e-07
2.528739916e-07
2.516620479e-07
2.623409931e-07
2.617371521e-07
2.60841064e-07
2.596761445e-07
2.582731494e-07
2.566807134e-07
2.549863736e-07
2.533624294e-07
2.521669709e-07
2.62700959e-07
2.621116589e-07
2.612363658e-07
2.600970799e-07
2.587228754e-07
2.571603961e-07
2.554947764e-07
2.538952361e-07
2.527154919e-07
2.631111794e-07
2.625357822e-07
2.616803695e-07
2.605655866e-07
2.592188976e-07
2.576850405e-07
2.560468517e-07
2.544706077e-07
2.533058535e-07
2.635694393e-07
2.630073286e-07
2.621709144e-07
2.610795458e-07
2.59759148e-07
2.582526374e-07
2.566406536e-07
2.550866607e-07
2.53936219e-07
2.640734265e-07
2.635240026e-07
2.627057296e-07
2.616367202e-07
2.603414312e-07
2.588610415e-07
2.572740943e-07
2.557413662e-07
2.546046063e-07
2.646206638e-07
2.640833361e-07
2.632823615e-07
2.622346766e-07
2.609633423e-07
2.595078853e-07
2.579448529e-07
2.564324561e-07
2.553087922e-07
2.652084179e-07
2.646825939e-07
2.63898074e-07
2.628706807e-07
2.616221546e-07
2.601904591e-07
2.58650249e-07
2.57157291e-07
2.560461774e-07
2.658335783e-07
2.653186485e-07
2.645497161e-07
2.635415559e-07
2.623146683e-07
2.609055493e-07
2.593870712e-07
2.579126796e-07
2.568136009e-07
2.664925008e-07
2.65987817e-07
2.652335503e-07
2.642434996e-07
2.630370138e-07
2.616492266e-07
2.601513491e-07
2.58694639e-07
2.576070909e-07
2.671808079e-07
2.666856531e-07
2.659450325e-07
2.649718485e-07
2.637843977e-07
2.624165722e-07
2.609380609e-07
2.594980826e-07
2.584215423e-07
2.678931395e-07
2.674066885e-07
2.66678538e-07
2.657207844e-07
2.645507864e-07
2.632013356e-07
2.617407636e-07
2.603164282e-07
2.592503072e-07
2.686228492e-07
2.681441161e-07
2.674270268e-07
2.664829759e-07
2.653285191e-07
2.639955159e-07
2.625511423e-07
2.611411159e-07
2.600846924e-07
2.69361641e-07
2.688894128e-07
2.681816446e-07
2.67249152e-07
2.661078474e-07
2.647888642e-07
2.633584728e-07
2.619610345e-07
2.609133603e-07
2.700991458e-07
2.696318993e-07
2.689312591e-07
2.680076062e-07
2.668764029e-07
2.655683075e-07
2.641490012e-07
2.627618596e-07
2.617216356e-07
2.708224401e-07
2.703582419e-07
2.696619349e-07
2.687436389e-07
2.676185977e-07
2.66317305e-07
2.649052516e-07
2.635253141e-07
2.624907341e-07
2.71515514e-07
2.710519024e-07
2.703563583e-07
2.694389468e-07
2.68314974e-07
2.670151503e-07
2.656052791e-07
2.642283758e-07
2.631969345e-07
2.721587014e-07
2.716925521e-07
2.709932263e-07
2.700709814e-07
2.689415245e-07
2.676362494e-07
2.662219028e-07
2.648424655e-07
2.638107343e-07
2.727280939e-07
2.722554719e-07
2.715466269e-07
2.706123035e-07
2.694690165e-07
2.681494109e-07
2.667219594e-07
2.653326654e-07
2.642960409e-07
2.731949663e-07
2.727109692e-07
2.719854435e-07
2.710299726e-07
2.698623639e-07
2.685171994e-07
2.670656361e-07
2.65657032e-07
2.646094678e-07
2.735252502e-07
2.730238506e-07
2.722728276e-07
2.712850195e-07
2.700801027e-07
2.686954136e-07
2.672059533e-07
2.657660804e-07
2.646998189e-07
2.736791031e-07
2.731530003e-07
2.723657916e-07
2.71332062e-07
2.70074034e-07
2.68632764e-07
2.670884783e-07
2.656025325e-07
2.645078583e-07
2.736106278e-07
2.730511219e-07
2.722149861e-07
2.711191283e-07
2.697891086e-07
2.682708294e-07
2.666513613e-07
2.651014263e-07
2.639664708e-07
2.732677985e-07
2.726647042e-07
2.717647257e-07
2.705877656e-07
2.69163637e-07
2.675443843e-07
2.658257872e-07
2.641906895e-07
2.63001322e-07
2.725926634e-07
2.719342803e-07
2.709533355e-07
2.696735034e-07
2.681298987e-07
2.66382179e-07
2.645369406e-07
2.627922765e-07
2.615321197e-07
2.715218883e-07
2.707950488e-07
2.697138887e-07
2.683067473e-07
2.666152294e-07
2.647082502e-07
2.627055564e-07
2.608239498e-07
2.594745591e-07
2.699877024e-07
2.691779165e-07
2.679753974e-07
2.664141655e-07
2.645436469e-07
2.624438227e-07
2.602501166e-07
2.582017567e-07
2.567430032e-07
2.679192992e-07
2.670110158e-07
2.656645041e-07
2.639206094e-07
2.618380523e-07
2.595098314e-07
2.570897119e-07
2.548432143e-07
2.532539e-07
2.652447264e-07
2.642217254e-07
2.627076977e-07
2.607515871e-07
2.584230127e-07
2.558300532e-07
2.531475426e-07
2.506711558e-07
2.489298766e-07
2.618932744e-07
2.607391992e-07
2.590340511e-07