/*--------------------------------*- C++ -*----------------------------------*\
| =========                 |                                                 |
| \\      /  F ield         | OpenFOAM: The Open Source CFD Toolbox           |
|  \\    /   O peration     | Version:  2212                                  |
|   \\  /    A nd           | Website:  www.openfoam.com                      |
|    \\/     M anipulation  |                                                 |
\*---------------------------------------------------------------------------*/
FoamFile
{
    version     2.0;
    format      ascii;
    arch        "LSB;label=32;scalar=64";
    class       volScalarField;
    location    "30.00000000";
    object      C9H7;
}
// * * * * * * * * * * * * * * * * * * * * * * * * * * * * * * * * * * * * * //

dimensions      [0 0 0 0 0 0 0];

internalField   nonuniform List<scalar> 
3000
(
7.400846017e-28
8.315105087e-28
9.694731857e-28
1.15331954e-27
1.381172081e-27
1.646827599e-27
1.934266842e-27
2.208510138e-27
2.402412923e-27
2.779007243e-27
3.134915465e-27
3.671751584e-27
4.38870593e-27
5.285013952e-27
6.355625406e-27
7.581855104e-27
8.901895952e-27
1.007102821e-26
6.226487998e-27
7.079121556e-27
8.377460528e-27
1.014024149e-26
1.239897217e-26
1.518612284e-26
1.849036082e-26
2.212626687e-26
2.523320595e-26
1.186413728e-26
1.363014467e-26
1.63587597e-26
2.014218657e-26
2.511407849e-26
3.140012459e-26
3.896529692e-26
4.720425116e-26
5.385396184e-26
2.107733411e-26
2.451204359e-26
2.990260351e-26
3.752286485e-26
4.773099789e-26
6.081266082e-26
7.654885559e-26
9.32601513e-26
1.060893681e-25
3.626361103e-26
4.271293341e-26
5.298016766e-26
6.772128865e-26
8.772358856e-26
1.134918402e-25
1.442581809e-25
1.761444255e-25
1.997378982e-25
6.160057787e-26
7.34527449e-26
9.254123141e-26
1.202571766e-25
1.581461509e-25
2.06964337e-25
2.646952494e-25
3.233578442e-25
3.656894192e-25
1.04321177e-25
1.257807944e-25
1.606495761e-25
2.116691244e-25
2.816882238e-25
3.717191529e-25
4.772485834e-25
5.829167961e-25
6.578953815e-25
1.769748425e-25
2.154208711e-25
2.782922179e-25
3.707471377e-25
4.978523934e-25
6.608351411e-25
8.504954814e-25
1.038430102e-24
1.170313554e-24
3.013312897e-25
3.696736326e-25
4.81939678e-25
6.475521791e-25
8.75353338e-25
1.166667775e-24
1.503775974e-24
1.835376397e-24
2.066366196e-24
5.152066043e-25
6.360021452e-25
8.350421198e-25
1.129210333e-24
1.533777545e-24
2.049886782e-24
2.644598957e-24
3.226638776e-24
3.630173554e-24
8.843568485e-25
1.096997881e-24
1.448084604e-24
1.967480265e-24
2.681369709e-24
3.590019724e-24
4.633493588e-24
5.651193013e-24
6.355289402e-24
1.523239317e-24
1.896557797e-24
2.513748943e-24
3.42718679e-24
4.681441565e-24
6.273905151e-24
8.096185207e-24
9.868475135e-24
1.10992621e-23
2.631149294e-24
3.285549273e-24
4.36852067e-24
5.971692839e-24
8.170658029e-24
1.095405535e-23
1.412064976e-23
1.717836352e-23
1.935984085e-23
4.554803526e-24
5.700953291e-24
7.599824884e-24
1.041309549e-23
1.427219395e-23
1.914746673e-23
2.464032421e-23
2.969349117e-23
3.38206565e-23
7.896060971e-24
9.901377845e-24
1.322793575e-23
1.816519247e-23
2.49598747e-23
3.361147646e-23
4.358569729e-23
5.35466494e-23
5.979566838e-23
1.369770155e-23
1.71989595e-23
2.301021013e-23
3.16378056e-23
4.35075974e-23
5.859225995e-23
7.585579685e-23
9.25972605e-23
1.039690467e-22
2.376851909e-23
2.987011884e-23
3.999859095e-23
5.503264424e-23
7.570127376e-23
1.019289502e-22
1.318734823e-22
1.608412616e-22
1.80673203e-22
4.124910991e-23
5.186924766e-23
6.949914036e-23
9.566365412e-23
1.31619692e-22
1.772183385e-22
2.292444063e-22
2.795557787e-22
3.140229712e-22
7.159474213e-23
9.006697003e-23
1.207334531e-22
1.662430317e-22
2.287723685e-22
3.080492816e-22
3.984747731e-22
4.859000431e-22
5.457869883e-22
1.242829004e-22
1.564010456e-22
2.097252193e-22
2.888587336e-22
3.975768921e-22
5.353911088e-22
6.925531274e-22
8.44467428e-22
9.485129294e-22
2.157805211e-22
2.716142613e-22
3.643174435e-22
5.018897666e-22
6.908813659e-22
9.304198708e-22
1.203535978e-21
1.467481169e-21
1.648223245e-21
3.747004591e-22
4.71750214e-22
6.328911691e-22
8.720215615e-22
1.200503921e-21
1.616783726e-21
2.09133088e-21
2.549855613e-21
2.863799739e-21
6.507626392e-22
8.194419024e-22
1.099515503e-21
1.515118593e-21
2.085950581e-21
2.809238226e-21
3.633603136e-21
4.429974929e-21
4.975159565e-21
1.130363711e-21
1.423523802e-21
1.910263707e-21
2.632471271e-21
3.624270273e-21
4.880689471e-21
6.312335175e-21
7.695016348e-21
8.641375113e-21
1.963623429e-21
2.473097797e-21
3.318913507e-21
4.573715177e-21
6.296541393e-21
8.478412724e-21
1.096376321e-20
1.33633054e-20
1.50051593e-20
3.4113493e-21
4.296681983e-21
5.766272565e-21
7.9459777e-21
1.09377569e-20
1.472522483e-20
1.903758732e-20
2.319917007e-20
2.604551658e-20
5.926509556e-21
7.464794942e-21
1.001768581e-20
1.380293085e-20
1.89961764e-20
2.556712384e-20
3.304420569e-20
4.025534011e-20
4.518462738e-20
1.029542457e-20
1.296767487e-20
1.740109685e-20
2.397173882e-20
3.298117348e-20
4.437248399e-20
5.732399876e-20
6.980410471e-20
7.832825749e-20
1.788208909e-20
2.252265485e-20
3.021839986e-20
4.161717996e-20
5.723444589e-20
7.69614268e-20
9.936545033e-20
1.209287997e-19
1.356407645e-19
3.105016658e-20
3.910465301e-20
5.245443853e-20
7.221208084e-20
9.925335322e-20
1.333668081e-19
1.720526435e-19
2.092288224e-19
2.345552443e-19
5.389023268e-20
6.78593604e-20
9.099526023e-20
1.252005493e-19
1.719516343e-19
2.308310824e-19
2.974743013e-19
3.613862341e-19
4.048413037e-19
9.346986816e-20
1.176704298e-19
1.577136947e-19
2.168358867e-19
2.975008959e-19
3.988744196e-19
5.133328287e-19
6.228132715e-19
6.970640329e-19
1.619766072e-19
2.038399599e-19
2.73024737e-19
3.749978214e-19
5.138176365e-19
6.878029516e-19
8.836379206e-19
1.070340951e-18
1.196565191e-18
2.803814307e-19
3.526569361e-19
4.719189255e-19
6.473227267e-19
8.854413642e-19
1.182874784e-18
1.51638164e-18
1.833054589e-18
2.046320587e-18
4.846867831e-19
6.091570679e-19
8.141534253e-19
1.114842792e-18
1.521640232e-18
2.027677134e-18
2.592457506e-18
3.12612821e-18
3.483875114e-18
8.365655703e-19
1.050267019e-18
1.401393147e-18
1.914733577e-18
2.606321548e-18
3.462356747e-18
4.412487683e-18
5.305146249e-18
5.900320259e-18
1.441474045e-18
1.807035741e-18
2.405950815e-18
3.278065677e-18
4.447112715e-18
5.885618827e-18
7.471909399e-18
8.952381961e-18
9.93341076e-18
2.479551279e-18
3.10225795e-18
4.118919836e-18
5.592268903e-18
7.555509219e-18
9.954614887e-18
1.258041801e-17
1.501260477e-17
1.661318805e-17
4.258598258e-18
5.314382592e-18
7.030949585e-18
9.50451226e-18
1.277755926e-17
1.674537686e-17
2.105112453e-17
2.50056796e-17
2.758834323e-17
7.305718289e-18
9.086914675e-18
1.196867479e-17
1.609366348e-17
2.15077328e-17
2.801111617e-17
3.500049913e-17
4.135949696e-17
4.547800703e-17
1.252789897e-17
1.5518038e-17
2.032787869e-17
2.715953158e-17
3.604264748e-17
4.660228894e-17
5.782854522e-17
6.793607034e-17
7.442321569e-17
2.149814609e-17
2.649490945e-17
3.447895422e-17
4.571816694e-17
6.01770801e-17
7.716307434e-17
9.500304805e-17
1.108801034e-16
1.209694999e-16
3.697517316e-17
4.529506474e-17
5.848755944e-17
7.687047157e-17
1.002348347e-16
1.273197791e-16
1.553811027e-16
1.800342111e-16
1.955294315e-16
6.38656069e-17
7.769154534e-17
9.94265183e-17
1.293677183e-16
1.669085586e-16
2.097826631e-16
2.535281301e-16
2.914072708e-16
3.14924223e-16
1.110354778e-16
1.340231529e-16
1.698193201e-16
2.18511557e-16
2.786527946e-16
3.46210624e-16
4.139756432e-16
4.717049599e-16
5.070491868e-16
1.947614898e-16
2.331308618e-16
2.922789213e-16
3.716583573e-16
4.681357126e-16
5.745888842e-16
6.793951844e-16
7.670786279e-16
8.199186359e-16
3.453462491e-16
4.099123267e-16
5.084368735e-16
6.38872863e-16
7.948323238e-16
9.637912241e-16
1.126937369e-15
1.260818044e-15
1.340090421e-15
6.198040715e-16
7.29877552e-16
8.962832618e-16
1.113856262e-15
1.370142713e-15
1.643161117e-15
1.902068987e-15
2.110617995e-15
2.231876818e-15
1.126106731e-15
1.317203867e-15
1.604022242e-15
1.975529089e-15
2.40840247e-15
2.864104551e-15
3.290854505e-15
3.629982116e-15
3.824194795e-15
2.069331679e-15
2.408785926e-15
2.916461558e-15
3.571461167e-15
4.332074194e-15
5.131047534e-15
5.878502313e-15
6.471781657e-15
6.809837166e-15
3.839430361e-15
4.458613512e-15
5.385984125e-15
6.586873511e-15
7.991488652e-15
9.484422113e-15
1.090411635e-14
1.205191407e-14
1.271541014e-14
7.179375465e-15
8.341164971e-15
1.009360812e-14
1.239067642e-14
1.512861914e-14
1.811797329e-14
2.106081122e-14
2.353685293e-14
2.502420994e-14
1.351335537e-14
1.575487066e-14
1.917768726e-14
2.375295712e-14
2.936319861e-14
3.572472968e-14
4.228758474e-14
4.811136014e-14
5.180472609e-14
2.560694679e-14
3.004485245e-14
3.6930136e-14
4.635749706e-14
5.830136469e-14
7.24119185e-14
8.767886143e-14
1.019347224e-13
1.114463391e-13
4.895136335e-14
5.794256097e-14
7.213396016e-14
9.20485066e-14
1.180759559e-13
1.4993368e-13
1.856639982e-13
2.201113187e-13
2.437061387e-13
9.477172855e-14
1.133550624e-13
1.431670914e-13
1.859119752e-13
2.431421046e-13
3.147739239e-13
3.962936627e-13
4.750263285e-13
5.284603307e-13
1.867382765e-13
2.257927693e-13
2.892780602e-13
3.817039463e-13
5.07054934e-13
6.646316631e-13
8.420901075e-13
1.008926074e-12
1.11823446e-12
3.760533466e-13
4.590797183e-13
5.951311506e-13
7.944250185e-13
1.064383876e-12
1.398910792e-12
1.764657535e-12
2.095381326e-12
2.304091867e-12
7.745497028e-13
9.514654418e-13
1.241629189e-12
1.664673605e-12
2.229313168e-12
2.910826747e-12
3.631938657e-12
4.264695503e-12
4.654860637e-12
1.62251749e-12
1.995227325e-12
2.602506415e-12
3.475888893e-12
4.617164751e-12
5.961506031e-12
7.355571251e-12
8.564131896e-12
9.304606439e-12
3.412805538e-12
4.178466681e-12
5.412875146e-12
7.161739167e-12
9.411070081e-12
1.203087057e-11
1.473802569e-11
1.709293744e-11
1.854606745e-11
7.095037374e-12
8.621760098e-12
1.106361049e-11
1.449616982e-11
1.889366734e-11
2.402779799e-11
2.938007395e-11
3.41000475e-11
3.706189319e-11
1.441895588e-11
1.739885592e-11
2.215849248e-11
2.885922845e-11
3.749697704e-11
4.76979626e-11
5.850513039e-11
6.822943691e-11
7.447764825e-11
2.857625017e-11
3.433920413e-11
4.358383814e-11
5.670202553e-11
7.382051701e-11
9.43691513e-11
1.165858092e-10
1.370638636e-10
1.505850783e-10
5.539890822e-11
6.65148778e-11
8.448257656e-11
1.10269557e-10
1.44429425e-10
1.862170412e-10
2.324251498e-10
2.761198263e-10
3.057787828e-10
1.054944656e-10
1.268978894e-10
1.618057143e-10
2.125480705e-10
2.808811697e-10
3.66150457e-10
4.626116669e-10
5.561161022e-10
6.212286841e-10
1.979867143e-10
2.390312606e-10
3.066153843e-10
4.061642029e-10
5.424586544e-10
7.158537854e-10
9.162446928e-10
1.114885453e-09
1.256305142e-09
3.670884021e-10
4.452817956e-10
5.752469373e-10
7.691243142e-10
1.03869672e-09
1.387706586e-09
1.798672426e-09
2.213839104e-09
2.514850391e-09
6.738505097e-10
8.214746393e-10
1.068929256e-09
1.44224712e-09
1.968289437e-09
2.659431385e-09
3.485796978e-09
4.333348986e-09
4.956823239e-09
1.227289999e-09
1.502885755e-09
1.968079556e-09
2.676265414e-09
3.684688166e-09
5.024635562e-09
6.645299298e-09
8.32652878e-09
9.577134808e-09
2.222440569e-09
2.730240558e-09
3.591643914e-09
4.911317526e-09
6.804010633e-09
9.338119942e-09
1.242693728e-08
1.565647244e-08
1.807875402e-08
4.008024672e-09
4.929913229e-09
6.497919082e-09
8.908145695e-09
1.237788071e-08
1.704195429e-08
2.275099345e-08
2.874851869e-08
3.327337384e-08
7.203531965e-09
8.849913338e-09
1.165102868e-08
1.59583151e-08
2.216189233e-08
3.050636264e-08
4.073231834e-08
5.149913075e-08
5.965538509e-08
1.28937463e-08
1.57815265e-08
2.068540118e-08
2.820860687e-08
3.901773186e-08
5.35267177e-08
7.128699492e-08
9.000185913e-08
1.04253868e-07
2.293647339e-08
2.790376197e-08
3.630713667e-08
4.914018413e-08
6.749121396e-08
9.202133262e-08
1.219708312e-07
1.535658228e-07
1.777156093e-07
4.042442019e-08
4.879224321e-08
6.287473279e-08
8.424591664e-08
1.146118855e-07
1.549789502e-07
2.041187618e-07
2.558070949e-07
2.951467928e-07
7.034473654e-08
8.413658747e-08
1.072052258e-07
1.419551856e-07
1.909724267e-07
2.557601992e-07
3.340108918e-07
4.156233729e-07
4.774722573e-07
1.204862845e-07
1.427186981e-07
1.796628263e-07
2.348771469e-07
3.12214312e-07
4.132286724e-07
5.338530783e-07
6.585929043e-07
7.527137499e-07
2.026721282e-07
2.377444028e-07
2.957135259e-07
3.815093788e-07
4.999865231e-07
6.527908963e-07
8.331719523e-07
1.017957947e-06
1.156551136e-06
3.346038507e-07
3.887500412e-07
4.772643955e-07
6.067200734e-07
7.831876755e-07
1.007864444e-06
1.269897456e-06
1.535573777e-06
1.733407748e-06
5.408067681e-07
6.220113766e-07
7.535134814e-07
9.436179992e-07
1.19943539e-06
1.520855401e-06
1.891000547e-06
2.262155e-06
2.536266101e-06
8.540020332e-07
9.725766261e-07
1.162852906e-06
1.434766604e-06
1.795950986e-06
2.243676848e-06
2.752573787e-06
3.256923813e-06
3.626019799e-06
1.316968261e-06
1.485664716e-06
1.753954863e-06
2.132986205e-06
2.629954881e-06
3.237662588e-06
3.919229873e-06
4.586538574e-06
5.070088656e-06
1.983629754e-06
2.217584729e-06
2.586399147e-06
3.10158642e-06
3.768407683e-06
4.572761614e-06
5.462754185e-06
6.323288128e-06
6.940329954e-06
2.919622713e-06
3.236066999e-06
3.730646637e-06
4.413878311e-06
5.286988987e-06
6.325964096e-06
7.460024679e-06
8.542620718e-06
9.310351113e-06
4.202127369e-06
4.619824461e-06
5.267209722e-06
6.15186691e-06
7.268273584e-06
8.578983952e-06
9.99028415e-06
1.132013221e-05
1.225235752e-05
5.918805377e-06
6.457214446e-06
7.284933266e-06
8.404094154e-06
9.79913956e-06
1.141529697e-05
1.313191155e-05
1.472815129e-05
1.583354277e-05
8.165750166e-06
8.843941097e-06
9.878372298e-06
1.126267494e-05
1.296751553e-05
1.491671725e-05
1.695896526e-05
1.883219407e-05
2.011119783e-05
1.104443525e-05
1.187981307e-05
1.314432029e-05
1.481962323e-05
1.685861215e-05
1.915976002e-05
2.153820767e-05
2.369033534e-05
2.514081284e-05
1.465772019e-05
1.566463808e-05
1.717759202e-05
1.916257329e-05
2.155065262e-05
2.421135617e-05
2.69242732e-05
2.934531995e-05
3.09552218e-05
1.91050381e-05
2.029339457e-05
2.206622539e-05
2.437010747e-05
2.711047051e-05
3.012493095e-05
3.315667295e-05
3.582400877e-05
3.757257728e-05
2.44769315e-05
2.585085135e-05
2.788627048e-05
3.050683417e-05
3.358901705e-05
3.69364759e-05
4.025651035e-05
4.31345642e-05
4.499260621e-05
3.084912653e-05
3.240581891e-05
3.469633412e-05
3.761835332e-05
4.101686477e-05
4.466066289e-05
4.822318466e-05
5.126358264e-05
5.319380822e-05
3.827633081e-05
4.000520382e-05
4.253202472e-05
4.572621004e-05
4.939974626e-05
5.328696228e-05
5.703093706e-05
6.017288848e-05
6.213048985e-05
4.678586883e-05
4.866795256e-05
5.140032621e-05
5.482276412e-05
5.871390808e-05
6.277534106e-05
6.662491207e-05
6.979626716e-05
7.172613556e-05
5.637095134e-05
5.837863306e-05
6.127349371e-05
6.486518163e-05
6.890083665e-05
7.305141049e-05
7.691060596e-05
8.002674464e-05
8.188199185e-05
6.698202236e-05
6.90796524e-05
7.208262655e-05
7.57665648e-05
7.985576467e-05
8.400591983e-05
8.780899057e-05
9.081617956e-05
9.255771634e-05
7.851208953e-05
8.065498721e-05
8.370540911e-05
8.742270424e-05
9.15055646e-05
9.55904126e-05
9.92653779e-05
0.0001020995121
0.0001036841391
9.087327261e-05
9.303211693e-05
9.608654944e-05
9.977669328e-05
0.000103781405
0.0001077242261
0.0001111953466
0.0001137913209
0.0001151767529
0.0001039927153
0.0001061311296
0.0001091367274
0.0001127329201
0.0001165837684
0.0001203061215
0.0001234991449
0.0001257951941
0.0001269425512
0.000117758276
0.0001198375095
0.0001227390005
0.0001261735929
0.0001297959679
0.0001332225681
0.0001360683223
0.000138008665
0.0001388839703
0.0001320347214
0.0001340162992
0.000136759547
0.0001399675483
0.0001432913085
0.0001463531037
0.0001487899602
0.0001503265635
0.0001509017032
0.0001466728408
0.0001485203162
0.0001510546403
0.0001539762082
0.0001569381057
0.0001595744351
0.0001615500117
0.0001626437424
0.0001628970346
0.0001615160476
0.0001631962845
0.0001654761483
0.0001680584234
0.0001706038601
0.0001727639418
0.0001742361892
0.0001748574512
0.0001747738831
0.000176405973
0.000177890092
0.0001798763256
0.0001820747247
0.0001841589227
0.0001858027512
0.0001867404899
0.0001868694049
0.0001864405785
0.0001911874221
0.0001924514438
0.0001941120438
0.0001958910497
0.0001974796789
0.0001985783799
0.0001989613419
0.0001985875293
0.0001978113592
0.0002057126734
0.000206737876
0.0002080484091
0.0002093818916
0.0002104511986
0.0002109869001
0.0002108053423
0.0002099273645
0.0002088075764
0.0002198450277
0.0002206180412
0.0002215616854
0.000222432803
0.0002229693061
0.0002229346007
0.0002221885702
0.0002208131192
0.0002193586007
0.0002334615289
0.0002339741998
0.0002345414763
0.0002349422271
0.0002349420567
0.000234339144
0.0002330374846
0.0002311783859
0.0002294024435
0.0002464548411
0.0002467039111
0.0002468921692
0.0002468226673
0.0002462906433
0.0002451302447
0.0002432894314
0.0002409665428
0.000238886113
0.0002587343192
0.0002587209652
0.0002585336877
0.0002580012502
0.0002569497828
0.0002552499189
0.0002528928058
0.0002501308768
0.0002477657336
0.0002702263576
0.000269955641
0.0002694016357
0.0002684197554
0.0002668676547
0.0002646523659
0.0002618069167
0.0002586344664
0.0002560064603
0.0002808741282
0.000280354396
0.0002794469336
0.0002780342081
0.0002760054726
0.0002733035502
0.0002700016115
0.0002664498687
0.0002635822228
0.0002906368324
0.0002898791088
0.0002886350566
0.0002868141293
0.0002843367713
0.0002811805524
0.000277456712
0.0002735586491
0.0002704753304
0.0002994885947
0.0002985059905
0.0002969449812
0.0002947415396
0.0002918464898
0.0002882707521
0.000284161313
0.0002799507957
0.000276675969
0.0003074171133
0.0003062242757
0.0003043679391
0.000301809798
0.0002985299204
0.000294570908
0.0002901129915
0.0002856240437
0.0002821816138
0.0003144221718
0.0003130347917
0.0003109060715
0.000308022365
0.0003043915903
0.000300086157
0.0002953169419
0.000290583145
0.0002869963897
0.0003205140985
0.0003189484764
0.0003165710301
0.0003133915092
0.000309444099
0.0003048290059
0.0002997851076
0.0002948391161
0.0002911303965
0.0003257122203
0.0003239848982
0.0003213825932
0.0003179370419
0.0003137069829
0.0003088183253
0.0003035353034
0.0002984084714
0.0002945990177
0.0003300433827
0.0003281708396
0.0003253673404
0.0003216851023
0.0003172056224
0.0003120783793
0.0003065903597
0.0003013124656
0.0002974222269
0.0003335405611
0.0003315389692
0.0003285574083
0.0003246670135
0.000319970205
0.0003146378988
0.0003089772985
0.0003035763557
0.0002996239058
0.0003362415856
0.0003341266202
0.0003309893434
0.0003269182241
0.0003220347649
0.000316529216
0.0003107265562
0.0003052286955
0.000301231185
0.0003381879884
0.0003359746849
0.0003327030632
0.000328477347
0.0003234363028
0.0003177874661
0.0003118712576
0.0003063006698
0.0003022738146
0.0003394239785
0.0003371266303
0.0003337409269
0.0003293852955
0.0003242139917
0.0003184498593
0.0003124465483
0.0003068254736
0.0003027835733
0.0003399955412
0.0003376276314
0.0003341469154
0.0003296845177
0.0003244084675
0.0003185550252
0.0003124889863
0.0003068377405
0.0003027937183
0.0003399496577
0.0003375238184
0.0003339659164
0.0003294183243
0.0003240612018
0.0003181424288
0.0003120359939
0.0003063730225
0.0003023384817
0.0003393336358
0.0003368616298
0.0003332431076
0.0003286303067
0.0003232139551
0.0003172518552
0.0003111253703
0.0003054673225
0.0003014526134
0.0003381945439
0.0003356872634
0.0003320234307
0.0003273638375
0.0003219083038
0.0003159229618
0.0003097948629
0.0003041566796
0.0003001709735
0.0003365787372
0.0003340462162
0.0003303511492
0.000325661648
0.0003201852375
0.0003141948919
0.0003080817951
0.0003024768046
0.000298528172
0.0003345314677
0.000331982904
0.0003282694813
0.0003235654757
0.0003180848202
0.0003121059487
0.0003060227476
0.0003004627669
0.0002965582563
0.0003320965682
0.0003295403525
0.0003258203006
0.0003211157746
0.0003156459103
0.0003096933217
0.0003036532904
0.0002981487275
0.0002942944439
0.0003293162022
0.0003267599525
0.0003230438964
0.0003183514831
0.000312905934
0.0003069928647
0.000301007762
0.0002955677175
0.0002917688988
0.0003262306705
0.0003236812691
0.0003199787887
0.0003153098417
0.0003099007062
0.0003040389182
0.0002981190912
0.0002927514579
0.0002890125483
0.0003228782682
0.0003203419013
0.0003166615885
0.0003120262566
0.0003066642949
0.0003008641731
0.0002950186589
0.0002897302173
0.0002860549373
0.0003192951856
0.0003167773834
0.0003131269009
0.0003085342018
0.0003032289231
0.0002974995709
0.0002917361951
0.0002865327051
0.0002829241175
0.000315515446
0.0003130211228
0.0003094072625
0.0003048651569
0.0002996249046
0.0002939742369
0.0002882997077
0.0002831859958
0.0002796465672
0.0003115708756
0.0003091043697
0.0003055331104
0.000301048574
0.0002958806088
0.0002903154409
0.0002847354399
0.0002797154806
0.0002762471395
0.0003074911011
0.000305056214
0.0003015327772
0.0002971118705
0.0002920224505
0.0002865485843
0.0002810678513
0.0002761448444
0.0002727490347
0.0003033035699
0.0003009036038
0.0002974325084
0.0002930804446
0.0002880749019
0.000282697207
0.000277319621
0.0002724960638
0.0002691737942
0.0002990335893
0.0002966713841
0.0002932564987
0.000288977708
0.0002840605221
0.0002787830136
0.0002735116689
0.0002687894229
0.0002655413131
0.000294704382
0.00029238235
0.0002890269431
0.0002848251351
0.0002800000026
0.0002748259139
0.0002696631914
0.0002650435453
0.0002618698681
0.0002903371534
0.0002880573133
0.0002847641011
0.0002806423234
0.0002759122242
0.0002708440763
0.0002657917105
0.0002612754381
0.0002581761581
0.0002859511696
0.0002837151785
0.0002804863707
0.000276447065
0.0002718143249
0.0002668539912
0.0002619131326
0.0002575005468
0.0002544753564
0.000281563843
0.0002793730266
0.0002762103698
0.0002722554247
0.0002677217743
0.0002628705418
0.0002580418155
0.000253732818
0.0002507811699
0.000277190823
0.0002750462047
0.0002719510231
0.0002680818244
0.0002636484548
0.000258907081
0.0002541906409
0.0002499847685
0.0002471059058
0.0002728460907
0.0002707484191
0.0002677216533
0.000263939131
0.0002596067457
0.0002549755124
0.0002503710918
0.0002462675592
0.0002434605425
0.0002685420563
0.0002664918304
0.0002635340741
0.0002598387466
0.0002556076108
0.0002510863739
0.0002465933325
0.0002425910708
0.0002398548035
0.0002642896565
0.0002622871506
0.0002593986845
0.0002557907003
0.0002516606863
0.0002472489221
0.0002428662895
0.000238963983
0.000236297234
0.0002600984526
0.0002581437385
0.0002553245626
0.0002518037389
0.0002477743689
0.0002434712176
0.0002391977334
0.0002353938523
0.0002327952766
0.0002559767265
0.0002540696949
0.0002513195585
0.0002478854179
0.0002439559037
0.0002397602093
0.0002355943602
0.0002318871912
0.0002293553488
0.0002519315752
0.0002500719559
0.0002473903855
0.0002440421892
0.000240211469
0.0002361218166
0.0002320618706
0.0002284495444
0.0002259829172
0.0002479690029
0.0002461563829
0.0002435427082
0.0002402794878
0.0002365462606
0.0002325610102
0.0002286050481
0.0002250855648
0.0002226825722
0.0002440940092
0.00024232785
0.0002397812283
0.0002366018147
0.0002329645714
0.0002290818899
0.0002252278338
0.0002217990861
0.0002194580985
0.0002403106745
0.0002385903281
0.0002361097662
0.0002330128163
0.0002294698694
0.0002256877591
0.0002219333989
0.0002185931927
0.0002163125445
0.0002366222407
0.0002349469645
0.0002325313398
0.0002295153614
0.000226064871
0.0002223811965
0.0002187242137
0.0002154702872
0.0002132482876
0.0002330311893
0.000231400159
0.0002290482381
0.0002261116125
0.0002227516115
0.0002191641236
0.000215602113
0.0002124321539
0.0002102670969
0.0002295393131
0.0002279516359
0.0002256620924
0.000222803095
0.0002195315109
0.0002160378688
0.0002125683584
0.000209480019
0.0002073701924
0.0002261477861
0.0002246025115
0.0002223739415
0.0002195907612
0.0002164054368
0.0002130032281
0.0002096236966
0.0002066146076
0.0002045583009
0.0002228572271
0.0002213533577
0.0002191842946
0.0002164750506
0.0002133737623
0.0002100605209
0.0002067684142
0.000203836197
0.000201831708
0.0002196677603
0.000218204261
0.0002160931884
0.0002134559463
0.000210436421
0.0002072096434
0.0002040023883
0.000201144666
0.0001991903073
0.0002165790711
0.0002151548778
0.0002131002417
0.0002105330272
0.0002075929573
0.0002044501176
0.0002013251349
0.0001985395418
0.0001966336459
0.0002135904581
0.0002122044855
0.000210204705
0.0002077055169
0.0002048425737
0.0002017811361
0.0001987358521
0.0001960200421
0.000194160966
0.0002107008813
0.0002093520296
0.0002074055067
0.0002049723283
0.0002021841741
0.0001992016049
0.000196233461
0.0001935851154
0.0001917712444
0.0002079090061
0.0002065961675
0.0002047012953
0.0002023321047
0.0001996164037
0.0001967101814
0.0001938166434
0.0001912334767
0.000189463228
0.0002052132438
0.0002039353081
0.0002020904791
0.0001997832578
0.0001971376857
0.0001943053099
0.0001914838754
0.0001889636412
0.0001872354666
0.000202611789
0.0002013676482
0.0001995712606
0.0001973240022
0.0001947462541
0.000191985254
0.0001892334589
0.0001867739548
0.0001850863429
0.0002001026528
0.0001988912059
0.00019714167
0.0001949523866
0.0001924401847
0.0001897481254
0.00018706355
0.0001846626213
0.0001830140995
0.0001976836933
0.0001965038499
0.0001947995933
0.0001926663218
0.000190217422
0.0001875919106
0.0001849721842
0.0001826277272
0.0001810168634
0.0001953526431
0.0001942033266
0.0001925427986
0.0001904636064
0.0001880758031
0.000185514494
0.0001829572993
0.0001806672643
0.0001790926679
0.0001931071328
0.0001919872836
0.0001903689593
0.0001883419483
0.0001860130798
0.0001835136786
0.0001810167552
0.0001787791486
0.0001772394716
0.0001909447118
0.0001898532894
0.0001882756731
0.000186298984
0.000184026936
0.0001815872037
0.0001791483506
0.0001769612371
0.0001754551749
0.0001888628655
0.000187798851
0.0001862604786
0.000184332294
0.000182115003
0.0001797327585
0.0001773498371
0.0001752113411
0.0001737376329
0.0001868590286
0.0001858214258
0.0001843208675
0.0001824394141
0.0001802748702
0.000177947993
0.0001756189287
0.0001735272356
0.0001720846655
0.0001849305935
0.0001839184302
0.0001824542918
0.0001806178427
0.000178504091
0.0001762305229
0.0001739533067
0.0001719066641
0.0001704940616
0.0001830749137
0.0001820872424
0.0001806581662
0.0001788650413
0.0001768001835
0.0001745779294
0.000172350619
0.0001703473378
0.0001689635781
0.0001812892999
0.0001803251978
0.0001789298621
0.0001771784286
0.0001751606223
0.0001729877506
0.0001708084705
0.0001688469252
0.0001674909305
0.0001795710077
0.0001786295754
0.0001772666938
0.0001755553639
0.0001735828212
0.000171457462
0.0001693244028
0.0001674030317
0.0001660737716
0.0001779172139
0.0001769975735
0.0001756658913
0.0001739931189
0.0001720641025
0.0001699844441
0.0001678958597
0.0001660131637
0.0001647096552
0.0001763249793
0.0001754262706
0.0001741245592
0.0001724888329
0.0001706016486
0.0001685659305
0.0001665201326
0.0001646746718
0.0001633959789
0.0001747911933
0.0001739125671
0.0001726396154
0.0001710394477
0.0001691924323
0.0001671989336
0.0001651942817
0.0001633846687
0.0001621298995
0.0001733124973
0.0001724531062
0.0001712077066
0.0001696416167
0.0001678331198
0.0001658801402
0.0001639150248
0.0001621399129
0.000160908214
0.000171885181
0.0001710441657
0.0001698250944
0.000168291584
0.0001665199396
0.0001646057712
0.0001626785883
0.000160936651
0.0001597271971
0.0001705050482
0.0001696815184
0.0001684875077
0.0001669850258
0.0001652485134
0.0001633713994
0.0001614805112
0.0001597704119
0.0001585823876
0.0001691672471
0.000168360255
0.0001671899553
0.0001657168509
0.0001640136402
0.0001621717172
0.0001603153977
0.0001586357435
0.0001574683161
0.0001678660593
0.0001670745663
0.0001659264959
0.0001644809544
0.0001628090324
0.0001610002526
0.000159176611
0.0001575258883
0.0001563781674
0.0001665946487
0.0001658174805
0.0001646899619
0.0001632699233
0.0001616269996
0.0001598490283
0.0001580559084
0.000156432396
0.000155303377
0.0001653447652
0.0001645805578
0.000163471637
0.0001620746939
0.0001604580812
0.0001587081676
0.0001569430186
0.0001553446738
0.0001542331633
0.000164106409
0.0001633535425
0.0001622608921
0.0001608841655
0.000159290634
0.0001575654529
0.0001558251701
0.0001542494867
0.0001531540066
0.0001628674603
0.0001621239811
0.0001610447863
0.0001596847803
0.0001581103867
0.0001564058506
0.000154686585
0.0001531304219
0.0001520490931
0.0001616132857
0.000160876819
0.0001598076485
0.0001584600846
0.0001568999781
0.0001552110239
0.0001535079646
0.0001519673481
0.0001508977529
0.0001603263393
0.0001595939931
0.0001585306589
0.0001571902969
0.0001556385075
0.0001539588642
0.0001522660004
0.0001507359055
0.0001496749347
0.0001589857824
0.0001582540485
0.0001571914602
0.0001558519127
0.0001543011339
0.0001526230825
0.0001509329569
0.0001494070797
0.000148350771
0.0001575671538
0.0001568318111
0.0001557638352
0.0001544173886
0.0001528587681
0.0001511729123
0.0001494763844
0.0001479469213
0.0001468903
0.0001560421306
0.0001552981593
0.0001542174958
0.0001528549556
0.0001512779157
0.0001495729853
0.0001478590289
0.0001463164862
0.0001452534247
0.0001543784258
0.0001536199445
0.000152518037
0.000151128618
0.000149520732
0.0001477834503
0.0001460390163
0.0001444720778
0.0001433951936
0.0001525398811
0.0001517601183
0.0001506271172
0.0001491984031
0.0001475453564
0.000145760405
0.0001439703888
0.0001423658776
0.0001412664945
0.0001504868024
0.0001496781192
0.0001485029214
0.0001470209262
0.0001453066005
0.0001434567216
0.000141604069
0.0001399470415
0.0001388152424
0.0001481766037
0.0001473305819
0.0001461009692
0.0001445503285
0.0001427570432
0.0001408233197
0.0001388893222
0.0001371633312
0.0001359881282
0.0001455648057
0.0001446724177
0.0001433753178
0.000141739639
0.0001398485842
0.0001378109361
0.000135775749
0.0001339633148
0.0001327329644
0.000142606431
0.000141658305
0.0001402801926
0.0001385425882
0.0001365344768
0.000134372401
0.0001322158145
0.0001302991294
0.0001290016121
0.0001392578108
0.0001382445991
0.0001367720508
0.0001349158687
0.000132771821
0.000130465389
0.0001281678646
0.0001261297428
0.0001247534151
0.0001354787925
0.0001343916454
0.0001328120479
0.0001308217972
0.0001285244533
0.0001260555578
0.0001235995183
0.000121424577
0.0001199589886
0.0001312352941
0.000130066431
0.0001283688292
0.0001262312789