/*--------------------------------*- C++ -*----------------------------------*\
| =========                 |                                                 |
| \\      /  F ield         | OpenFOAM: The Open Source CFD Toolbox           |
|  \\    /   O peration     | Version:  2212                                  |
|   \\  /    A nd           | Website:  www.openfoam.com                      |
|    \\/     M anipulation  |                                                 |
\*---------------------------------------------------------------------------*/
FoamFile
{
    version     2.0;
    format      ascii;
    arch        "LSB;label=32;scalar=64";
    class       volScalarField;
    location    "30.00000000";
    object      C9H8;
}
// * * * * * * * * * * * * * * * * * * * * * * * * * * * * * * * * * * * * * //

dimensions      [0 0 0 0 0 0 0];

internalField   nonuniform List<scalar> 
3000
(
2.962208826e-21
3.327774455e-21
3.879398471e-21
4.614453998e-21
5.525423241e-21
6.587502028e-21
7.736650305e-21
8.833030661e-21
9.608213041e-21
1.112186118e-20
1.254475966e-20
1.469091317e-20
1.755701409e-20
2.113995821e-20
2.541955705e-20
3.032118338e-20
3.559790889e-20
4.02716219e-20
2.491424889e-20
2.832226875e-20
3.35115602e-20
4.055679914e-20
4.958373993e-20
6.072207253e-20
7.392656151e-20
8.845643627e-20
1.008726183e-19
4.745953802e-20
5.45162637e-20
6.541882598e-20
8.053504026e-20
1.003983046e-19
1.255102711e-19
1.557307326e-19
1.886416066e-19
2.152035882e-19
8.428552393e-20
9.800509236e-20
1.195355828e-19
1.49969199e-19
1.90734623e-19
2.429708833e-19
3.058021684e-19
3.725225293e-19
4.237409459e-19
1.449531408e-19
1.707030469e-19
2.116930833e-19
2.705382719e-19
3.503769e-19
4.532191163e-19
5.759966127e-19
7.032319397e-19
7.973698447e-19
2.461119553e-19
2.934102562e-19
3.695789659e-19
4.801606021e-19
6.313114373e-19
8.260374179e-19
1.056286702e-18
1.290226559e-18
1.459025216e-18
4.165697045e-19
5.021621208e-19
6.412221279e-19
8.446656866e-19
1.123830863e-18
1.482731128e-18
1.90335722e-18
2.324484871e-18
2.623273077e-18
7.062757718e-19
8.595304191e-19
1.110119898e-18
1.478568374e-18
1.985024702e-18
2.634334195e-18
3.389812203e-18
4.138316391e-18
4.663524195e-18
1.201819405e-18
1.474081844e-18
1.921270553e-18
2.580851542e-18
3.487958197e-18
4.647781281e-18
5.98971251e-18
7.30953278e-18
8.228803671e-18
2.053511364e-18
2.534432917e-18
3.326762063e-18
4.497583461e-18
6.107524025e-18
8.160978372e-18
1.052678182e-17
1.284183436e-17
1.444669797e-17
3.522537618e-18
4.368571983e-18
5.765247327e-18
7.831135608e-18
1.067011096e-17
1.428295876e-17
1.843117441e-17
2.247631685e-17
2.527460793e-17
6.063213902e-18
7.547549264e-18
1.000119011e-17
1.363193959e-17
1.86164662e-17
2.494392334e-17
3.218330013e-17
3.922300549e-17
4.411114177e-17
1.046605857e-17
1.306623665e-17
1.736867267e-17
2.373666218e-17
3.246960136e-17
4.3521545e-17
5.609294544e-17
6.823030977e-17
7.688801247e-17
1.810540043e-17
2.265638938e-17
3.019509084e-17
4.13620734e-17
5.667748358e-17
7.602218404e-17
9.781386808e-17
1.178590588e-16
1.34226588e-16
3.136526218e-17
3.932229255e-17
5.252001033e-17
7.210447513e-17
9.905156654e-17
1.333564968e-16
1.728987447e-16
2.123820869e-16
2.371494016e-16
5.437332155e-17
6.825671163e-17
9.129639543e-17
1.25495814e-16
1.725381398e-16
2.323102991e-16
3.007040734e-16
3.67019326e-16
4.120587695e-16
9.428440453e-17
1.184622642e-16
1.585908047e-16
2.181443067e-16
3.00001965e-16
4.038563037e-16
5.224072561e-16
6.370733326e-16
7.155662553e-16
1.635127293e-16
2.055666036e-16
2.753674371e-16
3.789400905e-16
5.212451371e-16
7.016786344e-16
9.075085287e-16
1.106523432e-15
1.242847039e-15
2.836069689e-16
3.567033707e-16
4.780354441e-16
6.58061663e-16
9.053664829e-16
1.218848049e-15
1.576349823e-15
1.921935855e-15
2.158635169e-15
4.919776517e-16
6.189845825e-16
8.298163178e-16
1.142635624e-15
1.572321359e-15
2.116898391e-15
2.73781725e-15
3.337908941e-15
3.748857811e-15
8.535791019e-16
1.074213632e-15
1.440487862e-15
1.983943539e-15
2.730377511e-15
3.676267722e-15
4.754555344e-15
5.796470803e-15
6.509854806e-15
1.481195415e-15
1.864435172e-15
2.500669659e-15
3.444660154e-15
4.741125669e-15
6.383798023e-15
8.256061539e-15
1.00648245e-14
1.130309597e-14
2.570667582e-15
3.236303146e-15
4.341354582e-15
5.980853202e-15
8.232276033e-15
1.108445555e-14
1.433463669e-14
1.747395492e-14
1.962281236e-14
4.462050313e-15
5.618102149e-15
7.537236647e-15
1.03842733e-14
1.429332826e-14
1.924441197e-14
2.488499428e-14
3.033180241e-14
3.405932563e-14
7.745757756e-15
9.753419994e-15
1.308600155e-14
1.802914893e-14
2.481474363e-14
3.340673798e-14
4.319207522e-14
5.263808834e-14
5.910056803e-14
1.344670599e-14
1.693303013e-14
2.27192564e-14
3.129993216e-14
4.307524772e-14
5.797954715e-14
7.49464318e-14
9.131753447e-14
1.025132471e-13
2.334341422e-14
2.939663608e-14
3.944097263e-14
5.433148149e-14
7.475711715e-14
1.005967339e-13
1.299946039e-13
1.583424936e-13
1.777176838e-13
4.052029915e-14
5.102801275e-14
6.845858979e-14
9.428771887e-14
1.296975229e-13
1.744609855e-13
2.25346991e-13
2.743734861e-13
3.078552864e-13
7.032188917e-14
8.855550688e-14
1.187896432e-13
1.635649547e-13
2.249006859e-13
3.023641991e-13
3.903259225e-13
4.749747404e-13
5.327206163e-13
1.219976562e-13
1.536200468e-13
2.060260699e-13
2.835760225e-13
3.89698737e-13
5.235557552e-13
6.753319903e-13
8.211654126e-13
9.20502856e-13
2.115291396e-13
2.663262169e-13
3.570732197e-13
4.912224102e-13
6.745514663e-13
9.054106625e-13
1.166677344e-12
1.417205398e-12
1.587524749e-12
3.664720791e-13
4.613160385e-13
6.182378397e-13
8.499067044e-13
1.165961708e-12
1.563117585e-12
2.011493206e-12
2.440324873e-12
2.73113175e-12
6.342150305e-13
7.981087207e-13
1.068957217e-12
1.468154057e-12
2.011576503e-12
2.692630614e-12
3.45917701e-12
4.189931873e-12
4.683929195e-12
1.095996404e-12
1.378605379e-12
1.844955723e-12
2.530869438e-12
3.46207682e-12
4.625301913e-12
5.92964714e-12
7.168152558e-12
8.002188393e-12
1.890562624e-12
2.376535347e-12
3.177015247e-12
4.35136141e-12
5.940414136e-12
7.917492285e-12
1.012443587e-11
1.221002809e-11
1.360811613e-11
3.253848706e-12
4.086634561e-12
5.455347121e-12
7.457102368e-12
1.015501556e-11
1.349581124e-11
1.720520392e-11
2.069118171e-11
2.301569961e-11
5.585069712e-12
7.006121505e-12
9.335481239e-12
1.272960846e-11
1.728269605e-11
2.288950125e-11
2.907670382e-11
3.485442998e-11
3.868418178e-11
9.55596059e-12
1.19684965e-11
1.59106856e-11
2.162997684e-11
2.926046612e-11
3.859722512e-11
4.882900722e-11
5.831616836e-11
6.456346719e-11
1.628982925e-11
2.036117452e-11
2.698966286e-11
3.655810795e-11
4.924491645e-11
6.465796112e-11
8.141888036e-11
9.684047036e-11
1.069240485e-10
2.765238714e-11
3.447586869e-11
4.553866312e-11
6.141761649e-11
8.232567965e-11
1.075272982e-10
1.347051755e-10
1.5950653e-10
1.756033382e-10
4.671953274e-11
5.806660515e-11
7.637695609e-11
1.024927868e-10
1.366186878e-10
1.774044837e-10
2.210016481e-10
2.604472876e-10
2.858547131e-10
7.852188987e-11
9.722835454e-11
1.272575227e-10
1.697925455e-10
2.249197537e-10
2.90216722e-10
3.593777941e-10
4.214092986e-10
4.610608528e-10
1.312166566e-10
1.617643031e-10
2.105258174e-10
2.790845833e-10
3.671751815e-10
4.70551873e-10
5.790311953e-10
6.754837141e-10
7.366769506e-10
2.179104058e-10
2.672880965e-10
3.456351606e-10
4.549376583e-10
5.94131652e-10
7.559477391e-10
9.241831717e-10
1.072495986e-09
1.165912802e-09
3.594599634e-10
4.38417339e-10
5.629166976e-10
7.352215995e-10
9.526734902e-10
1.203107682e-09
1.461126427e-09
1.686731533e-09
1.827860036e-09
5.887228969e-10
7.135673226e-10
9.091669987e-10
1.177696054e-09
1.513556571e-09
1.896834792e-09
2.288296523e-09
2.627934831e-09
2.839041205e-09
9.569283989e-10
1.152064363e-09
1.455843757e-09
1.869568861e-09
2.382524717e-09
2.962782222e-09
3.550572109e-09
4.056875264e-09
4.369727063e-09
1.543112458e-09
1.844586735e-09
2.310972212e-09
2.941247926e-09
3.716173625e-09
4.585535045e-09
5.459463477e-09
6.207258102e-09
6.666871787e-09
2.467934724e-09
2.928336643e-09
3.636292993e-09
4.585980346e-09
5.744445673e-09
7.034108728e-09
8.321468229e-09
9.416419265e-09
1.008619949e-08
3.913706369e-09
4.608889683e-09
5.671769945e-09
7.087716182e-09
8.802346057e-09
1.069772363e-08
1.257771236e-08
1.416813903e-08
1.51369037e-08
6.153161924e-09
7.191417216e-09
8.770386441e-09
1.086041592e-08
1.337443179e-08
1.613576122e-08
1.885912816e-08
2.115211011e-08
2.254368701e-08
9.590477056e-09
1.112502094e-08
1.344729106e-08
1.650324302e-08
2.015693701e-08
2.414721624e-08
2.806295095e-08
3.134624527e-08
3.333257023e-08
1.481911629e-08
1.706492315e-08
2.044832368e-08
2.487722021e-08
3.01439459e-08
3.586700903e-08
4.145865412e-08
4.613048775e-08
4.894931466e-08
2.270208817e-08
2.595870537e-08
3.084526133e-08
3.721190298e-08
4.474705709e-08
5.289916599e-08
6.083394173e-08
6.744328464e-08
7.142219145e-08
3.448536222e-08
3.91678059e-08
4.616896978e-08
5.525322991e-08
6.596019942e-08
7.749964683e-08
8.869486831e-08
9.799593989e-08
1.035848874e-07
5.195494667e-08
5.863538745e-08
6.859308443e-08
8.146724374e-08
9.658642822e-08
1.128275073e-07
1.285402588e-07
1.415661893e-07
1.493815185e-07
7.765423893e-08
8.711820316e-08
1.011871377e-07
1.19320155e-07
1.405490015e-07
1.63288729e-07
1.852368325e-07
2.033990795e-07
2.142829316e-07
1.151836481e-07
1.285057302e-07
1.48264264e-07
1.736622413e-07
2.033169566e-07
2.350058307e-07
2.655309074e-07
2.907533237e-07
3.058538215e-07
1.696121801e-07
1.882579666e-07
2.158573807e-07
2.512526627e-07
2.924859482e-07
3.364579256e-07
3.78745099e-07
4.1364467e-07
4.345240438e-07
2.480409007e-07
2.740041e-07
3.123694252e-07
3.61475065e-07
4.185691919e-07
4.793513588e-07
5.377252385e-07
5.858557201e-07
6.146362502e-07
3.603716796e-07
3.963585383e-07
4.494586843e-07
5.17310815e-07
5.960721084e-07
6.7980175e-07
7.601253859e-07
8.263060263e-07
8.658671164e-07
5.203522075e-07
5.700294328e-07
6.43240455e-07
7.366589344e-07
8.449489198e-07
9.5993564e-07
1.070148906e-06
1.160908686e-06
1.215153574e-06
7.469908055e-07
8.153187276e-07
9.159122565e-07
1.044120548e-06
1.192571569e-06
1.350055835e-06
1.50090333e-06
1.625082866e-06
1.699300777e-06
1.066462738e-06
1.160142766e-06
1.297942563e-06
1.473402086e-06
1.676382237e-06
1.891560541e-06
2.097578046e-06
2.267147807e-06
2.368507783e-06
1.514664116e-06
1.642739113e-06
1.83100307e-06
2.070536068e-06
2.347450991e-06
2.640863182e-06
2.921717566e-06
3.15289387e-06
3.291121158e-06
2.14060963e-06
2.315267908e-06
2.571871027e-06
2.898170046e-06
3.275218285e-06
3.674625519e-06
4.056936832e-06
4.37170716e-06
4.560012383e-06
3.010914131e-06
3.248562248e-06
3.597577916e-06
4.04122879e-06
4.55376257e-06
5.096683984e-06
5.616499232e-06
6.044704537e-06
6.301059178e-06
4.215640419e-06
4.538325559e-06
5.012125963e-06
5.614302143e-06
6.309982611e-06
7.047100192e-06
7.753229962e-06
8.335387863e-06
8.68426237e-06
5.875826686e-06
6.313103223e-06
6.955119887e-06
7.771131313e-06
8.71409626e-06
9.713767313e-06
1.067222402e-05
1.146329811e-05
1.193799079e-05
8.153010147e-06
8.744350384e-06
9.612642109e-06
1.071652668e-05
1.199278917e-05
1.334689903e-05
1.464666019e-05
1.572095937e-05
1.636662599e-05
1.126101159e-05
1.205884695e-05
1.323059754e-05
1.472090263e-05
1.644513817e-05
1.827644223e-05
2.003665981e-05
2.149394623e-05
2.237136373e-05
1.548010202e-05
1.655353267e-05
1.813052051e-05
2.013730262e-05
2.246101773e-05
2.493191194e-05
2.73104472e-05
2.928309418e-05
3.047302437e-05
2.117339348e-05
2.261250377e-05
2.472742332e-05
2.74202616e-05
3.054102889e-05
3.386331004e-05
3.706605313e-05
3.972668926e-05
4.133443313e-05
2.88048406e-05
3.072539174e-05
3.354864552e-05
3.714510245e-05
4.131608507e-05
4.576071896e-05
5.005056562e-05
5.361910105e-05
5.577840485e-05
3.895759055e-05
4.15056299e-05
4.525185587e-05
5.002534686e-05
5.556376618e-05
6.146905052e-05
6.717281968e-05
7.192125218e-05
7.479678027e-05
5.235060548e-05
5.570625851e-05
6.063945602e-05
6.692498117e-05
7.42176011e-05
8.199357108e-05
8.950469455e-05
9.575856409e-05
9.954678543e-05
6.985060619e-05
7.423005455e-05
8.066579952e-05
8.886157437e-05
9.836489516e-05
0.0001084914566
0.000118267007
0.0001264019437
0.0001313273481
9.247561639e-05
9.813009966e-05
0.0001064331588
0.0001169960865
0.0001292288992
0.0001422469789
0.0001547969766
0.0001652268528
0.0001715343285
0.0001213860088
0.0001285967698
0.0001391724893
0.0001526058373
0.000168135037
0.0001846277958
0.0002004936897
0.0002136513893
0.0002215930958
0.0001578591684
0.0001669277485
0.0001802084197
0.0001970434473
0.0002164577707
0.0002370207234
0.0002567456334
0.0002730575512
0.0002828777768
0.0002032501365
0.0002144852141
0.0002309078975
0.0002516735636
0.0002755487608
0.0003007520887
0.0003248440659
0.0003446995722
0.000356616313
0.0002589325161
0.0002726299669
0.0002926080524
0.0003177952386
0.0003466528486
0.000376998269
0.0004058898319
0.0004296088565
0.0004437950353
0.0003262205261
0.0003426412881
0.0003665324974
0.0003965544471
0.0004308177793
0.0004666941435
0.0005007022036
0.0005285043484
0.0005450705732
0.0004062806314
0.0004256274559
0.0004537010029
0.0004888538781
0.0005288056844
0.0005704480074
0.0006097385299
0.0006417170975
0.0006606978374
0.0005000385332
0.0005224340331
0.0005548403836
0.0005952681806
0.0006410146438
0.0006884710967
0.0007330324207
0.0007691362287
0.0007904809083
0.0006080899268
0.0006335583637
0.0006703049715
0.0007159727291
0.0007674178006
0.0008205283298
0.0008701560579
0.0009101809756
0.0009337509206
0.0007306237241
0.0007590786248
0.0008000144043
0.0008506927119
0.0009075255994
0.000965914396
0.001020209313
0.00106380031
0.001089371994
0.0008673654621
0.0008986044614
0.0009434147041
0.0009986771124
0.001060374042
0.001123456258
0.001181834935
0.001228498045
0.001255773893
0.001017546459
0.001051253864
0.001099465989
0.001158699302
0.001224538873
0.001291540069
0.001353255428
0.001402373801
0.001430983636
0.00117990127
0.001215657862
0.001266657043
0.001329082923
0.001398172949
0.001468159213
0.001532330903
0.001583192427
0.001612718113
0.001352692555
0.001389991239
0.001443043674
0.001507748439
0.001579060247
0.001650973874
0.001716621312
0.0017684443
0.001798432391
0.001533759055
0.001572024275
0.001626304992
0.00169227354
0.001764678878
0.00183737437
0.001903447624
0.001955402909
0.001985375536
0.00172057923
0.001759187713
0.001813809365
0.001879958796
0.001952264236
0.002024538998
0.002089941469
0.002141164657
0.002170620398
0.001910339951
0.001948640335
0.00200267957
0.002067888415
0.002138862774
0.002209477946
0.002273074884
0.00232266486
0.00235108334
0.00209999564
0.002137324864
0.002189843313
0.002252973275
0.002321365073
0.002389056862
0.002449693843
0.002496744849
0.002523522762
0.002286296211
0.002321991811
0.002372049276
0.002431957222
0.002496535177
0.002560062236
0.002616458925
0.002659998069
0.002684775759
0.002465746821
0.002499186968
0.002545905692
0.002601433583
0.002660960787
0.002719348576
0.002771227012
0.002811254113
0.002834042808
0.002634559027
0.002665143515
0.002707817928
0.002758560024
0.002812910539
0.002866134861
0.002913386416
0.002949825505
0.002970582382
0.002790536637
0.002818245106
0.002856865702
0.002902740924
0.002951804758
0.002999770193
0.003042296151
0.003075069162
0.003093748204
0.002933113987
0.002957911284
0.002992429192
0.003033363283
0.003077056
0.003119683733
0.003157414108
0.003186466983
0.003203036062
0.003061706689
0.003083568023
0.003113949756
0.003149902366
0.003188183969
0.003225440373
0.003258349147
0.003283663073
0.003298110282
0.00317582914
0.003194753899
0.003221001682
0.003251980113
0.00328486512
0.003316771533
0.003344882757
0.003366477951
0.003378813518
0.003275153043
0.003291170181
0.003313328504
0.003339392073
0.003366951964
0.003393586089
0.00341697409
0.003434909467
0.003445165464
0.003359531791
0.003372700414
0.003390856149
0.003412114972
0.003434475806
0.003455968678
0.003474754882
0.003489125401
0.003497354235
0.003429005114
0.003439412487
0.003453691699
0.003470302316
0.003487639514
0.003504170022
0.003518517873
0.003529450572
0.00353572279
0.003483791934
0.003491550103
0.003502113157
0.00351427244
0.003526804008
0.003538592088
0.003548700951
0.00355635028
0.003560752001
0.003524275897
0.003529517647
0.003536553472
0.003544491691
0.003552470706
0.003559769948
0.003565868556
0.003570411411
0.003573041582
0.003550986363
0.003553860921
0.00355758099
0.003561554631
0.003565261539
0.003568351671
0.003570691534
0.003572322254
0.003573289889
0.003564576737
0.003565245503
0.003565877893
0.003566162611
0.003565897727
0.003565077348
0.003563926375
0.003562851924
0.003562273423
0.003565801551
0.003564434058
0.003562217833
0.003559101827
0.003555178313
0.003550758097
0.003546394661
0.003542830122
0.003540826755
0.003555493433
0.003552263649
0.003547443746
0.003541221738
0.003533959232
0.003526255782
0.003518963342
0.003513127826
0.003509823435
0.003534540838
0.003529623898
0.003522446611
0.003513414535
0.003503133545
0.003492463989
0.00348252635
0.003474639387
0.003470158336
0.003503867218
0.003497436622
0.00348814573
0.003476596194
0.003463613312
0.003450290673
0.003437987934
0.003428266357
0.003422731759
0.003464412117
0.003456637404
0.003445470956
0.003431689476
0.003416313395
0.003400642755
0.003386247923
0.003374903265
0.003368435477
0.003417114503
0.003408159372
0.003395347114
0.003379609083
0.003362137409
0.003344412811
0.003328189076
0.003315425445
0.00330814083
0.00336289847
0.003352919337
0.003338680709
0.003321249071
0.003301965864
0.003282467944
0.003264666526
0.003250678919
0.00324268886
0.003302661395
0.003291806338
0.003276349026
0.003257472555
0.003236646487
0.00321564064
0.003196499211
0.003181472276
0.003172882429
0.003237264427
0.003225672452
0.003209191368
0.003189103465
0.003166986556
0.003144721732
0.00312446331
0.003108570459
0.003099480214
0.0031675251
0.003155325688
0.003138002346
0.003116920329
0.003093747199
0.003070455163
0.003049287426
0.00303269026
0.003023192375
0.003094211988
0.003081524891
0.003063527136
0.003041651909
0.003017639419
0.002993534386
0.002971649329
0.002954497349
0.002944677748
0.003018041126
0.003004976349
0.002986458331
0.002963974366
0.002939321602
0.002914600212
0.002892174108
0.002874604645
0.002864542355
0.002939673928
0.002926331869
0.002907434243
0.002884509817
0.002859398341
0.002834239901
0.002811433493
0.002793571836
0.002783339029
0.002859716414
0.002846188118
0.002827038405
0.002803826033
0.00277842035
0.00275298728
0.002729946167
0.002711905837
0.002701567969
0.002778719483
0.002765086991
0.002745800065
0.002722437085
0.002696885266
0.002671323712
0.002648178882
0.002630062031
0.002619678046
0.002697180047
0.002683516811
0.002664195477
0.002640804739
0.002615239169
0.00258967973
0.002566548206
0.002548446099
0.002538068698
0.002615542829
0.002601914164
0.002582649803
0.002559340438
0.002533878642
0.002508437191
0.002485422753
0.002467416321
0.002457092266
0.002534202661
0.002520666233
0.002501539479
0.00247840772
0.002453153249
0.0024279318
0.002405125761
0.002387286201
0.002377056649
0.00245350714
0.002440113469
0.002421194914
0.002398324936
0.00237336828
0.002348455895
0.002325937912
0.002308327313
0.002298228169
0.00237375953
0.002360552489
0.002341903396
0.002319368172
0.002294787687
0.002270261392
0.00224810029
0.002230772267
0.002220834551
0.002295221797
0.002282239122
0.002263912127
0.002241774278
0.002217637103
0.002193562803
0.002171817397
0.002154817738
0.002145067946
0.002218117715
0.00220539149
0.002187431297
0.002165743924
0.002142106892
0.002118540272
0.002097260177
0.002080627471
0.00207108794
0.002142635956
0.002130193095
0.002112637147
0.002091444642
0.002068355156
0.002045342555
0.002024568976
0.002008335232
0.001999024498
0.002068933134
0.002056795839
0.002039674968
0.00201901379
0.001996510673
0.001974089927
0.001953856419
0.001938047665
0.001928980801
0.001997136756
0.001985322955
0.001968661997
0.001948561418
0.001926675718
0.001904876966
0.001885210167
0.001869847017
0.001861035967
0.001927348041
0.001915871806
0.001899690185
0.001880172999
0.00185892876
0.00183777521
0.001818695525
0.001803793722
0.001795247613
0.00185964461
0.001848516547
0.001832828832
0.001813912014
0.001793326998
0.001772835646
0.001754357903
0.001739928831
0.001731654267
0.001794083008
0.001783310626
0.001768127046
0.00174982238
0.001729908747
0.001710091053
0.001692225111
0.001678276273
0.001670277614
0.001730701071
0.001720289125
0.001705616054
0.001687930714
0.001668695652
0.00164955817
0.00163230949
0.001618844955
0.001611124576
0.001669520122
0.001659470933
0.001645311336
0.001628248427
0.001609694741
0.001591239702
0.00157460987
0.001561630688
0.001554189216
0.001610547
0.001600860749
0.0015872146
0.001570773655
0.001552900309
0.001535126159
0.001519113379
0.001506617958
0.001499454498
0.001553775926
0.001544450926
0.00153131559
0.00151549303
0.001498295644
0.001481197541
0.001465797077
0.001453781539
0.001446893869
0.001499190211
0.001490223154
0.001477593735
0.001462383291
0.001445854598
0.001429424866
0.001414629449
0.001403087947
0.001396472712
0.001446763804
0.001438149994
0.001426019654
0.001411412751
0.001395543011
0.001379771549
0.001365571756
0.001354496766
0.00134814964
0.001396462707
0.001388196261
0.001376556514
0.001362542618
0.001347319999
0.001332194659
0.001318579241
0.001307961824
0.001301877667
0.00134824624
0.001340320277
0.001329161251
0.001315728184
0.001301139102
0.001286646025
0.001273602218
0.001263432262
0.001257605254
0.001302068184
0.001294474998
0.00128378567
0.001270919898
0.001256949323
0.001243073245
0.001230587039
0.00122085347
0.001215277237
0.001257877804
0.001250609012
0.001240377425
0.001228064309
0.001214696042
0.001201420566
0.001189476954
0.001180167924
0.00117483565
0.00121562076
0.001208667438
0.001198880888
0.001187104916
0.001174321837
0.001161629674
0.001150212866
0.001141315931
0.001136220451
0.001175239912
0.001168592719
0.001159237927
0.001147982914
0.001135767198
0.001123640386
0.001112734006
0.001104236269
0.001099370161
0.001136676034
0.001130325319
0.001121388581
0.00111063785
0.001098971161
0.001087391255
0.001076978508
0.001068866758
0.001064222418
0.001099868445
0.001093804338
0.001085271658
0.001075008201
0.001063871863
0.001052820101
0.001042883927
0.001035144751
0.001030714462
0.00106475555
0.001058968052
0.001050825259
0.00104103187
0.001030407018
0.00101986447
0.001010387671
0.001003007561
0.0009987835471
0.001031275326
0.001025754376
0.001017987224
0.001008646626
0.0009985143325
0.0009884620283
0.0009794273861
0.0009723928215
0.0009683673045
0.0009993657266
0.0009941012693
0.000986695527
0.0009777904735
0.0009681318635
0.0009585509004
0.000949941272
0.0009432388014
0.0009394040412
0.0009689650411
0.0009639470779
0.0009568886047
0.0009484019713
0.0009391983184
0.000930069958
0.0009218683608
0.0009154846641
0.0009118329975
0.0009400121941
0.0009352308319
0.0009285056422
0.0009204205033
0.0009116533118
0.0009029590597
0.0008951487427
0.0008890706871
0.0008855945594
0.0009124470011
0.0009078924912
0.00090148681
0.0008937865042
0.0008854375784
0.000877159252
0.0008697237561
0.0008639384423
0.000860630434
0.0008862103818
0.0008818731533
0.000875773462
0.0008684416465
0.0008604931491
0.000852612934
0.0008455361414
0.0008400309424
0.0008368837909
0.0008612445356
0.0008571152228
0.0008513082975
0.0008443289932
0.0008367634928
0.0008292639893
0.0008225301645
0.0008172927569
0.0008142993749
0.0008374930849
0.0008335625499
0.0008280354925
0.0008213931206
0.0008141936303
0.0008070578903
0.0008006517132
0.0007956701021
0.000792823592
0.0008149011887
0.0008111605394
0.0008059008024
0.0007995802132
0.0007927302214
0.0007859417783
0.0007798483692
0.0007751109082
0.0007724045734
0.0007934156308
0.0007898562347
0.0007848516407
0.0007788381362
0.00077232163
0.0007658645207
0.0007600694605
0.0007555648663
0.0007529922195
0.0007729848854
0.0007695983806
0.0007648371361
0.0007591164869
0.0007529179692
0.0007467767506
0.0007412660944
0.0007369834575
0.0007345382266
0.0007535591634
0.0007503374658
0.000745808172
0.0007403666284
0.0007344711298
0.0007286308898
0.0007233911761
0.0007193199675
0.0007169961
0.0007350904417
0.0007320257495
0.0007277174083
0.000722541708
0.0007169347937
0.0007113811574
0.0007063994134
0.0007025294883
0.0007003211529
0.0007175324771
0.000714617274
0.0007105192913
0.0007055966619
0.0007002644351
0.0006949835668
0.0006902473098
0.0006865689088
0.000684470496
0.0007008408085
0.0006980678636
0.0006941700497
0.0006894882096
0.0006844173102
0.0006793959129
0.0006748931487
0.000671396896
0.0006694030172
0.0006849727482
0.000682335115
0.0006786276824
0.0006741748374
0.0006693524391
0.0006645777497
0.0006602969687
0.0006569738686
0.0006550793543
0.0006698873632
0.0006673783769
0.0006638519368
0.0006596167749
0.0006550305786
0.0006504903616
0.0006464205321
0.0006432619643
0.0006414618605
0.0006555454501
0.0006531587237
0.0006498042797
0.0006457759641
0.0006414141897
0.0006370967285
0.0006332272889
0.000630225001
0.0006285145661
0.000641909503
0.0006396389224
0.0006364478635
0.0006326160233
0.0006284673995
0.0006243614858
0.0006206823345
0.000617828435
0.0006162031346
0.000628943676
0.0006267833939
0.0006237474862
0.0006201022064
0.0006161559591
0.0006122508811
0.0006087523654
0.0006060393144
0.0006044948164
0.0006166137419
0.0006145581717
0.000611669549
0.0006082013584
0.0006044471979
0.0006007327267
0.0005974056307
0.0005948262304
0.0005933583994
0.0006048870474
0.0006029308556
0.000600182009
0.0005968818681
0.0005933099748
0.0005897763509
0.0005866118824
0.0005841592663
0.0005827641575
0.0005937324653
0.0005918705642
0.0005892543314
0.000586113619
0.0005827146289
0.0005793525462
0.0005763423231
0.0005740099453
0.0005726837981
0.0005831203453
0.0005813478847
0.0005788574386
0.0005758679375
0.0005726329265
0.0005694335174
0.0005665695524
0.0005643511761
0.0005630904071
0.0005730224624
0.0005713348215
0.000568963658
0.0005661175407
0.0005630380085
0.000559992827
0.0005572675133
0.0005551571983
0.0005539583946
0.0005634119647
0.0005618047434
0.0005595466694
0.0005568364828
0.0005539043362
0.0005510053411
0.0005484114363
0.000546403527
0.0005452634385
0.0005542633199
0.0005527323299
0.0005505814504
0.0005480001006
0.0005452076364
0.0005424471737
0.0005399777839
0.000538066896
0.0005369824282
0.0005455522609
0.0005440935165
0.0005420442219
0.0005395849579
0.0005369248453
0.0005342956306
0.0005319441939
0.0005301252014
0.000529093407
0.0005372557306
0.0005358654394
0.000533912392
0.0005315687901
0.0005290340526
0.0005265291526
0.0005242894221
0.0005225574436
0.000521575515
0.0005293518252
0.0005280263789
0.0005261644994
0.0005239304462
0.0005215144434
0.0005191272574
0.0005169932841
0.0005153436691
0.00051440893
0.0005218197368
0.0005205557012
0.0005187801552
0.0005166498307
0.0005143462399
0.0005120704809
0.0005100365962
0.0005084649112
0.0005075748086
0.0005146396942
0.0005134337994
0.000511739983
0.0005097078439
0.0005075106407
0.0005053403165
0.000503401115
0.00050190313
0.000501055226
0.0005077929012
0.0005066420317
0.0005050255576
0.0005030863198
0.0005009897597
0.0004989191536
0.000497069476
0.0004956411507
0.000494833115
0.0005012614739
0.0005001626584
0.0004986193414
0.0004967679628
0.0004947665624
0.000492790215
0.0004910251312
0.0004896626026
0.0004888922056
0.0004950283752
0.0004939787766
0.0004925046197
0.0004907362833
0.0004888248016
0.0004869374928
0.0004852522867
0.0004839518574
0.0004832169639
0.0004890773481
0.0004880742537
0.0004866654341
0.0004849755315
0.0004831489532
0.0004813456858
0.0004797358413
0.0004784939698
0.0004777925344
0.0004833928487
0.0004824336607
0.0004810865173
0.000479470634
0.0004777241537
0.0004760001392
0.0004744613289
0.0004732746228
0.0004726046871
0.0004779599806
0.0004770422083
0.00047575323
0.0004742071326
0.0004725361424
0.0004708867905
0.0004694148683
0.0004682800805
0.0004676397729
0.0004727644346
0.0004718856873
0.000470651505
0.000469171132
0.0004675712135
0.0004659921262
0.0004645831255
0.0004634971557
0.0004628846945
0.0004677924378
0.0004669504212
0.0004657678027
0.0004643492609
0.0004628161834
0.000461303157
0.0004599532957
0.0004589131982
0.0004583268988
0.0004630307183
0.0004622232343
0.000461089086
0.0004597286539
0.0004582583819
0.0004568074181
0.0004555131134
0.0004545161134
0.0004539544009
0.0004584664936
0.000457691446
0.0004566028218
0.000455296964
0.0004538856762
0.0004524930065
0.0004512509024
0.0004502944221
0.00044975585
0.0004540874928
0.0004533428991
0.0004522970204
0.000451042415
0.0004496865396
0.0004483486654
0.0004471556747
0.0004462373721
0.0004457206479
0.0004498820237
0.000449166037
0.0004481603246
0.0004469539055
0.000445650172
0.0004443639244
0.0004432172902
0.0004423351119
0.0004418391311
0.0004458390912
0.0004451500324
0.0004441821554
0.0004430211759
0.0004417666898
0.0004405293099
0.0004394266843
0.0004385789339
0.0004381028218
0.0004419485791
0.0004412849815
0.0004403529228
0.0004392350399
0.0004380273812
0.0004368366249
0.0004357761697
0.0004349615898
0.0004345047514
0.0004382014995
0.0004375621664
0.0004366643073
0.0004355876875
0.0004344250318
0.0004332792964
0.0004322598017
0.0004314776694
0.0004310398437
0.0004345903096
0.0004339743839
0.0004331096041
0.000432073049
0.0004309543077
0.0004298527755
0.0004288737915
0.0004281240201
0.0004277053365
0.0004311092843
0.0004305163264
0.0004296841165
0.0004286871994
0.0004276121711
0.0004265549595
0.0004256169287
0.0004249001666
0.0004245011964
0.0004277549206
0.0004271849899
0.0004263855653
0.0004254287682
0.0004243982837
0.0004233865841
0.0004224909582
0.0004218086687
0.0004214304614
0.0004245263349
0.0004239800636
0.0004232144656
0.0004222992947
0.0004213153333
0.0004203515129
0.0004195008267
0.0004188553279
0.0004184994205
0.0004214255934
0.000420904238
0.0004201743995
0.0004193034521
0.0004183691955
0.0004174568255
0.0004166546939
0.000416049129
0.0004157175097
0.0004184578957
0.0004179633469
0.000417272094
0.0004164490386
0.0004155688178
0.0004147125822
0.0004139635762
0.0004134017785
0.0004130967852
0.0004156315157
0.000415166241
0.0004145171934
0.0004137466164
0.0004129256985
0.0004121311255
0.0004114404722
0.0004109266819
0.0004106508096
0.0004129573888
0.0004125242794
0.0004119216056
0.0004112086684
0.0004104528167