/*--------------------------------*- C++ -*----------------------------------*\
| =========                 |                                                 |
| \\      /  F ield         | OpenFOAM: The Open Source CFD Toolbox           |
|  \\    /   O peration     | Version:  2212                                  |
|   \\  /    A nd           | Website:  www.openfoam.com                      |
|    \\/     M anipulation  |                                                 |
\*---------------------------------------------------------------------------*/
FoamFile
{
    version     2.0;
    format      ascii;
    arch        "LSB;label=32;scalar=64";
    class       volScalarField;
    location    "30.00000000";
    object      CH2CO;
}
// * * * * * * * * * * * * * * * * * * * * * * * * * * * * * * * * * * * * * //

dimensions      [0 0 0 0 0 0 0];

internalField   nonuniform List<scalar> 
3000
(
2.211972553e-20
2.484955663e-20
2.896877065e-20
3.445776168e-20
4.126040331e-20
4.919147946e-20
5.777276695e-20
6.596001203e-20
7.174870038e-20
8.305051038e-20
9.367591734e-20
1.097022201e-19
1.311047636e-19
1.578604152e-19
1.898184358e-19
2.26421494e-19
2.658255432e-19
3.007264821e-19
1.860432804e-19
2.114925677e-19
2.502435372e-19
3.028539402e-19
3.702629477e-19
4.53439003e-19
5.520440718e-19
6.605460978e-19
7.532637559e-19
3.543982603e-19
4.070944146e-19
4.8850956e-19
6.013905599e-19
7.49720698e-19
9.372458551e-19
1.162918262e-18
1.408680008e-18
1.60703059e-18
6.293951795e-19
7.318467106e-19
8.926269482e-19
1.119892261e-18
1.424311543e-18
1.814390162e-18
2.283586819e-18
2.781823556e-18
3.164298357e-18
1.082432358e-18
1.274722105e-18
1.580819308e-18
2.020252363e-18
2.616457308e-18
3.384445799e-18
4.301305709e-18
5.251457837e-18
5.954451359e-18
1.837844617e-18
2.191051044e-18
2.75985175e-18
3.585636961e-18
4.714380415e-18
6.168530604e-18
7.887960379e-18
9.634953687e-18
1.089549396e-17
3.11076146e-18
3.749937819e-18
4.788393731e-18
6.307647166e-18
8.392368485e-18
1.107253037e-17
1.421364614e-17
1.735851076e-17
1.95897802e-17
5.274193092e-18
6.418653697e-18
8.289983517e-18
1.104145258e-17
1.482352843e-17
1.967239594e-17
2.531410482e-17
3.090373796e-17
3.48258538e-17
8.974766016e-18
1.100794673e-17
1.434743028e-17
1.927300482e-17
2.604703943e-17
3.470829897e-17
4.472949894e-17
5.458558197e-17
6.145046533e-17
1.533495951e-17
1.892635271e-17
2.48432578e-17
3.35866505e-17
4.560928337e-17
6.094397861e-17
7.861122955e-17
9.58994891e-17
1.078842312e-16
2.630523405e-17
3.262319464e-17
4.305320727e-17
5.848075428e-17
7.968156434e-17
1.066615177e-16
1.376395118e-16
1.678477891e-16
1.887448477e-16
4.527828188e-17
5.636290803e-17
7.468608464e-17
1.017996823e-16
1.390230791e-16
1.862753104e-16
2.403376497e-16
2.929088698e-16
3.294125716e-16
7.815744263e-17
9.757487937e-17
1.297043887e-16
1.772590607e-16
2.424748133e-16
3.250085676e-16
4.188893057e-16
5.095284357e-16
5.741825639e-16
1.352057414e-16
1.691912449e-16
2.254882162e-16
3.088803353e-16
4.232519786e-16
5.677133189e-16
7.304473366e-16
8.801394943e-16
1.002367229e-15
2.34226256e-16
2.93646951e-16
3.922035303e-16
5.384544159e-16
7.396871061e-16
9.958657287e-16
1.291155139e-15
1.586003286e-15
1.770957303e-15
4.060431672e-16
5.097199466e-16
6.817729793e-16
9.371632262e-16
1.288459923e-15
1.734818517e-15
2.245560271e-15
2.740780471e-15
3.077119289e-15
7.040864656e-16
8.846390231e-16
1.184306088e-15
1.629032357e-15
2.240318613e-15
3.015868724e-15
3.901168359e-15
4.757457287e-15
5.343617055e-15
1.221061593e-15
1.535106571e-15
2.056356941e-15
2.829804365e-15
3.892492784e-15
5.239912249e-15
6.776984086e-15
8.263164098e-15
9.281185679e-15
2.117887219e-15
2.663748019e-15
3.569817501e-15
4.914196207e-15
6.760990146e-15
9.101971129e-15
1.177168131e-14
1.435240878e-14
1.612000473e-14
3.673933422e-15
4.622381101e-15
6.196805958e-15
8.532841811e-15
1.174159933e-14
1.580832894e-14
2.044515547e-14
2.492645144e-14
2.799528845e-14
6.374258794e-15
8.021887981e-15
1.075710862e-14
1.481546458e-14
2.03895987e-14
2.745320944e-14
3.550552263e-14
4.328622011e-14
4.861354792e-14
1.106109973e-14
1.392301375e-14
1.867421295e-14
2.572363742e-14
3.540523479e-14
4.767219633e-14
6.165367282e-14
7.516094728e-14
8.440797028e-14
1.919693548e-14
2.416769288e-14
3.241987015e-14
4.466313139e-14
6.147605083e-14
8.2775233e-14
1.070465666e-13
1.30490011e-13
1.465370047e-13
3.332118812e-14
4.195422057e-14
5.628571507e-14
7.754649197e-14
1.067380888e-13
1.437112298e-13
1.858333304e-13
2.265083863e-13
2.543443613e-13
5.784288547e-14
7.283547754e-14
9.772215173e-14
1.346360267e-13
1.853087209e-13
2.494710414e-13
3.225448728e-13
3.930847381e-13
4.413445108e-13
1.004157794e-13
1.264505552e-13
1.696602791e-13
2.337380759e-13
3.216724414e-13
4.329730778e-13
5.596764541e-13
6.819307172e-13
7.655367896e-13
1.743212935e-13
2.195248568e-13
2.945328135e-13
4.05730466e-13
5.582627103e-13
7.512248681e-13
9.707589461e-13
1.1824521e-12
1.327139947e-12
3.025928838e-13
3.810611949e-13
5.1122728e-13
7.041111188e-13
9.685404347e-13
1.30281994e-12
1.682820676e-12
2.048935171e-12
2.298966759e-12
5.2514181e-13
6.613047505e-13
8.87083802e-13
1.22145179e-12
1.679487801e-12
2.257961031e-12
2.914831602e-12
3.546962433e-12
3.978190527e-12
9.110402214e-13
1.147186319e-12
1.538538067e-12
2.117656797e-12
2.910147954e-12
3.909750194e-12
5.043167525e-12
6.132205793e-12
6.874026668e-12
1.579633221e-12
1.988840609e-12
2.666510768e-12
3.668294855e-12
5.037338756e-12
6.761322838e-12
8.71238048e-12
1.058324543e-11
1.185513692e-11
2.736698374e-12
3.444963312e-12
4.616806104e-12
6.346836527e-12
8.707036172e-12
1.167287171e-11
1.502120024e-11
1.822358064e-11
2.039523519e-11
4.736118386e-12
5.960025041e-12
7.982636641e-12
1.096371343e-11
1.502182183e-11
2.010772035e-11
2.583204847e-11
3.128909662e-11
3.49781137e-11
8.184555751e-12
1.029499088e-11
1.377754892e-11
1.889973739e-11
2.58537021e-11
3.454030239e-11
4.428074365e-11
5.352951386e-11
5.975783199e-11
1.411812389e-11
1.774721559e-11
2.372494827e-11
3.249459708e-11
4.43611447e-11
5.91253448e-11
7.560610815e-11
9.118065752e-11
1.01621141e-10
2.42987076e-11
3.051769072e-11
4.073880652e-11
5.568728706e-11
7.58344577e-11
1.007824742e-10
1.284830584e-10
1.545152503e-10
1.71874023e-10
4.170750867e-11
5.231947663e-11
6.971440391e-11
9.506068255e-11
1.290617168e-10
1.709315872e-10
2.171356859e-10
2.602819434e-10
2.888813355e-10
7.136080138e-11
8.937685994e-11
1.188158907e-10
1.615257684e-10
2.18507883e-10
2.882318959e-10
3.646396692e-10
4.35486847e-10
4.821397373e-10
1.216470072e-10
1.52050529e-10
2.015499994e-10
2.730041622e-10
3.677453134e-10
4.828451749e-10
6.080105666e-10
7.231742677e-10
7.984753336e-10
2.064984208e-10
2.574540201e-10
3.400674976e-10
4.586465921e-10
6.147815861e-10
8.029796045e-10
1.005935777e-09
1.191144823e-09
1.311350936e-09
3.48884179e-10
4.336204993e-10
5.703564579e-10
7.653814459e-10
1.020223375e-09
1.324799598e-09
1.65037045e-09
1.944939011e-09
2.134674271e-09
5.863694386e-10
7.260632884e-10
9.503117068e-10
1.267950371e-09
1.679624241e-09
2.167243509e-09
2.683719294e-09
3.146953674e-09
3.443060686e-09
9.79864217e-10
1.207984004e-09
1.572119727e-09
2.084096384e-09
2.741932655e-09
3.51392299e-09
4.324019857e-09
5.044304239e-09
5.50128077e-09
1.627229758e-09
1.995965576e-09
2.58103693e-09
3.397277282e-09
4.436743563e-09
5.645150986e-09
6.901500785e-09
8.009074529e-09
8.706695003e-09
2.684179678e-09
3.273804953e-09
4.203527094e-09
5.490255663e-09
7.114143137e-09
8.984349815e-09
1.091120872e-08
1.259601262e-08
1.364995227e-08
4.395983211e-09
5.328271996e-09
6.788948278e-09
8.794263929e-09
1.130243101e-08
1.416474669e-08
1.70882109e-08
1.962467554e-08
2.120125248e-08
7.144946287e-09
8.602131921e-09
1.087065658e-08
1.396028786e-08
1.779105143e-08
2.212453064e-08
2.651436041e-08
3.029568367e-08
3.263224036e-08
1.1520641e-08
1.377187743e-08
1.725467714e-08
2.196152551e-08
2.774885151e-08
3.424172787e-08
4.076898335e-08
4.635436002e-08
4.978736133e-08
1.842254549e-08
2.186046678e-08
2.714718148e-08
3.423947726e-08
4.289155116e-08
5.252421757e-08
6.214040456e-08
7.031991823e-08
7.532358555e-08
2.920837218e-08
3.439920044e-08
4.233616777e-08
5.291068758e-08
6.571734979e-08
7.987587447e-08
9.392131646e-08
1.058049093e-07
1.130441967e-07
4.590620047e-08
5.365801559e-08
6.544830528e-08
8.105722404e-08
9.983623538e-08
1.204671116e-07
1.40818981e-07
1.579582082e-07
1.68361494e-07
7.151496375e-08
8.297040359e-08
1.00309395e-07
1.231320268e-07
1.504271555e-07
1.802473111e-07
2.095213638e-07
2.340760412e-07
2.489353328e-07
1.104244542e-07
1.271850424e-07
1.524423033e-07
1.855165851e-07
2.24866152e-07
2.676487736e-07
3.094741119e-07
3.444402303e-07
3.655485914e-07
1.689908718e-07
1.932842139e-07
2.297501367e-07
2.772865531e-07
3.335860894e-07
3.945450789e-07
4.539337451e-07
5.034504437e-07
5.332876324e-07
2.563382579e-07
2.912417105e-07
3.434555084e-07
4.112535679e-07
4.912368584e-07
5.775370734e-07
6.613734976e-07
7.311252134e-07
7.730966364e-07
3.854469997e-07
4.351842277e-07
5.093685093e-07
6.053678146e-07
7.182418253e-07
8.396681144e-07
9.573408834e-07
1.055063401e-06
1.113790421e-06
5.746245738e-07
6.449564559e-07
7.495893993e-07
8.845932329e-07
1.042866169e-06
1.212684129e-06
1.37688371e-06
1.512993206e-06
1.594674728e-06
8.494754157e-07
9.482115361e-07
1.094773049e-06
1.283385423e-06
1.503927098e-06
1.739972385e-06
1.967699342e-06
2.156108614e-06
2.269014968e-06
1.245506457e-06
1.383163778e-06
1.587090245e-06
1.848904623e-06
2.154282634e-06
2.480340906e-06
2.794220028e-06
3.053442067e-06
3.208590351e-06
1.811495709e-06
2.002126574e-06
2.284005943e-06
2.645092017e-06
3.065261686e-06
3.512863611e-06
3.94289707e-06
4.297511214e-06
4.509544282e-06
2.613709536e-06
2.875924765e-06
3.262982459e-06
3.757766155e-06
4.332264887e-06
4.943056757e-06
5.528919553e-06
6.011459679e-06
6.299769779e-06
3.741030145e-06
4.099276868e-06
4.627264007e-06
5.300963393e-06
6.081773008e-06
6.91057334e-06
7.704537479e-06
8.357893874e-06
8.748056067e-06
5.311135362e-06
5.797330353e-06
6.512949448e-06
7.424688758e-06
8.479846223e-06
9.598470972e-06
1.066907244e-05
1.154952568e-05
1.207512387e-05
7.477910146e-06
8.133479401e-06
9.097382919e-06
1.032400001e-05
1.174199682e-05
1.324393597e-05
1.468049868e-05
1.586149918e-05
1.656641345e-05
1.043998625e-05
1.131827181e-05
1.260858623e-05
1.4249108e-05
1.614407318e-05
1.815005184e-05
2.006811326e-05
2.164484472e-05
2.258603308e-05
1.444998945e-05
1.561895233e-05
1.733523147e-05
1.951589908e-05
2.203346672e-05
2.46977607e-05
2.724525731e-05
2.933987105e-05
3.059057974e-05
1.982392867e-05
2.136900925e-05
2.36364275e-05
2.651603416e-05
2.983953827e-05
3.335662491e-05
3.672040137e-05
3.948753003e-05
4.114068551e-05
2.695005478e-05
2.897699003e-05
3.195042575e-05
3.572543707e-05
4.008177358e-05
4.469252963e-05
4.910431839e-05
5.273608685e-05
5.490736407e-05
3.629647683e-05
3.893370804e-05
4.280115366e-05
4.770984392e-05
5.337400269e-05
5.937025397e-05
6.511082853e-05
6.984016455e-05
7.266995102e-05
4.841669103e-05
5.181690982e-05
5.680149924e-05
6.312612007e-05
7.042313349e-05
7.814907616e-05
8.55489935e-05
9.164978892e-05
9.530310194e-05
6.39521718e-05
6.82924826e-05
7.465234116e-05
8.271826242e-05
9.202127646e-05
0.0001018703154
0.0001113057694
0.0001190886011
0.0001237521421
8.363102791e-05
8.911120748e-05
9.713637114e-05
0.0001073072633
0.000119030712
0.0001314367369
0.0001433197244
0.0001531226219
0.0001589987421
0.0001082614466
0.0001150998642
0.0001251056938
0.0001377741578
0.0001523615921
0.0001677845817
0.000182547785
0.0001947229688
0.0002020215482
0.0001387183376
0.0001471452655
0.0001594620758
0.0001750355851
0.0001929423586
0.0002118490686
0.0002299269916
0.0002448262899
0.0002537597491
0.000175921575
0.0001861698742
0.0002011288848
0.0002200113836
0.0002416828436
0.0002645234281
0.0002863305553
0.0003042903784
0.0003150601173
0.0002208049197
0.0002330984523
0.0002510146963
0.0002735847936
0.0002994311202
0.0003266125852
0.0003525185032
0.0003738235046
0.0003865816166
0.0002742762544
0.0002888168169
0.0003099702764
0.0003365577577
0.0003669277194
0.0003987876785
0.0004290730528
0.0004539140324
0.0004687611626
0.0003371717979
0.0003541256943
0.0003787423465
0.000409605194
0.0004447619183
0.0004815185067
0.0005163361362
0.0005448043284
0.0005617750674
0.0004102087149
0.0004296943533
0.0004579311247
0.0004932313909
0.000533295089
0.0005750197681
0.0006143909775
0.0006464702906
0.0006655427085
0.0004939436744
0.0005160165336
0.0005479203474
0.0005876742225
0.0006326185887
0.0006792327703
0.0007230364245
0.0007585935737
0.0007796722061
0.0005886781243
0.0006133048673
0.0006488076814
0.0006928955237
0.0007425410103
0.0007938097683
0.0008417802486
0.0008805664765
0.0009034878145
0.0006944145792
0.0007214818513
0.000760400691
0.0008085633015
0.0008625771219
0.0009181125645
0.0009698466371
0.001011506335
0.001036045787
0.000810850912
0.0008401652933
0.0008822044532
0.0009340478438
0.0009919526968
0.001051226447
0.001106198217
0.001150283523
0.001176165372
0.0009373728049
0.0009686657214
0.0010134254
0.001068433624
0.00112962487
0.001191988627
0.001249571273
0.001295561465
0.001322471265
0.001073063145
0.001106000348
0.001152991418
0.001210546504
0.001274316519
0.001339029059
0.001398521613
0.001445845776
0.001473444277
0.00121672811
0.001250922987
0.001299586817
0.001358994274
0.001424562093
0.001490820646
0.001551477817
0.001599539171
0.001627476807
0.001366938103
0.001401967771
0.001451699595
0.00151221754
0.001578761589
0.001645735304
0.001706798254
0.001754998575
0.001782929824
0.001522080524
0.001557503514
0.001607677601
0.001668547385
0.001735238944
0.001802102071
0.001862828015
0.001910590657
0.001938189025
0.001680420632
0.001715794877
0.001765789743
0.001826265965
0.001892301102
0.001958263624
0.002017951676
0.002064738479
0.002091697279
0.00184016634
0.00187506627
0.001924288265
0.001983666316
0.002048294534
0.002112629167
0.00217064357
0.002215973927
0.002242025318
0.001999532746
0.002033564411
0.002081468257
0.002139107713
0.002201655558
0.002263719066
0.002319506216
0.002362968224
0.002387886181
0.002156802473
0.002189615843
0.002235720965
0.002291063636
0.002350952091
0.002410200056
0.002463299323
0.002504556165
0.002528158819
0.002310378418
0.002341676276
0.00238557823
0.002438160108
0.002494915193
0.002550909865
0.002600958071
0.002639749486
0.00266189883
0.002458826215
0.002488369393
0.002529746108
0.002579203052
0.002632459605
0.002684870933
0.002731600579
0.002767739346
0.002788337927
0.002600904454
0.002628513517
0.002667126589
0.002713194164
0.002762693533
0.002811294308
0.002854526351
0.002887891035
0.002906871086
0.002735581227
0.002761135205
0.002796827107
0.002839335486
0.002884919554
0.002929578175
0.002969205485
0.00299973399
0.003017086361
0.0028620356
0.002885469498
0.002918160051
0.002957023179
0.002998625381
0.003039325172
0.003075408131
0.003103181178
0.003118959201
0.002979643256
0.003000943443
0.003030636924
0.003065914682
0.003103645904
0.003140522379
0.003173189063
0.003198316485
0.00321258708
0.003088154024
0.003107396857
0.003134208394
0.003166042656
0.003200066202
0.0032332942
0.003262710163
0.003285327039
0.003298169996
0.003187637475
0.003204922798
0.003228997077
0.003257566793
0.00328808402
0.003317871277
0.003344229382
0.003364489773
0.003375994691
0.003278294276
0.003293739738
0.003315244962
0.003340756206
0.003367995418
0.003394573176
0.003418084859
0.003436155445
0.00344641832
0.003360437551
0.003374173131
0.003393293656
0.003415970266
0.003440176698
0.003463790404
0.00348467766
0.003500731833
0.003509851853
0.003434471475
0.003446634246
0.003463563389
0.003483638415
0.003505065303
0.00352596626
0.00354445458
0.003558667287
0.003566744046
0.003500868874
0.003511598319
0.00352653195
0.003544240236
0.003563141192
0.003581579485
0.003597891948
0.003610435411
0.003617566616
0.00356014947
0.003569583536
0.003582714742
0.003598286826
0.003614909646
0.003631128462
0.003645481039
0.003656521389
0.003662801068
0.003612859938
0.003621131916
0.003632646803
0.003646304178
0.003660886092
0.003675117414
0.003687715454
0.003697410241
0.003702927422
0.003659556487
0.0036667927
0.003676867305
0.003688818985
0.003701583257
0.003714044833
0.003725080628
0.00373357712
0.003738414948
0.003700790336
0.003707108561
0.003715906788
0.00372634703
0.00373750076
0.003748394192
0.003758045483
0.00376547965
0.003769714861
0.003737096158
0.003742604702
0.003750277121
0.003759384153
0.003769117096
0.00377862686
0.003787056124
0.003793552185
0.003797254883
0.0037689834
0.003773780697
0.00378046406
0.003788399619
0.003796883819
0.003805177044
0.003812531401
0.003818201813
0.003821435492
0.003796930208
0.003801104835
0.003806922147
0.003813831641
0.003821221699
0.003828448517
0.003834860102
0.003839805891
0.003842627623
0.003821379627
0.003825010622
0.003830071624
0.003836084753
0.00384251855
0.003848812852
0.00385439953
0.003858710851
0.003861171611
0.003842737686
0.003845895084
0.003850297013
0.003855528705
0.003861128431
0.003866608902
0.003871475198
0.003875232056
0.003877377124
0.003861373003
0.003864118498
0.003867947025
0.003872498558
0.003877371928
0.003882143243
0.003886381398
0.003889654454
0.003891523866
0.00387761753
0.003880005213
0.003883335465
0.003887295688
0.003891537245
0.003895691333
0.00389938242
0.003902233839
0.003903862852
0.003891768142
0.003893845252
0.003896742867
0.00390018944
0.003903881868
0.003907499186
0.003910714229
0.003913198522
0.003914618091
0.003904088763
0.003905896433
0.003908418584
0.003911419191
0.003914634605
0.003917785388
0.003920586437
0.003922751277
0.003923988499
0.00391481285
0.00391638681
0.003918583186
0.003921196688
0.003923997851
0.003926743274
0.003929184424
0.003931071411
0.003932149957
0.003924146033
0.003925517272
0.003927430986
0.003929708486
0.003932149926
0.003934543182
0.003936671514
0.003938316888
0.0039392574
0.003932268788
0.003933464147
0.003935132561
0.003937118372
0.003939247408
0.003941334696
0.003943191136
0.003944626427
0.003945446879
0.003939339039
0.003940381751
0.003941837219
0.003943569736
0.003945427398
0.003947248807
0.003948868896
0.00395012151
0.003950837536
0.003945494641
0.003946404807
0.003947675333
0.003949187811
0.003950809657
0.003952399954
0.003953814541
0.00395490828
0.00395553347
0.003950855691
0.003951650701
0.003952760522
0.003954081755
0.003955498594
0.003956887925
0.003958123773
0.003959079303
0.003959625461
0.003955526649
0.00395622155
0.003957191645
0.003958346567
0.003959585094
0.003960799593
0.003961879919
0.003962715174
0.00396319255
0.003959598265
0.003960206078
0.003961054609
0.00396206482
0.003963148167
0.003964210493
0.003965155434
0.00396588598
0.003966303474
0.003963149301
0.003963681304
0.003964424002
0.003965308215
0.003966256434
0.003967186235
0.003968013264
0.00396865261
0.003969017948
0.003966248073
0.003966714035
0.003967364534
0.00396813897
0.00396896945
0.003969783772
0.00397050805
0.003971067922
0.003971387812
0.003968953809
0.0039693622
0.00396993232
0.00397061105
0.003971338876
0.003972052512
0.003972687201
0.00397317778
0.003973458047
0.003971317847
0.003971676014
0.003972176013
0.003972771247
0.003973409514
0.003974035308
0.003974591837
0.003975021966
0.00397526767
0.00397338468
0.003973699003
0.003974137786
0.003974660128
0.003975220211
0.00397576932
0.003976257619
0.003976634982
0.003976850519
0.003975192876
0.003975468897
0.003975854201
0.003976312866
0.003976804649
0.003977286771
0.003977715472
0.003978046749
0.003978235941
0.003976775869
0.003977018405
0.00397735696
0.00397775996
0.003978192041
0.003978615609
0.00397899222
0.00397928322
0.003979449391
0.003978162653
0.003978375898
0.003978673558
0.003979027866
0.003979407724
0.003979780079
0.003980111132
0.00398036691
0.003980512952
0.003979378383
0.003979565987
0.003979827849
0.003980139536
0.003980473685
0.003980801218
0.003981092402
0.003981317359
0.003981445792
0.003980444889
0.003980610033
0.003980840539
0.003981114895
0.003981409012
0.00398169729
0.003981953563
0.003982151534
0.003982264549
0.003981381129
0.003981526587
0.00398172961
0.003981971248
0.003982230281
0.003982484161
0.003982709842
0.003982884169
0.003982983678
0.003982203575
0.003982331766
0.003982510686
0.003982723631
0.003982951898
0.003983175615
0.003983374474
0.003983528073
0.003983615743
0.003982926545
0.003983039583
0.003983197351
0.003983385117
0.003983586387
0.003983783639
0.003983958966
0.003984094382
0.003984171667
0.003983562496
0.003983662228
0.003983801423
0.00398396708
0.003984144646
0.003984318663
0.003984473332
0.003984592787
0.003984660958
0.003984122273
0.003984210313
0.003984333188
0.00398447942
0.003984636162
0.003984789767
0.00398492629
0.003985031725
0.003985091893
0.003984615321
0.003984693082
0.003984801609
0.003984930764
0.0039850692
0.003985204863
0.003985325436
0.00398541855
0.003985471683
0.003985049873
0.003985118591
0.003985214497
0.003985328631
0.003985450966
0.003985570847
0.003985677392
0.003985759671
0.003985806619
0.003985433112
0.00398549387
0.003985578667
0.003985679581
0.003985787744
0.003985893737
0.003985987937
0.003986060681
0.003986102187
0.003985771306
0.003985825055
0.003985900068
0.003985989339
0.003986085022
0.003986178786
0.003986262116
0.003986326465
0.00398636318
0.003986069932
0.003986117504
0.003986183897
0.003986262908
0.003986347595
0.003986430583
0.003986504337
0.00398656129
0.003986593784
0.003986333778
0.003986375904
0.003986434696
0.003986504662
0.003986579654
0.003986653143
0.003986718454
0.003986768887
0.003986797661
0.00398656703
0.003986604352
0.003986656439
0.003986718426
0.003986784867
0.003986849975
0.00398690784
0.003986952523
0.003986978015
0.003986773355
0.003986806436
0.003986852605
0.00398690755
0.003986966443
0.003987024156
0.003987075448
0.003987115056
0.003987137653
0.003986955964
0.0039869853
0.003987026242
0.003987074968
0.003987127196
0.003987178378
0.003987223867
0.003987258994
0.003987279033
0.003987117671
0.003987143698
0.003987180023
0.003987223254
0.003987269593
0.003987315005
0.003987355366
0.003987386533
0.003987404314
0.003987260946
0.003987284048
0.00398731629
0.003987354664
0.003987395797
0.003987436108
0.003987471935
0.003987499602
0.003987515387
0.003987387956
0.003987408471
0.003987437103
0.00398747118
0.003987507708
0.003987543507
0.003987575326
0.003987599897
0.003987613915
0.003987500606
0.003987518831
0.003987544268
0.003987574543
0.003987606996
0.003987638802
0.003987667073
0.003987688905
0.00398770136
0.003987600569
0.003987616767
0.003987639375
0.003987666283
0.003987695128
0.0039877234
0.003987748529
0.003987767935
0.003987779006
0.003987689316
0.003987703719
0.003987723821
0.003987747747
0.003987773397
0.003987798536
0.003987820883
0.00398783814
0.003987847986
0.003987768144
0.003987780955
0.003987798837
0.00398782012
0.003987842937
0.003987865302
0.003987885182
0.003987900535
0.003987909294
0.003987838194
0.003987849594
0.003987865506
0.003987884447
0.003987904752
0.003987924656
0.003987942348
0.003987956013
0.003987963809
0.00398790047
0.003987910619
0.003987924784
0.003987941646
0.003987959724
0.003987977444
0.003987993197
0.003988005363
0.003988012304
0.00398795586
0.003987964898
0.003987977514
0.003987992531
0.003988008631
0.003988024413
0.003988038444
0.00398804928
0.003988055463
0.003988005146
0.003988013198
0.003988024437
0.003988037816
0.003988052161
0.003988066223
0.003988078724
0.00398808838
0.003988093889
0.003988049019
0.003988056195
0.003988066211
0.003988078135
0.00398809092
0.003988103453
0.003988114596
0.003988123203
0.003988128114
0.003988088088
0.003988094486
0.003988103416
0.003988114047
0.003988125445
0.00398813662
0.003988146556
0.00398815423
0.003988158609
0.003988122894
0.003988128599
0.003988136563
0.003988146044
0.003988156211
0.003988166178
0.00398817504
0.003988181886
0.003988185792
0.003988153912
0.003988159002
0.003988166107
0.003988174566
0.003988183636
0.003988192529
0.003988200436
0.003988206544
0.003988210029
0.003988181566
0.003988186107
0.003988192448
0.003988199997
0.003988208092
0.003988216029
0.003988223086
0.003988228538
0.003988231649
0.003988206227
0.003988210282
0.003988215942
0.003988222681
0.003988229908
0.003988236994
0.003988243295
0.003988248162
0.00398825094
0.003988228229
0.003988231849
0.003988236904
0.003988242922
0.003988249375
0.003988255703
0.00398826133
0.003988265678
0.003988268158
0.003988247863
0.003988251097
0.003988255612
0.003988260987
0.003988266752
0.003988272405
0.003988277432
0.003988281315
0.003988283532
0.003988265391
0.00398826828
0.003988272314
0.003988277117
0.003988282268
0.003988287319
0.003988291811
0.003988295281
0.003988297262
0.003988281043
0.003988283625
0.00398828723
0.003988291522
0.003988296126
0.00398830064
0.003988304655
0.003988307757
0.003988309527
0.003988295023
0.003988297331
0.003988300554
0.003988304391
0.003988308507
0.003988312543
0.003988316132
0.003988318905
0.003988320488
0.003988307514
0.003988309578
0.003988312459
0.00398831589
0.003988319571
0.00398832318
0.00398832639
0.00398832887
0.003988330285
0.003988318677
0.003988320523
0.0039883231
0.003988326169
0.003988329461
0.003988332689
0.00398833556
0.003988337778
0.003988339044
0.003988328656
0.003988330307
0.003988332613
0.003988335358
0.003988338303
0.003988341191
0.00398834376
0.003988345745
0.003988346878
0.003988337579
0.003988339056
0.003988341119
0.003988343576
0.003988346211
0.003988348796
0.003988351094
0.00398835287
0.003988353884
0.003988345559
0.003988346881
0.003988348728
0.003988350926
0.003988353285
0.003988355598
0.003988357655
0.003988359245
0.003988360152
0.003988352698
0.003988353882
0.003988355534
0.003988357503
0.003988359614
0.003988361684
0.003988363526
0.003988364949
0.003988365762
0.003988359085
0.003988360145
0.003988361625
0.003988363387
0.003988365277
0.003988367131
0.00398836878
0.003988370055
0.003988370782
0.003988364802
0.003988365751
0.003988367076
0.003988368654
0.003988370346
0.003988372007
0.003988373484
0.003988374625
0.003988375276
0.003988369918
0.003988370768
0.003988371955
0.003988373368
0.003988374885
0.003988376372
0.003988377694
0.003988378717
0.0039883793
0.003988374499
0.00398837526
0.003988376323
0.00398837759
0.003988378948
0.00398838028
0.003988381465
0.003988382381
0.003988382904
0.003988378601
0.003988379283
0.003988380235
0.00398838137
0.003988382586
0.00398838378
0.003988384842
0.003988385662
0.003988386131
0.003988382274
0.003988382885
0.003988383739
0.003988384755
0.003988385845
0.003988386915
0.003988387866
0.003988388602
0.003988389021
0.003988385564
0.003988386112
0.003988386876
0.003988387787
0.003988388765
0.003988389723
0.003988390576
0.003988391235
0.003988391611
0.003988388511
0.003988389002
0.003988389688
0.003988390504
0.00398839138
0.003988392239
0.003988393004
0.003988393594
0.003988393932
0.003988391152
0.003988391592
0.003988392206
0.003988392938
0.003988393723
0.003988394494
0.003988395179
0.003988395709
0.003988396011
0.003988393518
0.003988393912
0.003988394463
0.003988395119
0.003988395823
0.003988396514
0.003988397128
0.003988397603
0.003988397874
0.003988395638
0.003988395992
0.003988396486
0.003988397074
0.003988397705
0.003988398325
0.003988398875
0.003988399301
0.003988399544
0.003988397538
0.003988397855
0.003988398298
0.003988398826
0.003988399392
0.003988399947
0.003988400441
0.003988400823
0.003988401041
0.003988399241
0.003988399526
0.003988399923
0.003988400396
0.003988400904
0.003988401402
0.003988401845
0.003988402188
0.003988402383
0.003988400768
0.003988401023
0.003988401379
0.003988401804
0.003988402259
0.003988402706
0.003988403104
0.003988403411
0.003988403586
0.003988402136
0.003988402365
0.003988402685
0.003988403066
0.003988403474
0.003988403875
0.003988404232
0.003988404507
0.003988404665
0.003988403363
0.003988403569
0.003988403856
0.003988404197
0.003988404564
0.003988404923
0.003988405243
0.003988405491
0.003988405632
0.003988404464
0.003988404648
0.003988404905
0.003988405212
0.003988405541
0.003988405863
0.00398840615
0.003988406372
0.003988406499
0.00398840545
0.003988405616
0.003988405847
0.003988406122
0.003988406417
0.003988406706
0.003988406964
0.003988407163
0.003988407277
0.003988406335
0.003988406483
0.003988406691
0.003988406938
0.003988407202
0.003988407462
0.003988407693
0.003988407872
0.003988407974
0.003988407129
0.003988407262
0.003988407448
0.003988407669
0.003988407907
0.00398840814
0.003988408348
0.003988408508
0.0039884086
0.003988407841
0.00398840796
0.003988408127
0.003988408326
0.003988408539
0.003988408749
0.003988408935
0.003988409079
0.003988409161
0.003988408479
0.003988408587
0.003988408737
0.003988408915
0.003988409107
0.003988409295
0.003988409462
0.003988409591
0.003988409665
0.003988409053
0.003988409149
0.003988409283
0.003988409444
0.003988409616
0.003988409784
0.003988409935
0.003988410051
0.003988410117
0.003988409567
0.003988409653
0.003988409774
0.003988409918
0.003988410073
0.003988410224
0.003988410359
0.003988410463
0.003988410522
0.003988410029
0.003988410106
0.003988410215
0.003988410344
0.003988410483
0.003988410619
0.003988410739
0.003988410833
0.003988410886
0.003988410443
0.003988410513
0.00398841061
0.003988410726
0.003988410851
0.003988410973
0.003988411081
0.003988411165
0.003988411213
0.003988410815
0.003988410878
0.003988410965
0.003988411069
0.003988411181
0.00398841129
0.003988411388
0.003988411463
0.003988411505
0.003988411149
0.003988411206
0.003988411284
0.003988411377
0.003988411477
0.003988411575
0.003988411662
0.00398841173
0.003988411768
0.003988411449
0.003988411499
0.00398841157
0.003988411653
0.003988411743
0.00398841183
0.003988411908
0.003988411969
0.003988412003
0.003988411718
0.003988411763
0.003988411826
0.0039884119
0.003988411981
0.003988412059
0.003988412129
0.003988412182
0.003988412213
0.003988411959
0.003988411999
0.003988412055
0.003988412122
0.003988412193
0.003988412263
0.003988412325
0.003988412373
0.0039884124
0.003988412174
0.00398841221
0.00398841226
0.003988412319
0.003988412383
0.003988412445
0.0039884125
0.003988412543
0.003988412567
0.003988412367
0.003988412399
0.003988412443
0.003988412496
0.003988412552
0.003988412607
0.003988412656
0.003988412694
0.003988412715
0.003988412538
0.003988412566
0.003988412606
0.003988412652