/*--------------------------------*- C++ -*----------------------------------*\
| =========                 |                                                 |
| \\      /  F ield         | OpenFOAM: The Open Source CFD Toolbox           |
|  \\    /   O peration     | Version:  2212                                  |
|   \\  /    A nd           | Website:  www.openfoam.com                      |
|    \\/     M anipulation  |                                                 |
\*---------------------------------------------------------------------------*/
FoamFile
{
    version     2.0;
    format      ascii;
    arch        "LSB;label=32;scalar=64";
    class       volScalarField;
    location    "30.00000000";
    object      CH3;
}
// * * * * * * * * * * * * * * * * * * * * * * * * * * * * * * * * * * * * * //

dimensions      [0 0 0 0 0 0 0];

internalField   nonuniform List<scalar> 
3000
(
2.95222923e-24
3.313813731e-24
3.859303646e-24
4.585998013e-24
5.486397626e-24
6.535980288e-24
7.671510291e-24
8.754875774e-24
9.520852963e-24
1.107513936e-23
1.248099687e-23
1.460086462e-23
1.743099258e-23
2.096801481e-23
2.519206228e-23
3.003001319e-23
3.523917764e-23
3.985488982e-23
2.477231548e-23
2.81335151e-23
3.324981393e-23
4.019332278e-23
4.908678083e-23
6.005747649e-23
7.306132875e-23
8.737038384e-23
9.959929175e-23
4.708844678e-23
5.403140739e-23
6.475364451e-23
7.961242587e-23
9.912761534e-23
1.237884085e-22
1.534550379e-22
1.857542215e-22
2.118179618e-22
8.339658641e-23
9.685417579e-23
1.179620731e-22
1.477789292e-22
1.876908988e-22
2.387998325e-22
3.002383985e-22
3.654464075e-22
4.154831501e-22
1.429460519e-22
1.681138528e-22
2.081505142e-22
2.655805218e-22
3.434315931e-22
4.4362749e-22
5.631492557e-22
6.869214458e-22
7.784423988e-22
2.417631016e-22
2.878040284e-22
3.618895664e-22
4.693439005e-22
6.1606854e-22
8.048969044e-22
1.027953341e-21
1.2543843e-21
1.417645223e-21
4.074265098e-22
4.903698407e-22
6.250057659e-22
8.217628284e-22
1.091435552e-21
1.437722497e-21
1.84310883e-21
2.248566507e-21
2.535997177e-21
6.874867682e-22
8.352808647e-22
1.076704574e-21
1.43125176e-21
1.917969327e-21
2.541160052e-21
3.26534917e-21
3.982053766e-21
4.484491836e-21
1.163898559e-21
1.425117835e-21
1.853715724e-21
2.485063765e-21
3.352135985e-21
4.45922241e-21
5.738434464e-21
6.995071862e-21
7.869490548e-21
1.978091818e-21
2.437041571e-21
3.192329775e-21
4.306903305e-21
5.837257724e-21
7.786333784e-21
1.002874913e-20
1.222032085e-20
1.373804419e-20
3.374358154e-21
4.177273773e-21
5.501229483e-21
7.456795469e-21
1.014008671e-20
1.354962538e-20
1.745876565e-20
2.126583813e-20
2.389661447e-20
5.775076745e-21
7.175751506e-21
9.488328436e-21
1.290537624e-20
1.75892215e-20
2.352578182e-20
3.030801133e-20
3.689445406e-20
4.146237764e-20
9.910759195e-21
1.235012658e-20
1.638151e-20
2.233944143e-20
3.049705877e-20
4.080475521e-20
5.251267198e-20
6.380191972e-20
7.18422428e-20
1.704369694e-20
2.128801568e-20
2.830984796e-20
3.86953149e-20
5.291566019e-20
7.084849367e-20
9.102103296e-20
1.095596682e-19
1.246612272e-19
2.935011805e-20
3.672668978e-20
4.894588701e-20
6.704996914e-20
9.191834041e-20
1.235239837e-19
1.598973571e-19
1.961650693e-19
2.188936845e-19
5.057443988e-20
6.336767273e-20
8.457054875e-20
1.159937641e-19
1.591442153e-19
2.138792965e-19
2.764112581e-19
3.36959396e-19
3.78034344e-19
8.716634618e-20
1.093104943e-19
1.460151832e-19
2.004004538e-19
2.75026277e-19
3.695442997e-19
4.772655578e-19
5.813101787e-19
6.52451073e-19
1.502458413e-19
1.885261787e-19
2.519789753e-19
3.459800312e-19
4.749101416e-19
6.381031188e-19
8.239647128e-19
1.00341669e-18
1.126199282e-18
2.58992333e-19
3.251176163e-19
4.347304534e-19
5.971025878e-19
8.197648704e-19
1.101517796e-18
1.422310571e-18
1.731965966e-18
1.943811255e-18
4.464896389e-19
5.606659656e-19
7.499410966e-19
1.030313119e-18
1.414748786e-18
1.901120015e-18
2.454759848e-18
2.989054295e-18
3.354519504e-18
7.698080808e-19
9.669033027e-19
1.293651653e-18
1.777656087e-18
2.441250184e-18
3.280675305e-18
4.236006838e-18
5.157763866e-18
5.788137653e-18
1.327393743e-18
1.667570351e-18
2.23153482e-18
3.066898893e-18
4.212122238e-18
5.660578366e-18
7.308720386e-18
8.898615169e-18
9.985755797e-18
2.289056625e-18
2.876110768e-18
3.849354569e-18
5.290872589e-18
7.266855015e-18
9.765611228e-18
1.260826316e-17
1.53498775e-17
1.722425693e-17
3.947662238e-18
4.960642495e-18
6.639926332e-18
9.126942544e-18
1.253550346e-17
1.6844907e-17
2.174615184e-17
2.647195649e-17
2.970215441e-17
6.808189211e-18
8.55588933e-18
1.145290138e-17
1.574270887e-17
2.16207624e-17
2.905017821e-17
3.749711424e-17
4.563890449e-17
5.120232432e-17
1.174103876e-17
1.475585972e-17
1.975253958e-17
2.714980634e-17
3.728267789e-17
5.008489486e-17
6.463400848e-17
7.865109068e-17
8.822521265e-17
2.024553726e-17
2.54449529e-17
3.406047782e-17
4.681117781e-17
6.426982519e-17
8.631607729e-17
1.113555248e-16
1.354641818e-16
1.519216195e-16
3.490200105e-17
4.386586614e-17
5.871472102e-17
8.068102765e-17
1.107406566e-16
1.486721093e-16
1.917183696e-16
2.331288878e-16
2.61374394e-16
6.014528709e-17
7.559098517e-17
1.01166812e-16
1.389798112e-16
1.906849479e-16
2.558684435e-16
3.297606887e-16
4.007625618e-16
4.491383449e-16
1.035839489e-16
1.301778846e-16
1.741899765e-16
2.392104141e-16
3.280287075e-16
4.398600499e-16
5.664494661e-16
6.878995614e-16
7.705243342e-16
1.782400558e-16
2.239775947e-16
2.996188534e-16
4.112544753e-16
5.635489249e-16
7.549924945e-16
9.712940821e-16
1.178396897e-15
1.319017893e-15
3.063314901e-16
3.848702931e-16
5.146421223e-16
7.059215861e-16
9.664284375e-16
1.293224501e-15
1.661571081e-15
2.013347837e-15
2.251604068e-15
5.256160519e-16
6.601929509e-16
8.82305301e-16
1.209162272e-15
1.653372758e-15
2.209172925e-15
2.833768961e-15
3.428358025e-15
3.829812478e-15
8.9994558e-16
1.129891596e-15
1.508866327e-15
2.06543579e-15
2.819850989e-15
3.760766246e-15
4.814277147e-15
5.813259426e-15
6.485191296e-15
1.536651613e-15
1.928104842e-15
2.572127579e-15
3.515610269e-15
4.790387611e-15
6.374159802e-15
8.139671624e-15
9.80601853e-15
1.092179211e-14
2.614851141e-15
3.278123209e-15
4.367008384e-15
5.957422699e-15
8.098050279e-15
1.074534159e-14
1.368119701e-14
1.64371735e-14
1.827299249e-14
4.430904171e-15
5.548141257e-15
7.377559225e-15
1.004000622e-14
1.360729663e-14
1.79953188e-14
2.283279598e-14
2.734602247e-14
3.03349067e-14
7.470279184e-15
9.338572131e-15
1.23883778e-14
1.680811804e-14
2.269866177e-14
2.990001582e-14
3.778593764e-14
4.509322974e-14
4.990174225e-14
1.251921526e-14
1.56160035e-14
2.065276032e-14
2.791579617e-14
3.753702355e-14
4.921778379e-14
6.191430613e-14
7.359236734e-14
8.122502225e-14
2.083514574e-14
2.59141894e-14
3.413941888e-14
4.593184763e-14
6.144463272e-14
8.013214742e-14
1.002803835e-13
1.186662962e-13
1.305983286e-13
3.440269646e-14
4.262921417e-14
5.588382096e-14
7.475895906e-14
9.939145037e-14
1.288071805e-13
1.602414187e-13
1.886854442e-13
2.070107241e-13
5.631464846e-14
6.944630447e-14
9.047555892e-14
1.201839173e-13
1.585944737e-13
2.04006875e-13
2.520530937e-13
2.951303102e-13
3.226716637e-13
9.134114399e-14
1.119569856e-13
1.447275481e-13
1.905758921e-13
2.491884366e-13
3.176514374e-13
3.892179565e-13
4.526815481e-13
4.929003794e-13
1.468001209e-13
1.785755454e-13
2.286201022e-13
2.977834374e-13
3.849269357e-13
4.850994126e-13
5.88095674e-13
6.78000265e-13
7.342300233e-13
2.33941332e-13
2.819763644e-13
3.567434618e-13
4.584264493e-13
5.840096674e-13
7.250016135e-13
8.661215892e-13
9.857481776e-13
1.058424156e-12
3.70224254e-13
4.414819352e-13
5.507411199e-13
6.96166316e-13
8.706593462e-13
1.059223329e-12
1.238582489e-12
1.380519779e-12
1.459266894e-12
5.830629321e-13
6.870929823e-13
8.436587726e-13
1.046215648e-12
1.279275333e-12
1.515490136e-12
1.717650181e-12
1.849340399e-12
1.896894872e-12
9.155947644e-13
1.06587158e-12
1.287232091e-12
1.563802588e-12
1.864413223e-12
2.139677427e-12
2.329503745e-12
2.390185593e-12
2.345746165e-12
1.4342277e-12
1.650434342e-12
1.96195812e-12
2.336901597e-12
2.718986108e-12
3.028654122e-12
3.191294376e-12
3.211959098e-12
3.272041453e-12
2.235209684e-12
2.546478488e-12
2.986565954e-12
3.500252705e-12
4.002168145e-12
4.407201782e-12
4.756281655e-12
5.487362904e-12
6.253863996e-12
3.442469988e-12
3.89188964e-12
4.522439533e-12
5.25925895e-12
6.034243124e-12
6.97098803e-12
8.988483374e-12
1.170753582e-11
1.416724217e-11
5.184191889e-12
5.841319922e-12
6.792479756e-12
8.031734712e-12
9.873000007e-12
1.372767892e-11
1.972825388e-11
2.735733007e-11
3.424118208e-11
7.56195083e-12
8.590233487e-12
1.030830234e-11
1.333645864e-11
1.950589443e-11
2.989413722e-11
4.536014431e-11
6.503516454e-11
8.30406235e-11
1.087430931e-11
1.290470615e-11
1.753081482e-11
2.633878244e-11
4.174284624e-11
6.668778816e-11
1.034724085e-10
1.500057648e-10
1.921534514e-10
1.777711655e-11
2.367358856e-11
3.519281397e-11
5.586091913e-11
9.092757949e-11
1.466606759e-10
2.268547611e-10
3.242709702e-10
4.079632807e-10
3.567616215e-11
4.927381171e-11
7.513657313e-11
1.205822903e-10
1.959121524e-10
3.114171713e-10
4.68220039e-10
6.438349664e-10
7.816271773e-10
7.75879642e-11
1.073671168e-10
1.630679343e-10
2.584625102e-10
4.10148183e-10
6.280987974e-10
8.985193958e-10
1.171426586e-09
1.365643509e-09
1.733309032e-10
2.363678115e-10
3.511253692e-10
5.391570085e-10
8.190049263e-10
1.18702736e-09
1.599991433e-09
1.980319159e-09
2.232934987e-09
3.853691059e-10
5.11469004e-10
7.315278559e-10
1.070131601e-09
1.534513943e-09
2.092636334e-09
2.671789289e-09
3.177837476e-09
3.50286425e-09
8.241605864e-10
1.054744223e-09
1.436715432e-09
1.985312461e-09
2.683641946e-09
3.472189403e-09
4.260166098e-09
4.936695735e-09
5.366178474e-09
1.641960351e-09
2.020341081e-09
2.617779636e-09
3.431136301e-09
4.421932431e-09
5.514073448e-09
6.598427069e-09
7.530552056e-09
8.122029685e-09
2.998151869e-09
3.564848282e-09
4.434151589e-09
5.589031558e-09
6.979527798e-09
8.514280416e-09
1.005136082e-08
1.13863227e-08
1.223983347e-08
5.046510747e-09
5.857439105e-09
7.091287559e-09
8.72734664e-09
1.070942093e-08
1.292407089e-08
1.517672846e-08
1.716555411e-08
1.845638003e-08
7.980031646e-09
9.132716254e-09
1.089223935e-08
1.324429343e-08
1.613066218e-08
1.941062718e-08
2.281325297e-08
2.588276357e-08
2.79190975e-08
1.207775429e-08
1.372883953e-08
1.626743382e-08
1.96998663e-08
2.397855253e-08
2.893570277e-08
3.41962065e-08
3.906337906e-08
4.237874065e-08
1.772000052e-08
2.010116795e-08
2.379424159e-08
2.885191695e-08
3.526366471e-08
4.284787221e-08
5.10936273e-08
5.892985811e-08
6.441692228e-08
2.53957405e-08
2.883681942e-08
3.422262774e-08
4.16964948e-08
5.133569631e-08
6.297830198e-08
7.594255586e-08
8.85833828e-08
9.766562525e-08
3.572486983e-08
4.068185316e-08
4.851097908e-08
5.951684593e-08
7.394802029e-08
9.172345281e-08
1.119515003e-07
1.321260306e-07
1.46945689e-07
4.950610141e-08
5.659429763e-08
6.788491849e-08
8.39461307e-08
1.053194953e-07
1.320967944e-07
1.631297244e-07
1.946582596e-07
2.182375298e-07
6.781022403e-08
7.783918388e-08
9.393126204e-08
1.170520493e-07
1.481935762e-07
1.87737187e-07
2.342146848e-07
2.821046206e-07
3.184215251e-07
9.212983555e-08
1.061357652e-07
1.287351953e-07
1.614479636e-07
2.05895812e-07
2.628732097e-07
3.304985887e-07
4.008736096e-07
4.547980555e-07
1.24581038e-07
1.438501683e-07
1.750515464e-07
2.20420952e-07
2.823853185e-07
3.62254824e-07
4.575961393e-07
5.57437118e-07
6.345120947e-07
1.681236209e-07
1.94197784e-07
2.364734927e-07
2.980442066e-07
3.822828706e-07
4.910699589e-07
6.212355818e-07
7.58012011e-07
8.641742704e-07
2.26736061e-07
2.613912144e-07
3.175367395e-07
3.99220821e-07
5.108444547e-07
6.548589768e-07
8.27173466e-07
1.008631564e-06
1.150504186e-06
3.054696375e-07
3.506617496e-07
4.236951027e-07
5.296091444e-07
6.738518676e-07
8.594235585e-07
1.08123818e-06
1.315632642e-06
1.499959207e-06
4.103302964e-07
4.681134262e-07
5.611442648e-07
6.954323347e-07
8.774591462e-07
1.110800311e-06
1.389613846e-06
1.683879348e-06
1.914377352e-06
5.480035142e-07
6.204436919e-07
7.365611698e-07
9.032853452e-07
1.12818467e-06
1.41572881e-06
1.757077502e-06
2.114440831e-06
2.393475409e-06
7.255476665e-07
8.146842473e-07
9.569601142e-07
1.16020318e-06
1.433494148e-06
1.779023912e-06
2.184813618e-06
2.606643062e-06
2.935520122e-06
9.503527995e-07
1.058316832e-06
1.23040568e-06
1.474378264e-06
1.797827016e-06
2.202067995e-06
2.672036507e-06
3.156869445e-06
3.533372704e-06
1.231397343e-06
1.360348966e-06
1.563657123e-06
1.848867082e-06
2.22264389e-06
2.684578708e-06
3.216185436e-06
3.76015886e-06
4.180522386e-06
1.574377478e-06
1.724429194e-06
1.959107183e-06
2.285127793e-06
2.707758882e-06
3.224306023e-06
3.812630803e-06
4.409487241e-06
4.86811256e-06
1.981617088e-06
2.152455938e-06
2.417697242e-06
2.782738181e-06
3.250929348e-06
3.816851235e-06
4.454648588e-06
5.095906931e-06
5.585540506e-06
2.453916608e-06
2.644527756e-06
2.938389972e-06
3.339128172e-06
3.847709571e-06
4.455676375e-06
5.133574071e-06
5.80883779e-06
6.320884143e-06
2.990027581e-06
3.198590869e-06
3.517922553e-06
3.949480299e-06
4.49147958e-06
5.13225877e-06
5.839068239e-06
6.536422921e-06
7.061314874e-06
3.586411548e-06
3.810286798e-06
4.150748857e-06
4.606780559e-06
5.173603596e-06
5.83634983e-06
6.559459203e-06
7.265924975e-06
7.793516073e-06
4.237185117e-06
4.472957358e-06
4.829120659e-06
5.301986341e-06
5.883685239e-06
6.556307778e-06
7.282130337e-06
7.984135703e-06
8.504079624e-06
4.934198477e-06
5.177769989e-06
5.543275619e-06
6.024285575e-06
6.609897062e-06
7.279484951e-06
7.993934656e-06
8.677755589e-06
9.179758249e-06
5.667217771e-06
5.913938961e-06
6.281710788e-06
6.76142946e-06
7.339372784e-06
7.992673599e-06
8.681672528e-06
9.33377695e-06
9.806988734e-06
6.424193535e-06
6.669025692e-06
7.031524945e-06
7.500121502e-06
8.058648271e-06
8.682635556e-06
9.33291155e-06
9.941509974e-06
1.037896313e-05
7.191602907e-06
7.42930478e-06
7.778812058e-06
8.226428823e-06
8.754051726e-06
9.336343755e-06
9.935633104e-06
1.048997895e-05
1.08845373e-05
7.954856337e-06
8.180187084e-06
8.509101935e-06
8.926235255e-06
9.412164179e-06
9.941478941e-06
1.047897499e-05
1.096990659e-05
1.131563105e-05
8.698757559e-06
8.906686496e-06
9.207830163e-06
9.585704221e-06
1.002026047e-05
1.048683374e-05
1.095357691e-05
1.137386995e-05
1.166632878e-05
9.407999511e-06
9.593909677e-06
9.860810722e-06
1.019171543e-05
1.056668275e-05
1.096258703e-05
1.135170483e-05
1.169620396e-05
1.193245518e-05
1.006766343e-05
1.022753e-05
1.045466314e-05
1.073221415e-05
1.104106791e-05
1.136035833e-05
1.166704376e-05
1.193252832e-05
1.211121427e-05
1.066364359e-05
1.079415312e-05
1.09770769e-05
1.119632076e-05
1.14342061e-05
1.167278046e-05
1.189437651e-05
1.20798676e-05
1.220012486e-05
1.11827771e-05
1.12813097e-05
1.141656592e-05
1.157377867e-05
1.173763473e-05
1.189324903e-05
1.202722446e-05
1.213237498e-05
1.219745625e-05
1.161197691e-05
1.167687494e-05
1.17623408e-05
1.185418689e-05
1.194133663e-05
1.201454693e-05
1.20679087e-05
1.210071942e-05
1.21158637e-05
1.193670831e-05
1.196644002e-05
1.200133343e-05
1.203153117e-05
1.204854952e-05
1.204692159e-05
1.202621187e-05
1.199304951e-05
1.196296018e-05
1.215522941e-05
1.215279484e-05
1.214149772e-05
1.211455276e-05
1.206670943e-05
1.199644665e-05
1.190831983e-05
1.181575766e-05
1.174536777e-05
1.227389246e-05
1.224157602e-05
1.218754249e-05
1.21079189e-05
1.200080007e-05
1.18685385e-05
1.172027451e-05
1.157541955e-05
1.146998272e-05
1.229620733e-05
1.223649165e-05
1.21435198e-05
1.201630658e-05
1.185624328e-05
1.16693423e-05
1.146884254e-05
1.127922765e-05
1.114419729e-05
1.222642936e-05
1.214220921e-05
1.201466969e-05
1.184563541e-05
1.163963356e-05
1.140601864e-05
1.116157349e-05
1.093491707e-05
1.077577099e-05
1.207054918e-05
1.196508566e-05
1.180782236e-05
1.160323141e-05
1.1358722e-05
1.108659718e-05
1.080659076e-05
1.055053626e-05
1.037260399e-05
1.183631519e-05
1.171310343e-05
1.153123541e-05
1.129759159e-05
1.102213741e-05
1.071968179e-05
1.041230717e-05
1.013418816e-05
9.942503462e-06
1.153289572e-05
1.139551377e-05
1.119422137e-05
1.093801026e-05
1.063902794e-05
1.031412298e-05
9.987139049e-06
9.693788458e-06
9.492975285e-06
1.117041774e-05
1.102238467e-05
1.080671429e-05
1.053417583e-05
1.021869978e-05
9.878707228e-06
9.539249962e-06
9.236859962e-06
9.03105372e-06
1.075948555e-05
1.060414167e-05
1.037884412e-05
1.009578981e-05
9.770289334e-06
9.421886975e-06
9.07633814e-06
8.770370236e-06
8.563172563e-06
1.031073223e-05
1.015114668e-05
9.92055541e-06
9.632235116e-06
9.302487357e-06
8.951562613e-06
8.605473218e-06
8.300614381e-06
8.095077539e-06
9.834433326e-06
9.673340437e-06
9.441290265e-06
9.152307926e-06
8.823324017e-06
8.474920631e-06
8.132982946e-06
7.833141153e-06
7.63177697e-06
9.340198585e-06
9.179961367e-06
8.949744893e-06
8.664018601e-06
8.34001683e-06
7.998327065e-06
7.664386927e-06
7.372718319e-06
7.177526171e-06
8.836747086e-06
8.679344541e-06
8.45370109e-06
8.174460744e-06
7.85887848e-06
7.527271778e-06
7.204372083e-06
6.923331646e-06
6.735840018e-06
8.331763458e-06
8.178797344e-06
7.959928072e-06
7.689742622e-06
7.385277977e-06
7.066356645e-06
6.756802995e-06
6.488211119e-06
6.309527749e-06
7.831827162e-06
7.684543453e-06
7.474145917e-06
7.214972081e-06
6.923646436e-06
6.619319428e-06
6.3247597e-06
6.069877804e-06
5.90074411e-06
7.342403264e-06
7.201723719e-06
7.00103953e-06
6.754284434e-06
6.477517781e-06
6.189084715e-06
5.910595485e-06
5.670205095e-06
5.511051428e-06
6.867881574e-06
6.734441335e-06
6.544311282e-06
6.310902521e-06
6.049594816e-06
5.777833687e-06
5.516007878e-06
5.290488775e-06
5.141487767e-06
6.411650851e-06
6.285838587e-06
6.106760575e-06
5.887218436e-06
5.641831781e-06
5.387085858e-06
5.142117009e-06
4.931520778e-06
4.792637066e-06
5.976196346e-06
5.858194607e-06
5.690381134e-06
5.484888946e-06
5.255525885e-06
5.017784447e-06
4.789545234e-06
4.59366324e-06
4.464698508e-06
5.563209768e-06
5.453033099e-06
5.296465073e-06
5.104934614e-06
4.891410639e-06
4.670383758e-06
4.458496663e-06
4.2769201e-06
4.157552509e-06
5.173702655e-06
5.071232518e-06
4.925708441e-06
4.747839358e-06
4.54974801e-06
4.344932494e-06
4.1488317e-06
3.981003651e-06
3.870821676e-06
4.808118186e-06
4.713134102e-06
4.578313657e-06
4.41364559e-06
4.230415011e-06
4.041151205e-06
3.860135461e-06
3.705395001e-06
3.603925858e-06
4.466436356e-06
4.378642767e-06
4.25408424e-06
4.102041406e-06
3.932982435e-06
3.758502183e-06
3.591779035e-06
3.449397796e-06
3.35613078e-06
4.14826952e-06
4.067318489e-06
3.952510281e-06
3.812438785e-06
3.656784924e-06
3.496251135e-06
3.342973122e-06
3.212184937e-06
3.126590181e-06
3.852947047e-06
3.778457e-06
3.672843534e-06
3.544041895e-06
3.400981823e-06
3.253520412e-06
3.112814036e-06
2.99283845e-06
2.914381653e-06
3.579588496e-06
3.511159349e-06
3.414161913e-06
3.29590551e-06
3.164608944e-06
3.029334046e-06
2.900322427e-06
2.790382895e-06
2.718536593e-06
3.327165529e-06
3.26439063e-06
3.175423777e-06
3.066983967e-06
2.94662175e-06
2.822655129e-06
2.70447527e-06
2.60381284e-06
2.538064763e-06
3.094553249e-06
3.037028586e-06
2.955512706e-06
2.856171398e-06
2.745930683e-06
2.632416256e-06
2.524231773e-06
2.432115032e-06
2.371974065e-06
2.880571949e-06
2.827903036e-06
2.753273726e-06
2.662334154e-06
2.561429509e-06
2.457543808e-06
2.358553956e-06
2.274285908e-06
2.219286106e-06
2.684020371e-06
2.635827234e-06
2.567542018e-06
2.484336389e-06
2.392017563e-06
2.296976912e-06
2.2064226e-06
2.129345097e-06
2.07904815e-06
2.503701644e-06
2.459622246e-06
2.397165158e-06
2.321059777e-06
2.236616788e-06
2.149681847e-06
2.066849275e-06
1.996345514e-06
1.950342007e-06
2.338442996e-06
2.298135431e-06
2.241019889e-06
2.17141829e-06
2.094184393e-06
2.014662646e-06
1.938885086e-06
1.874380618e-06
1.832290364e-06
2.18711029e-06
2.150254004e-06
2.098024355e-06
2.034368872e-06
1.9637219e-06
1.890968551e-06
1.821626712e-06
1.762589325e-06
1.724061011e-06
2.048618308e-06
2.014914576e-06
1.967146616e-06
1.908918772e-06
1.844281228e-06
1.777698906e-06
1.714220254e-06
1.660159027e-06
1.624869361e-06
1.921937599e-06
1.89110944e-06
1.847410173e-06
1.794130185e-06
1.734968418e-06
1.674006013e-06
1.615863322e-06
1.566327097e-06
1.533979604e-06
1.806098603e-06
1.777890285e-06
1.737897122e-06
1.689122759e-06
1.634945486e-06
1.579096367e-06
1.52580575e-06
1.480381203e-06
1.450704799e-06
1.700193634e-06
1.674369885e-06
1.637749451e-06
1.593074457e-06
1.543430833e-06
1.49223065e-06
1.443349245e-06
1.401658706e-06
1.374406137e-06
1.603377226e-06
1.579722252e-06
1.546168931e-06
1.505221145e-06
1.459698544e-06
1.412722778e-06
1.36784623e-06
1.32954538e-06
1.30449159e-06
1.514865243e-06
1.49318162e-06
1.462415938e-06
1.424855251e-06
1.383076881e-06
1.339938257e-06
1.298698111e-06
1.263473617e-06
1.240414115e-06
1.433933092e-06
1.414040592e-06
1.38580752e-06
1.351323736e-06
1.312946188e-06
1.273292046e-06
1.235353124e-06
1.202920295e-06
1.181669541e-06
1.359913295e-06
1.341647689e-06
1.315714915e-06
1.284025606e-06
1.248736399e-06
1.212246086e-06
1.17730391e-06
1.147404419e-06
1.127794269e-06
1.292192635e-06
1.275404507e-06
1.251560728e-06
1.222409112e-06
1.189924297e-06
1.156306628e-06
1.124084933e-06
1.096484622e-06
1.078362844e-06
1.230209047e-06
1.214762628e-06
1.192815893e-06
1.165968788e-06
1.136030629e-06
1.105021459e-06
1.075269818e-06
1.04975662e-06
1.032985497e-06
1.173448369e-06
1.159220426e-06
1.138996545e-06
1.114242406e-06
1.086617178e-06
1.057977096e-06
1.030468678e-06
1.00685067e-06
9.913056862e-07
1.121441056e-06
1.108319835e-06
1.089660867e-06
1.066807936e-06
1.041283849e-06
1.014796009e-06
9.893254878e-07
9.674290659e-07
9.529976966e-07
1.073758936e-06
1.061643163e-06
1.044406004e-06
1.02328057e-06
9.996658261e-07
9.751339288e-07
9.515155248e-07
9.311837197e-07
9.177643075e-07
1.030012043e-06
1.018809997e-06
1.002865052e-06
9.833098377e-07
9.614308214e-07
9.386772384e-07
9.167429204e-07
8.97833842e-07
8.853345651e-07
9.898455847e-07
9.794742302e-07
9.64704193e-07
9.465768485e-07
9.262764598e-07
9.051405047e-07
8.847383273e-07
8.671237372e-07
8.554616651e-07
9.529370516e-07
9.43321243e-07
9.296199585e-07
9.12791684e-07
8.939277986e-07
8.742641377e-07
8.552567189e-07
8.388207236e-07
8.279209561e-07
9.189934948e-07
9.100652407e-07
8.973366659e-07
8.816909398e-07
8.641349991e-07
8.458121955e-07
8.280753251e-07
8.12713185e-07
8.025080677e-07
8.87748974e-07
8.794467641e-07
8.676040137e-07
8.530354309e-07
8.366711514e-07
8.195703363e-07
8.029917071e-07
7.886087523e-07
7.790371651e-07
8.58962182e-07
8.512303712e-07
8.401948456e-07
8.266080557e-07
8.113302532e-07
7.95343915e-07
7.798219686e-07
7.663326151e-07
7.573393274e-07
8.324142411e-07
8.252024878e-07
8.149030791e-07
8.022118202e-07
7.879253386e-07
7.729562229e-07
7.583991027e-07
7.457259601e-07
7.372610476e-07
8.079066695e-07
8.011694254e-07
7.91541794e-07
7.79668014e-07
7.662867534e-07
7.522468644e-07
7.385714661e-07
7.266445313e-07
7.18662849e-07
7.852595101e-07
7.789555553e-07
7.699414745e-07
7.588145339e-07
7.46260569e-07
7.33070265e-07
7.202013782e-07
7.089573059e-07
7.014180127e-07
7.643096134e-07
7.584016365e-07
7.499483973e-07
7.395043467e-07
7.277071284e-07
7.152943041e-07
7.031638355e-07
6.925452802e-07
6.85411411e-07
7.449090672e-07
7.393632834e-07
7.314231563e-07
7.216040834e-07
7.104997168e-07
6.987990633e-07
6.873453367e-07
6.773003591e-07
6.705384386e-07
7.269237619e-07
7.217095692e-07
7.142393173e-07
7.049927552e-07
6.945233478e-07
6.834756854e-07
6.726428091e-07
6.631243413e-07
6.567040369e-07
7.102320842e-07
7.053217514e-07
6.982821906e-07
6.89560585e-07
6.796736575e-07
6.692253334e-07
6.589626305e-07
6.499279945e-07
6.438218042e-07
6.947237282e-07
6.900921141e-07
6.834477161e-07
6.752079434e-07
6.658558991e-07
6.559582446e-07
6.462197396e-07
6.376302136e-07
6.318131852e-07
6.802986156e-07
6.759229152e-07
6.696414493e-07
6.61844383e-07
6.529840288e-07
6.4359287e-07
6.343368268e-07
6.261572555e-07
6.206067343e-07
6.668659169e-07
6.627254325e-07
6.567776432e-07
6.493877618e-07
6.409798773e-07
6.320550948e-07
6.232436005e-07
6.154420444e-07
6.101374462e-07
6.543431631e-07
6.504190987e-07
6.447784142e-07
6.377634498e-07
6.297723986e-07
6.212775308e-07
6.128761217e-07
6.054235413e-07
6.003461492e-07
6.42655443e-07
6.389307185e-07
6.335729893e-07
6.269036092e-07
6.192969895e-07
6.111988761e-07
6.031762006e-07
5.960461733e-07
5.911789546e-07
6.317346767e-07
6.281937605e-07
6.230970235e-07
6.16746545e-07
6.094948749e-07
6.017633352e-07
5.940908515e-07
5.872593167e-07
5.825867582e-07
6.215189586e-07
6.181477175e-07
6.132919833e-07
6.072361167e-07
6.003125509e-07
5.929200956e-07
5.855717989e-07
5.790168289e-07
5.745247898e-07
6.119519647e-07
6.087375282e-07
6.041045907e-07
5.983212076e-07
5.917012827e-07
5.846228536e-07
5.775750318e-07
5.712766258e-07
5.669522047e-07
6.029824168e-07
5.999130556e-07
5.954863196e-07
5.899552447e-07
5.836166503e-07
5.76829387e-07
5.700604001e-07
5.640002992e-07
5.598317155e-07
5.945635996e-07
5.916286157e-07
5.873929423e-07
5.820957665e-07
5.760181388e-07
5.695011683e-07
5.629912505e-07
5.571527719e-07
5.531292581e-07
5.866529239e-07
5.83842552e-07
5.797841199e-07
5.747040316e-07
5.688687681e-07
5.626030161e-07
5.563340982e-07
5.507019851e-07
5.468136914e-07
5.792115334e-07
5.765168523e-07
5.726230322e-07
5.677446658e-07
5.621347587e-07
5.561027797e-07
5.500583292e-07
5.44618617e-07
5.408565249e-07
5.722039483e-07
5.696168012e-07
5.658760435e-07
5.611853435e-07
5.557852297e-07
5.499710544e-07
5.441359317e-07
5.388758279e-07
5.352316726e-07
5.655977439e-07
5.631106664e-07
5.595124002e-07
5.549964982e-07
5.497919251e-07
5.441809232e-07
5.385412531e-07
5.33449029e-07
5.299152306e-07
5.593632582e-07
5.569694139e-07
5.535039556e-07
5.491510609e-07
5.441289648e-07
5.387077224e-07
5.332507787e-07
5.283156728e-07
5.248852745e-07
5.53473326e-07
5.511664482e-07
5.478249199e-07
5.436242199e-07
5.387726181e-07
5.33528827e-07
5.28242929e-07
5.234550615e-07
5.201216748e-07
5.479030341e-07
5.456773738e-07
5.424516293e-07
5.383932008e-07
5.337010936e-07
5.28623453e-07
5.234978734e-07
5.18848169e-07
5.156059249e-07
5.426294956e-07
5.404797736e-07
5.373623319e-07
5.334370607e-07
5.288943434e-07
5.239724706e-07
5.189973533e-07
5.14477474e-07
5.113209808e-07
5.376316354e-07
5.355529996e-07
5.325369841e-07
5.287364917e-07
5.243338754e-07
5.195582263e-07
5.147245126e-07
5.103267974e-07
5.072511034e-07
5.328899853e-07
5.308779706e-07
5.279570535e-07
5.242736304e-07
5.200025689e-07
5.153643652e-07
5.106637275e-07
5.063811389e-07
5.033817003e-07
5.283864804e-07
5.264369715e-07
5.236053211e-07
5.200318639e-07
5.158844856e-07
5.113756473e-07
5.068004281e-07
5.026265043e-07
4.996991568e-07
5.241042508e-07
5.222134463e-07
5.194656769e-07
5.159956274e-07
5.119646699e-07
5.075777502e-07
5.031209037e-07
4.990497134e-07
4.961906467e-07
5.200274029e-07
5.18191779e-07
5.155228994e-07
5.121501835e-07
5.08228927e-07
5.039570464e-07
4.996120801e-07
4.956381774e-07
4.928439096e-07
5.161407789e-07
5.143570514e-07
5.117624114e-07
5.08481374e-07
5.046635701e-07
5.005003459e-07
4.962612565e-07
4.923796314e-07
4.896469824e-07
5.124296897e-07
5.106947717e-07
5.081700023e-07
5.049753339e-07
5.01255125e-07
4.971945892e-07
4.930557882e-07
4.892618088e-07
4.865878664e-07
5.088796084e-07
5.071905623e-07
5.047315059e-07
5.016181573e-07
4.979899807e-07
4.940264815e-07
4.899827029e-07
4.862720398e-07
4.836541162e-07
5.05475819e-07
5.038297984e-07
5.014324262e-07
4.983955047e-07
4.948539743e-07
4.909820526e-07
4.870282347e-07
4.83396763e-07
4.808323337e-07
5.022030097e-07
5.005971904e-07
4.982575009e-07
4.952921427e-07
4.918319029e-07
4.880461358e-07
4.841772679e-07
4.806209357e-07
4.781075554e-07
4.990448073e-07
4.974763027e-07
4.951901983e-07
4.922914118e-07
4.889069546e-07
4.852017576e-07
4.81412683e-07
4.779273377e-07
4.754625259e-07
4.959832481e-07
4.944490071e-07
4.922121446e-07
4.893746186e-07
4.860600582e-07
4.824294385e-07
4.787146048e-07
4.752957691e-07
4.728768586e-07
4.929981869e-07
4.914948726e-07
4.893024835e-07
4.865203569e-07
4.832691568e-07
4.797064113e-07
4.760595608e-07
4.727021509e-07
4.703260934e-07
4.900666505e-07
4.885904979e-07
4.864371783e-07
4.837037681e-07
4.805084177e-07
4.770057733e-07
4.734195703e-07
4.701175519e-07
4.677806766e-07
4.871621487e-07
4.857088022e-07
4.835882715e-07
4.808957609e-07
4.777474028e-07
4.742955982e-07
4.707611938e-07
4.675071761e-07
4.65204902e-07
4.842539628e-07
4.828182945e-07
4.807231272e-07
4.780622175e-07
4.749502306e-07
4.715380482e-07
4.680445885e-07
4.648293632e-07
4.625558678e-07
4.813064399e-07
4.79882355e-07
4.778036915e-07
4.751632272e-07
4.720747773e-07
4.686885368e-07
4.652226305e-07
4.620346674e-07
4.597825217e-07
4.782783312e-07
4.76858566e-07
4.747858137e-07
4.721523955e-07
4.690719718e-07
4.656950077e-07
4.622401742e-07
4.590650976e-07
4.568248841e-07
4.751222194e-07
4.736981426e-07
4.716186826e-07
4.689762892e-07
4.658852524e-07
4.624974055e-07
4.590335382e-07
4.55853615e-07
4.536135509e-07
4.717840906e-07
4.703455204e-07
4.682444401e-07
4.655740854e-07
4.624502615e-07
4.590274242e-07
4.555303111e-07
4.523239927e-07
4.500695908e-07
4.682031158e-07
4.667381704e-07
4.645980443e-07
4.618775003e-07
4.586948575e-07
4.552086198e-07
4.516495775e-07
4.483911479e-07
4.461049526e-07
4.643116961e-07
4.628066956e-07
4.606074482e-07
4.578110773e-07
4.545395389e-07
4.509569895e-07
4.473026602e-07
4.439620509e-07
4.416234958e-07
4.600358481e-07
4.584752889e-07
4.56194166e-07
4.532929015e-07
4.49898343e-07
4.461820889e-07
4.423944801e-07
4.3893731e-07
4.365227437e-07
4.552959897e-07
4.536626129e-07
4.512742969e-07
4.48235814e-07
4.446802981e-07
4.407887618e-07
4.368255859e-07
4.332134978e-07
4.306964249e-07
4.500081812e-07
4.482831566e-07
4.457600561e-07
4.425491755e-07
4.387914737e-07
4.346795226e-07
4.304948981e-07
4.26686246e-07
4.240378297e-07
4.440858609e-07
4.422491047e-07
4.395618451e-07
4.361412034e-07
4.321376442e-07
4.277575976e-07
4.233031578e-07
4.192540883e-07
4.164439444e-07
4.374420937e-07
4.35472733e-07
4.325908677e-07
4.289218754e-07
4.246275444e-07
4.199305836e-07
4.151570159e-07
4.108229638e-07
4.078202607e-07
4.299923185e-07
4.278693089e-07
4.247622567e-07
4.208063528e-07
4.16176647e-07