/*--------------------------------*- C++ -*----------------------------------*\
| =========                 |                                                 |
| \\      /  F ield         | OpenFOAM: The Open Source CFD Toolbox           |
|  \\    /   O peration     | Version:  2212                                  |
|   \\  /    A nd           | Website:  www.openfoam.com                      |
|    \\/     M anipulation  |                                                 |
\*---------------------------------------------------------------------------*/
FoamFile
{
    version     2.0;
    format      ascii;
    arch        "LSB;label=32;scalar=64";
    class       volScalarField;
    location    "30.00000000";
    object      CH3_0;
}
// * * * * * * * * * * * * * * * * * * * * * * * * * * * * * * * * * * * * * //

dimensions      [0 0 0 0 0 0 0];

internalField   nonuniform List<scalar> 
3000
(
2.952218407e-24
3.313802747e-24
3.859293092e-24
4.585989458e-24
5.486393729e-24
6.535983839e-24
7.671522048e-24
8.754893016e-24
9.520871509e-24
1.107510154e-23
1.248095937e-23
1.460083061e-23
1.74309691e-23
2.096801202e-23
2.519208719e-23
3.003005947e-23
3.52392235e-23
3.98549175e-23
2.477224134e-23
2.813344417e-23
3.324975523e-23
4.01932928e-23
4.908679594e-23
6.005752699e-23
7.306134439e-23
8.737024391e-23
9.959894846e-23
4.708833129e-23
5.403130106e-23
6.475356348e-23
7.961239248e-23
9.912762831e-23
1.237883662e-22
1.534546509e-22
1.857530894e-22
2.118160459e-22
8.339643335e-23
9.685403972e-23
1.179619746e-22
1.477788885e-22
1.876908864e-22
2.387996585e-22
3.002376145e-22
3.654444987e-22
4.154802444e-22
1.429458887e-22
1.681137215e-22
2.081504453e-22
2.65580565e-22
3.43431829e-22
4.436280693e-22
5.631504876e-22
6.869237992e-22
7.784459438e-22
2.417630092e-22
2.878040058e-22
3.618896621e-22
4.693441841e-22
6.160691325e-22
8.048980512e-22
1.027955481e-21
1.254387873e-21
1.417649994e-21
4.074266565e-22
4.90370146e-22
6.250063308e-22
8.217637778e-22
1.091437052e-21
1.437724784e-21
1.843112204e-21
2.24857114e-21
2.536002734e-21
6.874874366e-22
8.352818539e-22
1.076706096e-21
1.431254087e-21
1.917972799e-21
2.541165061e-21
3.265356056e-21
3.982062594e-21
4.484502082e-21
1.163900168e-21
1.425120036e-21
1.85371897e-21
2.485068712e-21
3.352143544e-21
4.459233643e-21
5.738450252e-21
6.995092367e-21
7.869514607e-21
1.978094979e-21
2.437045881e-21
3.192336368e-21
4.306914126e-21
5.837275751e-21
7.786362674e-21
1.002879199e-20
1.222037841e-20
1.373811283e-20
3.374363886e-21
4.17728208e-21
5.501243577e-21
7.456821344e-21
1.014013384e-20
1.354970538e-20
1.745888792e-20
2.126600335e-20
2.389681248e-20
5.775086783e-21
7.175767476e-21
9.488358512e-21
1.290543586e-20
1.758933462e-20
2.352597606e-20
3.030830064e-20
3.689482076e-20
4.146283634e-20
9.910775478e-21
1.235015409e-20
1.638156434e-20
2.233955124e-20
3.049726536e-20
4.080508735e-20
5.251304838e-20
6.380234345e-20
7.18428407e-20
1.704371894e-20
2.128805195e-20
2.830991732e-20
3.869544898e-20
5.291588855e-20
7.08487249e-20
9.102110334e-20
1.095662996e-19
1.246612809e-19
2.935014098e-20
3.672672147e-20
4.894593693e-20
6.705004946e-20
9.19184676e-20
1.235242519e-19
1.598978063e-19
1.961589356e-19
2.188941738e-19
5.057446006e-20
6.336769068e-20
8.45705583e-20
1.15993749e-19
1.591441436e-19
2.138791474e-19
2.764111555e-19
3.369592414e-19
3.780339364e-19
8.716636484e-20
1.09310503e-19
1.460151667e-19
2.004003827e-19
2.750261087e-19
3.695439934e-19
4.772651179e-19
5.813096669e-19
6.524504425e-19
1.502458605e-19
1.885261872e-19
2.51978958e-19
3.459799624e-19
4.74909991e-19
6.381028667e-19
8.239643711e-19
1.003416302e-18
1.12619888e-18
2.589923504e-19
3.251176259e-19
4.347304447e-19
5.971025444e-19
8.197647762e-19
1.101517646e-18
1.42231038e-18
1.731965761e-18
1.943811055e-18
4.464896482e-19
5.606659694e-19
7.499410887e-19
1.030313089e-18
1.414748727e-18
1.901119926e-18
2.454759738e-18
2.989054178e-18
3.354519386e-18
7.698080749e-19
9.66903292e-19
1.293651634e-18
1.777656052e-18
2.44125013e-18
3.280675232e-18
4.236006748e-18
5.157763767e-18
5.788137549e-18
1.327393718e-18
1.667570321e-18
2.231534782e-18
3.066898842e-18
4.212122173e-18
5.660578285e-18
7.308720293e-18
8.898615068e-18
9.985755689e-18
2.289056582e-18
2.87611072e-18
3.849354513e-18
5.290872523e-18
7.26685494e-18
9.765611143e-18
1.260826307e-17
1.534987741e-17
1.722425683e-17
3.947662179e-18
4.960642434e-18
6.639926264e-18
9.126942469e-18
1.253550339e-17
1.684490692e-17
2.174615176e-17
2.647195641e-17
2.970215433e-17
6.808189141e-18
8.555889264e-18
1.145290131e-17
1.574270879e-17
2.162076234e-17
2.905017815e-17
3.749711418e-17
4.563890444e-17
5.120232428e-17
1.174103869e-17
1.475585966e-17
1.975253952e-17
2.714980628e-17
3.728267785e-17
5.008489482e-17
6.463400846e-17
7.865109066e-17
8.822521264e-17
2.024553721e-17
2.544495286e-17
3.406047778e-17
4.681117779e-17
6.426982519e-17
8.631607729e-17
1.113555249e-16
1.354641819e-16
1.519216195e-16
3.4902001e-17
4.386586612e-17
5.871472101e-17
8.068102767e-17
1.107406567e-16
1.486721094e-16
1.917183696e-16
2.331288879e-16
2.613743942e-16
6.014528706e-17
7.559098519e-17
1.01166812e-16
1.389798112e-16
1.90684948e-16
2.558684437e-16
3.297606888e-16
4.00762562e-16
4.491383451e-16
1.035839489e-16
1.301778846e-16
1.741899765e-16
2.392104142e-16
3.280287077e-16
4.398600501e-16
5.664494663e-16
6.878995617e-16
7.705243345e-16
1.782400559e-16
2.239775948e-16
2.996188535e-16
4.112544754e-16
5.635489252e-16
7.549924949e-16
9.712940823e-16
1.178396897e-15
1.319017894e-15
3.0633149e-16
3.848702931e-16
5.146421224e-16
7.059215862e-16
9.664284377e-16
1.293224502e-15
1.661571082e-15
2.013347838e-15
2.251604069e-15
5.256160517e-16
6.601929509e-16
8.823053009e-16
1.209162273e-15
1.653372758e-15
2.209172926e-15
2.833768962e-15
3.428358026e-15
3.82981248e-15
8.999455796e-16
1.129891596e-15
1.508866327e-15
2.06543579e-15
2.81985099e-15
3.760766247e-15
4.814277148e-15
5.813259428e-15
6.485191298e-15
1.536651612e-15
1.928104842e-15
2.572127579e-15
3.51561027e-15
4.790387613e-15
6.374159804e-15
8.139671627e-15
9.806018533e-15
1.092179212e-14
2.614851139e-15
3.278123209e-15
4.367008384e-15
5.957422701e-15
8.098050284e-15
1.074534159e-14
1.368119702e-14
1.643717351e-14
1.82729925e-14
4.430904168e-15
5.548141257e-15
7.377559226e-15
1.004000623e-14
1.360729664e-14
1.799531881e-14
2.283279599e-14
2.734602248e-14
3.033490672e-14
7.47027918e-15
9.338572131e-15
1.238837781e-14
1.680811805e-14
2.269866178e-14
2.990001584e-14
3.778593766e-14
4.509322976e-14
4.990174227e-14
1.251921526e-14
1.56160035e-14
2.065276033e-14
2.79157962e-14
3.753702358e-14
4.921778383e-14
6.191430616e-14
7.359236737e-14
8.122502228e-14
2.083514574e-14
2.59141894e-14
3.41394189e-14
4.593184767e-14
6.144463277e-14
8.013214747e-14
1.002803835e-13
1.186662962e-13
1.305983286e-13
3.440269647e-14
4.262921417e-14
5.588382098e-14
7.475895912e-14
9.939145044e-14
1.288071805e-13
1.602414187e-13
1.886854442e-13
2.070107241e-13
5.631464847e-14
6.944630448e-14
9.047555895e-14
1.201839174e-13
1.585944738e-13
2.040068751e-13
2.520530937e-13
2.951303102e-13
3.226716637e-13
9.1341144e-14
1.119569856e-13
1.447275481e-13
1.905758921e-13
2.491884366e-13
3.176514374e-13
3.892179565e-13
4.52681548e-13
4.929003793e-13
1.468001209e-13
1.785755454e-13
2.286201021e-13
2.977834374e-13
3.849269357e-13
4.850994125e-13
5.880956737e-13
6.780002646e-13
7.342300229e-13
2.339413318e-13
2.819763642e-13
3.567434616e-13
4.584264491e-13
5.840096671e-13
7.250016131e-13
8.661215884e-13
9.857481767e-13
1.058424155e-12
3.702242535e-13
4.414819348e-13
5.507411194e-13
6.961663153e-13
8.706593454e-13
1.059223328e-12
1.238582487e-12
1.380519777e-12
1.459266892e-12
5.830629312e-13
6.870929813e-13
8.436587715e-13
1.046215646e-12
1.279275331e-12
1.515490134e-12
1.717650178e-12
1.849340395e-12
1.896894869e-12
9.155947626e-13
1.065871578e-12
1.287232089e-12
1.563802585e-12
1.86441322e-12
2.139677423e-12
2.32950374e-12
2.390185587e-12
2.345746159e-12
1.434227696e-12
1.650434338e-12
1.961958116e-12
2.336901592e-12
2.718986102e-12
3.028654115e-12
3.191294369e-12
3.21195909e-12
3.272041445e-12
2.235209678e-12
2.546478481e-12
2.986565947e-12
3.500252697e-12
4.002168135e-12
4.40720177e-12
4.756281642e-12
5.48736289e-12
6.253863982e-12
3.442469979e-12
3.891889631e-12
4.522439522e-12
5.259258938e-12
6.034243108e-12
6.970988011e-12
8.98848335e-12
1.170753579e-11
1.416724214e-11
5.184191877e-12
5.84131991e-12
6.792479741e-12
8.031734694e-12
9.872999985e-12
1.372767889e-11
1.972825383e-11
2.735733e-11
3.424118202e-11
7.561950816e-12
8.590233472e-12
1.030830232e-11
1.333645862e-11
1.95058944e-11
2.989413716e-11
4.536014421e-11
6.50351644e-11
8.304062339e-11
1.08743093e-11
1.290470614e-11
1.75308148e-11
2.633878241e-11
4.174284618e-11
6.668778806e-11
1.034724084e-10
1.500057646e-10
1.921534513e-10
1.777711654e-11
2.367358855e-11
3.519281395e-11
5.586091909e-11
9.092757941e-11
1.466606758e-10
2.268547608e-10
3.2427097e-10
4.079632807e-10
3.567616217e-11
4.927381173e-11
7.513657313e-11
1.205822903e-10
1.959121524e-10
3.114171712e-10
4.682200389e-10
6.438349663e-10
7.816271776e-10
7.758796428e-11
1.073671169e-10
1.630679344e-10
2.584625103e-10
4.101481831e-10
6.280987976e-10
8.98519396e-10
1.171426586e-09
1.36564351e-09
1.733309035e-10
2.363678118e-10
3.511253695e-10
5.391570088e-10
8.190049271e-10
1.187027362e-09
1.599991435e-09
1.980319161e-09
2.232934989e-09
3.853691065e-10
5.114690047e-10
7.315278569e-10
1.070131602e-09
1.534513945e-09
2.092636338e-09
2.671789292e-09
3.177837481e-09
3.502864255e-09
8.241605881e-10
1.054744225e-09
1.436715435e-09
1.985312465e-09
2.683641952e-09
3.47218941e-09
4.260166105e-09
4.936695743e-09
5.366178484e-09
1.641960355e-09
2.020341086e-09
2.617779642e-09
3.431136309e-09
4.42193244e-09
5.51407346e-09
6.598427081e-09
7.530552069e-09
8.122029701e-09
2.998151875e-09
3.564848291e-09
4.434151598e-09
5.589031569e-09
6.979527812e-09
8.514280433e-09
1.005136084e-08
1.138632272e-08
1.22398335e-08
5.046510758e-09
5.857439117e-09
7.091287573e-09
8.727346655e-09
1.070942095e-08
1.292407091e-08
1.517672849e-08
1.716555414e-08
1.845638007e-08
7.980031663e-09
9.132716272e-09
1.089223936e-08
1.324429345e-08
1.613066221e-08
1.941062722e-08
2.281325301e-08
2.588276361e-08
2.791909755e-08
1.207775431e-08
1.372883956e-08
1.626743385e-08
1.969986633e-08
2.397855258e-08
2.893570282e-08
3.419620654e-08
3.906337911e-08
4.237874072e-08
1.772000055e-08
2.010116798e-08
2.379424162e-08
2.885191699e-08
3.526366476e-08
4.284787228e-08
5.109362736e-08
5.892985818e-08
6.441692238e-08
2.539574055e-08
2.883681947e-08
3.422262779e-08
4.169649485e-08
5.133569638e-08
6.297830206e-08
7.594255594e-08
8.85833829e-08
9.766562539e-08
3.57248699e-08
4.068185322e-08
4.851097914e-08
5.9516846e-08
7.394802039e-08
9.172345293e-08
1.119515004e-07
1.321260308e-07
1.469456892e-07
4.95061015e-08
5.659429772e-08
6.788491858e-08
8.394613082e-08
1.053194955e-07
1.320967946e-07
1.631297245e-07
1.946582597e-07
2.182375301e-07
6.781022417e-08
7.783918401e-08
9.393126217e-08
1.170520495e-07
1.481935764e-07
1.877371872e-07
2.342146849e-07
2.821046208e-07
3.184215255e-07
9.212983573e-08
1.061357654e-07
1.287351955e-07
1.614479638e-07
2.058958123e-07
2.628732099e-07
3.304985889e-07
4.0087361e-07
4.54798056e-07
1.245810382e-07
1.438501685e-07
1.750515466e-07
2.204209523e-07
2.823853188e-07
3.622548243e-07
4.575961396e-07
5.574371185e-07
6.345120954e-07
1.681236211e-07
1.941977843e-07
2.36473493e-07
2.98044207e-07
3.82282871e-07
4.910699594e-07
6.212355823e-07
7.580120116e-07
8.641742714e-07
2.267360613e-07
2.613912148e-07
3.175367399e-07
3.992208215e-07
5.108444552e-07
6.548589775e-07
8.271734667e-07
1.008631564e-06
1.150504187e-06
3.054696379e-07
3.5066175e-07
4.236951032e-07
5.296091451e-07
6.738518683e-07
8.594235593e-07
1.081238181e-06
1.315632644e-06
1.499959209e-06
4.103302969e-07
4.681134267e-07
5.611442654e-07
6.954323355e-07
8.774591469e-07
1.110800312e-06
1.389613847e-06
1.68387935e-06
1.914377354e-06
5.480035147e-07
6.204436925e-07
7.365611705e-07
9.032853459e-07
1.128184671e-06
1.415728811e-06
1.757077503e-06
2.114440833e-06
2.393475412e-06
7.255476671e-07
8.146842479e-07
9.569601149e-07
1.160203181e-06
1.433494149e-06
1.779023913e-06
2.184813618e-06
2.606643063e-06
2.935520124e-06
9.503528002e-07
1.058316833e-06
1.230405681e-06
1.474378265e-06
1.797827017e-06
2.202067996e-06
2.672036508e-06
3.156869447e-06
3.533372706e-06
1.231397343e-06
1.360348967e-06
1.563657124e-06
1.848867083e-06
2.22264389e-06
2.684578709e-06
3.216185437e-06
3.760158861e-06
4.180522388e-06
1.574377478e-06
1.724429194e-06
1.959107184e-06
2.285127794e-06
2.707758883e-06
3.224306024e-06
3.812630804e-06
4.409487243e-06
4.868112563e-06
1.981617088e-06
2.152455938e-06
2.417697243e-06
2.782738182e-06
3.250929349e-06
3.816851236e-06
4.454648589e-06
5.095906933e-06
5.585540509e-06
2.453916608e-06
2.644527757e-06
2.938389972e-06
3.339128173e-06
3.847709572e-06
4.455676376e-06
5.133574072e-06
5.808837792e-06
6.320884146e-06
2.990027582e-06
3.198590869e-06
3.517922554e-06
3.9494803e-06
4.491479581e-06
5.132258772e-06
5.839068241e-06
6.536422923e-06
7.061314878e-06
3.586411548e-06
3.810286799e-06
4.150748859e-06
4.606780561e-06
5.173603598e-06
5.836349831e-06
6.559459204e-06
7.265924977e-06
7.793516077e-06
4.237185118e-06
4.472957359e-06
4.829120661e-06
5.301986343e-06
5.883685241e-06
6.55630778e-06
7.282130339e-06
7.984135706e-06
8.504079628e-06
4.934198479e-06
5.177769991e-06
5.543275621e-06
6.024285578e-06
6.609897064e-06
7.279484954e-06
7.993934659e-06
8.677755592e-06
9.179758254e-06
5.667217774e-06
5.913938964e-06
6.28171079e-06
6.761429462e-06
7.339372787e-06
7.992673602e-06
8.681672532e-06
9.333776954e-06
9.80698874e-06
6.424193538e-06
6.669025694e-06
7.031524948e-06
7.500121505e-06
8.058648275e-06
8.68263556e-06
9.332911554e-06
9.941509979e-06
1.037896314e-05
7.19160291e-06
7.429304783e-06
7.778812061e-06
8.226428827e-06
8.75405173e-06
9.336343759e-06
9.935633109e-06
1.048997895e-05
1.08845373e-05
7.95485634e-06
8.180187088e-06
8.509101939e-06
8.926235259e-06
9.412164183e-06
9.941478946e-06
1.0478975e-05
1.096990659e-05
1.131563106e-05
8.698757563e-06
8.9066865e-06
9.207830167e-06
9.585704226e-06
1.002026047e-05
1.048683374e-05
1.095357692e-05
1.137386996e-05
1.166632879e-05
9.407999516e-06
9.593909682e-06
9.860810728e-06
1.019171543e-05
1.056668275e-05
1.096258704e-05
1.135170484e-05
1.169620397e-05
1.193245519e-05
1.006766344e-05
1.022753e-05
1.045466315e-05
1.073221416e-05
1.104106792e-05
1.136035834e-05
1.166704377e-05
1.193252833e-05
1.211121427e-05
1.06636436e-05
1.079415312e-05
1.097707691e-05
1.119632076e-05
1.14342061e-05
1.167278047e-05
1.189437652e-05
1.207986761e-05
1.220012487e-05
1.11827771e-05
1.12813097e-05
1.141656592e-05
1.157377868e-05
1.173763474e-05
1.189324904e-05
1.202722446e-05
1.213237499e-05
1.219745626e-05
1.161197691e-05
1.167687494e-05
1.176234081e-05
1.185418689e-05
1.194133664e-05
1.201454694e-05
1.206790871e-05
1.210071943e-05
1.211586371e-05
1.193670832e-05
1.196644003e-05
1.200133343e-05
1.203153117e-05
1.204854953e-05
1.204692159e-05
1.202621187e-05
1.199304951e-05
1.196296019e-05
1.215522941e-05
1.215279484e-05
1.214149772e-05
1.211455276e-05
1.206670944e-05
1.199644665e-05
1.190831984e-05
1.181575767e-05
1.174536778e-05
1.227389246e-05
1.224157602e-05
1.21875425e-05
1.210791891e-05
1.200080008e-05
1.18685385e-05
1.172027452e-05
1.157541956e-05
1.146998272e-05
1.229620734e-05
1.223649166e-05
1.214351981e-05
1.201630658e-05
1.185624329e-05
1.166934231e-05
1.146884255e-05
1.127922766e-05
1.11441973e-05
1.222642937e-05
1.214220922e-05
1.201466969e-05
1.184563542e-05
1.163963356e-05
1.140601865e-05
1.11615735e-05
1.093491708e-05
1.077577099e-05
1.207054919e-05
1.196508566e-05
1.180782237e-05
1.160323142e-05
1.135872201e-05
1.108659719e-05
1.080659076e-05
1.055053627e-05
1.0372604e-05
1.183631519e-05
1.171310344e-05
1.153123541e-05
1.12975916e-05
1.102213742e-05
1.07196818e-05
1.041230718e-05
1.013418816e-05
9.942503468e-06
1.153289573e-05
1.139551377e-05
1.119422137e-05
1.093801027e-05
1.063902794e-05
1.031412299e-05
9.987139055e-06
9.693788464e-06
9.49297529e-06
1.117041775e-05
1.102238468e-05
1.08067143e-05
1.053417584e-05
1.021869979e-05
9.878707234e-06
9.539249968e-06
9.236859968e-06
9.031053725e-06
1.075948556e-05
1.060414168e-05
1.037884413e-05
1.009578981e-05
9.77028934e-06
9.421886981e-06
9.076338146e-06
8.770370242e-06
8.563172569e-06
1.031073224e-05
1.015114669e-05
9.920555415e-06
9.632235122e-06
9.302487363e-06
8.951562619e-06
8.605473224e-06
8.300614387e-06
8.095077544e-06
9.834433331e-06
9.673340443e-06
9.44129027e-06
9.152307932e-06
8.823324023e-06
8.474920637e-06
8.132982952e-06
7.833141159e-06
7.631776975e-06
9.340198591e-06
9.179961372e-06
8.949744898e-06
8.664018606e-06
8.340016835e-06
7.998327071e-06
7.664386933e-06
7.372718324e-06
7.177526175e-06
8.836747091e-06
8.679344546e-06
8.453701095e-06
8.174460749e-06
7.858878485e-06
7.527271783e-06
7.204372088e-06
6.923331651e-06
6.735840023e-06
8.331763463e-06
8.178797349e-06
7.959928077e-06
7.689742627e-06
7.385277982e-06
7.06635665e-06
6.756803e-06
6.488211124e-06
6.309527753e-06
7.831827167e-06
7.684543457e-06
7.474145922e-06
7.214972086e-06
6.923646441e-06
6.619319433e-06
6.324759705e-06
6.069877809e-06
5.900744114e-06
7.342403268e-06
7.201723724e-06
7.001039535e-06
6.754284439e-06
6.477517785e-06
6.189084719e-06
5.91059549e-06
5.6702051e-06
5.511051432e-06
6.867881579e-06
6.73444134e-06
6.544311287e-06
6.310902525e-06
6.04959482e-06
5.777833691e-06
5.516007883e-06
5.290488779e-06
5.141487771e-06
6.411650855e-06
6.28583859e-06
6.106760578e-06
5.88721844e-06
5.641831785e-06
5.387085862e-06
5.142117014e-06
4.931520781e-06
4.792637069e-06
5.97619635e-06
5.858194611e-06
5.690381138e-06
5.484888949e-06
5.255525889e-06
5.01778445e-06
4.789545238e-06
4.593663243e-06
4.464698512e-06
5.563209771e-06
5.453033102e-06
5.296465076e-06
5.104934618e-06
4.891410643e-06
4.670383762e-06
4.458496666e-06
4.276920103e-06
4.157552512e-06
5.173702658e-06
5.071232521e-06
4.925708444e-06
4.747839361e-06
4.549748013e-06
4.344932497e-06
4.148831703e-06
3.981003654e-06
3.870821679e-06
4.808118189e-06
4.713134105e-06
4.57831366e-06
4.413645592e-06
4.230415014e-06
4.041151208e-06
3.860135463e-06
3.705395004e-06
3.60392586e-06
4.466436359e-06
4.378642769e-06
4.254084242e-06
4.102041408e-06
3.932982437e-06
3.758502185e-06
3.591779038e-06
3.449397799e-06
3.356130782e-06
4.148269522e-06
4.067318491e-06
3.952510283e-06
3.812438787e-06
3.656784926e-06
3.496251137e-06
3.342973124e-06
3.212184939e-06
3.126590183e-06
3.852947049e-06
3.778457002e-06
3.672843536e-06
3.544041897e-06
3.400981825e-06
3.253520414e-06
3.112814038e-06
2.992838452e-06
2.914381655e-06
3.579588498e-06
3.51115935e-06
3.414161915e-06
3.295905512e-06
3.164608946e-06
3.029334048e-06
2.900322429e-06
2.790382897e-06
2.718536594e-06
3.327165531e-06
3.264390632e-06
3.175423779e-06
3.066983968e-06
2.946621751e-06
2.822655131e-06
2.704475272e-06
2.603812841e-06
2.538064764e-06
3.094553251e-06
3.037028587e-06
2.955512708e-06
2.856171399e-06
2.745930684e-06
2.632416258e-06
2.524231774e-06
2.432115033e-06
2.371974066e-06
2.88057195e-06
2.827903038e-06
2.753273727e-06
2.662334155e-06
2.56142951e-06
2.45754381e-06
2.358553957e-06
2.274285909e-06
2.219286107e-06
2.684020372e-06
2.635827235e-06
2.567542019e-06
2.48433639e-06
2.392017565e-06
2.296976913e-06
2.206422601e-06
2.129345098e-06
2.079048151e-06
2.503701645e-06
2.459622247e-06
2.397165159e-06
2.321059778e-06
2.236616789e-06
2.149681848e-06
2.066849276e-06
1.996345515e-06
1.950342008e-06
2.338442997e-06
2.298135432e-06
2.24101989e-06
2.17141829e-06
2.094184394e-06
2.014662647e-06
1.938885087e-06
1.874380619e-06
1.832290365e-06
2.187110291e-06
2.150254005e-06
2.098024356e-06
2.034368873e-06
1.963721901e-06
1.890968552e-06
1.821626713e-06
1.762589326e-06
1.724061012e-06
2.048618308e-06
2.014914576e-06
1.967146616e-06
1.908918773e-06
1.844281229e-06
1.777698907e-06
1.714220255e-06
1.660159028e-06
1.624869361e-06
1.921937599e-06
1.891109441e-06
1.847410173e-06
1.794130185e-06
1.734968418e-06
1.674006014e-06
1.615863322e-06
1.566327098e-06
1.533979605e-06
1.806098603e-06
1.777890285e-06
1.737897122e-06
1.68912276e-06
1.634945487e-06
1.579096368e-06
1.525805751e-06
1.480381203e-06
1.4507048e-06
1.700193634e-06
1.674369886e-06
1.637749451e-06
1.593074457e-06
1.543430834e-06
1.492230651e-06
1.443349245e-06
1.401658707e-06
1.374406137e-06
1.603377226e-06
1.579722252e-06
1.546168931e-06
1.505221146e-06
1.459698544e-06
1.412722778e-06
1.36784623e-06
1.32954538e-06
1.304491591e-06
1.514865243e-06
1.49318162e-06
1.462415938e-06
1.424855251e-06
1.383076881e-06
1.339938258e-06
1.298698111e-06
1.263473617e-06
1.240414115e-06
1.433933092e-06
1.414040592e-06
1.38580752e-06
1.351323736e-06
1.312946188e-06
1.273292047e-06
1.235353124e-06
1.202920296e-06
1.181669542e-06
1.359913295e-06
1.34164769e-06
1.315714915e-06
1.284025606e-06
1.248736399e-06
1.212246086e-06
1.17730391e-06
1.147404419e-06
1.127794269e-06
1.292192635e-06
1.275404507e-06
1.251560728e-06
1.222409112e-06
1.189924298e-06
1.156306629e-06
1.124084933e-06
1.096484622e-06
1.078362844e-06
1.230209047e-06
1.214762628e-06
1.192815893e-06
1.165968788e-06
1.136030629e-06
1.10502146e-06
1.075269818e-06
1.04975662e-06
1.032985497e-06
1.173448369e-06
1.159220426e-06
1.138996545e-06
1.114242406e-06
1.086617178e-06
1.057977096e-06
1.030468678e-06
1.00685067e-06
9.913056864e-07
1.121441056e-06
1.108319835e-06
1.089660867e-06
1.066807936e-06
1.041283849e-06
1.01479601e-06
9.89325488e-07
9.67429066e-07
9.529976967e-07
1.073758936e-06
1.061643163e-06
1.044406004e-06
1.02328057e-06
9.996658262e-07
9.751339289e-07
9.515155249e-07
9.311837197e-07
9.177643075e-07
1.030012043e-06
1.018809997e-06
1.002865052e-06
9.833098377e-07
9.614308214e-07
9.386772384e-07
9.167429205e-07
8.978338421e-07
8.853345651e-07
9.898455847e-07
9.794742302e-07
9.64704193e-07
9.465768485e-07
9.262764598e-07
9.051405048e-07
8.847383273e-07
8.671237372e-07
8.554616651e-07
9.529370516e-07
9.43321243e-07
9.296199584e-07
9.127916839e-07
8.939277986e-07
8.742641377e-07
8.552567189e-07
8.388207236e-07
8.27920956e-07
9.189934947e-07
9.100652406e-07
8.973366658e-07
8.816909398e-07
8.641349991e-07
8.458121955e-07
8.280753251e-07
8.12713185e-07
8.025080677e-07
8.877489739e-07
8.794467641e-07
8.676040136e-07
8.530354308e-07
8.366711514e-07
8.195703362e-07
8.02991707e-07
7.886087523e-07
7.790371651e-07
8.589621819e-07
8.512303711e-07
8.401948455e-07
8.266080556e-07
8.113302531e-07
7.953439149e-07
7.798219686e-07
7.66332615e-07
7.573393274e-07
8.32414241e-07
8.252024877e-07
8.14903079e-07
8.022118201e-07
7.879253385e-07
7.729562229e-07
7.583991027e-07
7.457259601e-07
7.372610476e-07
8.079066694e-07
8.011694253e-07
7.915417939e-07
7.796680139e-07
7.662867534e-07
7.522468643e-07
7.385714661e-07
7.266445313e-07
7.186628489e-07
7.8525951e-07
7.789555552e-07
7.699414744e-07
7.588145338e-07
7.462605689e-07
7.33070265e-07
7.202013781e-07
7.089573059e-07
7.014180127e-07
7.643096134e-07
7.584016364e-07
7.499483972e-07
7.395043467e-07
7.277071283e-07
7.15294304e-07
7.031638355e-07
6.925452802e-07
6.85411411e-07
7.449090671e-07
7.393632834e-07
7.314231563e-07
7.216040833e-07
7.104997168e-07
6.987990632e-07
6.873453367e-07
6.773003591e-07
6.705384386e-07
7.269237619e-07
7.217095692e-07
7.142393173e-07
7.049927551e-07
6.945233477e-07
6.834756853e-07
6.726428091e-07
6.631243413e-07
6.567040369e-07
7.102320841e-07
7.053217514e-07
6.982821906e-07
6.895605849e-07
6.796736575e-07
6.692253334e-07
6.589626305e-07
6.499279945e-07
6.438218042e-07
6.947237281e-07
6.90092114e-07
6.83447716e-07
6.752079434e-07
6.658558991e-07
6.559582445e-07
6.462197396e-07
6.376302136e-07
6.318131852e-07
6.802986156e-07
6.759229151e-07
6.696414493e-07
6.618443829e-07
6.529840288e-07
6.4359287e-07
6.343368267e-07
6.261572555e-07
6.206067342e-07
6.668659169e-07
6.627254325e-07
6.567776431e-07
6.493877618e-07
6.409798773e-07
6.320550948e-07
6.232436005e-07
6.154420444e-07
6.101374462e-07
6.54343163e-07
6.504190987e-07
6.447784142e-07
6.377634497e-07
6.297723986e-07
6.212775308e-07
6.128761217e-07
6.054235413e-07
6.003461492e-07
6.42655443e-07
6.389307184e-07
6.335729893e-07
6.269036091e-07
6.192969895e-07
6.111988761e-07
6.031762006e-07
5.960461733e-07
5.911789545e-07
6.317346766e-07
6.281937604e-07
6.230970234e-07
6.167465449e-07
6.094948749e-07
6.017633352e-07
5.940908514e-07
5.872593167e-07
5.825867582e-07
6.215189585e-07
6.181477174e-07
6.132919833e-07
6.072361167e-07
6.003125509e-07
5.929200955e-07
5.855717989e-07
5.790168289e-07
5.745247898e-07
6.119519646e-07
6.087375282e-07
6.041045907e-07
5.983212075e-07
5.917012827e-07
5.846228536e-07
5.775750318e-07
5.712766257e-07
5.669522047e-07
6.029824168e-07
5.999130556e-07
5.954863195e-07
5.899552447e-07
5.836166503e-07
5.76829387e-07
5.700604e-07
5.640002992e-07
5.598317154e-07
5.945635995e-07
5.916286156e-07
5.873929422e-07
5.820957665e-07
5.760181388e-07
5.695011683e-07
5.629912505e-07
5.571527718e-07
5.53129258e-07
5.866529239e-07
5.83842552e-07
5.797841198e-07
5.747040315e-07
5.68868768e-07
5.626030161e-07
5.563340982e-07
5.507019851e-07
5.468136914e-07
5.792115333e-07
5.765168522e-07
5.726230321e-07
5.677446658e-07
5.621347587e-07
5.561027797e-07
5.500583292e-07
5.44618617e-07
5.408565248e-07
5.722039482e-07
5.696168011e-07
5.658760435e-07
5.611853435e-07
5.557852297e-07
5.499710544e-07
5.441359317e-07
5.388758279e-07
5.352316725e-07
5.655977439e-07
5.631106663e-07
5.595124001e-07
5.549964982e-07
5.497919251e-07
5.441809231e-07
5.385412531e-07
5.33449029e-07
5.299152306e-07
5.593632582e-07
5.569694138e-07
5.535039555e-07
5.491510608e-07
5.441289648e-07
5.387077223e-07
5.332507787e-07
5.283156728e-07
5.248852745e-07
5.534733259e-07
5.511664482e-07
5.478249198e-07
5.436242198e-07
5.387726181e-07
5.33528827e-07
5.28242929e-07
5.234550615e-07
5.201216747e-07
5.479030341e-07
5.456773738e-07
5.424516292e-07
5.383932008e-07
5.337010936e-07
5.286234529e-07
5.234978733e-07
5.18848169e-07
5.156059249e-07
5.426294955e-07
5.404797736e-07
5.373623318e-07
5.334370606e-07
5.288943434e-07
5.239724705e-07
5.189973532e-07
5.14477474e-07
5.113209807e-07
5.376316354e-07
5.355529995e-07
5.325369841e-07
5.287364917e-07
5.243338754e-07
5.195582263e-07
5.147245126e-07
5.103267974e-07
5.072511033e-07
5.328899853e-07
5.308779706e-07
5.279570535e-07
5.242736304e-07
5.200025688e-07
5.153643652e-07
5.106637275e-07
5.063811389e-07
5.033817003e-07
5.283864804e-07
5.264369714e-07
5.236053211e-07
5.200318639e-07
5.158844856e-07
5.113756473e-07
5.06800428e-07
5.026265043e-07
4.996991568e-07
5.241042508e-07
5.222134463e-07
5.194656769e-07
5.159956274e-07
5.119646699e-07
5.075777502e-07
5.031209037e-07
4.990497134e-07
4.961906466e-07
5.200274028e-07
5.18191779e-07
5.155228994e-07
5.121501835e-07
5.08228927e-07
5.039570464e-07
4.996120801e-07
4.956381773e-07
4.928439096e-07
5.161407789e-07
5.143570514e-07
5.117624114e-07
5.084813739e-07
5.046635701e-07
5.005003459e-07
4.962612565e-07
4.923796314e-07
4.896469824e-07
5.124296897e-07
5.106947717e-07
5.081700023e-07
5.049753339e-07
5.01255125e-07
4.971945892e-07
4.930557882e-07
4.892618088e-07
4.865878664e-07
5.088796084e-07
5.071905622e-07
5.047315059e-07
5.016181573e-07
4.979899807e-07
4.940264815e-07
4.899827029e-07
4.862720398e-07
4.836541162e-07
5.05475819e-07
5.038297984e-07
5.014324262e-07
4.983955047e-07
4.948539743e-07
4.909820526e-07
4.870282347e-07
4.83396763e-07
4.808323337e-07
5.022030097e-07
5.005971904e-07
4.982575009e-07
4.952921426e-07
4.918319029e-07
4.880461358e-07
4.841772679e-07
4.806209357e-07
4.781075553e-07
4.990448073e-07
4.974763026e-07
4.951901983e-07
4.922914118e-07
4.889069546e-07
4.852017576e-07
4.81412683e-07
4.779273377e-07
4.754625259e-07
4.959832481e-07
4.944490071e-07
4.922121446e-07
4.893746186e-07
4.860600582e-07
4.824294385e-07
4.787146048e-07
4.752957691e-07
4.728768586e-07
4.929981869e-07
4.914948726e-07
4.893024835e-07
4.865203569e-07
4.832691568e-07
4.797064113e-07
4.760595608e-07
4.727021509e-07
4.703260934e-07
4.900666504e-07
4.885904979e-07
4.864371783e-07
4.837037681e-07
4.805084177e-07
4.770057733e-07
4.734195703e-07
4.701175519e-07
4.677806766e-07
4.871621487e-07
4.857088022e-07
4.835882714e-07
4.808957609e-07
4.777474028e-07
4.742955982e-07
4.707611938e-07
4.675071761e-07
4.65204902e-07
4.842539628e-07
4.828182945e-07
4.807231272e-07
4.780622175e-07
4.749502306e-07
4.715380482e-07
4.680445885e-07
4.648293632e-07
4.625558678e-07
4.813064399e-07
4.79882355e-07
4.778036915e-07
4.751632272e-07
4.720747773e-07
4.686885368e-07
4.652226304e-07
4.620346674e-07
4.597825217e-07
4.782783312e-07
4.76858566e-07
4.747858136e-07
4.721523955e-07
4.690719718e-07
4.656950077e-07
4.622401741e-07
4.590650976e-07
4.56824884e-07
4.751222194e-07
4.736981426e-07
4.716186826e-07
4.689762892e-07
4.658852523e-07
4.624974054e-07
4.590335382e-07
4.55853615e-07
4.536135509e-07
4.717840906e-07
4.703455204e-07
4.6824444e-07
4.655740854e-07
4.624502615e-07
4.590274242e-07
4.555303111e-07
4.523239926e-07
4.500695908e-07
4.682031158e-07
4.667381704e-07
4.645980443e-07
4.618775003e-07
4.586948575e-07
4.552086198e-07
4.516495775e-07
4.483911479e-07
4.461049525e-07
4.643116961e-07
4.628066956e-07
4.606074481e-07
4.578110773e-07
4.545395389e-07
4.509569895e-07
4.473026602e-07
4.439620509e-07
4.416234958e-07
4.600358481e-07
4.584752889e-07
4.561941659e-07
4.532929015e-07
4.498983429e-07
4.461820889e-07
4.423944801e-07
4.3893731e-07
4.365227436e-07
4.552959897e-07
4.536626129e-07
4.512742969e-07
4.48235814e-07
4.44680298e-07
4.407887618e-07
4.368255858e-07
4.332134978e-07
4.306964248e-07
4.500081811e-07
4.482831565e-07
4.45760056e-07
4.425491755e-07
4.387914737e-07
4.346795225e-07
4.30494898e-07
4.26686246e-07
4.240378296e-07
4.440858609e-07
4.422491046e-07
4.395618451e-07
4.361412033e-07
4.321376442e-07
4.277575976e-07
4.233031578e-07
4.192540882e-07
4.164439443e-07
4.374420936e-07
4.354727329e-07
4.325908677e-07
4.289218753e-07
4.246275443e-07
4.199305835e-07
4.151570158e-07
4.108229638e-07
4.078202606e-07
4.299923185e-07
4.278693088e-07
4.247622566e-07
4.208063528e-07