/*--------------------------------*- C++ -*----------------------------------*\
| =========                 |                                                 |
| \\      /  F ield         | OpenFOAM: The Open Source CFD Toolbox           |
|  \\    /   O peration     | Version:  2212                                  |
|   \\  /    A nd           | Website:  www.openfoam.com                      |
|    \\/     M anipulation  |                                                 |
\*---------------------------------------------------------------------------*/
FoamFile
{
    version     2.0;
    format      ascii;
    arch        "LSB;label=32;scalar=64";
    class       volScalarField;
    location    "30.00000000";
    object      CH3COCH2_0;
}
// * * * * * * * * * * * * * * * * * * * * * * * * * * * * * * * * * * * * * //

dimensions      [0 0 0 0 0 0 0];

internalField   nonuniform List<scalar> 
3000
(
3.66481214e-24
4.116972724e-24
4.799260854e-24
5.708424892e-24
6.835165739e-24
8.148804472e-24
9.570131468e-24
1.092618537e-23
1.188495927e-23
1.37594844e-23
1.551938017e-23
1.817380673e-23
2.171866096e-23
2.615009842e-23
3.144314826e-23
3.750550799e-23
4.403178575e-23
4.981229099e-23
3.082138741e-23
3.50363344e-23
4.145425478e-23
5.016746061e-23
6.133143649e-23
7.510651409e-23
9.143665662e-23
1.094056979e-22
1.2476066e-22
5.870826481e-23
6.743520315e-23
8.091806524e-23
9.961155718e-23
1.241750982e-22
1.552287275e-22
1.925986258e-22
2.3329438e-22
2.661388971e-22
1.042538367e-22
1.212190636e-22
1.478426188e-22
1.854745917e-22
2.358809634e-22
3.004693183e-22
3.781558211e-22
4.606486253e-22
5.239737705e-22
1.79276114e-22
2.111142925e-22
2.617949104e-22
3.345500621e-22
4.332585249e-22
5.604042262e-22
7.121929072e-22
8.694900893e-22
9.858685134e-22
3.043520856e-22
3.628264116e-22
4.569905641e-22
5.936938878e-22
7.80543761e-22
1.021252949e-21
1.305865979e-21
1.595033895e-21
1.803677944e-21
5.150789872e-22
6.208816602e-22
7.927720139e-22
1.044237564e-21
1.389285927e-21
1.832870817e-21
2.352728357e-21
2.87318995e-21
3.24244597e-21
8.731677863e-22
1.062581678e-21
1.372286348e-21
1.827636596e-21
2.453520019e-21
3.255910556e-21
4.189464399e-21
5.114369224e-21
5.763335538e-21
1.485577882e-21
1.822026435e-21
2.374622309e-21
3.189641461e-21
4.310471101e-21
5.743498576e-21
7.40146398e-21
9.032052303e-21
1.016774444e-20
2.537947388e-21
3.132150444e-21
4.111080535e-21
5.557582738e-21
7.546512415e-21
1.008325103e-20
1.300572933e-20
1.586540863e-20
1.784776561e-20
4.352790742e-21
5.39793525e-21
7.123253457e-21
9.675150243e-21
1.318185555e-20
1.764425667e-20
2.276770349e-20
2.776365477e-20
3.121957833e-20
7.491000337e-21
9.324355747e-21
1.23548346e-20
1.683897782e-20
2.299484088e-20
3.08088852e-20
3.974871972e-20
4.844161868e-20
5.447751691e-20
1.292836426e-20
1.613937984e-20
2.145237324e-20
2.931576584e-20
4.009901364e-20
5.374511066e-20
6.926651892e-20
8.425142955e-20
9.494008406e-20
2.236099863e-20
2.798011328e-20
3.728783446e-20
5.107465655e-20
6.998226619e-20
9.386294261e-20
1.207629056e-19
1.455152826e-19
1.657090724e-19
3.873060267e-20
4.85533966e-20
6.484510006e-20
8.901970801e-20
1.222809263e-19
1.646220495e-19
2.134251863e-19
2.621444312e-19
2.927187608e-19
6.712952316e-20
8.426523774e-20
1.127010984e-19
1.549084556e-19
2.129630136e-19
2.867237073e-19
3.711200714e-19
4.529482624e-19
5.085214216e-19
1.163831518e-19
1.462196632e-19
1.957380731e-19
2.692233347e-19
3.7022546e-19
4.98362423e-19
6.44625632e-19
7.860903015e-19
8.829246202e-19
2.018015285e-19
2.536886847e-19
3.398074256e-19
4.675871309e-19
6.431430381e-19
8.657255084e-19
1.119625341e-18
1.365108851e-18
1.533257763e-18
3.499551625e-19
4.401275065e-19
5.897980164e-19
8.118609898e-19
1.116897179e-18
1.503539526e-18
1.944455363e-18
2.37065818e-18
2.662564362e-18
6.06964724e-19
7.636139025e-19
1.023641823e-18
1.409437499e-18
1.939336575e-18
2.610889369e-18
3.376548968e-18
4.116496702e-18
4.623204188e-18
1.052893183e-18
1.32497369e-18
1.776635798e-18
2.446753801e-18
3.367112278e-18
4.533344375e-18
5.862754273e-18
7.147269448e-18
8.026729614e-18
1.826733357e-18
2.299250601e-18
3.083668936e-18
4.247468261e-18
5.845737703e-18
7.870708114e-18
1.017859634e-17
1.240811901e-17
1.393439102e-17
3.16979086e-18
3.990343875e-18
5.352529065e-18
7.373428948e-18
1.014847049e-17
1.366381672e-17
1.766952174e-17
2.153843705e-17
2.418661583e-17
5.500984286e-18
6.925837703e-18
9.291114589e-18
1.279984424e-17
1.761718648e-17
2.371838274e-17
3.066892928e-17
3.738043016e-17
4.197329598e-17
9.547508839e-18
1.202154365e-17
1.61281197e-17
2.221904389e-17
3.057982227e-17
4.116582584e-17
5.322157885e-17
6.485881282e-17
7.282015426e-17
1.657145491e-17
2.08668626e-17
2.799566064e-17
3.856683768e-17
5.30730485e-17
7.143304681e-17
9.233293528e-17
1.124981407e-16
1.262880789e-16
2.876239953e-17
3.621904328e-17
4.859169634e-17
6.693310453e-17
9.209126681e-17
1.239163547e-16
1.601223639e-16
1.950338765e-16
2.188943917e-16
4.991665166e-17
6.285810857e-17
8.432515213e-17
1.161343484e-16
1.59740483e-16
2.148629725e-16
2.775222624e-16
3.378895338e-16
3.791149944e-16
8.661027006e-17
1.090626703e-16
1.462910529e-16
2.014224567e-16
2.769415136e-16
3.723138968e-16
4.806073617e-16
5.848184055e-16
6.559070206e-16
1.502198538e-16
1.891507839e-16
2.536671218e-16
3.491347193e-16
4.797721465e-16
6.44544739e-16
8.313686547e-16
1.010871492e-15
1.133139797e-15
2.603930549e-16
3.278396841e-16
4.395327654e-16
6.046419716e-16
8.302750997e-16
1.114398295e-15
1.435935564e-15
1.744248168e-15
1.953845821e-15
4.509859877e-16
5.676949082e-16
7.607907798e-16
1.045860963e-15
1.434763432e-15
1.923452287e-15
2.475156131e-15
3.002801369e-15
3.360608502e-15
7.801737763e-16
9.817925312e-16
1.31498639e-15
1.806075387e-15
2.474593975e-15
3.312431501e-15
4.255443425e-15
5.154418622e-15
5.762123713e-15
1.347571567e-15
1.695109778e-15
2.268619693e-15
3.112174772e-15
4.257443471e-15
5.688120054e-15
7.292414708e-15
8.815756442e-15
9.841602987e-15
2.323036398e-15
2.920395856e-15
3.904411385e-15
5.348131419e-15
7.301862791e-15
9.732894741e-15
1.244679744e-14
1.501162824e-14
1.67310143e-14
3.994746146e-15
5.017807241e-15
6.699443237e-15
9.159227684e-15
1.247503779e-14
1.658171116e-14
2.114225507e-14
2.542869577e-14
2.82871804e-14
6.84873842e-15
8.593055024e-15
1.145287794e-14
1.56210378e-14
2.121415721e-14
2.810391243e-14
3.570924929e-14
4.281312072e-14
4.752266615e-14
1.169913299e-14
1.465705339e-14
1.94919729e-14
2.650940739e-14
3.587654401e-14
4.734457469e-14
5.991882883e-14
7.15836191e-14
7.926741485e-14
1.989882067e-14
2.488213649e-14
3.299934798e-14
4.472454847e-14
6.028345621e-14
7.920278644e-14
9.979576899e-14
1.187594434e-13
1.311668958e-13
3.367588838e-14
4.200708046e-14
5.552389256e-14
7.494431543e-14
1.005469595e-13
1.314512908e-13
1.648301729e-13
1.953352612e-13
2.151571463e-13
5.666347578e-14
7.04670088e-14
9.276306734e-14
1.246081799e-13
1.662960443e-13
2.162284365e-13
2.697330545e-13
3.182620904e-13
3.495857519e-13
9.472371293e-14
1.173575638e-13
1.537368547e-13
2.053626914e-13
2.724408423e-13
3.521461618e-13
4.368825351e-13
5.131842667e-13
5.621331988e-13
1.572180287e-13
1.938927535e-13
2.525181938e-13
3.351311082e-13
4.416220202e-13
5.671286259e-13
6.995284055e-13
8.179504808e-13
8.935199428e-13
2.589665559e-13
3.176031905e-13
4.107607075e-13
5.410171153e-13
7.074802432e-13
9.019787301e-13
1.10554681e-12
1.286448477e-12
1.401361036e-12
4.233143923e-13
5.156975782e-13
6.614293507e-13
8.633715401e-13
1.118880598e-12
1.414422193e-12
1.720862045e-12
1.991052306e-12
2.161737361e-12
6.870679222e-13
8.303784399e-13
1.054521601e-12
1.361694849e-12
1.745391079e-12
2.18306822e-12
2.630383888e-12
3.019210858e-12
3.261768406e-12
1.108686662e-12
1.327596636e-12
1.666347825e-12
2.123873548e-12
2.684992266e-12
3.310766211e-12
3.932778962e-12
4.455382929e-12
4.768924606e-12
1.781989754e-12
2.111707942e-12
2.61507356e-12
3.281556671e-12
4.076396958e-12
4.928042219e-12
5.725815196e-12
6.338370015e-12
6.659508601e-12
2.858132363e-12
3.348885134e-12
4.085439879e-12
5.034494399e-12
6.118462846e-12
7.198861126e-12
8.086099216e-12
8.604471946e-12
8.727428522e-12
4.576521039e-12
5.298900501e-12
6.360319485e-12
7.678489741e-12
9.088343105e-12
1.032255358e-11
1.105842101e-11
1.109197492e-11
1.063519309e-11
7.295592888e-12
8.341431265e-12
9.836724908e-12
1.160174469e-11
1.330936002e-11
1.448303569e-11
1.465219042e-11
1.371652798e-11
1.23514046e-11
1.14888131e-11
1.295083435e-11
1.496131136e-11
1.716000005e-11
1.896037769e-11
1.964997267e-11
1.878503207e-11
1.670762695e-11
1.459778351e-11
1.762482448e-11
1.95249493e-11
2.19779502e-11
2.433127556e-11
2.569605556e-11
2.532584416e-11
2.328377085e-11
2.055123192e-11
1.830338301e-11
2.581561503e-11
2.797145987e-11
3.045968542e-11
3.229344119e-11
3.250047033e-11
3.085883684e-11
2.82226666e-11
2.563097681e-11
2.367816787e-11
3.526352182e-11
3.721532513e-11
3.90329502e-11
3.965150842e-11
3.858061363e-11
3.639201456e-11
3.402181547e-11
3.181558512e-11
2.990708436e-11
4.415707483e-11
4.547558329e-11
4.629958638e-11
4.596857745e-11
4.462142336e-11
4.2862012e-11
4.086280393e-11
3.829599443e-11
3.555665781e-11
5.126018572e-11
5.222390039e-11
5.282554328e-11
5.276552703e-11
5.212477145e-11
5.079303467e-11
4.815523088e-11
4.396872395e-11
3.971848395e-11
5.817188166e-11
5.959864674e-11
6.09791149e-11
6.1834228e-11
6.162219148e-11
5.945794069e-11
5.473154175e-11
4.826481943e-11
4.25985834e-11
6.794974515e-11
7.011276465e-11
7.223861093e-11
7.325563727e-11
7.191577876e-11
6.731135721e-11
5.988094592e-11
5.150221076e-11
4.49501727e-11
8.167143074e-11
8.395022421e-11
8.562554385e-11
8.505479311e-11
8.098894516e-11
7.345883213e-11
6.391844011e-11
5.444620423e-11
4.749883459e-11
9.726563564e-11
9.84907921e-11
9.818300368e-11
9.480561718e-11
8.787976246e-11
7.829831155e-11
6.771142555e-11
5.786125007e-11
5.083348572e-11
1.107437681e-10
1.102002443e-10
1.075079029e-10
1.017718707e-10
9.31909943e-11
8.285750071e-11
7.21430754e-11
6.240241731e-11
5.547583554e-11
1.195809935e-10
1.17686286e-10
1.135876421e-10
1.069294255e-10
9.81361127e-11
8.813727287e-11
7.79558211e-11
6.866621818e-11
6.197465197e-11
1.242976237e-10
1.220452495e-10
1.17877941e-10
1.116652446e-10
1.037923024e-10
9.491761105e-11
8.578511029e-11
7.726892622e-11
7.097018475e-11
1.267853471e-10
1.250404523e-10
1.218420748e-10
1.170620197e-10
1.109058335e-10
1.037928602e-10
9.622787058e-11
8.888891464e-11
8.322401562e-11
1.286717076e-10
1.280077393e-10
1.264483555e-10
1.237620668e-10
1.199655748e-10
1.152461804e-10
1.098693674e-10
1.04264746e-10
9.960370194e-11
1.309353745e-10
1.316867673e-10
1.322068696e-10
1.321357668e-10
1.313062973e-10
1.296828823e-10
1.272666969e-10
1.241432231e-10
1.210117342e-10
1.340738314e-10
1.364650257e-10
1.394014139e-10
1.424109108e-10
1.451692501e-10
1.474301824e-10
1.488944626e-10
1.49179759e-10
1.482569248e-10
1.384075328e-10
1.426058539e-10
1.482409524e-10
1.547656525e-10
1.617374893e-10
1.687168906e-10
1.750679977e-10
1.79807424e-10
1.818847486e-10
1.442551649e-10
1.503911379e-10
1.589624485e-10
1.693900924e-10
1.81155918e-10
1.936484995e-10
2.058674898e-10
2.161075555e-10
2.220063089e-10
1.520345788e-10
1.60201928e-10
1.718878382e-10
1.865195878e-10
2.035407489e-10
2.221901478e-10
2.410894765e-10
2.577255688e-10
2.681829255e-10
1.622931114e-10
1.725380656e-10
1.874325505e-10
2.064349546e-10
2.289758158e-10
2.541636107e-10
2.802475785e-10
3.03874944e-10
3.194293414e-10
1.75669308e-10
1.879755389e-10
2.060610819e-10
2.294234242e-10
2.574908333e-10
2.892591583e-10
3.226369142e-10
3.53470968e-10
3.74410257e-10
1.927938458e-10
2.07067972e-10
2.281945321e-10
2.557037079e-10
2.890233319e-10
3.270643487e-10
3.67477434e-10
4.054697038e-10
4.321929365e-10
2.141528625e-10
2.302156374e-10
2.540933524e-10
2.853368688e-10
3.233812424e-10
3.671156077e-10
4.141094987e-10
4.59355302e-10
4.921078131e-10
2.399538101e-10
2.575433033e-10
2.837583972e-10
3.181681968e-10
3.602556678e-10
4.090218658e-10
4.623242751e-10
5.142511965e-10
5.518585312e-10
2.700441399e-10
2.888397764e-10
3.16910215e-10
3.538698257e-10
3.993753667e-10
4.528734108e-10
5.114222399e-10
5.681252916e-10
6.09371681e-10
3.039429397e-10
3.236253329e-10
3.531237047e-10
3.921882888e-10
4.410050967e-10
4.978792704e-10
5.595800562e-10
6.192570567e-10
6.630092802e-10
3.41081161e-10
3.614726073e-10
3.924662396e-10
4.335109674e-10
4.839512607e-10
5.422467205e-10
6.051774218e-10
6.659902437e-10
7.107731923e-10
3.817324167e-10
4.027972292e-10
4.343562112e-10
4.758220901e-10
5.263662946e-10
5.844241161e-10
6.468399344e-10
7.070861914e-10
7.515928545e-10
4.245476975e-10
4.454773716e-10
4.766472155e-10
5.173646804e-10
5.666952819e-10
6.230493722e-10
6.833895408e-10
7.415452925e-10
7.846057765e-10
4.673965766e-10
4.876210659e-10
5.176161702e-10
5.566004881e-10
6.03567769e-10
6.569377967e-10
7.138520711e-10
7.686131156e-10
8.092294127e-10
5.085736095e-10
5.276255319e-10
5.557743982e-10
5.921791714e-10
6.357985569e-10
6.851064525e-10
7.374826241e-10
7.877958401e-10
8.251704075e-10
5.46617496e-10
5.641012263e-10
5.898346647e-10
6.229512357e-10
6.624159414e-10
7.068040634e-10
7.537860849e-10
7.988646448e-10
8.324123972e-10
5.802792909e-10
5.958696745e-10
6.187265445e-10
6.479948759e-10
6.826892882e-10
7.215316693e-10
7.625252323e-10
8.018478772e-10
8.311928368e-10
6.085359048e-10
6.219838999e-10
6.41619976e-10
6.666384523e-10
6.961455737e-10
7.290494145e-10
7.637151491e-10
7.970117345e-10
8.219712125e-10
6.306103799e-10
6.417481456e-10
6.579420456e-10
6.78471634e-10
7.02572387e-10
7.29369655e-10
7.576052792e-10
7.84829865e-10
8.053845078e-10
6.45985437e-10
6.547283423e-10
6.673823611e-10
6.833438725e-10
7.020083983e-10
7.227394175e-10
7.446545292e-10
7.659472275e-10
7.821613788e-10
6.544061919e-10
6.607510026e-10
6.698863415e-10
6.813508824e-10
6.947230751e-10
7.096165835e-10
7.255177737e-10
7.412318899e-10
7.5345821e-10
6.558714235e-10
6.598906371e-10
6.656371345e-10
6.728096829e-10
6.811829795e-10
6.906215581e-10
7.009591319e-10
7.115557583e-10
7.201472703e-10
6.506142423e-10
6.524470704e-10
6.550284474e-10
6.582266014e-10
6.62015948e-10
6.665020008e-10
6.71833642e-10
6.778573392e-10
6.832132569e-10
6.390736423e-10
6.389143446e-10
6.386300804e-10
6.382594408e-10
6.379707449e-10
6.380916469e-10
6.390466295e-10
6.410950502e-10
6.436453241e-10
6.218586905e-10
6.1994297e-10
6.171477678e-10
6.136749138e-10
6.098724186e-10
6.062637811e-10
6.035043732e-10
6.021916423e-10
6.023679119e-10
5.997065253e-10
5.962963251e-10
5.91377341e-10
5.852999111e-10
5.785696008e-10
5.718723712e-10
5.660442047e-10
5.619495508e-10
5.601480336e-10
5.734315925e-10
5.687972419e-10
5.621463994e-10
5.539545969e-10
5.448533233e-10
5.356474413e-10
5.273102623e-10
5.209158891e-10
5.172928523e-10
5.438477874e-10
5.382425933e-10
5.30212343e-10
5.20317624e-10
5.093041567e-10
4.979878868e-10
4.873280137e-10
4.789228374e-10
4.741192975e-10
5.11581144e-10
5.05218989e-10
4.960789914e-10
4.845925974e-10
4.718611517e-10
4.589866415e-10
4.471735488e-10
4.37811324e-10
4.323609992e-10
4.76535857e-10
4.695061953e-10
4.59526438e-10
4.473587105e-10
4.339987246e-10
4.205588531e-10
4.082626238e-10
3.984635991e-10
3.926755078e-10
4.401326844e-10
4.329424529e-10
4.227850744e-10
4.104916648e-10
3.970430049e-10
3.835347719e-10
3.711654346e-10
3.612586507e-10
3.553436553e-10
4.040342353e-10
3.969235958e-10
3.869005674e-10
3.748010348e-10
3.615865026e-10
3.483204131e-10
3.361583107e-10
3.263793299e-10
3.204944756e-10
3.690012497e-10
3.621086861e-10
3.524053353e-10
3.4070823e-10
3.279469774e-10
3.151405813e-10
3.03389511e-10
2.93913878e-10
2.881785331e-10
3.35459184e-10
3.288761007e-10
3.196172553e-10
3.084680292e-10
2.963156446e-10
2.841253377e-10
2.729336743e-10
2.63890658e-10
2.583937993e-10
3.036821676e-10
2.974711659e-10
2.887427647e-10
2.782422376e-10
2.668067327e-10
2.553411267e-10
2.448122116e-10
2.362925189e-10
2.310973972e-10
2.738530589e-10
2.68055022e-10
2.599128751e-10
2.501260212e-10
2.394763465e-10
2.288042697e-10
2.190035891e-10
2.110653445e-10
2.062134164e-10
2.46085126e-10
2.407230959e-10
2.331980783e-10
2.241599773e-10
2.14332412e-10
2.044894264e-10
1.954508687e-10
1.881250628e-10
1.836396648e-10
2.204329123e-10
2.155151282e-10
2.086174501e-10
2.003384672e-10
1.913423974e-10
1.823368304e-10
1.740685547e-10
1.673641777e-10
1.632539879e-10
1.969006905e-10
1.924233911e-10
1.86146579e-10
1.78617237e-10
1.704406031e-10
1.622592162e-10
1.547491337e-10
1.486579353e-10
1.449201602e-10
1.75450695e-10
1.714007609e-10
1.657253986e-10
1.58920933e-10
1.515352803e-10
1.441484738e-10
1.373692282e-10
1.318700018e-10
1.284932234e-10
1.560113917e-10
1.523687736e-10
1.472659197e-10
1.41150405e-10
1.345154157e-10
1.278818503e-10
1.217951984e-10
1.168575159e-10
1.138241566e-10
1.384855207e-10
1.352253893e-10
1.306595855e-10
1.251895398e-10
1.192569567e-10
1.133275194e-10
1.078880563e-10
1.034754217e-10
1.007638139e-10
1.22757579e-10
1.198521567e-10
1.157839767e-10
1.109113958e-10
1.056282999e-10
1.003493907e-10
9.55076148e-11
9.158004277e-11
8.916611407e-11
1.087004836e-10
1.06120546e-10
1.025086751e-10
9.818349216e-11
9.349494274e-11
8.881110279e-11
8.45158519e-11
8.103190644e-11
7.889050827e-11
9.618126074e-11
9.389731769e-11
9.070018289e-11
8.687218657e-11
8.272326536e-11
7.857920063e-11
7.477951622e-11
7.169786551e-11
6.980378457e-11
8.506570197e-11
8.304888829e-11
8.022588072e-11
7.684614515e-11
7.318347199e-11
6.952554312e-11
6.617203666e-11
6.345258866e-11
6.178128584e-11
7.522201289e-11
7.34447242e-11
7.095706854e-11
6.797896393e-11
6.47517595e-11
6.15290191e-11
5.857481897e-11
5.617950705e-11
5.470762867e-11
6.652352901e-11
6.49598444e-11
6.277117332e-11
6.015102905e-11
5.731180723e-11
5.447667199e-11
5.18780251e-11
4.977130496e-11
4.847701172e-11
5.88506192e-11
5.747655547e-11
5.55532498e-11
5.325073802e-11
5.075569457e-11
4.826430947e-11
4.598091806e-11
4.413005062e-11
4.299320484e-11
5.209189679e-11
5.088552582e-11
4.919686682e-11
4.717516864e-11
4.49843457e-11
4.279673885e-11
4.079189132e-11
3.916705102e-11
3.816929329e-11
4.614486496e-11
4.508633185e-11
4.360451928e-11
4.183033579e-11
3.990762069e-11
3.798768905e-11
3.622824029e-11
3.480249996e-11
3.392724659e-11
4.091613434e-11
3.998760628e-11
3.868768073e-11
3.713112994e-11
3.544413244e-11
3.375950985e-11
3.221575553e-11
3.096498534e-11
3.019737078e-11
3.632131486e-11
3.550688087e-11
3.436657913e-11
3.300101674e-11
3.152086751e-11
3.004271691e-11
2.868819906e-11
2.759090869e-11
2.691769123e-11
3.228467375e-11
3.157021498e-11
3.056978549e-11
2.937157934e-11
2.807268023e-11
2.677543944e-11
2.558671046e-11
2.462385726e-11
2.403330274e-11
2.873864004e-11
2.811168382e-11
2.723368043e-11
2.618196055e-11
2.504171017e-11
2.390281456e-11
2.285918068e-11
2.201396101e-11
2.149571534e-11
2.562321528e-11
2.507278324e-11
2.430185127e-11
2.337825179e-11
2.237676351e-11
2.137636215e-11
2.045962153e-11
1.97172577e-11
1.926221618e-11
2.288533775e-11
2.240179494e-11
2.172445934e-11
2.091286372e-11
2.00326882e-11
1.915336523e-11
1.834755131e-11
1.769508272e-11
1.729526163e-11
2.047823451e-11
2.005314459e-11
1.945760676e-11
1.8743904e-11
1.796976407e-11
1.719627307e-11
1.648741011e-11
1.591349438e-11
1.556190843e-11
1.836078617e-11
1.798677551e-11
1.746272297e-11
1.683457942e-11
1.615312247e-11
1.547213851e-11
1.484801372e-11
1.434274125e-11
1.403328926e-11
1.649692082e-11
1.616755329e-11
1.570598444e-11
1.515263394e-11
1.45522043e-11
1.395209642e-11
1.340205083e-11
1.295677464e-11
1.26841345e-11
1.485504753e-11
1.456471072e-11
1.415777563e-11
1.366982899e-11
1.31402615e-11
1.261088638e-11
1.212562536e-11
1.173280698e-11
1.149234049e-11
1.340753507e-11
1.315133797e-11
1.279219529e-11
1.236146918e-11
1.189390383e-11
1.142642063e-11
1.099784392e-11
1.06509151e-11
1.043858254e-11
1.213023815e-11
1.190391995e-11
1.158660939e-11
1.120597383e-11
1.07926907e-11
1.037939622e-11
1.000044662e-11
9.693686259e-12
9.505970363e-12
1.100207103e-11
1.080192035e-11
1.052124982e-11
1.018449325e-11
9.818766385e-12
9.45294927e-12
9.117478841e-12
8.845904163e-12
8.679742872e-12
1.000462683e-11
9.827410625e-12
9.578856795e-12
9.28056725e-12
8.956536129e-12
8.632348491e-12
8.335000803e-12
8.094271611e-12
7.946998914e-12
9.121839794e-12
8.964740972e-12
8.744362136e-12
8.479823082e-12
8.192379867e-12
7.904724825e-12
7.64083177e-12
7.427166538e-12
7.296460637e-12
8.339687078e-12
8.200250036e-12
8.004609962e-12
7.769709285e-12
7.514400355e-12
7.258833758e-12
7.024325412e-12
6.834428018e-12
6.718266063e-12
7.645926734e-12
7.522009866e-12
7.348111428e-12
7.139262119e-12
6.912202244e-12
6.684847042e-12
6.476173137e-12
6.307169026e-12
6.203787696e-12
7.029868085e-12
6.919602489e-12
6.764829957e-12
6.57890113e-12
6.376698838e-12
6.174170608e-12
5.988232239e-12
5.837612931e-12
5.745474167e-12
6.482171091e-12
6.38392472e-12
6.24599364e-12
6.080250637e-12
5.899943396e-12
5.719285679e-12
5.553376012e-12
5.418950925e-12
5.3367122e-12
5.9946714e-12
5.907017964e-12
5.783931695e-12
5.635984125e-12
5.474982124e-12
5.313610328e-12
5.165363173e-12
5.045217849e-12
4.971706387e-12
5.560228021e-12
5.481920039e-12
5.37193208e-12
5.239688787e-12
5.095726197e-12
4.951378978e-12
4.818724212e-12
4.711184121e-12
4.645374576e-12
5.172590857e-12
5.102536316e-12
5.004117666e-12
4.885747711e-12
4.756840465e-12
4.627537597e-12
4.508662554e-12
4.41226174e-12
4.353256865e-12
4.826285605e-12
4.763527738e-12
4.675338633e-12
4.569237497e-12
4.453646709e-12
4.33765259e-12
4.230968612e-12
4.144422547e-12
4.091436465e-12
4.516513785e-12
4.460213565e-12
4.381078989e-12
4.285839296e-12
4.182039577e-12
4.077831617e-12
3.981945082e-12
3.904127156e-12
3.85647088e-12
4.23906595e-12
4.18848692e-12
4.117375398e-12
4.031761548e-12
3.938413546e-12
3.844654772e-12
3.758341996e-12
3.688263155e-12
3.645332052e-12
3.990246329e-12
3.944741459e-12
3.880746669e-12
3.803672856e-12
3.71959946e-12
3.635114775e-12
3.557300259e-12
3.494091364e-12
3.4553543e-12
3.766807402e-12
3.725807691e-12
3.668132531e-12
3.598643677e-12
3.522809378e-12
3.44656497e-12
3.376302535e-12
3.319199069e-12
3.284189005e-12
3.565893071e-12
3.528897663e-12
3.476840419e-12
3.414095634e-12
3.345588619e-12
3.276674093e-12
3.213130519e-12
3.161459326e-12
3.129765165e-12
3.384989289e-12
3.351556894e-12
3.304499234e-12
3.247757456e-12
3.185774057e-12
3.123386929e-12
3.065827747e-12
3.01899552e-12
2.990255035e-12
3.221881143e-12
3.191622578e-12
3.149019127e-12
3.097626643e-12
3.041457831e-12
2.984890043e-12
2.932667194e-12
2.89015048e-12
2.864044177e-12
3.074615523e-12
3.047187235e-12
3.008556505e-12
2.961936103e-12
2.910955736e-12
2.85958194e-12
2.812123045e-12
2.773459553e-12
2.749705339e-12
2.941468639e-12
2.916567065e-12
2.881483565e-12
2.839125091e-12
2.792779694e-12
2.746047051e-12
2.702846071e-12
2.667627116e-12
2.645975664e-12
2.820917724e-12
2.798274379e-12
2.766361745e-12
2.727813883e-12
2.685613739e-12
2.643033035e-12
2.603642141e-12
2.571506064e-12
2.551736777e-12
2.711616378e-12
2.69099358e-12
2.661918582e-12
2.626781681e-12
2.588293071e-12
2.549430973e-12
2.513453458e-12
2.484079891e-12
2.46599739e-12
2.612373063e-12
2.593560193e-12
2.567027514e-12
2.534947339e-12
2.499785765e-12
2.464258062e-12
2.431342158e-12
2.404447022e-12
2.387878085e-12
2.522132329e-12
2.504942577e-12
2.480690247e-12
2.451352513e-12
2.419176784e-12
2.386642489e-12
2.356475963e-12
2.331807106e-12
2.316597993e-12
2.439958416e-12
2.424225929e-12
2.402021339e-12
2.37514694e-12
2.345654004e-12
2.31581019e-12
2.288115631e-12
2.265449009e-12
2.251463134e-12
2.365020921e-12
2.350598314e-12
2.330234725e-12
2.305575559e-12
2.278495974e-12
2.251073267e-12
2.225603955e-12
2.2047403e-12
2.191856185e-12
2.296582254e-12
2.283338425e-12
2.264631919e-12
2.241967228e-12
2.217061205e-12
2.19181983e-12
2.16835612e-12
2.149118019e-12
2.137227516e-12
2.233986653e-12
2.221804876e-12
2.204591677e-12
2.183724844e-12
2.160778775e-12
2.137505095e-12
2.115851253e-12
2.098080588e-12
2.087087312e-12
2.176650566e-12
2.165426811e-12
2.149560937e-12
2.130316679e-12
2.109140091e-12
2.087643566e-12
2.067624991e-12
2.051180701e-12
2.04099866e-12
2.124054202e-12
2.113695668e-12
2.099046875e-12
2.081268772e-12
2.061691655e-12
2.041802179e-12
2.023262961e-12
2.008019069e-12
1.998571468e-12
2.075734133e-12
2.066157952e-12
2.05260992e-12
2.036158251e-12
2.018028709e-12
1.999594267e-12
1.982395048e-12
1.968238934e-12
1.959457113e-12
2.031276779e-12
2.022408884e-12
2.009857628e-12
1.994607463e-12
1.97778965e-12
1.960674254e-12
1.944690345e-12
1.931521224e-12
1.923343736e-12
1.990312694e-12
1.982086815e-12
1.970439286e-12
1.95627881e-12
1.940651112e-12
1.924732992e-12
1.909852711e-12
1.897580298e-12
1.889952091e-12
1.952511531e-12
1.94486832e-12
1.934041171e-12
1.920870206e-12
1.90632364e-12
1.891493646e-12
1.877616862e-12
1.866160191e-12
1.85903189e-12
1.917577617e-12
1.910463867e-12
1.900382367e-12
1.888111074e-12
1.874547877e-12
1.860708071e-12
1.847744914e-12
1.837031303e-12
1.830358578e-12
1.885246047e-12
1.878614013e-12
1.86921109e-12
1.857758814e-12
1.845091202e-12
1.832153613e-12
1.820023342e-12
1.809987474e-12
1.803730482e-12
1.855279246e-12
1.84908604e-12
1.840301431e-12
1.829595698e-12
1.817744761e-12
1.805630295e-12
1.794260291e-12
1.784843409e-12
1.778966301e-12
1.827463934e-12
1.82167099e-12
1.813450501e-12
1.803426113e-12
1.79232085e-12
1.780958318e-12
1.770283204e-12
1.761432393e-12
1.755902881e-12
1.801608447e-12
1.796181052e-12
1.788475893e-12
1.779074142e-12
1.768650602e-12
1.757975864e-12
1.747936717e-12
1.739604278e-12
1.734393248e-12
1.777540367e-12
1.772447244e-12
1.765213446e-12
1.756381416e-12
1.746581938e-12
1.736537145e-12
1.72708081e-12
1.719223698e-12
1.714304872e-12
1.755104431e-12
1.75031737e-12
1.74351527e-12
1.735205212e-12
1.725977755e-12
1.716510683e-12
1.707589155e-12
1.700168486e-12
1.695518124e-12
1.734160673e-12
1.729654205e-12
1.723247989e-12
1.715416777e-12
1.706714326e-12
1.697777778e-12
1.689347662e-12
1.682328279e-12
1.677924907e-12
1.714582784e-12
1.710333893e-12
1.704291187e-12
1.696899834e-12
1.68867987e-12
1.680231155e-12
1.672253188e-12
1.665603269e-12
1.661427452e-12
1.696256653e-12
1.692244518e-12
1.686536033e-12
1.679549255e-12
1.671773295e-12
1.663773758e-12
1.65621238e-12
1.649903102e-12
1.64593723e-12
1.67907907e-12
1.675284838e-12
1.669884048e-12
1.663269887e-12
1.655903062e-12
1.648317675e-12
1.641140655e-12
1.635145888e-12
1.631373995e-12
1.662956567e-12
1.65936315e-12
1.654246012e-12
1.647975492e-12
1.640986185e-12
1.633783178e-12
1.62696128e-12
1.621257317e-12
1.617664918e-12
1.647804382e-12
1.644396277e-12
1.639540975e-12
1.633587803e-12
1.626947318e-12
1.620097854e-12
1.613604536e-12
1.608169858e-12
1.604743806e-12
1.633545527e-12
1.630308657e-12
1.625695376e-12
1.62003567e-12
1.613717938e-12
1.607195819e-12
1.601006971e-12
1.595822031e-12
1.592550387e-12
1.620109943e-12
1.617031508e-12
1.612642232e-12
1.607254274e-12
1.601235591e-12
1.595016995e-12
1.589110695e-12
1.584157728e-12
1.581029647e-12
1.607433725e-12
1.604502071e-12
1.600320397e-12
1.595184413e-12
1.589443195e-12
1.583506434e-12
1.577862731e-12
1.573125575e-12
1.570131199e-12
1.595458405e-12
1.592662902e-12
1.588673868e-12
1.583771819e-12
1.578288378e-12
1.572613673e-12
1.56721438e-12
1.562678313e-12
1.559808673e-12
1.584130279e-12
1.581461209e-12
1.57765113e-12
1.572966521e-12
1.567722853e-12
1.562292118e-12
1.557120611e-12
1.552772192e-12
1.550019108e-12
1.57339977e-12
1.570848212e-12
1.567204531e-12
1.562722216e-12
1.557701789e-12
1.552498421e-12
1.547539446e-12
1.543366348e-12
1.540722336e-12
1.563220804e-12
1.56077853e-12
1.557289657e-12
1.552995656e-12
1.548183202e-12
1.543191862e-12
1.538431328e-12
1.534422176e-12
1.53188034e-12
1.553550205e-12
1.55120957e-12
1.547864729e-12
1.543746031e-12
1.53912733e-12
1.534333718e-12
1.529758482e-12
1.525902668e-12
1.523456585e-12
1.544347093e-12
1.542100921e-12
1.538889986e-12
1.534934349e-12
1.530495995e-12
1.525886608e-12
1.52148424e-12
1.517771723e-12
1.51541532e-12
1.535572278e-12
1.533413745e-12
1.53032707e-12
1.526522803e-12
1.52225196e-12
1.517813828e-12
1.513572351e-12
1.509993435e-12
1.507720841e-12
1.527187662e-12
1.525110167e-12
1.522138404e-12
1.518474138e-12
1.514358271e-12
1.510078667e-12
1.505986274e-12
1.502531356e-12
1.500336741e-12
1.519155632e-12
1.51715267e-12
1.514286569e-12
1.51075101e-12
1.506777596e-12
1.502643726e-12
1.498688465e-12
1.495347761e-12
1.493225157e-12
1.511438473e-12
1.509503488e-12
1.506733698e-12
1.50331536e-12
1.499471582e-12
1.495470249e-12
1.491639685e-12
1.488402934e-12
1.486346037e-12
1.503997794e-12
1.502124036e-12
1.499440883e-12
1.496127819e-12
1.49240024e-12
1.488517489e-12
1.484798356e-12
1.481654505e-12
1.47965647e-12
1.496793988e-12
1.494974362e-12
1.492367636e-12
1.489147153e-12
1.485521393e-12
1.481742157e-12
1.478119992e-12
1.475056883e-12
1.473110117e-12
1.489785751e-12
1.488012673e-12
1.485471408e-12
1.482329794e-12
1.478790205e-12
1.475097957e-12
1.471556759e-12
1.468560825e-12
1.466656794e-12
1.482929675e-12
1.481194928e-12
1.478707201e-12
1.475629472e-12
1.472158845e-12
1.468535278e-12
1.465057195e-12
1.462113196e-12
1.460242263e-12
1.476179953e-12
1.474474567e-12
1.472027319e-12
1.468996991e-12
1.465576298e-12
1.462001062e-12
1.458566148e-12
1.455656977e-12
1.453808291e-12
1.469488201e-12
1.467802357e-12
1.465381255e-12
1.462380176e-12
1.458988388e-12
1.455438911e-12
1.452024967e-12
1.449131557e-12
1.447293033e-12
1.462803451e-12
1.461126418e-12
1.458715772e-12
1.45572403e-12
1.452338027e-12
1.448789452e-12
1.44537202e-12
1.442473388e-12
1.440631788e-12
1.456072324e-12
1.454392445e-12
1.451975196e-12
1.448971123e-12
1.445565738e-12
1.441991011e-12
1.43854353e-12
1.435617009e-12
1.433758187e-12
1.449239412e-12
1.447544149e-12
1.44510195e-12
1.442062252e-12
1.438610456e-12
1.434980611e-12
1.431474798e-12
1.428496496e-12
1.42660581e-12
1.442247894e-12
1.440523944e-12
1.438037345e-12
1.434937368e-12
1.431410653e-12
1.42769531e-12
1.424101791e-12
1.421047318e-12
1.419110275e-12
1.435040384e-12
1.433273871e-12
1.430722626e-12
1.427536797e-12
1.423905758e-12
1.420073873e-12
1.416363109e-12
1.413208608e-12
1.411211747e-12
1.427560021e-12
1.425736781e-12
1.423100288e-12