/*--------------------------------*- C++ -*----------------------------------*\
| =========                 |                                                 |
| \\      /  F ield         | OpenFOAM: The Open Source CFD Toolbox           |
|  \\    /   O peration     | Version:  2212                                  |
|   \\  /    A nd           | Website:  www.openfoam.com                      |
|    \\/     M anipulation  |                                                 |
\*---------------------------------------------------------------------------*/
FoamFile
{
    version     2.0;
    format      ascii;
    arch        "LSB;label=32;scalar=64";
    class       volScalarField;
    location    "30.00000000";
    object      CH3COCH3;
}
// * * * * * * * * * * * * * * * * * * * * * * * * * * * * * * * * * * * * * //

dimensions      [0 0 0 0 0 0 0];

internalField   nonuniform List<scalar> 
3000
(
0.01368422948
0.01368422948
0.01368422948
0.01368422948
0.01368422948
0.01368422948
0.01368422948
0.01368422948
0.01368422948
0.01368422948
0.01368422948
0.01368422948
0.01368422948
0.01368422948
0.01368422948
0.01368422948
0.01368422948
0.01368422948
0.01368422948
0.01368422948
0.01368422948
0.01368422948
0.01368422948
0.01368422948
0.01368422948
0.01368422948
0.01368422948
0.01368422948
0.01368422948
0.01368422948
0.01368422948
0.01368422948
0.01368422948
0.01368422948
0.01368422948
0.01368422948
0.01368422948
0.01368422948
0.01368422948
0.01368422948
0.01368422948
0.01368422948
0.01368422948
0.01368422948
0.01368422948
0.01368422948
0.01368422948
0.01368422948
0.01368422948
0.01368422948
0.01368422948
0.01368422948
0.01368422948
0.01368422948
0.01368422948
0.01368422948
0.01368422948
0.01368422948
0.01368422948
0.01368422948
0.01368422948
0.01368422948
0.01368422948
0.01368422948
0.01368422948
0.01368422948
0.01368422948
0.01368422948
0.01368422948
0.01368422948
0.01368422948
0.01368422948
0.01368422948
0.01368422948
0.01368422948
0.01368422948
0.01368422948
0.01368422948
0.01368422948
0.01368422948
0.01368422948
0.01368422948
0.01368422948
0.01368422948
0.01368422948
0.01368422948
0.01368422948
0.01368422948
0.01368422948
0.01368422948
0.01368422948
0.01368422948
0.01368422948
0.01368422948
0.01368422948
0.01368422948
0.01368422948
0.01368422948
0.01368422948
0.01368422948
0.01368422948
0.01368422948
0.01368422948
0.01368422948
0.01368422948
0.01368422948
0.01368422948
0.01368422948
0.01368422948
0.01368422948
0.01368422948
0.01368422948
0.01368422948
0.01368422948
0.01368422948
0.01368422948
0.01368422948
0.01368422948
0.01368422948
0.01368422948
0.01368422948
0.01368422948
0.01368422948
0.01368422948
0.01368422948
0.01368422948
0.01368422948
0.01368422948
0.01368422948
0.01368422948
0.01368422948
0.01368422948
0.01368422948
0.01368422948
0.01368422948
0.01368422948
0.01368422948
0.01368422948
0.01368422948
0.01368422948
0.01368422948
0.01368422948
0.01368422948
0.01368422948
0.01368422948
0.01368422948
0.01368422948
0.01368422948
0.01368422948
0.01368422948
0.01368422948
0.01368422948
0.01368422948
0.01368422948
0.01368422948
0.01368422948
0.01368422948
0.01368422948
0.01368422948
0.01368422948
0.01368422948
0.01368422948
0.01368422948
0.01368422948
0.01368422948
0.01368422948
0.01368422948
0.01368422948
0.01368422948
0.01368422948
0.01368422948
0.01368422948
0.01368422948
0.01368422948
0.01368422948
0.01368422948
0.01368422948
0.01368422948
0.01368422948
0.01368422948
0.01368422948
0.01368422948
0.01368422948
0.01368422948
0.01368422948
0.01368422948
0.01368422948
0.01368422948
0.01368422948
0.01368422948
0.01368422948
0.01368422948
0.01368422948
0.01368422948
0.01368422948
0.01368422948
0.01368422948
0.01368422948
0.01368422948
0.01368422948
0.01368422948
0.01368422948
0.01368422948
0.01368422948
0.01368422948
0.01368422948
0.01368422948
0.01368422948
0.01368422948
0.01368422948
0.01368422948
0.01368422948
0.01368422948
0.01368422948
0.01368422948
0.01368422948
0.01368422948
0.01368422948
0.01368422948
0.01368422948
0.01368422948
0.01368422948
0.01368422948
0.01368422948
0.01368422948
0.01368422948
0.01368422948
0.01368422948
0.01368422948
0.01368422948
0.01368422948
0.01368422948
0.01368422948
0.01368422948
0.01368422948
0.01368422948
0.01368422948
0.01368422948
0.01368422948
0.01368422948
0.01368422948
0.01368422948
0.01368422948
0.01368422948
0.01368422948
0.01368422948
0.01368422948
0.01368422948
0.01368422948
0.01368422948
0.01368422948
0.01368422948
0.01368422948
0.01368422948
0.01368422948
0.01368422948
0.01368422948
0.01368422948
0.01368422948
0.01368422948
0.01368422948
0.01368422948
0.01368422948
0.01368422948
0.01368422948
0.01368422948
0.01368422948
0.01368422948
0.01368422947
0.01368422947
0.01368422948
0.01368422948
0.01368422948
0.01368422948
0.01368422948
0.01368422947
0.01368422947
0.01368422947
0.01368422947
0.01368422948
0.01368422948
0.01368422948
0.01368422947
0.01368422947
0.01368422947
0.01368422947
0.01368422946
0.01368422946
0.01368422948
0.01368422947
0.01368422947
0.01368422947
0.01368422947
0.01368422946
0.01368422946
0.01368422945
0.01368422945
0.01368422947
0.01368422947
0.01368422947
0.01368422946
0.01368422946
0.01368422945
0.01368422944
0.01368422943
0.01368422943
0.01368422947
0.01368422946
0.01368422946
0.01368422945
0.01368422944
0.01368422943
0.01368422941
0.0136842294
0.01368422939
0.01368422946
0.01368422945
0.01368422944
0.01368422943
0.01368422941
0.01368422939
0.01368422936
0.01368422934
0.01368422932
0.01368422944
0.01368422943
0.01368422942
0.01368422939
0.01368422936
0.01368422932
0.01368422928
0.01368422924
0.01368422921
0.01368422941
0.0136842294
0.01368422937
0.01368422933
0.01368422928
0.01368422921
0.01368422914
0.01368422907
0.01368422903
0.01368422937
0.01368422934
0.01368422929
0.01368422923
0.01368422914
0.01368422903
0.01368422891
0.0136842288
0.01368422872
0.01368422929
0.01368422924
0.01368422916
0.01368422905
0.0136842289
0.01368422872
0.01368422852
0.01368422834
0.01368422823
0.01368422916
0.01368422908
0.01368422895
0.01368422876
0.01368422851
0.01368422822
0.0136842279
0.01368422761
0.01368422742
0.01368422893
0.0136842288
0.01368422858
0.01368422828
0.01368422788
0.0136842274
0.01368422689
0.01368422642
0.01368422613
0.01368422856
0.01368422834
0.01368422799
0.01368422749
0.01368422684
0.01368422607
0.01368422526
0.01368422453
0.01368422407
0.01368422794
0.01368422758
0.01368422701
0.0136842262
0.01368422517
0.01368422396
0.01368422268
0.01368422155
0.01368422083
0.01368422692
0.01368422634
0.01368422542
0.01368422414
0.01368422251
0.01368422061
0.01368421863
0.01368421689
0.0136842158
0.01368422526
0.01368422434
0.01368422287
0.01368422085
0.0136842183
0.01368421536
0.01368421233
0.01368420969
0.01368420803
0.01368422257
0.01368422111
0.01368421881
0.01368421566
0.01368421172
0.01368420722
0.01368420263
0.01368419864
0.01368419616
0.01368421825
0.01368421596
0.0136842124
0.01368420754
0.01368420152
0.01368419471
0.01368418781
0.01368418187
0.0136841782
0.01368421137
0.01368420784
0.01368420236
0.01368419497
0.01368418587
0.01368417567
0.01368416541
0.01368415664
0.01368415124
0.01368420053
0.01368419513
0.01368418682
0.01368417567
0.01368416208
0.01368414694
0.01368413183
0.01368411898
0.01368411111
0.01368418358
0.01368417542
0.01368416295
0.01368414633
0.0136841262
0.01368410396
0.01368408189
0.01368406321
0.01368405184
0.01368415733
0.01368414515
0.01368412662
0.01368410209
0.01368407258
0.01368404017
0.01368400819
0.01368398126
0.01368396492
0.01368411708
0.01368409907
0.01368407183
0.01368403596
0.01368399307
0.01368394622
0.01368390023
0.01368386165
0.01368383831
0.0136840559
0.01368402956
0.01368398987
0.0136839379
0.01368387607
0.01368380885
0.01368374315
0.01368368822
0.01368365507
0.01368396381
0.01368392563
0.01368386833
0.01368379363
0.01368370517
0.0136836094
0.01368351611
0.01368343833
0.01368339147
0.01368382643
0.01368377157
0.01368368951
0.01368358297
0.0136834573
0.01368332172
0.01368319003
0.01368308048
0.01368301458
0.0136836233
0.01368354512
0.01368342851
0.01368327764
0.01368310027
0.0136829095
0.01368272466
0.01368257119
0.01368247898
0.01368332552
0.01368321494
0.01368305045
0.01368283823
0.01368258948
0.01368232264
0.01368206468
0.0136818509
0.01368172263
0.01368289264
0.01368273734
0.01368250686
0.01368221028
0.01368186355
0.01368149253
0.01368113464
0.0136808386
0.01368066121
0.01368226841
0.0136820518
0.01368173094
0.01368131906
0.01368083871
0.01368032591
0.01367983232
0.01367942471
0.01367918077
0.01368137544
0.01368107527
0.01368063145
0.01368006298
0.01367940154
0.01367869697
0.01367802007
0.0136774619
0.01367712814
0.01368010822
0.01367969494
0.01367908492
0.01367830514
0.01367739975
0.01367643714
0.01367551377
0.0136747532
0.01367429873
0.01367832465
0.01367775929
0.01367692604
0.01367586281
0.01367463045
0.01367332222
0.01367206884
0.01367103727
0.01367042114
0.01367583557
0.013675067
0.01367393569
0.0136724942
0.01367082574
0.01366905663
0.01366736313
0.01366597008
0.01366513825
0.01367239197
0.01367135348
0.01366982639
0.01366788278
0.01366563548
0.01366325457
0.01366097663
0.01365910328
0.01365798464
0.01366766991
0.01366627503
0.01366422545
0.01366161904
0.01365860756
0.0136554186
0.0136523682
0.01364985938
0.01364836086
0.01366125342
0.01365939111
0.01365665631
0.01365318056
0.01364916641
0.01364491647
0.01364085064
0.01363750533
0.01363550602
0.01365261604
0.01365014537
0.01364651869
0.01364191118
0.01363659099
0.01363095773
0.01362556619
0.01362112685
0.01361847139
0.01364110182
0.01363784622
0.01363306879
0.0136270007
0.01361999408
0.01361257283
0.01360546522
0.01359960713
0.01359609907
0.01362590625
0.01362164802
0.01361540078
0.01360746694
0.01359830521
0.01358859721
0.01357929204
0.01357161404
0.01356701021
0.01360605861
0.01360053407
0.01359243095
0.01358214178
0.01357025934
0.01355766339
0.01354558072
0.0135355997
0.01352960706
0.01358040644
0.01357330259
0.0135628862
0.01354966305
0.01353439336
0.01351820306
0.01350266337
0.01348981453
0.01348209083
0.01354760408
0.01353855753
0.01352529835
0.0135084739
0.01348905172
0.01346846013
0.01344869104
0.01343233514
0.01342249401
0.01350610714
0.01349470615
0.01347800647
0.01345683133
0.01343240265
0.01340651525
0.01338166623
0.01336110321
0.01334872292
0.01345417611
0.01343996641
0.01341916988
0.01339282637
0.01336246634
0.01333032219
0.01329948613
0.0132739723
0.01325860121
0.0133898924
0.0133723872
0.01334679445
0.01331441785
0.01327715702
0.01323775799
0.01319999963
0.01316876792
0.01314994355
0.01331118954
0.01328988386
0.0132587741
0.01321948104
0.01317433933
0.01312668737
0.01308107951
0.01304339251
0.0130206968
0.01321590071
0.0131902894
0.01315294704
0.01310586968
0.01305189593
0.01299503428
0.01294072512
0.0128959398
0.01286900678
0.01310182082
0.01307141929
0.01302716398
0.0129714876
0.01290780118
0.01284089389
0.01277717216
0.01272475833
0.01269330134
0.01296677907
0.01293114517
0.01287936006
0.01281436698
0.01274025044
0.01266263558
0.01258895173
0.01252851714
0.01249232474
0.01280871284
0.01276747515
0.01270767507
0.01263282906
0.01254775175
0.01245896671
0.01237496873
0.01230629024
0.01226526054
0.01262582608
0.01257872999
0.01251058362
0.01242553577
0.01232918633
0.01222900139
0.01213456147
0.01205760233
0.01201174721
0.01241668803
0.01236359616
0.01228694444
0.01219156166
0.01208387456
0.01197231579
0.01186754658
0.01178246518
0.01173191261
0.01218028922
0.0121211959
0.01203606965
0.01193045354
0.01181162537
0.01168898595
0.01157424579
0.01148139547
0.01142638703
0.01191610816
0.01185114782
0.01175777739
0.01164227257
0.01151276644
0.01137960584
0.01125549283
0.01115541314
0.01109629671
0.01162415994
0.01155360912
0.01145242494
0.01132761619
0.01118815407
0.01104528528
0.01091262087
0.01080602096
0.01074323902
0.01130502374
0.01122929647
0.01112092048
0.01098761915
0.01083916274
0.01068762858
0.0105474319
0.01043516707
0.01036924142
0.01095984802
0.01087948506
0.01076471371
0.01062393425
0.01046765579
0.01030869587
0.01016215039
0.01004519327
0.009976706732
0.01059033372
0.01050598639
0.01038576631
0.01023869453
0.01007593936
0.009910949953
0.009759364676
0.00963877269
0.009568346587
0.01019869701
0.01011110662
0.009986504421
0.009834459464
0.009666702761
0.009497192076
0.009341960635
0.00921884634
0.009147135001
0.009787614078
0.009697588107
0.009569756176
0.009414148282
0.00924294799
0.009070488278
0.008913044447
0.008788537327
0.008716193559
0.009360151079
0.009268537536
0.009138677653
0.008980964026
0.00880791281
0.008634092801
0.008475868235
0.008351083017
0.008278743999
0.008919682989
0.008827344262
0.008696670943
0.008538312086
0.008364990744
0.008191370658
0.008033756036
0.007909764101
0.007838036366
0.008469805103
0.008377592599
0.008247298002
0.008089716609
0.007917651171
0.007745722383
0.007590033642
0.00746783896
0.007397286058
0.008014241087
0.007922971806
0.007794193746
0.007638737943
0.007469362267
0.007300513332
0.007147964614
0.007028485661
0.00695961965
0.007556751459
0.007467187375
0.007340981592
0.007188893766
0.007023518646
0.006859008433
0.006710692241
0.006594749218
0.006528033298
0.007101046581
0.007013877147
0.006891194258
0.006743586136
0.00658337343
0.006424308242
0.006281190626
0.006169494176
0.006105290892
0.006650709027
0.00656653536
0.006448199142
0.006306036016
0.006151979401
0.005999256089
0.005862016695
0.005755032177
0.00569358908
0.006209128991
0.006128452817
0.0060151263
0.005879111799
0.005731887395
0.00558611531
0.005455268567
0.005353363546
0.005294875747
0.00577916698
0.005702320883
0.005594448959
0.005465093486
0.00532521573
0.005186858457
0.005062782498
0.004966222917
0.004910829406
0.005363149295
0.005290380124
0.005188290746
0.005065960203
0.004933788138
0.004803160744
0.004686102939
0.004595056304
0.004542841591
0.00496306748
0.004894537569
0.00479844161
0.004683362443
0.004559107378
0.004436383501
0.004326468758
0.004241011012
0.00419200919
0.004580549603
0.004516341148
0.00442633887
0.004318607769
0.004202345067
0.004087569152
0.003984811613
0.003904936525
0.003859136702
0.004216848951
0.004156971255
0.004073062881
0.003972660295
0.003864344626
0.003757447373
0.003661764481
0.003587394598
0.003544747105
0.003872848541
0.003817247228
0.003739346079
0.003646152232
0.003545635052
0.00344645069
0.003357678513
0.003288676847
0.003249099744
0.003549078841
0.003497646177
0.00342559313
0.003339405285
0.003246453292
0.003154737475
0.003072646321
0.003008828079
0.002972213622
0.003245745838
0.003198331377
0.003131909646
0.003052459508
0.002966772984
0.002882220337
0.002806529862
0.002747673679
0.002713894449
0.002962766459
0.002919187412
0.002858136822
0.002785107186
0.002706337358
0.00262859791
0.002558991132
0.002504849393
0.002473763901
0.002699808515
0.002659859362
0.002603889506
0.002536929484
0.002464694273
0.002393388245
0.002329524054
0.002279832057
0.002251289703
0.002456332524
0.002419793554
0.002368595421
0.00230733383
0.002241231603
0.002175962225
0.002117486165
0.002071969988
0.002045815301
0.002231633214
0.002198277809
0.002151533677
0.002095590354
0.002035211489
0.001975575724
0.001922128979
0.001880512013
0.001856588178
0.002024878946
0.001994479559
0.001951871074
0.00190086609
0.001845802345
0.001791399546
0.001742626165
0.001704634361
0.001682786059
0.001835147799
0.001807480654
0.001768695169
0.001722256032
0.001672107838
0.001622546465
0.00157809896
0.001543464903
0.001523540514
0.001661459523
0.001636308147
0.001601043471
0.001558810496
0.001513192386
0.001468094985
0.001427638482
0.001396104412
0.001377957668
0.001502802982
0.001479960707
0.001447928458
0.001409558549
0.001368102962
0.001327109659
0.00129032481
0.001261644756
0.001245135914
0.001358159021
0.001337430624
0.001308358414
0.001273527521
0.001235887263
0.001198658005
0.001165242875
0.001139184046
0.001124180658
0.001226518938
0.001207721562
0.001181354238
0.001149758746
0.001115608393
0.001081824257
0.001051495341
0.001027838871
0.001014216234
0.001106898987
0.001089862559
0.001065962722
0.001037319993
0.001006356365
0.0009757199182
0.0009482125664
0.0009267538856
0.0009143952616
0.0009983512642
0.0009829184561
0.0009612663846
0.0009353146369
0.0009072566858
0.0008794919345
0.0008545602723
0.0008351090645
0.0008239056781
0.0008999714363
0.0008859973282
0.0008663905177
0.0008428883085
0.000817476581
0.0007923284536
0.0007697449484
0.0007521248411
0.0007419757337
0.0008109039518
0.0007982555198
0.000780507977
0.0007592333634
0.0007362291187
0.0007134626322
0.0006930174012
0.0006770654808
0.0006678772658
0.0007303451337
0.0007189005941
0.0007028419367
0.0006835914372
0.0006627755728
0.0006421748254
0.0006236747892
0.0006092409911
0.0006009275347
0.0006575445392
0.0006471926308
0.0006326671033
0.0006152545526
0.0005964264149
0.0005777934671
0.0005610614032
0.0005480078232
0.0005404898783
0.0005918050151
0.0005824442517
0.0005693097004
0.0005535650582
0.0005365412039
0.000519694909
0.0005045684576
0.0004927686218
0.0004859734341
0.0005324817459
0.0005240196715
0.0005121465201
0.0004979146791
0.0004825276329
0.0004673024598
0.0004536331162
0.0004429712351
0.0004368321368
0.0004789805675
0.0004713330311
0.0004606032849
0.0004477429089
0.0004338399492
0.0004200848266
0.0004077369465
0.0003981071733
0.0003925631755
0.0004307557618
0.0004238462276
0.000414152522
0.0004025349347
0.0003899769278
0.0003775541292
0.0003664039641
0.0003577096705
0.0003527050616
0.0003873075109
0.000381066409
0.0003723111145
0.0003618192493
0.0003504795448
0.0003392636273
0.0003291984015
0.0003213514797
0.0003168354362
0.0003481791481
0.0003425432704
0.000334637657
0.0003251650757
0.0003149284688
0.000304805273
0.000295722308
0.000288642506
0.0002845687189
0.0003129543137
0.0003078662553
0.0003007297187
0.0002921796993
0.0002829414642
0.0002738071768
0.0002656130686
0.0002592273611
0.0002555536806
0.000281254096
0.0002766617412
0.0002702210899
0.0002625057833
0.0002541707762
0.0002459310578
0.0002385409062
0.0002327829032
0.0002294710035
0.0002527342183
0.0002485902698
0.0002427790691
0.0002358187229
0.0002283005528
0.0002208697285
0.0002142064199
0.0002090158141
0.0002060308781
0.0002270823142
0.0002233438618
0.0002181018338
0.0002118240782
0.0002050443432
0.000198344654
0.0001923381954
0.0001876602468
0.0001849706716
0.0002040153217
0.0002006434483
0.0001959159219
0.0001902551154
0.0001841426997
0.0001781036116
0.0001726905147
0.0001684755724
0.0001660526951
0.0001832770138
0.0001802364362
0.0001759738445
0.0001708704739
0.0001653609023
0.0001599184708
0.0001550411823
0.0001512442415
0.0001490620845
0.0001646356788
0.0001618944193
0.0001580518404
0.0001534519717
0.0001484868176
0.0001435831023
0.00013918948
0.0001357697733
0.0001338048084
0.0001478819532
0.0001454110406
0.0001419477778
0.0001378025542
0.0001333288966
0.0001289114246
0.0001249542543
0.0001218748744
0.0001201058056
0.00013282681
0.0001306000062
0.0001274792052
0.0001237443875
0.0001197143143
0.0001157355873
0.0001121721399
0.0001093996926
0.0001078072556
0.0001192996978
0.0001172932491
0.0001144815483
0.0001111170949
0.0001074872477
0.0001039042909
0.0001006959155
9.820020138e-05
9.676697879e-05
0.0001071468276
0.0001053392372
0.000102806448
9.977613195e-05
9.650729018e-05
9.328123903e-05
9.039298994e-05
8.814671214e-05
8.685696495e-05
9.62295988e-05
9.460141963e-05
9.232023568e-05
8.959129378e-05
8.664799483e-05
8.374371692e-05
8.114401309e-05
7.912250955e-05
7.796202184e-05
8.642315884e-05
8.495680478e-05
8.290253573e-05
8.044534924e-05
7.779554104e-05
7.518129102e-05
7.284160393e-05
7.102260283e-05
6.99785401e-05
7.761508726e-05
7.629466069e-05
7.444499e-05
7.223279287e-05
6.98475171e-05
6.749462137e-05
6.538919034e-05
6.375258656e-05
6.281336619e-05
6.970419601e-05
6.851533087e-05
6.685009481e-05
6.485870771e-05
6.271181088e-05
6.059438003e-05
5.869995242e-05
5.722760361e-05
5.638277674e-05
6.259943796e-05
6.152915665e-05
6.003014298e-05
5.823773099e-05
5.630560108e-05
5.440026782e-05
5.269586228e-05
5.137140302e-05
5.061154685e-05
5.621891527e-05
5.52554984e-05
5.390626297e-05
5.229311489e-05
5.05544415e-05
4.884012198e-05
4.730681289e-05
4.611548546e-05
4.543210526e-05
5.048897968e-05
4.962184748e-05
4.840754737e-05
4.695587483e-05
4.539143096e-05
4.38491076e-05
4.246982889e-05
4.139832943e-05
4.07837694e-05
4.534341739e-05
4.456302183e-05
4.347026351e-05
4.216401826e-05
4.075646179e-05
3.936898584e-05
3.812835274e-05
3.716469135e-05
3.661205371e-05
4.072271112e-05
4.002043781e-05
3.903713916e-05
3.7861847e-05
3.65955403e-05
3.534745244e-05
3.423159955e-05
3.33649734e-05
3.286804484e-05
3.657337296e-05
3.594145202e-05
3.505671685e-05
3.399932676e-05
3.286017291e-05
3.173754039e-05
3.073397475e-05
2.995465282e-05
2.950783795e-05
3.284734142e-05
3.227876655e-05
3.148277079e-05
3.053151795e-05
2.950681206e-05
2.849708094e-05
2.759454878e-05
2.689376749e-05
2.649202841e-05
2.95014373e-05
2.898989224e-05
2.827378057e-05
2.741806217e-05
2.649635653e-05
2.558821776e-05
2.477658369e-05
2.414645233e-05
2.378525397e-05
2.649687255e-05
2.60366645e-05
2.539245665e-05
2.462271917e-05
2.379370108e-05
2.297696911e-05
2.224710679e-05
2.168052189e-05
2.135578256e-05
2.379880766e-05
2.338480683e-05
2.280531261e-05
2.211294977e-05
2.136733082e-05
2.063283372e-05
1.99765269e-05
1.946709475e-05
1.917514139e-05
2.137595266e-05
2.10035375e-05
2.048227988e-05
1.98595402e-05
1.918895607e-05
1.852843609e-05
1.793828901e-05
1.748025568e-05
1.721778342e-05
1.920020779e-05
1.886521544e-05
1.839636085e-05
1.783626398e-05
1.723318375e-05
1.663920741e-05
1.61085639e-05
1.56967519e-05
1.546078757e-05
1.724634001e-05
1.694502141e-05
1.652331673e-05
1.601957773e-05
1.547722191e-05
1.494309867e-05
1.446596899e-05
1.409572013e-05
1.388358926e-05
1.549169187e-05
1.522067117e-05
1.484138668e-05
1.438834761e-05
1.3900614e-05
1.34203228e-05
1.299131759e-05
1.265844138e-05
1.246773847e-05
1.391591957e-05
1.367215742e-05
1.333103529e-05
1.292360331e-05
1.248500007e-05
1.205312302e-05
1.166739365e-05
1.136812072e-05
1.119668235e-05
1.250075741e-05
1.228151781e-05
1.197472547e-05
1.160831702e-05
1.121390218e-05
1.082556464e-05
1.047874942e-05
1.02096895e-05
1.005557018e-05
1.122980606e-05
1.103262635e-05
1.075671447e-05
1.042720478e-05
1.007253166e-05
9.723348204e-06
9.411523797e-06
9.169627876e-06
9.031078193e-06
1.008834212e-05
9.91100595e-06
9.662870438e-06
9.366547996e-06
9.047615952e-06
8.733641632e-06
8.453279312e-06
8.235805451e-06
8.111252419e-06
9.0631471e-06
8.903659992e-06
8.680507711e-06
8.414033161e-06
8.127243157e-06
7.844929539e-06
7.592855722e-06
7.397338303e-06
7.285367652e-06
8.142353712e-06
7.998921007e-06
7.798238854e-06
7.558607939e-06
7.300722481e-06
7.04687801e-06
6.820238692e-06
6.644460691e-06
6.543800914e-06
7.315307778e-06
7.18631476e-06
7.005841768e-06
6.790351903e-06
6.55845892e-06
6.330213213e-06
6.12644193e-06
5.968409956e-06
5.877917948e-06
6.572444217e-06
6.45643818e-06
6.294140369e-06
6.10036051e-06
5.891840808e-06
5.686612474e-06
5.503401449e-06
5.361323259e-06
5.279971386e-06
5.905175671e-06
5.800849748e-06
5.654897453e-06
5.480640951e-06
5.293138885e-06
5.108606544e-06
4.943880699e-06
4.816144959e-06
4.743009423e-06
5.305792485e-06
5.211971083e-06
5.080718529e-06
4.924018659e-06
4.755415717e-06
4.589491898e-06
4.44138546e-06
4.326543531e-06
4.260793901e-06
4.767372916e-06
4.682998585e-06
4.564965477e-06
4.424053408e-06
4.272444418e-06
4.123252062e-06
3.990087504e-06
3.886837049e-06
3.827726837e-06
4.283702514e-06
4.207824119e-06
4.101679065e-06
3.97496401e-06
3.838635723e-06
3.704487025e-06
3.584756115e-06
3.491926348e-06
3.438784538e-06
3.849201747e-06
3.780963817e-06
3.685509398e-06
3.571560746e-06
3.448972549e-06
3.328349923e-06
3.220696667e-06
3.137235086e-06
3.089458511e-06
3.458861038e-06
3.397494173e-06
3.311653499e-06
3.209184728e-06
3.098951292e-06
2.990490232e-06
2.893695538e-06
2.818655987e-06
2.775702474e-06
3.108182454e-06
3.052994688e-06
2.975799298e-06
2.8836535e-06
2.784529154e-06
2.687002824e-06
2.599970692e-06
2.532502629e-06
2.493884837e-06
2.79312737e-06
2.743496399e-06
2.674075369e-06
2.591212213e-06
2.502076896e-06
2.41438226e-06
2.336127372e-06
2.275466215e-06
2.240746092e-06
2.510069503e-06
2.465435687e-06
2.403005827e-06
2.328489839e-06
2.248336455e-06
2.169481799e-06
2.099118357e-06
2.044576806e-06
2.013360609e-06
2.255752756e-06
2.215612825e-06
2.159469862e-06
2.092459877e-06
2.020382919e-06
1.949476639e-06
1.886208325e-06
1.837168557e-06
1.809102371e-06
2.027253404e-06
1.99115479e-06
1.940665432e-06
1.880405107e-06
1.815590431e-06
1.751830944e-06
1.694941894e-06
1.650848551e-06
1.62561427e-06
1.821946147e-06
1.789481894e-06
1.744076695e-06
1.689885974e-06
1.631601604e-06
1.574268276e-06
1.523114971e-06
1.483468856e-06
1.460780564e-06
1.637473665e-06
1.608277844e-06
1.567444787e-06
1.518712232e-06
1.46630009e-06
1.414745087e-06
1.36874906e-06
1.333101477e-06
1.312702197e-06
1.471719297e-06
1.445462885e-06
1.408741614e-06
1.364917507e-06
1.317785982e-06
1.271426944e-06
1.230068233e-06
1.198015891e-06
1.179674672e-06
1.322782533e-06
1.299169711e-06
1.266146344e-06
1.226736488e-06
1.184353756e-06
1.142667215e-06
1.105478472e-06
1.076658922e-06
1.060168215e-06
1.188957023e-06
1.167721847e-06
1.138024311e-06
1.102584463e-06
1.064472486e-06
1.026987952e-06
9.935491638e-07
9.676366907e-07
9.528099945e-07
1.068710847e-06
1.049614254e-06
1.022908105e-06
9.910389641e-07
9.567681019e-07
9.230627479e-07
8.929964851e-07
8.696984225e-07
8.563681753e-07
9.606688133e-07
9.434959339e-07
9.194805845e-07
8.908233007e-07
8.600074626e-07
8.297013578e-07
8.026685101e-07
7.817219306e-07
7.697376095e-07
8.635965623e-07
8.481543034e-07
8.265596444e-07
8.007917736e-07
7.730840687e-07
7.458358879e-07
7.215318349e-07
7.027005766e-07
6.919269952e-07
7.763862935e-07
7.625011663e-07
7.43084525e-07
7.199163974e-07
6.950052223e-07
6.705083935e-07
6.486595615e-07
6.317315562e-07
6.220473335e-07
6.980439403e-07
6.855601066e-07
6.681035123e-07
6.472749648e-07
6.248804853e-07
6.028597242e-07
5.832204901e-07
5.680053611e-07
5.593015446e-07
6.276776351e-07
6.164551484e-07
6.007628711e-07
5.820403073e-07
5.619112914e-07
5.42119482e-07
5.244693861e-07
5.107962839e-07
5.029751102e-07
5.644873254e-07
5.544005475e-07
5.402968805e-07
5.234706205e-07
5.053815849e-07
4.875969674e-07
4.717382003e-07
4.594538523e-07
4.52427629e-07
5.077554181e-07
4.986915897e-07
4.86018849e-07
4.709007388e-07
4.546493727e-07
4.386730057e-07
4.24428139e-07
4.133950871e-07
4.070851825e-07
4.568383378e-07
4.48696288e-07
4.373130049e-07
4.237342555e-07
4.091390927e-07
3.947925569e-07
3.820024902e-07
3.720974958e-07
3.664334242e-07
4.111589053e-07
4.038478833e-07
3.936271683e-07
3.814364002e-07
3.683347098e-07
3.554580285e-07
3.439801283e-07
3.350927257e-07
3.300113168e-07
3.701994478e-07
3.636380647e-07
3.544661252e-07
3.435275942e-07
3.317734684e-07
3.202232199e-07
3.099296295e-07
3.019608108e-07
2.974054554e-07
3.334955705e-07
3.276108389e-07
3.193856334e-07
3.095776209e-07
2.990402372e-07
2.886878394e-07
2.794639422e-07
2.723249619e-07
2.682449242e-07
3.006305244e-07
2.953569862e-07
2.87987002e-07
2.792003523e-07
2.697623954e-07
2.60492546e-07
2.522355673e-07
2.458468527e-07
2.421966438e-07
2.712301194e-07
2.665090505e-07
2.599121936e-07
2.520489872e-07
2.436052152e-07
2.353144744e-07
2.279322077e-07
2.222223676e-07
2.189611754e-07
2.44958151e-07
2.407368435e-07
2.34839424e-07
2.278117597e-07
2.202676942e-07
2.128631961e-07
2.062728556e-07
2.011777793e-07
1.982689491e-07
2.215122634e-07
2.177433716e-07
2.124791912e-07
2.062080947e-07
1.99478838e-07
1.928771173e-07
1.870042794e-07
1.824663239e-07
1.798768903e-07
2.006202462e-07
1.972611955e-07
1.925707189e-07
1.869851511e-07
1.809943171e-07
1.751202535e-07
1.698979126e-07
1.658651599e-07
1.635654211e-07
1.820367256e-07
1.790491788e-07
1.748787859e-07
1.699147489e-07
1.645934984e-07
1.593793651e-07
1.547470804e-07
1.511726733e-07
1.491358076e-07
1.655402168e-07
1.628895939e-07
1.591909074e-07
1.547906404e-07
1.500768146e-07
1.454614224e-07
1.413645521e-07
1.38206098e-07
1.364078209e-07
1.509305073e-07
1.485855544e-07
1.453148368e-07
1.414260946e-07
1.372634378e-07
1.331913691e-07
1.295803839e-07
1.267994214e-07
1.252176788e-07
1.380263381e-07
1.359587415e-07
1.330763542e-07
1.296517621e-07
1.259892256e-07
1.224101484e-07
1.192400185e-07
1.168015403e-07
1.154162349e-07
1.266633493e-07
1.248473898e-07
1.223173094e-07
1.19313784e-07
1.161049035e-07
1.129729571e-07
1.10202603e-07
1.080746302e-07
1.068673772e-07
1.166922552e-07
1.151044979e-07
1.128938816e-07
1.102721124e-07
1.074744483e-07
1.047476929e-07
1.023394934e-07
1.004926939e-07
9.944660324e-08
1.07977215e-07
1.065962302e-07
1.046750255e-07
1.023990073e-07
9.997364213e-08
9.7613563e-08
9.553291383e-08
9.394026074e-08
9.303974248e-08
1.003943683e-07
9.92004795e-08
9.754107106e-08
9.557768296e-08
9.348876769e-08
9.14598302e-08
8.967474777e-08
8.831121483e-08
8.75418069e-08
9.383050788e-08
9.280556444e-08
9.138245626e-08
8.97010822e-08
8.79154296e-08
8.618468092e-08
8.466545052e-08
8.350774322e-08
8.285596061e-08
8.818187342e-08
8.730904649e-08
8.609857707e-08
8.467076783e-08
8.315749188e-08
8.169421129e-08
8.041308121e-08
7.943940623e-08
7.889261358e-08
8.335305643e-08
8.261665879e-08
8.159675143e-08
8.03959305e-08
7.912613639e-08
7.790153891e-08
7.683246615e-08
7.602234386e-08
7.556865457e-08
7.925601885e-08
7.864135171e-08
7.779130395e-08
7.679252316e-08
7.573905489e-08
7.472605642e-08
7.384451209e-08
7.317863929e-08
7.280684535e-08
7.58092373e-08
7.530246795e-08
7.460278632e-08
7.378253896e-08
7.291979334e-08
7.209284665e-08
7.137569011e-08
7.08358613e-08
7.053540045e-08
7.293699133e-08
7.252506613e-08
7.195735239e-08
7.129345109e-08
7.059726573e-08
6.99322742e-08
6.935770199e-08
6.892679767e-08
6.868775218e-08
7.056881553e-08
7.023941172e-08
6.978630515e-08
6.925782873e-08
6.870544537e-08
6.817975391e-08
6.772728512e-08
6.738921172e-08
6.720227074e-08
6.863913146e-08
6.838064838e-08
6.802582501e-08
6.761313456e-08
6.718321571e-08
6.677558512e-08
6.642607846e-08
6.616587882e-08
6.602242917e-08
6.708706568e-08
6.68886476e-08
6.661683739e-08
6.630157553e-08
6.597424325e-08
6.566500523e-08
6.540082777e-08
6.520479977e-08