/*--------------------------------*- C++ -*----------------------------------*\
| =========                 |                                                 |
| \\      /  F ield         | OpenFOAM: The Open Source CFD Toolbox           |
|  \\    /   O peration     | Version:  2212                                  |
|   \\  /    A nd           | Website:  www.openfoam.com                      |
|    \\/     M anipulation  |                                                 |
\*---------------------------------------------------------------------------*/
FoamFile
{
    version     2.0;
    format      ascii;
    arch        "LSB;label=32;scalar=64";
    class       volScalarField;
    location    "30.00000000";
    object      CH4;
}
// * * * * * * * * * * * * * * * * * * * * * * * * * * * * * * * * * * * * * //

dimensions      [0 0 0 0 0 0 0];

internalField   nonuniform List<scalar> 
3000
(
0.0004199879352
0.0004199879352
0.0004199879352
0.0004199879352
0.0004199879352
0.0004199879352
0.0004199879352
0.0004199879352
0.0004199879352
0.0004199879352
0.0004199879352
0.0004199879352
0.0004199879352
0.0004199879352
0.0004199879352
0.0004199879352
0.0004199879352
0.0004199879352
0.0004199879352
0.0004199879352
0.0004199879352
0.0004199879352
0.0004199879352
0.0004199879352
0.0004199879352
0.0004199879352
0.0004199879352
0.0004199879352
0.0004199879352
0.0004199879352
0.0004199879352
0.0004199879352
0.0004199879352
0.0004199879352
0.0004199879352
0.0004199879352
0.0004199879352
0.0004199879352
0.0004199879352
0.0004199879352
0.0004199879352
0.0004199879352
0.0004199879352
0.0004199879352
0.0004199879352
0.0004199879352
0.0004199879352
0.0004199879352
0.0004199879352
0.0004199879352
0.0004199879352
0.0004199879352
0.0004199879352
0.0004199879352
0.0004199879352
0.0004199879352
0.0004199879352
0.0004199879352
0.0004199879352
0.0004199879352
0.0004199879352
0.0004199879352
0.0004199879352
0.0004199879352
0.0004199879352
0.0004199879352
0.0004199879352
0.0004199879352
0.0004199879352
0.0004199879352
0.0004199879352
0.0004199879352
0.0004199879352
0.0004199879352
0.0004199879352
0.0004199879352
0.0004199879352
0.0004199879352
0.0004199879352
0.0004199879352
0.0004199879352
0.0004199879352
0.0004199879352
0.0004199879352
0.0004199879352
0.0004199879352
0.0004199879352
0.0004199879352
0.0004199879352
0.0004199879352
0.0004199879352
0.0004199879352
0.0004199879352
0.0004199879352
0.0004199879352
0.0004199879352
0.0004199879352
0.0004199879352
0.0004199879352
0.0004199879352
0.0004199879352
0.0004199879352
0.0004199879352
0.0004199879352
0.0004199879352
0.0004199879352
0.0004199879352
0.0004199879352
0.0004199879352
0.0004199879352
0.0004199879352
0.0004199879352
0.0004199879352
0.0004199879352
0.0004199879352
0.0004199879352
0.0004199879352
0.0004199879352
0.0004199879352
0.0004199879352
0.0004199879352
0.0004199879352
0.0004199879352
0.0004199879352
0.0004199879352
0.0004199879352
0.0004199879352
0.0004199879352
0.0004199879352
0.0004199879352
0.0004199879352
0.0004199879352
0.0004199879352
0.0004199879352
0.0004199879352
0.0004199879352
0.0004199879352
0.0004199879352
0.0004199879352
0.0004199879352
0.0004199879352
0.0004199879352
0.0004199879352
0.0004199879352
0.0004199879352
0.0004199879352
0.0004199879352
0.0004199879352
0.0004199879352
0.0004199879352
0.0004199879352
0.0004199879352
0.0004199879352
0.0004199879352
0.0004199879352
0.0004199879352
0.0004199879352
0.0004199879352
0.0004199879352
0.0004199879352
0.0004199879352
0.0004199879352
0.0004199879352
0.0004199879352
0.0004199879352
0.0004199879352
0.0004199879352
0.0004199879352
0.0004199879352
0.0004199879352
0.0004199879352
0.0004199879352
0.0004199879352
0.0004199879352
0.0004199879352
0.0004199879352
0.0004199879352
0.0004199879352
0.0004199879352
0.0004199879352
0.0004199879352
0.0004199879352
0.0004199879352
0.0004199879352
0.0004199879352
0.0004199879352
0.0004199879352
0.0004199879352
0.0004199879352
0.0004199879352
0.0004199879352
0.0004199879352
0.0004199879352
0.0004199879352
0.0004199879352
0.0004199879352
0.0004199879352
0.0004199879352
0.0004199879352
0.0004199879352
0.0004199879352
0.0004199879352
0.0004199879352
0.0004199879352
0.0004199879352
0.0004199879352
0.0004199879352
0.0004199879352
0.0004199879352
0.0004199879352
0.0004199879352
0.0004199879352
0.0004199879352
0.0004199879352
0.0004199879352
0.0004199879352
0.0004199879352
0.0004199879352
0.0004199879352
0.0004199879352
0.0004199879352
0.0004199879352
0.0004199879352
0.0004199879352
0.0004199879352
0.0004199879352
0.0004199879352
0.0004199879352
0.0004199879352
0.0004199879352
0.0004199879352
0.0004199879352
0.0004199879352
0.0004199879352
0.0004199879352
0.0004199879352
0.0004199879352
0.0004199879352
0.0004199879352
0.0004199879352
0.0004199879352
0.0004199879352
0.0004199879352
0.0004199879352
0.0004199879352
0.0004199879352
0.0004199879352
0.0004199879352
0.0004199879352
0.0004199879352
0.0004199879352
0.0004199879352
0.0004199879352
0.0004199879352
0.0004199879352
0.0004199879352
0.0004199879352
0.0004199879352
0.0004199879352
0.0004199879352
0.0004199879352
0.0004199879352
0.0004199879352
0.0004199879352
0.0004199879352
0.0004199879352
0.0004199879352
0.0004199879352
0.0004199879353
0.0004199879353
0.0004199879352
0.0004199879352
0.0004199879352
0.0004199879352
0.0004199879352
0.0004199879353
0.0004199879353
0.0004199879353
0.0004199879353
0.0004199879352
0.0004199879352
0.0004199879352
0.0004199879353
0.0004199879353
0.0004199879353
0.0004199879353
0.0004199879354
0.0004199879354
0.0004199879352
0.0004199879353
0.0004199879353
0.0004199879353
0.0004199879353
0.0004199879354
0.0004199879354
0.0004199879355
0.0004199879355
0.0004199879353
0.0004199879353
0.0004199879353
0.0004199879354
0.0004199879354
0.0004199879355
0.0004199879356
0.0004199879357
0.0004199879358
0.0004199879353
0.0004199879354
0.0004199879354
0.0004199879355
0.0004199879356
0.0004199879358
0.0004199879359
0.0004199879361
0.0004199879362
0.0004199879354
0.0004199879355
0.0004199879356
0.0004199879357
0.0004199879359
0.0004199879361
0.0004199879364
0.0004199879367
0.0004199879368
0.0004199879356
0.0004199879357
0.0004199879359
0.0004199879361
0.0004199879364
0.0004199879368
0.0004199879373
0.0004199879377
0.000419987938
0.0004199879359
0.000419987936
0.0004199879363
0.0004199879367
0.0004199879373
0.0004199879379
0.0004199879387
0.0004199879394
0.0004199879398
0.0004199879363
0.0004199879366
0.0004199879371
0.0004199879378
0.0004199879387
0.0004199879398
0.000419987941
0.0004199879422
0.0004199879429
0.0004199879372
0.0004199879376
0.0004199879384
0.0004199879396
0.0004199879411
0.0004199879429
0.0004199879449
0.0004199879468
0.000419987948
0.0004199879385
0.0004199879393
0.0004199879407
0.0004199879426
0.0004199879451
0.0004199879481
0.0004199879513
0.0004199879543
0.0004199879562
0.0004199879408
0.0004199879422
0.0004199879443
0.0004199879475
0.0004199879516
0.0004199879564
0.0004199879617
0.0004199879664
0.0004199879694
0.0004199879446
0.0004199879468
0.0004199879504
0.0004199879555
0.0004199879621
0.00041998797
0.0004199879783
0.0004199879857
0.0004199879904
0.0004199879509
0.0004199879546
0.0004199879604
0.0004199879686
0.0004199879792
0.0004199879916
0.0004199880046
0.0004199880161
0.0004199880235
0.0004199879613
0.0004199879672
0.0004199879766
0.0004199879897
0.0004199880064
0.0004199880258
0.000419988046
0.0004199880638
0.000419988075
0.0004199879783
0.0004199879878
0.0004199880027
0.0004199880234
0.0004199880495
0.0004199880795
0.0004199881104
0.0004199881375
0.0004199881544
0.0004199880058
0.0004199880208
0.0004199880443
0.0004199880765
0.0004199881168
0.0004199881628
0.0004199882098
0.0004199882505
0.0004199882759
0.0004199880501
0.0004199880735
0.00041998811
0.0004199881597
0.0004199882213
0.0004199882909
0.0004199883615
0.0004199884223
0.0004199884599
0.0004199881206
0.0004199881568
0.0004199882129
0.0004199882886
0.0004199883817
0.0004199884862
0.0004199885912
0.0004199886811
0.0004199887364
0.0004199882319
0.0004199882873
0.0004199883725
0.0004199884867
0.0004199886261
0.0004199887813
0.0004199889362
0.0004199890679
0.0004199891485
0.0004199884062
0.0004199884899
0.000419988618
0.0004199887885
0.0004199889951
0.0004199892234
0.00041998945
0.0004199896417
0.0004199897584
0.0004199886765
0.0004199888017
0.0004199889922
0.0004199892443
0.0004199895477
0.000419989881
0.0004199902098
0.0004199904867
0.0004199906548
0.0004199890919
0.0004199892773
0.0004199895579
0.0004199899273
0.0004199903691
0.0004199908518
0.0004199913257
0.0004199917232
0.0004199919638
0.0004199897248
0.0004199899966
0.0004199904062
0.0004199909427
0.0004199915811
0.0004199922752
0.0004199929539
0.0004199935213
0.0004199938639
0.0004199906802
0.0004199910752
0.0004199916681
0.0004199924413
0.000419993357
0.0004199943487
0.000419995315
0.0004199961207
0.0004199966061
0.0004199921102
0.0004199926794
0.0004199935311
0.0004199946371
0.0004199959421
0.0004199973504
0.0004199987186
0.0004199998569
0.0004200005416
0.0004199942328
0.0004199950469
0.0004199962612
0.0004199978329
0.0004199996812
0.0004200016697
0.0004200035966
0.0004200051965
0.0004200061576
0.0004199973586
0.0004199985144
0.0004200002343
0.0004200024538
0.0004200050561
0.0004200078482
0.0004200105476
0.0004200127846
0.0004200141266
0.0004200019265
0.0004200035569
0.0004200059775
0.0004200090931
0.0004200127363
0.0004200166357
0.0004200203971
0.0004200235087
0.0004200253729
0.0004200085533
0.000420010839
0.0004200142256
0.0004200185742
0.0004200236469
0.0004200290635
0.0004200342781
0.000420038585
0.000420041163
0.0004200180992
0.0004200212847
0.0004200259959
0.0004200320321
0.0004200390577
0.0004200465441
0.0004200537391
0.0004200596745
0.0004200632246
0.0004200317546
0.000420036169
0.0004200426869
0.0004200510219
0.000420060704
0.0004200710035
0.0004200808887
0.0004200890359
0.0004200939067
0.0004200511535
0.000420057238
0.0004200662091
0.0004200776623
0.0004200909453
0.0004201050558
0.000420118585
0.0004201297281
0.0004201363881
0.0004200785229
0.0004200868676
0.0004200991567
0.0004201148249
0.0004201329735
0.0004201522323
0.0004201706837
0.0004201858744
0.0004201949525
0.0004201168785
0.0004201282708
0.000420145032
0.0004201663795
0.0004201910822
0.0004202172757
0.0004202423582
0.0004202630036
0.000420275342
0.0004201702772
0.0004201857636
0.0004202085315
0.0004202375058
0.0004202710095
0.0004203065163
0.0004203405076
0.0004203684852
0.0004203852087
0.0004202441354
0.0004202651011
0.000420295907
0.0004203350866
0.0004203803681
0.0004204283427
0.0004204742672
0.0004205120736
0.0004205346803
0.0004203456266
0.0004203738948
0.0004204154128
0.0004204681937
0.0004205291768
0.0004205937814
0.0004206556353
0.0004207065751
0.0004207370507
0.0004204841696
0.0004205221247
0.000420577853
0.0004206486798
0.0004207305031
0.000420817195
0.0004209002256
0.0004209686449
0.0004210096054
0.0004206720218
0.0004207227594
0.0004207972401
0.0004208918858
0.0004210012281
0.0004211171061
0.0004212281478
0.0004213197152
0.0004213745774
0.0004209249896
0.0004209924954
0.0004210915764
0.0004212174737
0.0004213629362
0.0004215171476
0.0004216650131
0.0004217870456
0.0004218602248
0.0004212632672
0.0004213526248
0.000421483763
0.000421650387
0.0004218429313
0.000422047133
0.0004222430545
0.0004224048814
0.0004225020102
0.0004217124106
0.0004218300373
0.0004220026396
0.0004222219346
0.0004224753685
0.0004227442325
0.0004230023393
0.0004232156924
0.0004233438539
0.0004223044427
0.0004224583473
0.000422684143
0.0004229709833
0.0004233024776
0.0004236542241
0.0004239920403
0.0004242714563
0.0004244394255
0.0004230790725
0.0004232791267
0.0004235725543
0.0004239452185
0.0004243758324
0.0004248327623
0.0004252716978
0.0004256349183
0.0004258534099
0.0004240849886
0.0004243431968
0.0004247217843
0.0004252024127
0.0004257575887
0.0004263465715
0.0004269123606
0.0004273806789
0.0004276625325
0.0004253811656
0.0004257119119
0.0004261966184
0.0004268116112
0.0004275215863
0.0004282744415
0.0004289974484
0.000429595848
0.0004299560083
0.0004270380972
0.0004274583432
0.0004280738209
0.0004288541251
0.0004297542003
0.0004307079018
0.0004316231494
0.0004323802178
0.0004328357376
0.0004291388471
0.000429668248
0.0004304429804
0.0004314242047
0.0004325547923
0.0004337513033
0.000434898237
0.0004358460121
0.0004364158352
0.0004317797926
0.000432440694
0.0004334069557
0.0004346292135
0.0004360354111
0.0004375212654
0.000438943389
0.0004401170255
0.0004408219922
0.0004350708991
0.0004358881355
0.0004370815526
0.0004385888303
0.0004403198535
0.0004421454794
0.0004438895699
0.0004453265684
0.0004461887056
0.0004391349745
0.0004401353949
0.000441594371
0.0004434338277
0.000445542045
0.000447760648
0.0004498756129
0.0004516148335
0.0004526567881
0.0004441062976
0.0004453182476
0.0004470831142
0.0004493039279
0.000451843473
0.0004545095075
0.0004570448766
0.0004591252686
0.0004603695376
0.0004501285281
0.0004515810519
0.0004536928816
0.0004563447155
0.0004593696941
0.0004625369485
0.0004655410322
0.0004680001168
0.0004694681386
0.0004573515479
0.0004590733724
0.0004615724923
0.0004647036175
0.0004682659625
0.0004719853202
0.0004755031078
0.0004783752809
0.0004800864371
0.0004659272953
0.0004679456298
0.000470869889
0.0004745250348
0.0004786720987
0.0004829890822
0.0004870599845
0.0004903747341
0.0004923453208
0.0004760046684
0.000478343873
0.000481726744
0.000485944783
0.0004907167979
0.0004956690339
0.0005003246089
0.0005041047608
0.0005063469981
0.0004877236535
0.0004904038494
0.0004942724739
0.0004990840796
0.0005045116426
0.0005101264143
0.0005153882317
0.0005196483524
0.000522169519
0.000501208923
0.0005042446347
0.0005086179402
0.0005140433777
0.0005201451387
0.000526437203
0.0005323150041
0.0005370600893
0.0005398619471
0.0005165632222
0.0005199621495
0.0005248491801
0.0005308963971
0.0005376771289
0.0005446469649
0.00055113723
0.0005563616067
0.0005594393706
0.000533860926
0.0005376229484
0.0005430215462
0.0005496847291
0.0005571339551
0.0005647666308
0.000571851804
0.0005775388123
0.0005808815396
0.0005531421849
0.0005572586873
0.0005631546487
0.000570413379
0.0005785046836
0.0005867694229
0.0005944177521
0.0006005397675
0.0006041303164
0.0005744080807
0.0005788616751
0.0005852284739
0.0005930475818
0.0006017386911
0.0006105892079
0.0006187552696
0.0006252742629
0.0006290896675
0.0005976171871
0.0006023818744
0.0006091810076
0.0006175111722
0.0006267448342
0.0006361204431
0.0006447463397
0.0006516149364
0.0006556270554
0.0006226838602
0.0006277256479
0.0006349076138
0.0006436867078
0.0006533923547
0.0006632198218
0.0006722370024
0.0006794000084
0.0006835765019
0.0006494784938
0.0006547564543
0.0006622623347
0.0006714174721
0.000681513611
0.0006917097132
0.0007010415214
0.00070843814
0.0007127436095
0.0006778298739
0.00068329761
0.0006910612043
0.0007005114437
0.0007109088749
0.0007213838335
0.000730948304
0.0007385142659
0.0007429121557
0.0007075297299
0.000713137348
0.0007210880616
0.0007307477844
0.0007413531912
0.0007520147862
0.0007617304576
0.0007694030288
0.0007738575865
0.0007383403881
0.000744036507
0.0007521024665
0.0007618864321
0.0007726085654
0.0007833670603
0.0007931536807
0.0008008708405
0.0008053467733
0.0007700083932
0.0007757433826
0.0007838551835
0.0007936804586
0.0008044301891
0.0008151982506
0.0008249783054
0.0008326804232
0.0008371439025
0.0008022732451
0.000807999209
0.0008160900842
0.0008258773571
0.0008365699873
0.0008472650969
0.000856965785
0.0008645971181
0.0008690166139
0.0008348707194
0.0008405428045
0.0008485504651
0.0008582261365
0.0008687835266
0.0008793299896
0.0008888848881
0.0008963947909
0.0009007417249
0.0008675406841
0.0008731181951
0.0008809863367
0.0008904842038
0.0009008364478
0.0009111669127
0.0009205172087
0.0009278610029
0.0009321102089
0.0009000344182
0.0009054816396
0.0009131610259
0.0009224234659
0.0009325100343
0.0009425664859
0.0009516617502
0.0009588012506
0.000962931245
0.0009321208967
0.0009374075954
0.0009448566992
0.000953835339
0.0009636056835
0.0009733399245
0.0009821384495
0.0009890421686
0.0009930352465
0.0009635917451
0.0009686933682
0.0009758785955
0.0009845345003
0.0009939481663
0.001003321841
0.001011790594
0.001018433667
0.001022275848
0.0009942647375
0.0009991623406
0.001006057892
0.001014361343
0.001023387664
0.001032371899
0.001040486159
0.001046850042
0.001050530895
0.001023985839
0.001028665796
0.001035253236
0.00104318318
0.001051800651
0.001060375401
0.001068118157
0.001074190156
0.001077702535
0.001052629896
0.00105708345
0.001063351065
0.001070894331
0.001079089741
0.001087242937
0.001094604124
0.001100376809
0.001103716524
0.001080100159
0.001084322868
0.001090264886
0.001097415251
0.001105182691
0.001112909259
0.001119884899
0.001125355455
0.001128520915
0.001106326859
0.001110317986
0.001115933732
0.001122690926
0.001130030723
0.001137331562
0.001143922873
0.001149092429
0.001152084269
0.001131265073
0.00113502697
0.001140320013
0.001146688711
0.001153606372
0.001160487342
0.00116669986
0.001171572828
0.001174393546
0.001154892126
0.001158429638
0.001163406969
0.001169395833
0.001175901042
0.001182372002
0.001188214749
0.001192798202
0.00119545181
0.001177204732
0.001180524647
0.001185195922
0.001190816719
0.001196922411
0.00120299634
0.001208481067
0.001212784168
0.001215275876
0.001198216047
0.001201326605
0.001205703474
0.001210970293
0.001216691838
0.001222384052
0.001227524561
0.001231558055
0.001233893987
0.001217952793
0.001220863263
0.001224958783
0.001229887357
0.001235241848
0.001240569328
0.001245380885
0.001249156652
0.001251343594
0.00123645254
0.00123917286
0.00124300101
0.00124760814
0.001252613793
0.001257594602
0.001262093442
0.001265624125
0.001267669316
0.001253761216
0.001256301698
0.001259876966
0.001264180051
0.001268855716
0.001273508539
0.001277711453
0.001281010136
0.001282921079
0.001269930889
0.001272301985
0.00127563905
0.001279655712
0.001284020475
0.001288364229
0.001292288219
0.001295368163
0.001297152479
0.001285017857
0.001287229973
0.001290343452
0.001294091236
0.001298164097
0.001302217619
0.001305879629
0.001308754066
0.001310419372
0.001299081006
0.001301144362
0.001304048611
0.00130754475
0.001311344382
0.001315126195
0.001318542895
0.001321224859
0.00132277867
0.001312180444
0.00131410497
0.001316813939
0.001320075188
0.00132361975
0.001327147875
0.001330335504
0.001332837702
0.001334287356
0.001324376397
0.001326171656
0.001328698785
0.00133174129
0.001335048293
0.001338340122
0.00134131436
0.001343649077
0.001345001674
0.001335728318
0.001337403458
0.001339761604
0.001342600819
0.00134568703
0.001348759228
0.001351535112
0.001353714137
0.001354976502
0.001346294203
0.001347857921
0.001350059314
0.001352709944
0.001355591329
0.001358459771
0.001361051633
0.001363086215
0.001364264861
0.001356130073
0.001357590598
0.001359646815
0.001362122786
0.001364814469
0.001367494203
0.001369915639
0.001371816452
0.001372917567
0.001365289598
0.001366654688
0.001368576641
0.001370891086
0.001373407336
0.001375912566
0.001378176414
0.001379953542
0.001380982975
0.001373823845
0.001375100784
0.001376898728
0.001379063987
0.001381418219
0.001383762301
0.001385880638
0.001387543572
0.00138850683
0.001381781116
0.001382976728
0.001384660264
0.001386687901
0.001388892685
0.00139108814
0.001393072289
0.001394629932
0.001395532181
0.001389206872
0.00139032753
0.001391905631
0.001393806449
0.001395873533
0.001397932065
0.001399792613
0.001401253287
0.001402099359
0.001396143716
0.00139719536
0.001398676388
0.001400460457
0.001402400794
0.001404333315
0.001406080133
0.0014074516
0.001408246001
0.001402631422
0.001403619575
0.001405011309
0.001406687998
0.001408511777
0.001410328437
0.001411970708
0.001413260189
0.001414007111
0.001408707002
0.001409636794
0.001410946455
0.001412524462
0.001414241142
0.001415951366
0.001417497616
0.001418711813
0.001419415148
0.0014144048
0.001415280986
0.001416515269
0.001418002655
0.001419621005
0.001421233527
0.001422691656
0.001423836779
0.001424500131
0.001419756609
0.001420583588
0.001421748689
0.001423152916
0.001424681049
0.00142620395
0.001427581265
0.001428663059
0.001429289761
0.001424791791
0.001425573632
0.001426675276
0.00142800324
0.001429448652
0.001430889399
0.00143219265
0.001433216419
0.001433809548
0.001429537416
0.001430277874
0.001431321347
0.001432579413
0.001433949022
0.001435314501
0.001436549916
0.00143752055
0.001438082944
0.001434018395
0.001434720933
0.00143571111
0.001436905143
0.001438205327
0.001439501887
0.0014406752
0.001441597204
0.001442131476
0.001438257622
0.00143892543
0.0014398668
0.001441002205
0.001442238834
0.001443472317
0.001444588806
0.001445466324
0.001445974875
0.001442276107
0.001442912121
0.001443808815
0.001444890563
0.001446069038
0.001447244815
0.001448309334
0.001449146174
0.001449631212
0.001446093113
0.001446700032
0.001447555848
0.001448588508
0.001449713791
0.0014508368
0.001451853803
0.001452653461
0.001453117012
0.001449726278
0.001450306583
0.001451125011
0.00145211278
0.001453189428
0.001454264198
0.001455237775
0.00145600346
0.001456447381
0.001453191745
0.001453747712
0.001454531955
0.001455478684
0.001456510879
0.001457541566
0.001458475468
0.001459210119
0.001459636112
0.001456504271
0.00145703799
0.001457790986
0.001458700209
0.001459691784
0.001460682199
0.00146157986
0.001462286171
0.001462695797
0.001459677342
0.00146019073
0.001460915172
0.001461790127
0.001462744596
0.001463698229
0.001464562798
0.001465243235
0.001465637921
0.001462723275
0.001463218086
0.001463916444
0.001464760098
0.001465680679
0.001466600725
0.001467435083
0.001468091905
0.001468472955
0.00146565331
0.001466131155
0.001466805689
0.001467620759
0.001468510398
0.001469399783
0.001470206567
0.001470841837
0.001471210447
0.001468477708
0.001468940057
0.001469592838
0.001470381811
0.001471243205
0.001472104607
0.001472886227
0.001473501834
0.001473859095
0.001471205824
0.001471654028
0.00147228695
0.001473052102
0.001473887717
0.001474723583
0.001475482246
0.001476079915
0.001476426826
0.001473846194
0.001474281485
0.001474896282
0.001475639695
0.001476451789
0.001477264358
0.001478002079
0.001478583389
0.00147892086
0.001476406598
0.001476830106
0.001477428364
0.001478151942
0.001478942578
0.001479733896
0.001480452518
0.00148101891
0.001481347775
0.001478894132
0.001479306889
0.001479890057
0.001480595543
0.001481366606
0.001482138546
0.001482839753
0.001483392545
0.001483713564
0.001481315262
0.001481718212
0.001482287618
0.001482976603
0.001483729819
0.00148448409
0.001485169422
0.001485709817
0.001486023686
0.001483675886
0.001484069892
0.001484626749
0.001485300689
0.001486037635
0.001486775799
0.001487446662
0.00148797576
0.001488283113
0.001485981377
0.001486367231
0.001486912647
0.001487572873
0.001488294989
0.001489018476
0.001489676155
0.001490194961
0.00149049638
0.001488236639
0.00148861506
0.00148915005
0.001489797779
0.001490506384
0.0014912165
0.001491862169
0.001492371601
0.001492667614
0.001490446139
0.001490817789
0.00149134328
0.001491979624
0.001492675922
0.00149337386
0.001494008594
0.001494509491
0.001494800583
0.001492613953
0.001492979437
0.001493496276
0.001494122254
0.001494807346
0.001495494198
0.001496118977
0.001496612105
0.00149689872
0.0014947438
0.001495103669
0.001495612633
0.001496229174
0.001496904067
0.001497580831
0.001498196553
0.001498682614
0.001498965154
0.001496839072
0.001497193832
0.00149769563
0.001498303585
0.001498969201
0.001499636789
0.001500244274
0.001500723909
0.001501002745
0.001498902865
0.001499252977
0.001499748259
0.001500348408
0.001501005589
0.001501664835
0.001502264834
0.001502738628
0.001503014099
0.001500938005
0.001501283894
0.001501773252
0.001502366307
0.001503015824
0.001503667492
0.001504260691
0.001504729182
0.001505001596
0.001502947073
0.001503289126
0.001503773105
0.001504359717
0.001505002276
0.001505647066
0.001506234093
0.001506697771
0.001506967411
0.001504932428
0.001505270998
0.001505750096
0.001506330863
0.00150696711
0.001507605661
0.001508187091
0.001508646405
0.00150891353
0.001506896223
0.001507231636
0.001507706308
0.001508281777
0.001508912303
0.0015095452
0.001510121561
0.001510576922
0.001510841769
0.001508840427
0.001509172981
0.001509643645
0.001510214316
0.001510839663
0.001511467444
0.001512039216
0.001512491001
0.001512753788
0.001510766842
0.001511096809
0.001511563847
0.00151213018
0.001512750844
0.001513374
0.001513941626
0.001514390179
0.001514651105
0.001512677115
0.001513004744
0.001513468508
0.001514030922
0.001514647358
0.00151526634
0.001515830224
0.001516275861
0.001516535108
0.001514572753
0.001514898273
0.001515359083
0.001515917964
0.00151653059
0.001517145809
0.001517706323
0.001518149334
0.001518407068
0.001516455134
0.001516778756
0.001517236907
0.001517792608
0.001518401804
0.00151901364
0.001519571123
0.001520011773
0.001520268147
0.001518325522
0.001518647437
0.001519103199
0.001519656043
0.001520262161
0.001520870959
0.001521425722
0.001521864255
0.001522119409
0.00152018507
0.001520505455
0.001520959075
0.00152150936
0.001522112719
0.001522718797
0.001523271125
0.001523707763
0.001523961826
0.001522034835
0.001522353852
0.001522805556
0.001523353553
0.001523954447
0.001524558096
0.00152510825
0.001525543195
0.001525796285
0.001523875784
0.00152419358
0.001524643576
0.001525189532
0.00152578823
0.001526389715
0.001526937933
0.001527371372
0.001527623594
0.001525708797
0.001526025507
0.001526473984
0.001527018127
0.001527614873
0.001528214435
0.001528760935
0.001529193037
0.00152944449
0.001527534678
0.001527850425
0.001528297555
0.001528840091
0.001529435108
0.001530032968
0.001530577947
0.001531008865
0.001531259637
0.001529354157
0.001529669053
0.001530114992
0.001530656107
0.001531249597
0.001531845954
0.001532389589
0.001532819463
0.001533069633
0.001531167893
0.001531482037
0.001531926927
0.00153246679
0.001533058935
0.001533653967
0.001534196418
0.001534625371
0.00153487501
0.001532976476
0.00153328996
0.001533733926
0.001534272687
0.001534863647
0.001535457513
0.001535998922
0.001536427063
0.001536676235
0.001534780432
0.001535093334
0.001535536487
0.001536074279
0.001536664195
0.001537257033
0.001537797522
0.001538224946
0.001538473704
0.001536580216
0.001536892605
0.001537335041
0.001537871976
0.001538460969
0.001539052897
0.001539592569
0.001540019356
0.001540267744
0.001538376215
0.001538688149
0.001539129947
0.001539666119
0.001540254287
0.0015408454
0.001541384338
0.00154181055
0.001542058604
0.001540168744
0.001540480268
0.00154092149
0.00154145697
0.00154204439
0.001542634758
0.001543173023
0.001543598704
0.001543846448
0.001541958035
0.001542269181
0.001542709871
0.001543244709
0.001543831429
0.001544421095
0.001544958722
0.001545383896
0.001545631343
0.001543744235
0.00154405502
0.001544495199
0.001545029418
0.001545615456
0.001546204436
0.00154674143
0.001547166099
0.001547413247
0.00154552739
0.001545837815
0.001546277481
0.001546811073
0.001547396416
0.001547984685
0.001548521022
0.001548945159
0.001549191991
0.001547307436
0.001547617482
0.001548056605
0.001548589527
0.001549174119
0.001549761617
0.001550297231
0.00155072078
0.001550967259
0.001549084179
0.001549393803
0.00154983232
0.001550364489
0.001550948232
0.001551534849
0.00155206963
0.001552492498
0.001552738567
0.001550857277
0.001551166413
0.001551604222
0.001552135508
0.001552718249
0.001553303819
0.001553837607
0.001554259658
0.001554505235
0.001552626221
0.001552934769
0.001553371726
0.001553901944
0.001554483468
0.001555067763
0.001555600337
0.001556021387
0.001556266359
0.001554390307
0.001554698134
0.001555134043
0.001555662945
0.001556242966
0.001556825683
0.001557356753
0.001557776561
0.001558020783
0.001556148613
0.001556455544
0.001556890152
0.001557417418
0.001557995569
0.001558576321
0.001559105518
0.001559523781
0.00155976707
0.001557899971
0.001558205787
0.001558638772
0.001559164
0.001559739823
0.00156031813
0.001560844996
0.001561261338
0.001561503468
0.001559642941
0.001559947371
0.00156037834
0.001560901037
0.00156147397
0.001562049245
0.001562573225
0.00156298719
0.001563227889
0.001561375786
0.0015616785
0.001562106979
0.001562626551
0.001563195921
0.001563767462
0.001564287893
0.001564698941
0.001564937885
0.001563096445
0.001563397054
0.001563822479
0.001564338224
0.001564903237
0.00156547022
0.001565986325
0.001566393822
0.001566630634
0.00156480252
0.001565100571
0.001565522285
0.001566033386
0.001566593118
0.001567154588
0.00156766547
0.001568068688
0.001568302935
0.001566491263
0.00156678623
0.00156720348
0.001567709001
0.0015682624
0.001568817269
0.001569321909
0.001569720023
0.001569951214
0.00156815957
0.001568450861
0.001568862793
0.001569361679
0.001569907561
0.001570454608
0.001570951867
0.001571343955
0.001571571547
0.001569803989
0.001570090944
0.00157049661
0.00157098769
0.001571524742
0.00157206262
0.001572551244
0.001572936297
0.001573159693
0.001571420744
0.001571702638
0.001572100999
0.001572582991
0.001573109784
0.001573637031
0.001574115664
0.001574492592
0.00157471115
0.001573005763
0.001573281812
0.001573671749
0.001574143278
0.001574658282
0.001575173337
0.001575640534
0.001576008182
0.001576221226
0.001574554729
0.001574824104
0.00157520443
0.001575664044
0.001576165648
0.001576666874
0.001577121129
0.001577478296
0.001577685122
0.001576063146
0.001576324979
0.001576694463
0.001577140656
0.001577627197
0.001578112913
0.001578552685
0.001578898146
0.001579098042
0.00157752641
0.001577779818
0.001578137204
0.001578568448
0.001579038245
0.001579506759
0.001579930503
0.001580263042
0.001580455301
0.001578939908
0.001579184007
0.001579528042
0.001579942819
0.001580394213
0.001580843863
0.001581250074
0.001581568507
0.001581752447
0.001580299116
0.001580533042
0.00158086251
0.001581259352
0.001581690746
0.001582119944
0.001582507192
0.001582810404
0.001582985387
0.001581599709
0.001581822643
0.001582136393
0.001582513922
0.001582923825
0.001583331102
0.001583698077
0.001583985057
0.001584150507
0.001582837675
0.001583048864
0.001583345846
0.001583702811
0.001584089887
0.001584473937
0.001584819487
0.001585089357
0.00158524478
0.001584009424
0.001584208208
0.001584487504
0.001584822822
0.001585185925
0.001585545648
0.001585868817