/*--------------------------------*- C++ -*----------------------------------*\
| =========                 |                                                 |
| \\      /  F ield         | OpenFOAM: The Open Source CFD Toolbox           |
|  \\    /   O peration     | Version:  2212                                  |
|   \\  /    A nd           | Website:  www.openfoam.com                      |
|    \\/     M anipulation  |                                                 |
\*---------------------------------------------------------------------------*/
FoamFile
{
    version     2.0;
    format      ascii;
    arch        "LSB;label=32;scalar=64";
    class       volScalarField;
    location    "30.00000000";
    object      CO;
}
// * * * * * * * * * * * * * * * * * * * * * * * * * * * * * * * * * * * * * //

dimensions      [0 0 0 0 0 0 0];

internalField   nonuniform List<scalar> 
3000
(
2.023582592e-21
2.273316144e-21
2.650154807e-21
3.152304942e-21
3.774631888e-21
4.500191457e-21
5.285234295e-21
6.034228863e-21
6.563796018e-21
7.597723726e-21
8.569769401e-21
1.003590594e-20
1.199387769e-20
1.444156822e-20
1.73651873e-20
2.071374854e-20
2.43185531e-20
2.75113994e-20
1.70198279e-20
1.934800868e-20
2.28930689e-20
2.770603306e-20
3.3872819e-20
4.148202261e-20
5.050271969e-20
6.04288214e-20
6.891092099e-20
3.242147248e-20
3.724228199e-20
4.469039445e-20
5.501710087e-20
6.858680374e-20
8.574218766e-20
1.063874005e-19
1.288704505e-19
1.470161818e-19
5.757905591e-20
6.695164296e-20
8.166032224e-20
1.024512631e-19
1.303004888e-19
1.659860971e-19
2.089096718e-19
2.544899278e-19
2.894799224e-19
9.902431879e-20
1.166155865e-19
1.446183159e-19
1.848190252e-19
2.39361716e-19
3.096197012e-19
3.934969076e-19
4.804197885e-19
5.447318276e-19
1.68131797e-19
2.004442243e-19
2.524798895e-19
3.280252992e-19
4.312862748e-19
5.64316474e-19
7.216152769e-19
8.814356755e-19
9.96753831e-19
2.845822059e-19
3.430560531e-19
4.38057239e-19
5.770432814e-19
7.677600892e-19
1.012949657e-18
1.300308723e-18
1.588010743e-18
1.792134227e-18
4.8249968e-19
5.871985037e-19
7.583935889e-19
1.010106556e-18
1.356102645e-18
1.799692163e-18
2.315813283e-18
2.827170354e-18
3.185977744e-18
8.210396288e-19
1.007041339e-18
1.312547709e-18
1.76315463e-18
2.382864448e-18
3.175223495e-18
4.091994143e-18
4.993659389e-18
5.621680355e-18
1.402889964e-18
1.731441822e-18
2.272738768e-18
3.072611625e-18
4.172479611e-18
5.575345401e-18
7.191600675e-18
8.773184645e-18
9.869586282e-18
2.406484912e-18
2.984471682e-18
3.938641813e-18
5.350001978e-18
7.289518227e-18
9.757728484e-18
1.259169193e-17
1.535523928e-17
1.726696729e-17
4.142198563e-18
5.156254799e-18
6.832516211e-18
9.312952686e-18
1.271826493e-17
1.704104597e-17
2.198683671e-17
2.67962152e-17
3.013568719e-17
7.150086867e-18
8.926454645e-18
1.186576243e-17
1.621621199e-17
2.218235185e-17
2.973279596e-17
3.832129718e-17
4.661324613e-17
5.252800654e-17
1.236904343e-17
1.547814349e-17
2.062836619e-17
2.825733731e-17
3.872041151e-17
5.193618466e-17
6.682359943e-17
8.051790228e-17
9.16996791e-17
2.142774947e-17
2.686374042e-17
3.588000434e-17
4.925949238e-17
6.766888768e-17
9.110490876e-17
1.181189074e-16
1.450925409e-16
1.620127114e-16
3.714609736e-17
4.663077329e-17
6.237072274e-17
8.573462129e-17
1.178723421e-16
1.58706623e-16
2.054308773e-16
2.507351711e-16
2.81504499e-16
6.441202962e-17
8.092954199e-17
1.08344022e-16
1.490289716e-16
2.049513502e-16
2.759011e-16
3.568910793e-16
4.35227068e-16
4.88850796e-16
1.1170653e-16
1.404363461e-16
1.881219592e-16
2.588793472e-16
3.560974058e-16
4.793635507e-16
6.199796869e-16
7.559400795e-16
8.490718751e-16
1.937509415e-16
2.436879933e-16
3.265780613e-16
4.495660269e-16
6.185165084e-16
8.326767651e-16
1.076910196e-15
1.31300321e-15
1.474708412e-15
3.361029117e-16
4.228698693e-16
5.669031755e-16
7.806110356e-16
1.074158201e-15
1.446195335e-15
1.870386715e-15
2.280349674e-15
2.561096472e-15
5.83137116e-16
7.338673828e-16
9.840939139e-16
1.355364999e-15
1.865304206e-15
2.511505388e-15
3.248156159e-15
3.959958675e-15
4.447319268e-15
1.011903971e-15
1.273720808e-15
1.708375356e-15
2.353278733e-15
3.23898151e-15
4.361201478e-15
5.640270629e-15
6.875958296e-15
7.721904849e-15
1.756195646e-15
2.210936064e-15
2.965871023e-15
4.085922812e-15
5.624021208e-15
7.572536933e-15
9.792954358e-15
1.193763389e-14
1.3405663e-14
3.048326406e-15
3.838103186e-15
5.149193075e-15
7.094195364e-15
9.764733832e-15
1.314715227e-14
1.700061361e-14
2.072169478e-14
2.326821673e-14
5.29164789e-15
6.663217049e-15
8.939927746e-15
1.231692434e-14
1.695262069e-14
2.28223902e-14
2.950741255e-14
3.596061976e-14
4.037557452e-14
9.186349231e-15
1.156809185e-14
1.552105237e-14
2.138308938e-14
2.942759981e-14
3.960972969e-14
5.120095032e-14
6.238515218e-14
7.003369684e-14
1.594745658e-14
2.008281974e-14
2.694478193e-14
3.711749052e-14
5.107161669e-14
6.872439763e-14
8.880806083e-14
1.081744118e-13
1.21410908e-13
2.768214249e-14
3.486066871e-14
4.676866878e-14
6.441428488e-14
8.86051047e-14
1.191860381e-13
1.539496924e-13
1.874429901e-13
2.103166608e-13
4.804161392e-14
6.049822509e-14
8.115319804e-14
1.117422261e-13
1.536447912e-13
2.065653295e-13
2.666579014e-13
3.244872045e-13
3.639372979e-13
8.334480749e-14
1.049481903e-13
1.407502709e-13
1.937298616e-13
2.662294285e-13
3.576761643e-13
4.613647228e-13
5.60993346e-13
6.288574375e-13
1.445097879e-13
1.819453585e-13
2.439407421e-13
3.355870804e-13
4.60831494e-13
6.185469442e-13
7.970357931e-13
9.681883638e-13
1.084544972e-12
2.50361735e-13
3.151560252e-13
4.22359866e-13
5.806284552e-13
7.965468933e-13
1.067870795e-12
1.37418635e-12
1.667150114e-12
1.865819859e-12
4.332749594e-13
5.452417665e-13
7.302765978e-13
1.002994819e-12
1.374243255e-12
1.83951714e-12
2.363196559e-12
2.862424372e-12
3.199907179e-12
7.487488846e-13
9.4181809e-13
1.260413387e-12
1.729007196e-12
2.365177612e-12
3.159854936e-12
4.050940918e-12
4.897047297e-12
5.46683329e-12
1.291570527e-12
1.62357119e-12
2.170432868e-12
2.972707743e-12
4.058296573e-12
5.408971676e-12
6.916683324e-12
8.341491684e-12
9.296619688e-12
2.222922965e-12
2.791855013e-12
3.726914651e-12
5.094448339e-12
6.937574357e-12
9.219896657e-12
1.175403236e-11
1.413553832e-11
1.572357289e-11
3.81553686e-12
4.786352948e-12
6.377695302e-12
8.696451962e-12
1.180697243e-11
1.563735829e-11
1.986425264e-11
2.38114061e-11
2.642776722e-11
6.528319527e-12
8.176485119e-12
1.086965973e-11
1.477689237e-11
1.998979298e-11
2.636836124e-11
3.335838e-11
3.983969807e-11
4.410764823e-11
1.112867811e-11
1.391008798e-11
1.843845433e-11
2.497530296e-11
3.364251544e-11
4.417220329e-11
5.562271495e-11
6.61582407e-11
7.304701136e-11
1.889120546e-11
2.355278478e-11
3.111052398e-11
4.195850542e-11
5.624221017e-11
7.345913155e-11
9.202616826e-11
1.089696424e-10
1.199664552e-10
3.191725426e-11
3.966920286e-11
5.217823558e-11
7.00197168e-11
9.333341619e-11
1.21196938e-10
1.509810949e-10
1.779290659e-10
1.952865881e-10
5.364358072e-11
6.642322535e-11
8.693817076e-11
1.159967072e-10
1.536578132e-10
1.982665672e-10
2.455151508e-10
2.878930471e-10
3.149816928e-10
8.964291175e-11
1.105120644e-10
1.438243363e-10
1.906614438e-10
2.508420616e-10
3.214656397e-10
3.955751693e-10
4.614683799e-10
5.032736004e-10
1.48869218e-10
1.826024412e-10
2.361265941e-10
3.107984895e-10
4.058912811e-10
5.164387511e-10
6.313717105e-10
7.326941878e-10
7.965135098e-10
2.455711706e-10
2.995122677e-10
3.845661622e-10
5.022792482e-10
6.508352911e-10
8.219237745e-10
9.981937827e-10
1.15231985e-09
1.248734251e-09
4.021959022e-10
4.874855339e-10
6.211128504e-10
8.045631555e-10
1.034012142e-09
1.295855382e-09
1.563289346e-09
1.795319232e-09
1.939540266e-09
6.53741301e-10
7.870518219e-10
9.945840145e-10
1.277227579e-09
1.627662426e-09
2.024075633e-09
2.425634757e-09
2.771524786e-09
2.985255069e-09
1.054201587e-09
1.260158995e-09
1.578778433e-09
2.009362476e-09
2.538766861e-09
3.132686832e-09
3.729726934e-09
4.240596471e-09
4.554589937e-09
1.686005973e-09
2.000537637e-09
2.48419064e-09
3.132986766e-09
3.92441369e-09
4.805471087e-09
5.684955006e-09
6.432991551e-09
6.890564587e-09
2.673699617e-09
3.148626516e-09
3.874752598e-09
4.842082856e-09
6.013465303e-09
7.308329847e-09
8.592681786e-09
9.679213848e-09
1.034104494e-08
4.203596082e-09
4.91289929e-09
5.991602273e-09
7.419447561e-09
9.136949711e-09
1.102341129e-08
1.288393943e-08
1.445044117e-08
1.540112787e-08
6.551790816e-09
7.600144234e-09
9.186650798e-09
1.127439142e-08
1.377049778e-08
1.649655517e-08
1.917168925e-08
2.141475705e-08
2.277176633e-08
1.012366051e-08
1.165793105e-08
1.396937929e-08
1.699509247e-08
2.059320239e-08
2.450308402e-08
2.832319239e-08
3.151490647e-08
3.344067881e-08
1.550864324e-08
1.77334805e-08
2.107186548e-08
2.542143599e-08
3.056934227e-08
3.613877235e-08
4.155974479e-08
4.607520262e-08
4.879356424e-08
2.355761166e-08
2.675656193e-08
3.153965091e-08
3.774593716e-08
4.506091532e-08
5.294471138e-08
6.059338494e-08
6.694798455e-08
7.076641882e-08
3.54899355e-08
4.005393538e-08
4.685700314e-08
5.565272362e-08
6.598243025e-08
7.707880594e-08
8.781434534e-08
9.671421454e-08
1.020539846e-07
5.304141758e-08
5.950722019e-08
6.911934362e-08
8.150842687e-08
9.601308003e-08
1.115504521e-07
1.265472559e-07
1.389574138e-07
1.463943115e-07
7.866778495e-08
8.776974357e-08
1.012696794e-07
1.186234616e-07
1.388866883e-07
1.605408369e-07
1.814005248e-07
1.986370402e-07
2.089565479e-07
1.158233027e-07
1.285631021e-07
1.474214945e-07
1.716083622e-07
1.997866946e-07
2.298389345e-07
2.587417389e-07
2.825965288e-07
2.968686444e-07
1.69340338e-07
1.870808123e-07
2.13297777e-07
2.468578265e-07
2.858823521e-07
3.274332414e-07
3.673430033e-07
4.002532865e-07
4.199345287e-07
2.459435426e-07
2.705347542e-07
3.068249254e-07
3.532051806e-07
4.070536213e-07
4.643120585e-07
5.192545053e-07
5.645338784e-07
5.916071577e-07
3.549418395e-07
3.888902182e-07
4.38931291e-07
5.028022187e-07
5.768660376e-07
6.555408025e-07
7.309823463e-07
7.931374139e-07
8.303052796e-07
5.091525084e-07
5.55847134e-07
6.246128959e-07
7.1229356e-07
8.138728355e-07
9.217030246e-07
1.025067354e-06
1.110233235e-06
1.161186467e-06
7.261239456e-07
7.901379837e-07
8.843427891e-07
1.004369947e-06
1.143338625e-06
1.290810897e-06
1.432182882e-06
1.548722314e-06
1.61851356e-06
1.029736288e-06
1.117225961e-06
1.24591422e-06
1.409799478e-06
1.599494446e-06
1.800807384e-06
1.993886721e-06
2.153209041e-06
2.248768673e-06
1.452270595e-06
1.571498383e-06
1.746819045e-06
1.970046494e-06
2.228443735e-06
2.502790152e-06
2.766167166e-06
2.983831265e-06
3.114666743e-06
2.037045487e-06
2.19905747e-06
2.43726801e-06
2.740590005e-06
3.091836153e-06
3.465077918e-06
3.823905081e-06
4.121068446e-06
4.300185037e-06
2.841721701e-06
3.061209464e-06
3.383953711e-06
3.795040508e-06
4.271402923e-06
4.778202877e-06
5.266320247e-06
5.671577481e-06
5.916642531e-06
3.942365168e-06
4.238737975e-06
4.67463344e-06
5.230117922e-06
5.874394096e-06
6.560838215e-06
7.223371595e-06
7.774984272e-06
8.109726373e-06
5.438331266e-06
5.837011344e-06
6.423560003e-06
7.171485905e-06
8.039867114e-06
8.966551076e-06
9.862933687e-06
1.061138705e-05
1.106717537e-05
7.457978635e-06
7.991908486e-06
8.777706269e-06
9.780332885e-06
1.094564405e-05
1.219111034e-05
1.33983837e-05
1.440911872e-05
1.50266112e-05
1.01651323e-05
1.087644624e-05
1.192360919e-05
1.326044707e-05
1.481558691e-05
1.647988732e-05
1.80960245e-05
1.945209799e-05
2.028278792e-05
1.376608776e-05
1.470785132e-05
1.609450291e-05
1.786535912e-05
1.992665153e-05
2.213468987e-05
2.428157177e-05
2.608590639e-05
2.71933409e-05
1.851678257e-05
1.975464736e-05
2.157723039e-05
2.390494103e-05
2.661499777e-05
2.951919931e-05
3.234477962e-05
3.472160026e-05
3.618205173e-05
2.472957316e-05
2.634314018e-05
2.871824069e-05
3.175068172e-05
3.52802919e-05
3.906207272e-05
4.274122654e-05
4.583630781e-05
4.77386198e-05
3.277886766e-05
3.486250958e-05
3.792782831e-05
4.183874293e-05
4.638726185e-05
5.125676432e-05
5.599037879e-05
5.996968726e-05
6.241413014e-05
4.310471578e-05
4.576759008e-05
4.968167763e-05
5.466985862e-05
6.046360729e-05
6.665728498e-05
7.266914686e-05
7.771566635e-05
8.081167463e-05
5.621337568e-05
5.957837157e-05
6.451876904e-05
7.080523179e-05
7.809358563e-05
8.586924239e-05
9.340056882e-05
9.970919871e-05
0.0001035719779
7.267389657e-05
7.687535709e-05
8.303498893e-05
9.085786496e-05
9.990673115e-05
0.000109535986
0.0001188375933
0.0001266082267
0.0001313543595
9.311010256e-05
9.829017904e-05
0.0001058717598
0.0001154788771
0.0001265617021
0.0001383200163
0.0001496423887
0.0001590714555
0.0001648136851
0.0001181873041
0.0001244910069
0.0001336996643
0.0001453390054
0.0001587255876
0.0001728802896
0.0001864620535
0.0001977330204
0.0002045745724
0.0001485938487
0.0001561629563
0.0001671973203
0.0001811057842
0.0001970494644
0.0002138464446
0.0002299019512
0.0002431753911
0.0002512042034
0.0001850178854
0.000193984018
0.0002070262555
0.0002234173643
0.0002421413718
0.0002617913031
0.0002804981563
0.0002959020814
0.000305185358
0.0002281202431
0.0002385975201
0.000253802939
0.0002728542864
0.0002945381608
0.0003172032044
0.0003386906247
0.0003563117892
0.0003668912802
0.0002785047346
0.0002905825122
0.0003080694491
0.0003299107731
0.0003546778366
0.0003804598063
0.0004047986962
0.000424675518
0.0004365638794
0.0003366875115
0.0003504237261
0.0003702644602
0.0003949672266
0.0004228740494
0.0004518049315
0.0004790003988
0.0005011180409
0.0005142965499
0.0004030672803
0.000418482909
0.0004406963028
0.0004682656096
0.0004992942932
0.0005313298693
0.0005613167966
0.0005856047919
0.0006000225974
0.0004778982348
0.0004949733218
0.0005195197896
0.0005498892579
0.0005839431755
0.0006189602776
0.0006516023058
0.0006779349251
0.0006935099315
0.0005612674731
0.0005799390719
0.0006067183257
0.0006397484437
0.0006766518411
0.0007144495141
0.0007495415488
0.0007777408253
0.0007943618225
0.0006530784609
0.0006732407154
0.0007020925504
0.0007375727022
0.0007770742989
0.0008173788979
0.0008546530914
0.0008844945478
0.000902025173
0.0007530417991
0.0007745482359
0.0008052564025
0.0008429105489
0.0008846909884
0.000927164918
0.0009662997035
0.0009975201998
0.001015803766
0.0008606741632
0.0008833421102
0.0009156411009
0.0009551368195
0.0009988195416
0.00104307311
0.001083704733
0.001116012003
0.001134877181
0.0009753058335
0.0009989227248
0.001032507087
0.001073467433
0.001118632302
0.001164237947
0.001205973762
0.001239057038
0.001258324001
0.001096096746
0.001120427929
0.001154963532
0.00119698098
0.001243179803
0.001289687786
0.00133212049
0.001365661568
0.001385148301
0.001222060493
0.001246858052
0.001281994597
0.00132464618
0.001371419147
0.001418373747
0.001461095758
0.001494779994
0.001514308265
0.001352095261
0.0013771073
0.001412491296
0.001455354019
0.001502246157
0.001549201527
0.001591818331
0.001625344379
0.001644745439
0.001485020288
0.001510000212
0.001545287802
0.001587953476
0.001634529918
0.001681064644
0.001723208234
0.001756297879
0.001775416805
0.00161961658
0.001644331506
0.001679200081
0.001721289465
0.001767150252
0.001812880167
0.001854217111
0.001886619903
0.001905318009
0.001754671296
0.00177890995
0.001813068238
0.001854240647
0.001899028871
0.001943613901
0.001983851523
0.0020153492
0.002033506289
0.001889016174
0.001912592979
0.001945786412
0.001985746145
0.002029154479
0.00207230426
0.002111194752
0.002141603877
0.002159119491
0.002021557044
0.002044315319
0.002076330121
0.002114830658
0.002156605072
0.002198081781
0.002235424021
0.002264596905
0.002281390638
0.002151300095
0.002173113592
0.002203778571
0.002240624132
0.002280564875
0.002320183531
0.002355822779
0.002383646893
0.002399657907
0.002277371596
0.002298144493
0.00232733073
0.002362375459
0.002400335656
0.002437962232
0.002471788051
0.002498184179
0.002513370066
0.002399030639
0.002418696222
0.002446315006
0.002479460186
0.002515342488
0.002550890294
0.002582833102
0.002607752553
0.002622087725
0.002515675096
0.002534193403
0.002560192816
0.002591382609
0.002625134419
0.002658559255
0.00268858592
0.002712007117
0.002725480885
0.002626841363
0.002644196135
0.002668556722
0.002697772932
0.002729380724
0.002760675288
0.002788784183
0.002810708906
0.002823323396
0.00273219889
0.00274839411
0.002771124048
0.002798380384
0.002827863595
0.002857051576
0.002883267444
0.002903716982
0.00291548503
0.002831540595
0.0028465969
0.002867727031
0.002893063278
0.002920468177
0.002947598402
0.002971967317
0.002990978727
0.003001921834
0.002924770388
0.002938721573
0.002958300595
0.002981777006
0.003007170852
0.003032311749
0.003054896393
0.003072519011
0.003082665442
0.003011888947
0.003024778713
0.003042868733
0.00306456088
0.003088026585
0.003111261166
0.003132136557
0.00314842885
0.003157811926
0.003092978746
0.003104857812
0.003121530402
0.003141524626
0.003163156059
0.003184577507
0.003203827264
0.003218854082
0.00322751068
0.003168189192
0.003179112813
0.003194445631
0.003212835151
0.003232733138
0.003252441068
0.003270154238
0.003283984475
0.00329195375
0.003237722482
0.003247748391
0.003261822383
0.003278704086
0.00329697311
0.003315070472
0.003331338908
0.003344043565
0.003351365888
0.003301820641
0.003311007399
0.003323904559
0.003339376426
0.003356121976
0.003372712582
0.003387628833
0.003399279451
0.00340599554
0.003360753987
0.003369159704
0.003380961337
0.003395120446
0.003410446968
0.003425633559
0.003439289219
0.003449956646
0.003456106882
0.003414811175
0.00342249256
0.003433277983
0.003446219011
0.003460228354
0.003474111128
0.003486595599
0.003496349063
0.003501972962
0.003464290778
0.003471302445
0.003481148053
0.003492962209
0.003505752534
0.003518428135
0.003529827702
0.003538734098
0.003543869903
0.003509494383
0.003515888398
0.003524867047
0.00353564136
0.003547306389
0.003558867158
0.003569264357
0.003577387748
0.003582072145
0.003550721108
0.003556546713
0.003564727338
0.003574544198
0.003585172724
0.00359570623
0.003605179421
0.003612580719
0.003616848645
0.003588263304
0.003593566768
0.003601014172
0.003609951089
0.00361962672
0.003629215506
0.003637838639
0.003644575403
0.003648459918
0.003622403332
0.003627227907
0.003634002704
0.003642132226
0.00365093329
0.003659654766
0.003667497275
0.003673623617
0.003677155843
0.003653411253
0.003657797204
0.003663955849
0.003671345601
0.003679345173
0.003687271632
0.003694398433
0.003699964999
0.0037031741
0.00368154326
0.003685527942
0.003691122842
0.003697835643
0.003705101664
0.003712300383
0.003718771942
0.003723825957
0.003726739154
0.003707040723
0.0037106587
0.003715738368
0.003721832405
0.003728427857
0.003734961252
0.00374083372
0.003745419075
0.003748061691
0.003730129723
0.0037334129
0.003738022138
0.003743551185
0.003749534305
0.003755460136
0.003760785511
0.003764942882
0.0037673384
0.00375102096
0.003753998735
0.003758178841
0.003763192483
0.003768617012
0.003773988607
0.003778814928
0.003782581913
0.003784752053
0.003769909962
0.003772609376
0.00377639835
0.003780942237
0.003785857667
0.003790724166
0.003795095718
0.003798506997
0.003800471799
0.0037869775
0.003789423394
0.00379285615
0.003796972238
0.003801424079
0.003805830679
0.003809788212
0.003812875704
0.003814653621
0.003802390166
0.003804605328
0.003807713905
0.003811440704
0.003815470735
0.003819458946
0.00382303989
0.003825832919
0.003827440907
0.003816301048
0.003818306362
0.003821120124
0.003824492936
0.003828139463
0.003831747347
0.00383498603
0.003837511496
0.003838965108
0.003828850485
0.003830665068
0.003833210898
0.003836262045
0.003839560145
0.003842822559
0.003845750419
0.003848032955
0.003849346437
0.003840166842
0.003841808177
0.003844110662
0.003846869707
0.003849851464
0.003852800289
0.003855446079
0.003857508213
0.003858694591
0.003850367311
0.003851851374
0.003853932981
0.003856426934
0.00385912166
0.003861786022
0.003864176007
0.003866038316
0.003867109485
0.003859558704
0.003860900078
0.003862781313
0.003865034832
0.003867469281
0.003869875759
0.003872033905
0.003873715162
0.003874681973
0.003867838221
0.003869050209
0.003870749778
0.003872785346
0.003874983914
0.003877156741
0.003879104893
0.003880622202
0.003881494541
0.0038752942
0.003876388925
0.003877923873
0.003879761981
0.003881746892
0.00388370814
0.003885466187
0.003886835121
0.003887621985
0.003882006828
0.003882995332
0.003884381181
0.003886040481
0.003887831965
0.003889601718
0.003891187757
0.003892422478
0.003893132046
0.003888048815
0.003888941145
0.003890192019
0.003891689481
0.003893305936
0.003894902455
0.003896332933
0.00389744631
0.003898086013
0.003893486029
0.003894291322
0.003895420062
0.003896771111
0.003898229258
0.003899669134
0.00390095899
0.003901962707
0.003902539289
0.003898378088
0.003899104646
0.003900122918
0.003901341567
0.00390265659
0.003903954886
0.003905117676
0.003906022332
0.00390654191
0.003902778909
0.003903434274
0.003904352672
0.003905451639
0.003906637319
0.003907807698
0.003908855718
0.003909670923
0.003910139039
0.003906737224
0.003907328238
0.003908156374
0.0039091472
0.003910216032
0.003911270883
0.003912215276
0.003912949736
0.003913371411
0.003910297048
0.003910829917
0.003911576508
0.003912469653
0.003913432965
0.003914383513
0.00391523437
0.003915895968
0.003916275747
0.003913498112
0.003913978462
0.003914651408
0.003915456352
0.003916324404
0.003917180812
0.00391794727
0.00391854314
0.003918885131
0.003916376264
0.003916809193
0.003917415649
0.003918140975
0.003918923056
0.003919694524
0.003920384849
0.003920921441
0.003921229363
0.003918963833
0.003919353955
0.003919900401
0.003920553879
0.003921258394
0.003921953243
0.003922574909
0.003923058056
0.003923335267
0.003921289961
0.003921641454
0.003922133752
0.003922722411
0.003923356962
0.003923982716
0.00392454248
0.003924977452
0.003925226986
0.003923380909
0.003923697552
0.003924141004
0.003924671201
0.003925242661
0.00392580612
0.003926310085
0.003926701641
0.003926926238
0.003925260334
0.003925545543
0.003925944943
0.003926422423
0.003926937002
0.00392744431
0.003927897989
0.003928250427
0.00392845256
0.003926949537
0.003927206401
0.003927566082
0.003927996037
0.003928459345
0.003928916049
0.003929324419
0.003929641618
0.003929823516
0.003928467698
0.003928699008
0.003929022883
0.003929410001
0.003929827104
0.003930238212
0.003930605766
0.003930891224
0.003931054902
0.003929832079
0.003930040355
0.003930331958
0.003930680473
0.003931055944
0.003931425976
0.003931756765
0.003932013639
0.003932160911
0.003931058214
0.00393124573
0.003931508253
0.003931821986
0.003932159952
0.003932492984
0.003932790664
0.0039330218
0.003933154302
0.003932160076
0.003932328888
0.00393256521
0.003932847609
0.003933151791
0.003933451502
0.003933719368
0.003933927333
0.003934046539
0.003933150238
0.003933302198
0.003933514918
0.003933769093
0.003934042849
0.003934312555
0.003934553579
0.003934740684
0.003934847922
0.003934040004
0.003934176785
0.003934368246
0.003934597002
0.00393484336
0.00393508605
0.003935302909
0.003935471238
0.003935567706
0.003934839543
0.003934962652
0.003935134966
0.003935340833
0.003935562522
0.00393578089
0.003935975997
0.003936127428
0.003936214204
0.003935557994
0.003935668791
0.003935823865
0.003936009122
0.003936208601
0.003936405075
0.003936580604
0.003936716828
0.003936794882
0.003936203576
0.003936303287
0.003936442837
0.003936609539
0.003936789025
0.003936965793
0.003937123702
0.003937246241
0.003937316449
0.003936783677
0.003936873406
0.003936998981
0.003937148979
0.003937310469
0.0039374695
0.003937611554
0.003937721779
0.003937784926
0.003937304937
0.00393738568
0.003937498674
0.003937633636
0.003937778929
0.003937921998
0.003938049783
0.00393814893
0.003938205726
0.003937773325
0.003937845979
0.003937947648
0.003938069077
0.003938199792
0.003938328497
0.003938443444
0.003938532623
0.003938583705
0.003938194205
0.003938259576
0.003938351053
0.003938460302
0.003938577898
0.003938693678
0.003938797075
0.003938877286
0.003938923228
0.003938572396
0.003938631214
0.003938713516
0.003938811804
0.003938917595
0.003939021746
0.00393911475
0.003939186894
0.003939228213
0.00393891223
0.00393896515
0.003939039197
0.003939127621
0.00393922279
0.003939316476
0.003939400131
0.003939465019
0.003939502179
0.003939217601
0.003939265213
0.003939331829
0.003939411378
0.003939496989
0.003939581262
0.003939656506
0.003939714866
0.003939748286
0.003939492005
0.00393953484
0.003939594771
0.003939666333
0.003939743345
0.003939819149
0.003939886827
0.003939939315
0.003939969371
0.003939738586
0.003939777122
0.003939831038
0.003939895414
0.003939964689
0.003940032873
0.003940093745
0.003940140952
0.003940167983
0.003939960167
0.003939994835
0.003940043338
0.003940101249
0.003940163563
0.003940224894
0.003940279643
0.0039403221
0.003940346409
0.003940159284
0.003940190473
0.003940234106
0.003940286199
0.003940342252
0.003940397417
0.00394044666
0.003940484844
0.003940506705
0.003940338219
0.003940366276
0.003940405527
0.003940452388
0.003940502807
0.003940552426
0.003940596715
0.003940631057
0.003940650717
0.003940499017
0.003940524257
0.003940559566
0.003940601719
0.003940647072
0.003940691701
0.003940731535
0.00394076242
0.003940780101
0.003940643521
0.003940666226
0.003940697988
0.003940735906
0.0039407767
0.003940816841
0.003940852668
0.003940880445
0.003940896346
0.003940773381
0.003940793807
0.003940822379
0.003940856486
0.003940893179
0.003940929284
0.003940961507
0.003940986488
0.003941000788
0.003940890085
0.003940908459
0.00394093416
0.00394096484
0.003940997845
0.003941030319
0.0039410593
0.003941081767
0.003941094627
0.003940994966
0.003941011494
0.003941034614
0.00394106221
0.003941091897
0.003941121105
0.00394114717
0.003941167376
0.003941178941
0.003941089223
0.003941104091
0.003941124887
0.00394114971
0.003941176412
0.003941202683
0.003941226125
0.003941244297
0.003941254697
0.003941173932
0.003941187306
0.003941206013
0.003941228341
0.003941252358
0.003941275986
0.00394129707
0.003941313413
0.003941322766
0.003941250062
0.003941262092
0.003941278919
0.003941299002
0.003941320604
0.003941341856
0.003941360818
0.003941375515
0.003941383926
0.00394131848
0.003941329302
0.003941344437
0.003941362501
0.003941381931
0.003941401044
0.003941418098
0.003941431315
0.00394143888
0.003941379968
0.003941389702
0.003941403315
0.003941419563
0.003941437039
0.003941454229
0.003941469566
0.003941481452
0.003941488254
0.003941435226
0.003941443981
0.003941456226
0.00394147084
0.003941486557
0.003941502016
0.003941515809
0.003941526498
0.003941532615
0.003941484884
0.003941492758
0.003941503772
0.003941516915
0.00394153105
0.003941544953
0.003941557356
0.003941566968
0.003941572468
0.003941529507
0.003941536589
0.003941546494
0.003941558314
0.003941571025
0.003941583527
0.00394159468
0.003941603323
0.003941608268
0.003941569602
0.003941575971
0.003941584878
0.003941595507
0.003941606938
0.003941618179
0.003941628207
0.003941635977
0.003941640423
0.003941605624
0.003941611352
0.003941619361
0.003941628918
0.003941639195
0.003941649302
0.003941658317
0.003941665301
0.003941669298
0.003941637983
0.003941643133
0.003941650333
0.003941658925
0.003941668164
0.003941677249
0.003941685351
0.003941691629
0.003941695221
0.003941667045
0.003941671674
0.003941678147
0.003941685869
0.003941694172
0.003941702337
0.003941709618
0.003941715259
0.003941718485
0.003941693139
0.003941697299
0.003941703115
0.003941710055
0.003941717515
0.00394172485
0.003941731391
0.003941736457
0.003941739355
0.00394171656
0.003941720297
0.003941725522
0.003941731755
0.003941738456
0.003941745043
0.003941750916
0.003941755464
0.003941758066
0.003941737572
0.003941740928
0.00394174562
0.003941751216
0.003941757231
0.003941763144
0.003941768414
0.003941772496
0.003941774829
0.003941756414
0.003941759426
0.003941763636
0.003941768658
0.003941774054
0.003941779357
0.003941784084
0.003941787743
0.003941789836
0.003941773297
0.003941775999
0.003941779774
0.003941784277
0.003941789114
0.003941793867
0.003941798103
0.003941801381
0.003941803254
0.003941788414
0.003941790835
0.003941794217
0.003941798251
0.003941802583
0.003941806839
0.003941810629
0.003941813563
0.003941815239
0.003941801936
0.003941804102
0.00394180713
0.003941810739
0.003941814614
0.00394181842
0.003941821808
0.003941824429
0.003941825926
0.003941814016
0.003941815953
0.003941818659
0.003941821884
0.003941825345
0.003941828743
0.003941831768
0.003941834106
0.003941835441
0.003941824794
0.003941826523
0.003941828938
0.003941831815
0.003941834902
0.00394183793
0.003941840624
0.003941842706
0.003941843894
0.003941834396
0.003941835936
0.003941838087
0.003941840648
0.003941843395
0.003941846088
0.003941848483
0.003941850332
0.003941851386
0.003941842932
0.003941844301
0.003941846213
0.003941848488
0.003941850926
0.003941853316
0.003941855438
0.003941857076
0.003941858009
0.003941850506
0.00394185172
0.003941853414
0.003941855429
0.003941857588
0.003941859701
0.003941861577
0.003941863023
0.003941863846
0.003941857209
0.003941858282
0.003941859779
0.003941861558
0.003941863463
0.003941865326
0.003941866978
0.003941868249
0.003941868973
0.003941863124
0.00394186407
0.003941865388
0.003941866953
0.003941868627
0.003941870262
0.003941871711
0.003941872824
0.003941873457
0.003941868328
0.003941869157
0.003941870313
0.003941871684
0.003941873149
0.003941874578
0.003941875841
0.003941876812
0.003941877362
0.003941872889
0.003941873613
0.003941874621
0.003941875816
0.003941877091
0.003941878333
0.003941879429
0.00394188027
0.003941880746
0.003941876869
0.003941877498
0.003941878372
0.003941879408
0.003941880511
0.003941881583
0.003941882529
0.003941883252
0.003941883661
0.003941880326
0.003941880869
0.003941881622
0.003941882513
0.003941883461
0.003941884381
0.00394188519
0.003941885807
0.003941886156
0.003941883313
0.003941883777
0.003941884421
0.003941885183
0.00394188599
0.003941886773
0.003941887459
0.003941887982
0.003941888276
0.003941885876
0.00394188627
0.003941886817
0.003941887461
0.003941888143
0.003941888802
0.003941889379
0.003941889816
0.003941890062
0.003941888061
0.003941888393
0.003941888851
0.003941889391
0.003941889961
0.00394189051
0.003941890989
0.003941891351
0.003941891554
0.003941889909
0.003941890184
0.003941890565
0.003941891011
0.003941891482
0.003941891933
0.003941892326