/*--------------------------------*- C++ -*----------------------------------*\
| =========                 |                                                 |
| \\      /  F ield         | OpenFOAM: The Open Source CFD Toolbox           |
|  \\    /   O peration     | Version:  2212                                  |
|   \\  /    A nd           | Website:  www.openfoam.com                      |
|    \\/     M anipulation  |                                                 |
\*---------------------------------------------------------------------------*/
FoamFile
{
    version     2.0;
    format      ascii;
    arch        "LSB;label=32;scalar=64";
    class       volScalarField;
    location    "30.00000000";
    object      CO_0;
}
// * * * * * * * * * * * * * * * * * * * * * * * * * * * * * * * * * * * * * //

dimensions      [0 0 0 0 0 0 0];

internalField   nonuniform List<scalar> 
3000
(
2.023575013e-21
2.273308424e-21
2.650147331e-21
3.152298764e-21
3.774628832e-21
4.500193486e-21
5.285242015e-21
6.034240468e-21
6.563808613e-21
7.597697229e-21
8.569743005e-21
1.003588176e-20
1.199386053e-20
1.444156515e-20
1.736520345e-20
2.071377997e-20
2.431858493e-20
2.75114191e-20
1.701977592e-20
1.934795868e-20
2.289302702e-20
2.770601073e-20
3.387282803e-20
4.148205735e-20
5.050273249e-20
6.04287282e-20
6.891068701e-20
3.242139151e-20
3.724220709e-20
4.469033675e-20
5.501707623e-20
6.858681257e-20
8.574216135e-20
1.063871381e-19
1.288696686e-19
1.470148481e-19
5.757894891e-20
6.695154762e-20
8.166025294e-20
1.024512346e-19
1.303004821e-19
1.659859809e-19
2.0890913e-19
2.544885898e-19
2.894778714e-19
9.902420586e-20
1.166154962e-19
1.446182698e-19
1.848190584e-19
2.39361886e-19
3.096201157e-19
3.934977875e-19
4.804214703e-19
5.447343632e-19
1.681317368e-19
2.004442148e-19
2.524799658e-19
3.280255113e-19
4.312867084e-19
5.643173017e-19
7.216168076e-19
8.814382231e-19
9.967572323e-19
2.845823207e-19
3.430562837e-19
4.380576594e-19
5.770439834e-19
7.677611931e-19
1.012951332e-18
1.300311183e-18
1.588014109e-18
1.79213826e-18
4.825001758e-19
5.871992337e-19
7.583947088e-19
1.010108263e-18
1.356105189e-18
1.799695827e-18
2.315818313e-18
2.827176792e-18
3.185985208e-18
8.21040811e-19
1.007042953e-18
1.312550081e-18
1.763158237e-18
2.382869948e-18
3.175231656e-18
4.092005599e-18
4.993674247e-18
5.621697772e-18
1.402892278e-18
1.731444965e-18
2.272743557e-18
3.072619465e-18
4.17249266e-18
5.575366316e-18
7.19163171e-18
8.7732263e-18
9.869635948e-18
2.406489089e-18
2.984477708e-18
3.938652007e-18
5.350020695e-18
7.289552391e-18
9.757786621e-18
1.259178094e-17
1.535535965e-17
1.726711157e-17
4.142205851e-18
5.156266353e-18
6.832537974e-18
9.31299598e-18
1.271834745e-17
1.704118822e-17
2.198704923e-17
2.679648506e-17
3.013602464e-17
7.150098674e-18
8.926474564e-18
1.186580188e-17
1.621629214e-17
2.218250352e-17
2.973304123e-17
3.832157768e-17
4.661356073e-17
5.252845254e-17
1.23690594e-17
1.547816977e-17
2.062841662e-17
2.825743536e-17
3.872057972e-17
5.193635767e-17
6.682365156e-17
8.052278057e-17
9.169972277e-17
2.142776612e-17
2.686376333e-17
3.588004038e-17
4.925955042e-17
6.766897964e-17
9.110510296e-17
1.181192392e-16
1.450880292e-16
1.620130679e-16
3.714611211e-17
4.663078632e-17
6.237072937e-17
8.573460924e-17
1.178722875e-16
1.587065095e-16
2.054307942e-16
2.507350518e-16
2.815041893e-16
6.44120434e-17
8.092954862e-17
1.083440101e-16
1.490289196e-16
2.049512261e-16
2.759008737e-16
3.568907536e-16
4.35226689e-16
4.888503307e-16
1.117065442e-16
1.404363527e-16
1.881219472e-16
2.588792978e-16
3.560972965e-16
4.793633669e-16
6.199794374e-16
7.559397962e-16
8.490715828e-16
1.937509543e-16
2.436880006e-16
3.265780556e-16
4.495659963e-16
6.18516441e-16
8.32676657e-16
1.076910058e-15
1.313003062e-15
1.474708267e-15
3.361029184e-16
4.228698722e-16
5.669031701e-16
7.806110151e-16
1.07415816e-15
1.446195271e-15
1.870386636e-15
2.280349589e-15
2.561096388e-15
5.831371115e-16
7.338673749e-16
9.840938997e-16
1.355364974e-15
1.865304167e-15
2.511505335e-15
3.248156094e-15
3.959958603e-15
4.447319194e-15
1.011903952e-15
1.273720786e-15
1.708375329e-15
2.353278697e-15
3.238981463e-15
4.361201421e-15
5.640270563e-15
6.875958223e-15
7.721904772e-15
1.756195615e-15
2.210936029e-15
2.965870982e-15
4.085922765e-15
5.624021155e-15
7.572536872e-15
9.792954292e-15
1.193763382e-14
1.340566293e-14
3.048326364e-15
3.838103142e-15
5.149193026e-15
7.094195311e-15
9.764733778e-15
1.314715222e-14
1.700061356e-14
2.072169473e-14
2.326821667e-14
5.29164784e-15
6.663217001e-15
8.939927697e-15
1.231692429e-14
1.695262064e-14
2.282239015e-14
2.950741251e-14
3.596061972e-14
4.037557448e-14
9.186349181e-15
1.15680918e-14
1.552105233e-14
2.138308934e-14
2.942759978e-14
3.960972966e-14
5.12009503e-14
6.238515216e-14
7.003369682e-14
1.594745653e-14
2.008281971e-14
2.69447819e-14
3.711749051e-14
5.107161669e-14
6.872439762e-14
8.880806083e-14
1.081744118e-13
1.21410908e-13
2.768214245e-14
3.486066869e-14
4.676866877e-14
6.441428489e-14
8.860510473e-14
1.191860381e-13
1.539496925e-13
1.874429902e-13
2.103166609e-13
4.80416139e-14
6.04982251e-14
8.115319806e-14
1.117422261e-13
1.536447913e-13
2.065653295e-13
2.666579014e-13
3.244872046e-13
3.63937298e-13
8.334480749e-14
1.049481903e-13
1.40750271e-13
1.937298616e-13
2.662294285e-13
3.576761644e-13
4.613647229e-13
5.609933461e-13
6.288574375e-13
1.445097879e-13
1.819453585e-13
2.439407421e-13
3.355870804e-13
4.608314941e-13
6.185469443e-13
7.970357931e-13
9.681883638e-13
1.084544972e-12
2.503617349e-13
3.151560251e-13
4.223598659e-13
5.806284551e-13
7.965468933e-13
1.067870795e-12
1.37418635e-12
1.667150115e-12
1.865819859e-12
4.33274959e-13
5.452417664e-13
7.302765975e-13
1.002994819e-12
1.374243254e-12
1.83951714e-12
2.363196559e-12
2.862424372e-12
3.19990718e-12
7.487488841e-13
9.418180897e-13
1.260413387e-12
1.729007196e-12
2.365177612e-12
3.159854936e-12
4.050940918e-12
4.897047297e-12
5.46683329e-12
1.291570526e-12
1.62357119e-12
2.170432867e-12
2.972707743e-12
4.058296574e-12
5.408971676e-12
6.916683325e-12
8.341491686e-12
9.296619689e-12
2.222922963e-12
2.791855012e-12
3.72691465e-12
5.09444834e-12
6.93757436e-12
9.219896659e-12
1.175403236e-11
1.413553833e-11
1.57235729e-11
3.815536856e-12
4.786352947e-12
6.377695301e-12
8.696451965e-12
1.180697244e-11
1.56373583e-11
1.986425264e-11
2.381140611e-11
2.642776723e-11
6.528319522e-12
8.176485118e-12
1.086965973e-11
1.477689238e-11
1.9989793e-11
2.636836125e-11
3.335838001e-11
3.983969809e-11
4.410764825e-11
1.112867811e-11
1.391008798e-11
1.843845434e-11
2.497530297e-11
3.364251547e-11
4.417220332e-11
5.562271499e-11
6.615824073e-11
7.304701139e-11
1.889120546e-11
2.355278479e-11
3.111052399e-11
4.195850546e-11
5.624221023e-11
7.345913162e-11
9.202616833e-11
1.089696424e-10
1.199664552e-10
3.191725427e-11
3.966920287e-11
5.21782356e-11
7.001971687e-11
9.333341628e-11
1.211969381e-10
1.50981095e-10
1.77929066e-10
1.952865882e-10
5.364358074e-11
6.642322538e-11
8.693817082e-11
1.159967073e-10
1.536578133e-10
1.982665674e-10
2.45515151e-10
2.878930472e-10
3.14981693e-10
8.96429118e-11
1.105120645e-10
1.438243364e-10
1.90661444e-10
2.508420618e-10
3.2146564e-10
3.955751696e-10
4.614683802e-10
5.032736007e-10
1.488692181e-10
1.826024413e-10
2.361265943e-10
3.107984897e-10
4.058912814e-10
5.164387515e-10
6.313717109e-10
7.326941882e-10
7.965135102e-10
2.455711706e-10
2.995122678e-10
3.845661624e-10
5.022792485e-10
6.508352915e-10
8.21923775e-10
9.981937831e-10
1.152319851e-09
1.248734252e-09
4.021959022e-10
4.87485534e-10
6.211128506e-10
8.045631557e-10
1.034012142e-09
1.295855383e-09
1.563289346e-09
1.795319232e-09
1.939540267e-09
6.537413009e-10
7.870518219e-10
9.945840146e-10
1.277227579e-09
1.627662426e-09
2.024075632e-09
2.425634757e-09
2.771524785e-09
2.985255069e-09
1.054201586e-09
1.260158994e-09
1.578778432e-09
2.009362476e-09
2.53876686e-09
3.13268683e-09
3.729726932e-09
4.240596468e-09
4.554589936e-09
1.686005972e-09
2.000537636e-09
2.484190639e-09
3.132986765e-09
3.924413687e-09
4.805471083e-09
5.684955002e-09
6.432991546e-09
6.890564583e-09
2.673699614e-09
3.148626513e-09
3.874752596e-09
4.842082853e-09
6.013465298e-09
7.30832984e-09
8.592681778e-09
9.67921384e-09
1.034104493e-08
4.203596079e-09
4.912899286e-09
5.99160227e-09
7.419447556e-09
9.136949703e-09
1.102341127e-08
1.288393941e-08
1.445044116e-08
1.540112785e-08
6.551790811e-09
7.60014423e-09
9.186650791e-09
1.127439142e-08
1.377049777e-08
1.649655516e-08
1.917168923e-08
2.141475702e-08
2.277176632e-08
1.012366051e-08
1.165793105e-08
1.396937929e-08
1.699509246e-08
2.059320237e-08
2.4503084e-08
2.832319236e-08
3.151490643e-08
3.344067879e-08
1.550864324e-08
1.773348049e-08
2.107186547e-08
2.542143598e-08
3.056934225e-08
3.613877232e-08
4.155974475e-08
4.607520257e-08
4.87935642e-08
2.355761165e-08
2.675656192e-08
3.15396509e-08
3.774593714e-08
4.506091529e-08
5.294471133e-08
6.059338488e-08
6.694798449e-08
7.076641878e-08
3.54899355e-08
4.005393538e-08
4.685700313e-08
5.565272359e-08
6.59824302e-08
7.707880588e-08
8.781434526e-08
9.671421446e-08
1.020539846e-07
5.304141758e-08
5.950722019e-08
6.911934359e-08
8.150842683e-08
9.601307997e-08
1.115504521e-07
1.265472558e-07
1.389574137e-07
1.463943114e-07
7.866778494e-08
8.776974355e-08
1.012696793e-07
1.186234616e-07
1.388866883e-07
1.605408368e-07
1.814005247e-07
1.986370401e-07
2.089565478e-07
1.158233027e-07
1.285631021e-07
1.474214945e-07
1.716083622e-07
1.997866945e-07
2.298389344e-07
2.587417387e-07
2.825965287e-07
2.968686443e-07
1.69340338e-07
1.870808123e-07
2.132977769e-07
2.468578264e-07
2.85882352e-07
3.274332412e-07
3.673430031e-07
4.002532862e-07
4.199345285e-07
2.459435425e-07
2.705347541e-07
3.068249253e-07
3.532051804e-07
4.070536211e-07
4.643120582e-07
5.192545049e-07
5.645338779e-07
5.916071572e-07
3.549418393e-07
3.88890218e-07
4.389312907e-07
5.028022184e-07
5.768660372e-07
6.555408019e-07
7.309823455e-07
7.93137413e-07
8.303052788e-07
5.09152508e-07
5.558471336e-07
6.246128952e-07
7.122935592e-07
8.138728345e-07
9.217030234e-07
1.025067353e-06
1.110233233e-06
1.161186465e-06
7.261239449e-07
7.901379828e-07
8.843427879e-07
1.004369946e-06
1.143338623e-06
1.290810895e-06
1.43218288e-06
1.548722311e-06
1.618513558e-06
1.029736286e-06
1.11722596e-06
1.245914218e-06
1.409799475e-06
1.599494443e-06
1.800807381e-06
1.993886717e-06
2.153209037e-06
2.248768669e-06
1.452270593e-06
1.57149838e-06
1.746819041e-06
1.97004649e-06
2.228443731e-06
2.502790148e-06
2.76616716e-06
2.98383126e-06
3.114666738e-06
2.037045484e-06
2.199057466e-06
2.437268005e-06
2.74059e-06
3.091836147e-06
3.465077912e-06
3.823905073e-06
4.121068438e-06
4.30018503e-06
2.841721697e-06
3.061209458e-06
3.383953704e-06
3.7950405e-06
4.271402915e-06
4.778202869e-06
5.266320237e-06
5.671577471e-06
5.916642522e-06
3.942365162e-06
4.238737968e-06
4.674633431e-06
5.230117913e-06
5.874394087e-06
6.560838204e-06
7.223371582e-06
7.774984259e-06
8.109726361e-06
5.438331258e-06
5.837011335e-06
6.423559992e-06
7.171485894e-06
8.039867102e-06
8.966551062e-06
9.86293367e-06
1.061138703e-05
1.106717535e-05
7.457978625e-06
7.991908474e-06
8.777706256e-06
9.780332872e-06
1.094564404e-05
1.219111032e-05
1.339838367e-05
1.44091187e-05
1.502661118e-05
1.016513229e-05
1.087644623e-05
1.192360917e-05
1.326044705e-05
1.48155869e-05
1.64798873e-05
1.809602448e-05
1.945209797e-05
2.02827879e-05
1.376608775e-05
1.47078513e-05
1.60945029e-05
1.78653591e-05
1.992665151e-05
2.213468984e-05
2.428157174e-05
2.608590636e-05
2.719334087e-05
1.851678256e-05
1.975464734e-05
2.157723037e-05
2.390494101e-05
2.661499775e-05
2.951919928e-05
3.234477959e-05
3.472160023e-05
3.61820517e-05
2.472957314e-05
2.634314016e-05
2.871824067e-05
3.175068169e-05
3.528029187e-05
3.906207269e-05
4.27412265e-05
4.583630777e-05
4.773861977e-05
3.277886763e-05
3.486250955e-05
3.792782828e-05
4.183874289e-05
4.638726181e-05
5.125676427e-05
5.599037874e-05
5.996968721e-05
6.24141301e-05
4.310471575e-05
4.576759005e-05
4.968167759e-05
5.466985857e-05
6.046360723e-05
6.665728491e-05
7.266914678e-05
7.771566628e-05
8.081167458e-05
5.621337564e-05
5.957837153e-05
6.451876899e-05
7.080523172e-05
7.809358556e-05
8.586924231e-05
9.340056872e-05
9.970919862e-05
0.0001035719778
7.267389652e-05
7.687535704e-05
8.303498886e-05
9.085786487e-05
9.990673105e-05
0.0001095359859
0.0001188375932
0.0001266082266
0.0001313543594
9.311010249e-05
9.829017896e-05
0.0001058717597
0.000115478877
0.000126561702
0.0001383200162
0.0001496423885
0.0001590714554
0.000164813685
0.000118187304
0.0001244910068
0.0001336996642
0.0001453390053
0.0001587255874
0.0001728802895
0.0001864620533
0.0001977330202
0.0002045745722
0.0001485938486
0.0001561629562
0.0001671973201
0.000181105784
0.0001970494642
0.0002138464444
0.000229901951
0.0002431753909
0.0002512042033
0.0001850178852
0.0001939840178
0.0002070262552
0.0002234173641
0.0002421413716
0.0002617913029
0.000280498156
0.0002959020811
0.0003051853578
0.0002281202429
0.0002385975199
0.0002538029388
0.0002728542861
0.0002945381605
0.0003172032041
0.0003386906243
0.0003563117889
0.0003668912799
0.0002785047344
0.0002905825119
0.0003080694489
0.0003299107728
0.0003546778363
0.0003804598059
0.0004047986958
0.0004246755177
0.0004365638791
0.0003366875113
0.0003504237258
0.00037026446
0.0003949672263
0.0004228740491
0.0004518049311
0.0004790003984
0.0005011180405
0.0005142965496
0.0004030672801
0.0004184829087
0.0004406963025
0.0004682656093
0.0004992942929
0.0005313298689
0.0005613167962
0.0005856047915
0.000600022597
0.0004778982346
0.0004949733215
0.0005195197892
0.0005498892575
0.0005839431752
0.0006189602771
0.0006516023053
0.0006779349247
0.0006935099312
0.0005612674728
0.0005799390716
0.0006067183254
0.0006397484434
0.0006766518407
0.0007144495137
0.0007495415483
0.0007777408248
0.0007943618221
0.0006530784606
0.0006732407151
0.00070209255
0.0007375727018
0.0007770742985
0.0008173788975
0.0008546530909
0.0008844945474
0.0009020251726
0.0007530417988
0.0007745482355
0.0008052564021
0.0008429105486
0.000884690988
0.0009271649176
0.000966299703
0.0009975201993
0.001015803766
0.0008606741629
0.0008833421099
0.0009156411006
0.0009551368192
0.0009988195412
0.00104307311
0.001083704732
0.001116012002
0.00113487718
0.0009753058333
0.0009989227246
0.001032507087
0.001073467433
0.001118632301
0.001164237947
0.001205973762
0.001239057037
0.001258324001
0.001096096745
0.001120427929
0.001154963532
0.00119698098
0.001243179803
0.001289687786
0.001332120489
0.001365661567
0.001385148301
0.001222060493
0.001246858052
0.001281994597
0.001324646179
0.001371419147
0.001418373747
0.001461095758
0.001494779994
0.001514308264
0.001352095261
0.0013771073
0.001412491296
0.001455354019
0.001502246157
0.001549201527
0.001591818331
0.001625344379
0.001644745439
0.001485020287
0.001510000212
0.001545287802
0.001587953476
0.001634529918
0.001681064644
0.001723208234
0.001756297879
0.001775416805
0.00161961658
0.001644331506
0.001679200081
0.001721289465
0.001767150252
0.001812880167
0.001854217111
0.001886619902
0.001905318009
0.001754671296
0.00177890995
0.001813068238
0.001854240647
0.001899028871
0.001943613901
0.001983851523
0.0020153492
0.002033506289
0.001889016174
0.001912592979
0.001945786412
0.001985746145
0.002029154479
0.00207230426
0.002111194752
0.002141603877
0.002159119491
0.002021557044
0.002044315319
0.002076330121
0.002114830658
0.002156605072
0.00219808178
0.00223542402
0.002264596905
0.002281390638
0.002151300095
0.002173113592
0.002203778571
0.002240624132
0.002280564875
0.002320183531
0.002355822778
0.002383646893
0.002399657907
0.002277371596
0.002298144493
0.00232733073
0.002362375459
0.002400335656
0.002437962232
0.002471788051
0.002498184178
0.002513370065
0.002399030639
0.002418696222
0.002446315006
0.002479460186
0.002515342488
0.002550890294
0.002582833102
0.002607752553
0.002622087725
0.002515675095
0.002534193402
0.002560192816
0.002591382609
0.002625134418
0.002658559255
0.00268858592
0.002712007117
0.002725480884
0.002626841363
0.002644196135
0.002668556722
0.002697772932
0.002729380723
0.002760675287
0.002788784183
0.002810708906
0.002823323396
0.00273219889
0.00274839411
0.002771124047
0.002798380384
0.002827863594
0.002857051575
0.002883267444
0.002903716982
0.00291548503
0.002831540594
0.0028465969
0.002867727031
0.002893063278
0.002920468177
0.002947598401
0.002971967317
0.002990978727
0.003001921834
0.002924770388
0.002938721573
0.002958300594
0.002981777005
0.003007170851
0.003032311749
0.003054896393
0.003072519011
0.003082665442
0.003011888947
0.003024778713
0.003042868733
0.00306456088
0.003088026585
0.003111261166
0.003132136556
0.003148428849
0.003157811925
0.003092978746
0.003104857812
0.003121530402
0.003141524626
0.003163156059
0.003184577507
0.003203827264
0.003218854082
0.00322751068
0.003168189192
0.003179112813
0.00319444563
0.003212835151
0.003232733138
0.003252441067
0.003270154237
0.003283984474
0.00329195375
0.003237722482
0.003247748391
0.003261822383
0.003278704086
0.003296973109
0.003315070472
0.003331338908
0.003344043565
0.003351365888
0.00330182064
0.003311007399
0.003323904559
0.003339376426
0.003356121976
0.003372712581
0.003387628833
0.003399279451
0.003405995539
0.003360753987
0.003369159704
0.003380961337
0.003395120445
0.003410446968
0.003425633559
0.003439289219
0.003449956646
0.003456106881
0.003414811175
0.00342249256
0.003433277983
0.003446219011
0.003460228354
0.003474111128
0.003486595598
0.003496349063
0.003501972961
0.003464290778
0.003471302444
0.003481148052
0.003492962209
0.003505752534
0.003518428134
0.003529827702
0.003538734098
0.003543869902
0.003509494383
0.003515888398
0.003524867047
0.00353564136
0.003547306389
0.003558867158
0.003569264356
0.003577387748
0.003582072145
0.003550721108
0.003556546713
0.003564727337
0.003574544198
0.003585172724
0.00359570623
0.00360517942
0.003612580719
0.003616848644
0.003588263304
0.003593566768
0.003601014172
0.003609951089
0.00361962672
0.003629215505
0.003637838638
0.003644575403
0.003648459918
0.003622403332
0.003627227907
0.003634002704
0.003642132226
0.00365093329
0.003659654765
0.003667497275
0.003673623617
0.003677155843
0.003653411253
0.003657797204
0.003663955849
0.0036713456
0.003679345173
0.003687271632
0.003694398433
0.003699964999
0.003703174099
0.00368154326
0.003685527942
0.003691122842
0.003697835643
0.003705101664
0.003712300382
0.003718771942
0.003723825957
0.003726739154
0.003707040723
0.0037106587
0.003715738367
0.003721832405
0.003728427856
0.003734961251
0.00374083372
0.003745419075
0.003748061691
0.003730129723
0.0037334129
0.003738022138
0.003743551185
0.003749534305
0.003755460136
0.003760785511
0.003764942882
0.003767338399
0.00375102096
0.003753998735
0.003758178841
0.003763192483
0.003768617012
0.003773988607
0.003778814928
0.003782581913
0.003784752053
0.003769909962
0.003772609376
0.00377639835
0.003780942236
0.003785857667
0.003790724165
0.003795095718
0.003798506997
0.003800471799
0.0037869775
0.003789423394
0.00379285615
0.003796972238
0.003801424078
0.003805830679
0.003809788212
0.003812875704
0.003814653621
0.003802390166
0.003804605328
0.003807713904
0.003811440704
0.003815470734
0.003819458946
0.00382303989
0.003825832919
0.003827440907
0.003816301048
0.003818306362
0.003821120124
0.003824492936
0.003828139463
0.003831747347
0.00383498603
0.003837511496
0.003838965108
0.003828850485
0.003830665068
0.003833210898
0.003836262044
0.003839560145
0.003842822559
0.003845750419
0.003848032955
0.003849346437
0.003840166842
0.003841808177
0.003844110662
0.003846869707
0.003849851464
0.003852800289
0.003855446079
0.003857508213
0.00385869459
0.003850367311
0.003851851374
0.003853932981
0.003856426934
0.00385912166
0.003861786022
0.003864176007
0.003866038316
0.003867109485
0.003859558704
0.003860900078
0.003862781313
0.003865034831
0.003867469281
0.003869875759
0.003872033905
0.003873715162
0.003874681973
0.003867838221
0.003869050209
0.003870749778
0.003872785346
0.003874983914
0.003877156741
0.003879104893
0.003880622202
0.003881494541
0.0038752942
0.003876388925
0.003877923873
0.003879761981
0.003881746892
0.00388370814
0.003885466187
0.003886835121
0.003887621985
0.003882006828
0.003882995332
0.003884381181
0.003886040481
0.003887831965
0.003889601718
0.003891187757
0.003892422478
0.003893132046
0.003888048815
0.003888941145
0.003890192019
0.003891689481
0.003893305936
0.003894902455
0.003896332933
0.00389744631
0.003898086013
0.003893486029
0.003894291322
0.003895420062
0.003896771111
0.003898229258
0.003899669134
0.00390095899
0.003901962707
0.003902539289
0.003898378088
0.003899104646
0.003900122918
0.003901341567
0.00390265659
0.003903954886
0.003905117676
0.003906022332
0.00390654191
0.003902778909
0.003903434274
0.003904352672
0.003905451639
0.003906637319
0.003907807698
0.003908855718
0.003909670923
0.003910139039
0.003906737224
0.003907328238
0.003908156374
0.0039091472
0.003910216032
0.003911270883
0.003912215276
0.003912949736
0.003913371411
0.003910297048
0.003910829917
0.003911576508
0.003912469653
0.003913432965
0.003914383513
0.00391523437
0.003915895968
0.003916275747
0.003913498112
0.003913978462
0.003914651408
0.003915456351
0.003916324404
0.003917180812
0.00391794727
0.00391854314
0.003918885131
0.003916376264
0.003916809193
0.003917415649
0.003918140975
0.003918923056
0.003919694524
0.003920384849
0.003920921441
0.003921229363
0.003918963833
0.003919353955
0.003919900401
0.003920553879
0.003921258394
0.003921953243
0.003922574909
0.003923058056
0.003923335267
0.003921289961
0.003921641454
0.003922133752
0.003922722411
0.003923356962
0.003923982716
0.00392454248
0.003924977452
0.003925226986
0.003923380909
0.003923697552
0.003924141004
0.003924671201
0.003925242661
0.00392580612
0.003926310085
0.003926701641
0.003926926238
0.003925260334
0.003925545543
0.003925944943
0.003926422423
0.003926937002
0.00392744431
0.003927897989
0.003928250427
0.00392845256
0.003926949537
0.003927206401
0.003927566082
0.003927996037
0.003928459345
0.003928916049
0.003929324419
0.003929641618
0.003929823516
0.003928467698
0.003928699008
0.003929022883
0.003929410001
0.003929827104
0.003930238212
0.003930605766
0.003930891224
0.003931054902
0.003929832079
0.003930040355
0.003930331958
0.003930680473
0.003931055944
0.003931425976
0.003931756765
0.003932013639
0.003932160911
0.003931058214
0.00393124573
0.003931508253
0.003931821986
0.003932159952
0.003932492984
0.003932790664
0.0039330218
0.003933154302
0.003932160076
0.003932328888
0.00393256521
0.003932847609
0.003933151791
0.003933451502
0.003933719368
0.003933927333
0.003934046539
0.003933150238
0.003933302198
0.003933514918
0.003933769093
0.003934042849
0.003934312555
0.003934553579
0.003934740684
0.003934847922
0.003934040004
0.003934176785
0.003934368246
0.003934597002
0.00393484336
0.00393508605
0.003935302909
0.003935471238
0.003935567706
0.003934839543
0.003934962652
0.003935134966
0.003935340833
0.003935562522
0.00393578089
0.003935975997
0.003936127428
0.003936214204
0.003935557994
0.003935668791
0.003935823865
0.003936009122
0.003936208601
0.003936405075
0.003936580604
0.003936716828
0.003936794882
0.003936203576
0.003936303287
0.003936442837
0.003936609539
0.003936789025
0.003936965793
0.003937123702
0.003937246241
0.003937316449
0.003936783677
0.003936873406
0.003936998981
0.003937148979
0.003937310469
0.0039374695
0.003937611554
0.003937721779
0.003937784926
0.003937304937
0.00393738568
0.003937498674
0.003937633636
0.003937778929
0.003937921998
0.003938049783
0.00393814893
0.003938205726
0.003937773325
0.003937845979
0.003937947648
0.003938069077
0.003938199792
0.003938328497
0.003938443444
0.003938532623
0.003938583705
0.003938194205
0.003938259576
0.003938351053
0.003938460302
0.003938577898
0.003938693678
0.003938797075
0.003938877286
0.003938923228
0.003938572396
0.003938631214
0.003938713516
0.003938811804
0.003938917595
0.003939021746
0.00393911475
0.003939186894
0.003939228213
0.00393891223
0.00393896515
0.003939039197
0.003939127621
0.00393922279
0.003939316476
0.003939400131
0.003939465019
0.003939502179
0.003939217601
0.003939265213
0.003939331829
0.003939411378
0.003939496989
0.003939581262
0.003939656506
0.003939714866
0.003939748286
0.003939492005
0.00393953484
0.003939594771
0.003939666333
0.003939743345
0.003939819149
0.003939886827
0.003939939315
0.003939969371
0.003939738586
0.003939777122
0.003939831038
0.003939895414
0.003939964689
0.003940032873
0.003940093745
0.003940140952
0.003940167983
0.003939960167
0.003939994835
0.003940043338
0.003940101249
0.003940163563
0.003940224894
0.003940279643
0.0039403221
0.003940346409
0.003940159284
0.003940190473
0.003940234106
0.003940286199
0.003940342252
0.003940397417
0.00394044666
0.003940484844
0.003940506705
0.003940338219
0.003940366276
0.003940405527
0.003940452388
0.003940502807
0.003940552426
0.003940596715
0.003940631057
0.003940650717
0.003940499017
0.003940524257
0.003940559566
0.003940601719
0.003940647072
0.003940691701
0.003940731535
0.00394076242
0.003940780101
0.003940643521
0.003940666226
0.003940697988
0.003940735906
0.0039407767
0.003940816841
0.003940852668
0.003940880445
0.003940896346
0.003940773381
0.003940793807
0.003940822379
0.003940856486
0.003940893179
0.003940929284
0.003940961507
0.003940986488
0.003941000788
0.003940890085
0.003940908459
0.00394093416
0.00394096484
0.003940997845
0.003941030319
0.0039410593
0.003941081767
0.003941094627
0.003940994966
0.003941011494
0.003941034614
0.00394106221
0.003941091897
0.003941121105
0.00394114717
0.003941167376
0.003941178941
0.003941089223
0.003941104091
0.003941124887
0.00394114971
0.003941176412
0.003941202683
0.003941226125
0.003941244297
0.003941254697
0.003941173932
0.003941187306
0.003941206013
0.003941228341
0.003941252358
0.003941275986
0.00394129707
0.003941313413
0.003941322766
0.003941250062
0.003941262092
0.003941278919
0.003941299002
0.003941320604
0.003941341856
0.003941360818
0.003941375515
0.003941383926
0.00394131848
0.003941329302
0.003941344437
0.003941362501
0.003941381931
0.003941401044
0.003941418098
0.003941431315
0.00394143888
0.003941379968
0.003941389702
0.003941403315
0.003941419563
0.003941437039
0.003941454229
0.003941469566
0.003941481452
0.003941488254
0.003941435226
0.003941443981
0.003941456226
0.00394147084
0.003941486557
0.003941502016
0.003941515809
0.003941526498
0.003941532615
0.003941484884
0.003941492758
0.003941503772
0.003941516915
0.00394153105
0.003941544953
0.003941557356
0.003941566968
0.003941572468
0.003941529507
0.003941536589
0.003941546494
0.003941558314
0.003941571025
0.003941583527
0.00394159468
0.003941603323
0.003941608268
0.003941569602
0.003941575971
0.003941584878
0.003941595507
0.003941606938
0.003941618179
0.003941628207
0.003941635977
0.003941640423
0.003941605624
0.003941611352
0.003941619361
0.003941628918
0.003941639195
0.003941649302
0.003941658317
0.003941665301
0.003941669298
0.003941637983
0.003941643133
0.003941650333
0.003941658925
0.003941668164
0.003941677249
0.003941685351
0.003941691629
0.00394169522
0.003941667045
0.003941671674
0.003941678147
0.003941685869
0.003941694172
0.003941702337
0.003941709618
0.003941715259
0.003941718485
0.003941693139
0.003941697299
0.003941703115
0.003941710055
0.003941717515
0.00394172485
0.003941731391
0.003941736457
0.003941739355
0.00394171656
0.003941720297
0.003941725522
0.003941731755
0.003941738456
0.003941745043
0.003941750916
0.003941755464
0.003941758066
0.003941737572
0.003941740928
0.00394174562
0.003941751216
0.003941757231
0.003941763144
0.003941768414
0.003941772496
0.003941774829
0.003941756414
0.003941759426
0.003941763636
0.003941768658
0.003941774054
0.003941779357
0.003941784084
0.003941787743
0.003941789836
0.003941773297
0.003941775999
0.003941779774
0.003941784277
0.003941789114
0.003941793867
0.003941798103
0.003941801381
0.003941803254
0.003941788414
0.003941790835
0.003941794217
0.003941798251
0.003941802583
0.003941806839
0.003941810629
0.003941813563
0.003941815239
0.003941801936
0.003941804102
0.00394180713
0.003941810739
0.003941814614
0.00394181842
0.003941821808
0.003941824429
0.003941825926
0.003941814016
0.003941815953
0.003941818659
0.003941821884
0.003941825345
0.003941828743
0.003941831768
0.003941834106
0.003941835441
0.003941824794
0.003941826523
0.003941828938
0.003941831815
0.003941834902
0.00394183793
0.003941840624
0.003941842706
0.003941843894
0.003941834396
0.003941835936
0.003941838087
0.003941840648
0.003941843395
0.003941846088
0.003941848483
0.003941850332
0.003941851386
0.003941842932
0.003941844301
0.003941846213
0.003941848488
0.003941850926
0.003941853316
0.003941855438
0.003941857076
0.003941858009
0.003941850506
0.00394185172
0.003941853414
0.003941855429
0.003941857588
0.003941859701
0.003941861577
0.003941863023
0.003941863846
0.003941857209
0.003941858282
0.003941859779
0.003941861558
0.003941863463
0.003941865326
0.003941866978
0.003941868249
0.003941868973
0.003941863124
0.00394186407
0.003941865388
0.003941866953
0.003941868627
0.003941870262
0.003941871711
0.003941872824
0.003941873457
0.003941868328
0.003941869157
0.003941870313
0.003941871684
0.003941873149
0.003941874578
0.003941875841
0.003941876812
0.003941877362
0.003941872889
0.003941873613
0.003941874621
0.003941875816
0.003941877091
0.003941878333
0.003941879429
0.00394188027
0.003941880746
0.003941876869
0.003941877498
0.003941878372
0.003941879408
0.003941880511
0.003941881583
0.003941882529
0.003941883252
0.003941883661
0.003941880326
0.003941880869
0.003941881622
0.003941882513
0.003941883461
0.003941884381
0.00394188519
0.003941885807
0.003941886156
0.003941883313
0.003941883777
0.003941884421
0.003941885183
0.00394188599
0.003941886773
0.003941887459
0.003941887982
0.003941888275
0.003941885876
0.00394188627
0.003941886817
0.003941887461
0.003941888143
0.003941888802
0.003941889379
0.003941889816
0.003941890062
0.003941888061
0.003941888393
0.003941888851
0.003941889391
0.003941889961
0.00394189051
0.003941890989
0.003941891351
0.003941891554
0.003941889909
0.003941890184
0.003941890565
0.003941891011
0.003941891482
0.003941891933
0.003941892326
0.003941892622