/*--------------------------------*- C++ -*----------------------------------*\
| =========                 |                                                 |
| \\      /  F ield         | OpenFOAM: The Open Source CFD Toolbox           |
|  \\    /   O peration     | Version:  2212                                  |
|   \\  /    A nd           | Website:  www.openfoam.com                      |
|    \\/     M anipulation  |                                                 |
\*---------------------------------------------------------------------------*/
FoamFile
{
    version     2.0;
    format      ascii;
    arch        "LSB;label=32;scalar=64";
    class       volScalarField;
    location    "30.00000000";
    object      H2;
}
// * * * * * * * * * * * * * * * * * * * * * * * * * * * * * * * * * * * * * //

dimensions      [0 0 0 0 0 0 0];

internalField   nonuniform List<scalar> 
3000
(
2.137972919e-21
2.401819447e-21
2.799953368e-21
3.330478717e-21
3.987969515e-21
4.754523369e-21
5.58391947e-21
6.375230392e-21
6.934717138e-21
8.027196518e-21
9.054171611e-21
1.060315499e-20
1.267175932e-20
1.525774406e-20
1.834653819e-20
2.188427973e-20
2.569274876e-20
2.906599465e-20
1.798184016e-20
2.044157367e-20
2.418693728e-20
2.927182799e-20
3.578700867e-20
4.382608292e-20
5.335640261e-20
6.384331831e-20
7.28046801e-20
3.425387784e-20
3.934705889e-20
4.721596632e-20
5.812606996e-20
7.246234879e-20
9.058686982e-20
1.123984401e-19
1.36151814e-19
1.553228857e-19
6.083298486e-20
7.073506096e-20
8.627465663e-20
1.082400676e-19
1.376624422e-19
1.753638732e-19
2.207122468e-19
2.688675571e-19
3.058343652e-19
1.046197451e-19
1.232046945e-19
1.527891802e-19
1.952605883e-19
2.528839707e-19
3.27110147e-19
4.157245695e-19
5.075564168e-19
5.755002599e-19
1.776309462e-19
2.117684056e-19
2.667430265e-19
3.465551085e-19
4.55647927e-19
5.961910151e-19
7.623729689e-19
9.312185773e-19
1.053048654e-18
3.006585066e-19
3.624346616e-19
4.628009405e-19
6.096359129e-19
8.111228011e-19
1.070158316e-18
1.373744306e-18
1.677692287e-18
1.89334203e-18
5.097532789e-19
6.203644995e-19
8.012269267e-19
1.06715383e-18
1.432687595e-18
1.901325313e-18
2.446589914e-18
2.986821164e-18
3.365888735e-18
8.674108547e-19
1.063915682e-18
1.386673161e-18
1.862724295e-18
2.51742652e-18
3.354526249e-18
4.323062109e-18
5.275639421e-18
5.939121109e-18
1.482117685e-18
1.829221755e-18
2.401083557e-18
3.246121276e-18
4.40809223e-18
5.890168204e-18
7.597681382e-18
9.268565187e-18
1.042687175e-17
2.542384149e-18
3.153007555e-18
4.161054817e-18
5.652104925e-18
7.701128731e-18
1.030869302e-17
1.330265767e-17
1.622222942e-17
1.824188918e-17
4.376111596e-18
5.447427261e-18
7.218336855e-18
9.838821688e-18
1.343639167e-17
1.800321817e-17
2.32282202e-17
2.830910987e-17
3.183710986e-17
7.553854857e-18
9.430527404e-18
1.253580052e-17
1.713188167e-17
2.343485906e-17
3.141157176e-17
4.048494869e-17
4.924506203e-17
5.549373655e-17
1.306753268e-17
1.635219852e-17
2.17932388e-17
2.985298215e-17
4.09068429e-17
5.48688344e-17
7.059693292e-17
8.506450262e-17
9.687772882e-17
2.263780812e-17
2.838077676e-17
3.790619955e-17
5.204124237e-17
7.149024415e-17
9.624974945e-17
1.247892757e-16
1.532862902e-16
1.711620449e-16
3.924382312e-17
4.926412863e-17
6.589296855e-17
9.057632209e-17
1.245290155e-16
1.676694382e-16
2.170324923e-16
2.648953772e-16
2.974024971e-16
6.804955693e-17
8.549987255e-17
1.144625561e-16
1.57445162e-16
2.165257427e-16
2.914823782e-16
3.770462611e-16
4.598062426e-16
5.164583318e-16
1.18014943e-16
1.483672313e-16
1.987458244e-16
2.734991519e-16
3.762074962e-16
5.064349628e-16
6.549922204e-16
7.986307726e-16
8.970220241e-16
2.046926868e-16
2.57449848e-16
3.450209951e-16
4.749545076e-16
6.534461963e-16
8.797007995e-16
1.137726886e-15
1.387152813e-15
1.55799e-15
3.550837508e-16
4.467507123e-16
5.989180344e-16
8.246946515e-16
1.134819346e-15
1.527866568e-15
1.976013328e-15
2.409128126e-15
2.705729528e-15
6.160687683e-16
7.753112337e-16
1.039668818e-15
1.431906704e-15
1.970643706e-15
2.653337789e-15
3.431589396e-15
4.183589478e-15
4.698472737e-15
1.069049399e-15
1.345651811e-15
1.804852587e-15
2.486175552e-15
3.421896548e-15
4.60749153e-15
5.9587934e-15
7.26426389e-15
8.157983461e-15
1.855373423e-15
2.335794355e-15
3.133362678e-15
4.31666702e-15
5.941626245e-15
8.000180217e-15
1.034599093e-14
1.26117866e-14
1.416271947e-14
3.220474533e-15
4.054852272e-15
5.439983156e-15
7.494825266e-15
1.031617663e-14
1.388960982e-14
1.796068701e-14
2.189190814e-14
2.458223937e-14
5.590482763e-15
7.039508328e-15
9.444791333e-15
1.301249648e-14
1.790998369e-14
2.411123564e-14
3.117378004e-14
3.799141802e-14
4.265569769e-14
9.705128876e-15
1.222137522e-14
1.639757057e-14
2.259065333e-14
3.108945989e-14
4.184660326e-14
5.409241267e-14
6.59082178e-14
7.398869722e-14
1.684805491e-14
2.121695366e-14
2.846643013e-14
3.921362012e-14
5.395577491e-14
7.260545784e-14
9.382330171e-14
1.142833247e-13
1.282673228e-13
2.924543124e-14
3.682934893e-14
4.940982709e-14
6.805194045e-14
9.360888343e-14
1.259168074e-13
1.626436623e-13
1.980284198e-13
2.221938304e-13
5.075465833e-14
6.391472904e-14
8.573614584e-14
1.180526215e-13
1.62321541e-13
2.18230649e-13
2.817168153e-13
3.428118996e-13
3.84489849e-13
8.805151981e-14
1.108749055e-13
1.486988288e-13
2.046703237e-13
2.812641418e-13
3.778751277e-13
4.874192656e-13
5.926741922e-13
6.64370756e-13
1.526706514e-13
1.922203118e-13
2.577167454e-13
3.545386049e-13
4.868559153e-13
6.53477991e-13
8.420465961e-13
1.022864623e-12
1.145792208e-12
2.645003364e-13
3.329537373e-13
4.462116723e-13
6.134181219e-13
8.415300655e-13
1.128176371e-12
1.451790404e-12
1.761298634e-12
1.971187801e-12
4.577431345e-13
5.760330105e-13
7.715172608e-13
1.059636621e-12
1.451850468e-12
1.94339964e-12
2.496652664e-12
3.024073235e-12
3.380614616e-12
7.910326263e-13
9.950049667e-13
1.331592197e-12
1.826648764e-12
2.49874545e-12
3.338300367e-12
4.279708407e-12
5.173596725e-12
5.775560087e-12
1.364508579e-12
1.715258196e-12
2.293002607e-12
3.140584098e-12
4.28747907e-12
5.714430482e-12
7.307286745e-12
8.812557953e-12
9.821624661e-12
2.348456156e-12
2.949517267e-12
3.937382177e-12
5.382144145e-12
7.329356495e-12
9.740567822e-12
1.241781323e-11
1.49338095e-11
1.661152483e-11
4.031006849e-12
5.056647359e-12
6.737856923e-12
9.187559945e-12
1.247374004e-11
1.652043857e-11
2.098603778e-11
2.515609846e-11
2.792021309e-11
6.896980908e-12
8.638222368e-12
1.148348734e-11
1.561137183e-11
2.111865959e-11
2.785744433e-11
3.524221068e-11
4.208954887e-11
4.659852345e-11
1.175711524e-11
1.469559754e-11
1.947969181e-11
2.638569388e-11
3.554236936e-11
4.666670204e-11
5.876386241e-11
6.989436573e-11
7.717216929e-11
1.995796083e-11
2.488278874e-11
3.286733112e-11
4.432792804e-11
5.941827924e-11
7.760750196e-11
9.722309172e-11
1.151234334e-10
1.267412819e-10
3.371948011e-11
4.190919337e-11
5.512463845e-11
7.397368007e-11
9.860398938e-11
1.280410853e-10
1.595072994e-10
1.879771639e-10
2.063149586e-10
5.667235023e-11
7.017367306e-11
9.184713773e-11
1.22546703e-10
1.623347012e-10
2.094627652e-10
2.593797905e-10
3.041510753e-10
3.3276962e-10
9.470356697e-11
1.167511983e-10
1.519446696e-10
2.014268464e-10
2.650062251e-10
3.396184856e-10
4.179137018e-10
4.87528617e-10
5.316950485e-10
1.572715842e-10
1.929096636e-10
2.494563933e-10
3.283453762e-10
4.288088838e-10
5.456003209e-10
6.670252849e-10
7.740711752e-10
8.414955112e-10
2.594266398e-10
3.164135575e-10
4.062705104e-10
5.306316699e-10
6.875786657e-10
8.683318567e-10
1.054560169e-09
1.217394056e-09
1.319255805e-09
4.248754665e-10
5.149806861e-10
6.561539549e-10
8.499656402e-10
1.092376588e-09
1.369014559e-09
1.651561511e-09
1.896705067e-09
2.0490774e-09
6.905717764e-10
8.314083423e-10
1.050659732e-09
1.349268971e-09
1.719505471e-09
2.138325634e-09
2.562588832e-09
2.928039165e-09
3.153856975e-09
1.113507232e-09
1.331089729e-09
1.66770094e-09
2.122611959e-09
2.681943605e-09
3.309456793e-09
3.940283091e-09
4.480072635e-09
4.811843854e-09
1.780638642e-09
2.112917979e-09
2.623880379e-09
3.309342904e-09
4.145540647e-09
5.076488067e-09
6.005816602e-09
6.79627609e-09
7.279807933e-09
2.823237889e-09
3.324947541e-09
4.092068587e-09
5.114090962e-09
6.35181193e-09
7.720133172e-09
9.077461276e-09
1.022580863e-08
1.092532163e-08
4.437419776e-09
5.186681923e-09
6.326263991e-09
7.834884177e-09
9.649815815e-09
1.164360699e-08
1.361029455e-08
1.526640342e-08
1.627156718e-08
6.913223542e-09
8.020526444e-09
9.696495857e-09
1.190240998e-08
1.454044483e-08
1.74222829e-08
2.025107722e-08
2.26236143e-08
2.405925824e-08
1.067525379e-08
1.229550757e-08
1.473705399e-08
1.793407142e-08
2.173736588e-08
2.587205959e-08
2.991378772e-08
3.329234366e-08
3.533177446e-08
1.633832774e-08
1.868710912e-08
2.221266643e-08
2.680827082e-08
3.225061549e-08
3.814278593e-08
4.388254181e-08
4.866770824e-08
5.155092484e-08
2.478482933e-08
2.816017654e-08
3.3209445e-08
3.976557692e-08
4.749969318e-08
5.584417841e-08
6.39499755e-08
7.06937629e-08
7.475188731e-08
3.726946989e-08
4.208088419e-08
4.925746663e-08
5.85448484e-08
6.946539314e-08
8.121432243e-08
9.260160516e-08
1.020606972e-07
1.077478429e-07
5.556020386e-08
6.23669754e-08
7.249471315e-08
8.556458214e-08
1.008912035e-07
1.173421186e-07
1.332581091e-07
1.464633124e-07
1.543983989e-07
8.212563846e-08
9.168700641e-08
1.058836188e-07
1.241612808e-07
1.455465612e-07
1.684565447e-07
1.905896396e-07
2.089371583e-07
2.199601133e-07
1.203808397e-07
1.337207176e-07
1.534925762e-07
1.788973756e-07
2.085648542e-07
2.402968056e-07
2.709184769e-07
2.962900137e-07
3.115359323e-07
1.750038258e-07
1.934927276e-07
2.208544973e-07
2.559510485e-07
2.968698296e-07
3.40579428e-07
3.827270305e-07
4.176436138e-07
4.386365084e-07
2.52333485e-07
2.777902651e-07
3.154136821e-07
3.636009584e-07
4.197059602e-07
4.795782726e-07
5.37284236e-07
5.850964094e-07
6.138639005e-07
3.608581924e-07
3.956754069e-07
4.470736376e-07
5.128205682e-07
5.892864824e-07
6.708268872e-07
7.493968468e-07
8.145133597e-07
8.537235219e-07
5.11807275e-07
5.591051696e-07
6.288590916e-07
7.179917298e-07
8.215627877e-07
9.319432133e-07
1.038284539e-06
1.126440977e-06
1.17956226e-06
7.198572347e-07
7.836679682e-07
8.776944986e-07
9.977328568e-07
1.137106357e-06
1.285565538e-06
1.428565789e-06
1.547133048e-06
1.618616907e-06
1.003948318e-06
1.089426701e-06
1.21528383e-06
1.3758227e-06
1.562080251e-06
1.760372943e-06
1.951323712e-06
2.109652536e-06
2.205136994e-06
1.388188422e-06
1.501842944e-06
1.669062565e-06
1.882185068e-06
2.129260435e-06
2.392142906e-06
2.645196639e-06
2.854988789e-06
2.981517748e-06
1.902810532e-06
2.052744726e-06
2.273179588e-06
2.553886765e-06
2.879047907e-06
3.224775325e-06
3.557411596e-06
3.833098083e-06
3.999344878e-06
2.585141713e-06
2.781293314e-06
3.069457594e-06
3.436085013e-06
3.860396216e-06
4.311193694e-06
4.744655942e-06
5.103748382e-06
5.320222576e-06
3.480538384e-06
3.734896847e-06
4.108271555e-06
4.582855503e-06
5.13157325e-06
5.714027462e-06
6.273674699e-06
6.737040075e-06
7.016245897e-06
4.643236696e-06
4.970017233e-06
5.449287167e-06
6.057835866e-06
6.760683545e-06
7.505991858e-06
8.221499299e-06
8.813498617e-06
9.170006836e-06
6.137068914e-06
6.552819427e-06
7.162006467e-06
7.934630403e-06
8.825896899e-06
9.769913196e-06
1.06752605e-05
1.142369808e-05
1.187409788e-05
8.035992504e-06
8.559610759e-06
9.326070952e-06
1.029693248e-05
1.141535139e-05
1.259838713e-05
1.373160063e-05
1.46674627e-05
1.523018434e-05
1.04243665e-05
1.107700799e-05
1.203126645e-05
1.323832119e-05
1.462670858e-05
1.609308119e-05
1.749574484e-05
1.865276622e-05
1.934781701e-05
1.33968914e-05
1.420175313e-05
1.537715936e-05
1.686167555e-05
1.856632419e-05
2.036367287e-05
2.208026311e-05
2.349443804e-05
2.434332084e-05
1.705811735e-05
1.804008924e-05
1.947228501e-05
2.127813728e-05
2.33479711e-05
2.552634577e-05
2.760338997e-05
2.931245767e-05
3.033763537e-05
2.152143883e-05
2.270662448e-05
2.443283053e-05
2.66055783e-05
2.909107507e-05
3.170178586e-05
3.418679677e-05
3.622851027e-05
3.745147025e-05
2.69075435e-05
2.832266507e-05
3.038081159e-05
3.296659611e-05
3.591853035e-05
3.901288431e-05
4.195207196e-05
4.436191633e-05
4.580300645e-05
3.334235428e-05
3.501406384e-05
3.744179635e-05
4.048611459e-05
4.395423253e-05
4.758068596e-05
5.10165908e-05
5.382719933e-05
5.550464347e-05
4.095456532e-05
4.290870954e-05
4.57424675e-05
4.928865242e-05
5.331815309e-05
5.752029066e-05
6.149100022e-05
6.473118656e-05
6.66612573e-05
4.987310662e-05
5.213368653e-05
5.540604817e-05
5.949190499e-05
6.412246276e-05
6.893790679e-05
7.347549163e-05
7.716884219e-05
7.936436742e-05
6.022090597e-05
6.280816379e-05
6.654685291e-05
7.120426782e-05
7.646849325e-05
8.1927235e-05
8.705629463e-05
9.122009957e-05
9.369003712e-05
7.211054004e-05
7.504079044e-05
7.92676817e-05
8.452110374e-05
9.044298016e-05
9.656586207e-05
0.0001023022338
0.0001069465603
0.0001096955283
8.564120228e-05
8.892596196e-05
9.365592221e-05
9.952099213e-05
0.0001061144675
0.0001129118776
0.0001192615679
0.0001243885226
0.0001274164332
0.0001008947129
0.0001045399403
0.00010977981
0.0001162622045
0.0001235300431
0.0001310009033
0.0001379593119
0.0001435625493
0.0001468643902
0.0001179317453
0.0001219372345
0.0001276850332
0.0001347796051
0.0001427125871
0.0001508437147
0.0001583952172
0.0001644597415
0.0001680255337
0.0001367884747
0.0001411474482
0.0001473918712
0.0001550821577
0.0001636587007
0.0001724246111
0.0001805425539
0.000187044853
0.0001908598015
0.0001574738438
0.000162172784
0.0001688930423
0.0001771512008
0.0001863374589
0.0001957006514
0.0002043477902
0.0002112563214
0.0002153011852
0.0001799676259
0.0001849863731
0.0001921524133
0.0002009396167
0.0002106900779
0.0002206018134
0.0002297311812
0.0002370072011
0.0002412590122
0.0002042194355
0.0002095315636
0.0002171046759
0.0002263719691
0.00023663054
0.0002470320663
0.000256588166
0.0002641865613
0.0002686184117
0.0002301487822
0.0002357222439
0.0002436560411
0.000253345629
0.0002640471671
0.0002748713867
0.0002847918513
0.0002926627023
0.0002972454299
0.0002576461998
0.0002634442085
0.0002716859212
0.0002817328073
0.0002928049926
0.0003039784044
0.0003141957987
0.0003222857741
0.0003269885546
0.0002865753992
0.0002925574925
0.0003010494968
0.0003113833622
0.0003227487722
0.0003341935475
0.000344637222
0.0003528909836
0.0003576820837
0.0003167763125
0.0003228995262
0.0003315809993
0.0003421281869
0.0003537064206
0.0003653424493
0.0003759402881
0.0003843017543
0.0003891491808
0.0003480688117
0.0003542888884
0.0003630974807
0.0003737829496
0.0003854926485
0.0003972393904
0.0004079192691
0.0004163325538
0.0004212044286
0.0003802568012
0.0003865293676
0.0003954028023
0.0004061519449
0.0004179126203
0.0004296906765
0.0004403815071
0.0004487915266
0.0004536552522
0.0004131322685
0.0004194139647
0.0004282915368
0.0004390317875
0.0004507656183
0.0004624984034
0.0004731297922
0.0004814831744
0.0004863119677
0.0004464786796
0.0004527284019
0.0004615527795
0.0004722146059
0.0004838480747
0.0004954689272
0.0005059930175
0.0005142576682
0.0005190340464
0.0004800730165
0.0004862529594
0.0004949743172
0.0005055067555
0.0005169920126
0.0005284572003
0.0005388349753
0.0005469818146
0.0005516896474
0.0005137269498
0.0005198130592
0.0005283987434
0.0005387627614
0.0005500587162
0.0005613294337
0.0005715272696
0.0005795310857
0.0005841563313
0.0005472912264
0.0005532627798
0.0005616844
0.0005718467643
0.0005829187455
0.0005939621865
0.0006039518971
0.0006117916009
0.0006163225096
0.0005806273921
0.0005864671667
0.0005947011839
0.0006046346215
0.0006154543894
0.0006262439559
0.000636002817
0.0006436614575
0.0006480885821
0.0006136102374
0.000619304569
0.0006273323997
0.0006370155501
0.0006475611584
0.0006580763215
0.0006675868981
0.0006750515108
0.0006793676174
0.0006461294436
0.0006516681251
0.0006594759772
0.0006688931281
0.0006791485909
0.000689374539
0.0006986243497
0.0007058856892
0.0007100856041
0.0006780904489
0.0006834665033
0.0006910450416
0.0007001856986
0.0007101405032
0.0007200676478
0.0007290487179
0.0007361009125
0.0007401813306
0.0007094146476
0.0007146240166
0.000721967919
0.0007308262647
0.0007404747808
0.000750098175
0.0007588065214
0.0007656466832
0.0007696059528
0.0007400390419
0.0007450802257
0.0007521876771
0.0007607619669
0.0007701028013
0.0007794215129
0.000787856599
0.000794484415
0.0007983223141
0.0007699154638
0.0007747891389
0.0007816613006
0.0007899532365
0.0007989885716
0.0008080050495
0.0008161692375
0.0008225865625
0.0008263040764
0.0007990094771
0.0008037181143
0.0008103585976
0.0008183727123
0.000827107661
0.0008358271208
0.0008437251452
0.0008499356116
0.0008535347205
0.0008272990601
0.0008318465616
0.0008382609281
0.0008460040034
0.0008544460031
0.0008628758538
0.000870514332
0.0008765229879
0.0008800064694
0.0008547731643
0.0008591645292
0.0008653598329
0.0008728403694
0.0008809986316
0.0008891479573
0.0008965349476
0.0009023479301
0.0009057191806
0.0008814302252
0.0008856712526
0.0008916556345
0.0008988833817
0.0009067684072
0.0009146475098
0.0009217921224
0.0009274163705
0.0009306792478
0.0009072766926
0.0009113737249
0.0009171560627
0.0009241416159
0.0009317647775
0.0009393847847
0.0009462968487
0.0009517398554
0.000954898542
0.0009323256276
0.0009362853354
0.0009418749503
0.000948629412
0.0009560026054
0.000963375143
0.0009700649255
0.0009753345298
0.0009783934171
0.0009565954037
0.00096042461
0.000965831027
0.0009723657308
0.0009795010895
0.0009866380121
0.0009931159884
0.0009982202027
0.001001183795
0.0009801085318
0.0009838140721
0.0009890468292
0.0009953731203
0.001002282789
0.001009195966
0.001015472634
0.001020419504
0.001023292341
0.001002890625
0.001006479241
0.001011547743
0.001017676807
0.001024372758
0.001031073899
0.00103715964
0.001041957144
0.00104474374
0.001024969488
0.001028447744
0.00103336115
0.001039303882
0.001045797796
0.001052298344
0.00105820331
0.001062859265
0.001065564056
0.001046374352
0.001049748576
0.001054515723
0.001060282652
0.001066585821
0.001072896849
0.001078630884
0.001083152882
0.001085780188
0.001067135244
0.001070411496
0.001075040851
0.001080642066
0.001086765326
0.001092897474
0.001098470051
0.001102865417
0.001105419417
0.001087282462
0.001090466507
0.001094966128
0.001100411244
0.001106364933
0.001112328366
0.001117748552
0.001122024313
0.001124509025
0.001106846147
0.001109943443
0.001114320969
0.001119619105
0.001125413037
0.001131217423
0.001136493857
0.001140656717
0.001143075984
0.001125855958
0.001128871654
0.001133134291
0.001138294063
0.001143937525
0.001149592022
0.001154732899
0.001158789234
0.001161146719
0.00114434081
0.001147279747
0.001151434279
0.001156463802
0.001161965551
0.001167478808
0.001172491883
0.001176447734
0.001178746912
0.001162328685
0.001165195406
0.0011692482
0.0011741551
0.001179523375
0.001184903539
0.001189796127
0.001193657202
0.001195901363
0.001179846494
0.001182645251
0.001186602275
0.001191393704
0.001196636238
0.001201890969
0.001206669956
0.001210441637
0.001212633886
0.001196919984
0.001199654754
0.001203521588
0.001208204244
0.001213328288
0.001218464774
0.00122313663
0.001226823977
0.001228967241
0.001213573677
0.001216248174
0.001220030037
0.001224610181
0.001229622523
0.001234647499
0.001239218293
0.001242826063
0.001244923091
0.001229830848
0.001232448537
0.001236150298
0.001240633783
0.001245540768
0.001250460539
0.001254935957
0.001258468607
0.001260521984
0.001245713512
0.001248277625
0.001251903828
0.001256296116
0.001261103673
0.001265924133
0.001270309496
0.001273771203
0.001275783347
0.001261242439
0.001263755988
0.001267310869
0.001271617056
0.00127633072
0.001281057375
0.001285357658
0.001288752328
0.001290725506
0.001276437181
0.001278902971
0.001282390478
0.001286615315
0.001291240249
0.001295878239
0.001300098088
0.001303429373
0.001305365703
0.001291316102
0.001293736746
0.001297160556
0.001301308471
0.001305849489
0.001310403608
0.001314547361
0.00131781867
0.001319720132
0.001305896426
0.001308274355
0.001311637893
0.00131571301
0.001320174598
0.001324649317
0.001328721018
0.001331935534
0.001333803975
0.001320194279
0.001322531757
0.001325838211
0.001329844371
0.001334230708
0.001338630193
0.001342633613
0.001345794301
0.001347631447
0.001334224746
0.001336523879
0.001339776214
0.001343716993
0.00134803197
0.001352360101
0.001356298753
0.001359408379
0.001361215835
0.001348001915
0.001350264663
0.001353465641
0.001357344365
0.001361591605
0.001365851994
0.00136972915
0.001372790291
0.001374569554
0.00136153894
0.001363767125
0.001366919313
0.001370739079
0.001374921952
0.001379117962
0.001382936669
0.001385951721
0.001387704186
0.001374848086
0.001377043402
0.00138014919
0.001383912877
0.001388034519
0.00139216928
0.001395932371
0.001398903567
0.001400630531
0.001387940785
0.001390104809
0.001393166417
0.001396876704
0.001400940032
0.001405016454
0.001408726567
0.001411655983
0.001413358654
0.001400827685
0.001402961883
0.001405981377
0.001409640754
0.001413648482
0.001417669272
0.00142132886
0.001424218428
0.001425897928
0.001413518703
0.001415624438
0.001418603737
0.001422214521
0.001426169171
0.001430136846
0.00143374819
0.001436599707
0.001438257081
0.001426023067
0.001428101605
0.001431042496
0.00143460684
0.001438510758
0.001442427659
0.001445992881
0.001448808016
0.001450444234
0.001438349365
0.001440401884
0.001443306028
0.001446825933
0.001450681301
0.001454549604
0.001458070675
0.001460850982
0.001462466948
0.001450505589
0.001452533184
0.001455402122
0.001458879451
0.001462688295
0.001466510025
0.001469988779
0.001472735702
0.001474332255
0.001462499171
0.00146450286
0.001467338028
0.001470774512
0.001474538718
0.001478315755
0.001481753897
0.001484468778
0.001486046698
0.001474337026
0.001476317756
0.001479120489
0.001482517736
0.001486239057
0.001489973152
0.001493372267
0.001496056354
0.001497616367
0.001486025588
0.001487984239
0.001490755778
0.001494115285
0.001497795351
0.001501488131
0.001504849693
0.001507504148
0.001509046928
0.001497570842
0.001499508234
0.001502249732
0.001505572892
0.00150921322
0.001512866197
0.001516191578
0.00151881748
0.001520343655
0.001508978359
0.001510895253
0.001513607785
0.001516895892
0.001520497893
0.001524112476
0.001527402952
0.001530001305
0.001531511459
0.001520253324
0.001522150428
0.001524834993
0.001528089254
0.001531654241
0.00153523174
0.001538488497
0.001541060237
0.001542554913
0.001531400563
0.001533278539
0.001535936067
0.001539157603
0.001542686798
0.001546228433
0.001549452578
0.001551998574
0.001553478278
0.001542424574
0.001544284035
0.001546915393
0.001550105249
0.001553599791
0.001557106698
0.00156029926
0.001562820323
0.001564285526
0.001553329546
0.001555171065
0.001557777061
0.00156093621
0.00156439716
0.001567870398
0.001571032335
0.001573529221
0.001574980362
0.001564119385
0.001565943496
0.001568524881
0.001571654233
0.001575082578
0.001578523134
0.001581655341
0.001584128754
0.001585566242
0.001574797734
0.001576604936
0.001579162412
0.001582262811
0.001585659475
0.001589068269
0.001592171581
0.001594622177
0.001596046393
0.001585367994
0.00158715875
0.001589692972
0.001592765209
0.001596131053
0.001599508945
0.001602584139
0.001605012532
0.001606423833
0.00159583334
0.001597608084
0.001600119663
0.001603164476
0.001606500303
0.001609848095
0.001612895899
0.001615302662
0.00161670138
0.001606196739
0.001607955876
0.001610445385
0.001613463462
0.001616770023
0.001620088465
0.00162310956
0.001625495226
0.001626881673
0.001616460966
0.001618204876
0.001620672847
0.001623664834
0.001626942832
0.001630232625
0.001633227646
0.001635592718
0.001636967184
0.001626628618
0.001628357654
0.001630804589
0.001633771089
0.001637021181
0.001640282982
0.001643252524
0.00164559747
0.001646960228
0.001636702127
0.001638416623
0.001640842988
0.001643784566
0.001647007369
0.001650241793
0.001653186413
0.001655511672
0.001656862978
0.001646683774
0.001648384039
0.001650790275
0.00165370746
0.001656903551
0.001660111174
0.001663031396
0.001665337381
0.001666677474
0.001656575696
0.001658262024
0.001660648541
0.001663541831
0.001666711751
0.001669893116
0.00167278943
0.001675076526
0.001676405631
0.001666379903
0.001668052566
0.001670419752
0.001673289613
0.001676433871
0.001679589485
0.001682462352
0.001684730924
0.001686049251
0.00167609828
0.001677757537
0.001680105754
0.001682952625
0.001686071699
0.00168920204
0.001692051894
0.001694302282
0.001695610029
0.001685732603
0.001687378696
0.001689708285
0.001692532578
0.001695626918
0.001698732434
0.001701559682
0.001703792207
0.001705089562
0.00169528454
0.001696917696
0.00169922898
0.001702031081
0.00170510111
0.001708182225
0.001710987249
0.001713202213
0.001714489351
0.001704755663
0.001706376096
0.001708669376
0.001711449652
0.001714495767
0.001717552877
0.001720336038
0.001722533725
0.001723810812
0.001714147451
0.001715755363
0.001718030923
0.001720789716
0.001723812291
0.001726845771
0.001729607408
0.001731788085
0.001733055274
0.001723461296
0.001725056876
0.001727314984
0.001730052616
0.001733052003
0.001736062203
0.001738802635
0.001740966552
0.00174222399
0.001732698508
0.001734281934
0.001736522839
0.001739239613
0.001742216143
0.001745203392
0.001747922916
0.001750070309
0.001751318132
0.001741860315
0.001743431754
0.001745655692
0.001748351891
0.001751305871
0.001754270477
0.001756969373
0.00175910046
0.001760338795
0.001750947868
0.001752507475
0.001754714665
0.001757390554
0.00176032227
0.00176326452
0.001765943045
0.00176805803
0.001769286995
0.00175996224
0.001761510159
0.001763700804
0.001766356626
0.001769266345
0.001772186501
0.001774844894
0.001776943964
0.001778163667
0.001768904423
0.001770440786
0.001772615072
0.00177525105
0.001778139013
0.001781037317
0.001783675794
0.001785759117
0.001786969656
0.001777775324
0.001779300251
0.001781458345
0.00178407468
0.001786941105
0.00178981777
0.001792436524
0.00179450425
0.00179570571
0.001786575759
0.001788089355
0.001790231405
0.001792828274
0.001795673349
0.001798528561
0.001801127757
0.001803180014
0.001804372469
0.001795306442
0.001796808797
0.001798934927
0.001801512477
0.00180433636
0.001807170272
0.001809750042
0.001811786933
0.00181297044
0.001803967969
0.001805459154
0.001807569462
0.001810127807
0.001812930617
0.001815743341
0.001818303785
0.00182032538
0.001821499981
0.001812560801
0.001814040865
0.001816135417
0.001818674632
0.001821456442
0.001824248045
0.001826789213
0.00182879555
0.001829961261
0.001821085235
0.001822554201
0.001824633025
0.001827153134
0.001829913965
0.001832684455
0.001835206346
0.001837197414
0.001838354227
0.001829541375
0.001830999232
0.001833062307
0.001835563279
0.001838303081
0.001841052397
0.001843554942
0.001845530679
0.001846678552
0.001837929086
0.001839375784
0.001841423033
0.001843904761
0.001846623403
0.001849351397
0.001851834447
0.001853794722
0.001854933573
0.001846247949
0.001847683388
0.001849714661
0.001852176951
0.001854874202
0.001857580621
0.001860043924
0.001861988524
0.001863118223
0.001854497196
0.001855921218
0.001857936279
0.001860378826
0.001863054331
0.00186573879
0.001868181973
0.001870110585
0.00187123094
0.001862675645
0.001864088016
0.001866086523
0.001868508892
0.001871162143
0.001873824103
0.001876246643
0.001878158831
0.001879269577
0.001870781613
0.001872182013
0.001874163495
0.001876565089
0.001879195397
0.001881834127
0.001884235324
0.001886130506
0.001887231291
0.001878812831
0.001880200831
0.001882164665
0.001884544695
0.001887151156
0.0018897657
0.001892144637
0.001894022056
0.001895112424
0.001886766336
0.001888141385
0.001890086765
0.001892444217
0.001895025668
0.001897614804
0.001899970315
0.00190182901
0.00190290838
0.001894638371
0.001895999768
0.001897925677
0.001900259273
0.001902814253
0.001905376449
0.001907707077
0.001909545849
0.001910613501
0.001902424265
0.001903771143
0.001905676318
0.001907984475
0.001910511184
0.001913044554
0.001915348509
0.001917165888
0.001918220942
0.001910118329
0.001911449625
0.001913332528
0.001915613322
0.00191810957
0.001920611831
0.001922886948
0.001924681164
0.001925722556
0.001917713743
0.00191902818
0.001920886964
0.001923138088
0.00192560126
0.001928069685
0.001930313391
0.001932082339
0.001933108811
0.001925202464
0.001926498531
0.00192833101
0.00193054974
0.001932976754
0.001935408141
0.001937617419
0.001939358635
0.001940368716
0.001932575149
0.001933851082
0.001935654711
0.001937837878
0.001940225156
0.001942615799
0.001944787161
0.00194649781
0.001947489809
0.001939821104
0.001941074875
0.00194284673
0.001944990706
0.00194733416
0.001949679831
0.001951809312
0.001953486174
0.001954458175
0.001946928275
0.001948157587
0.001949894363
0.001951995053
0.001954290081
0.001956586034
0.001958669196
0.001960308676
0.001961258543
0.001953883275
0.001955085567
0.001956783585
0.001958836441
0.001961077948
0.001963318943
0.001965350896
0.001966949046
0.00196787444
0.001960671479
0.00196184394
0.001963499172
0.001965499225
0.001967681659
0.001969862008
0.001971837464
0.001973390023
0.001974288426
0.001967277164
0.001968416763
0.001970024871
0.00197196679
0.001974084214
0.001976197851
0.001978111192
0.001979613652
0.001980482409
0.001973683725
0.001974787253
0.001976343657
0.001978221826
0.001980268007
0.001982308595
0.001984153976
0.001985601665
0.001986438031
0.001979873957
0.001980938082
0.00198243804
0.001984246667
0.001986215206
0.001988176266
0.001989947738
0.001991335925
0.001992137134
0.001985830401
0.001986851742
0.001988290454
0.001990023699
0.001991908177
0.001993783248
0.001995474916
0.001996798938
0.001997562277
0.001991535752
0.001992510962
0.001993883694
0.001995535828
0.001997329983
0.001999112802
0.002000718993
0.002001974396
0.002002697292
0.001996973321
0.001997899181
0.001999201404
0.002000766976
0.002002464895
0.002004149602
0.002005665054
0.002006847744
0.002007527853
0.002002127525
0.002003001053
0.002004228588
0.00200570261
0.002007298934
0.002008880276
0.002010300334
0.002011406736
0.002012042032
0.002006984404
0.002007802955
0.002008952129
0.002010330261
0.002011820391
0.002013293932
0.002014614733
0.002015641939
0.002016230809
0.002011532121
0.002012293495
0.002013361286
0.002014640014
0.002016020304
0.002017382616
0.002018601267
0.002019547171
0.002020088486
0.00201576143