/*--------------------------------*- C++ -*----------------------------------*\
| =========                 |                                                 |
| \\      /  F ield         | OpenFOAM: The Open Source CFD Toolbox           |
|  \\    /   O peration     | Version:  2212                                  |
|   \\  /    A nd           | Website:  www.openfoam.com                      |
|    \\/     M anipulation  |                                                 |
\*---------------------------------------------------------------------------*/
FoamFile
{
    version     2.0;
    format      ascii;
    arch        "LSB;label=32;scalar=64";
    class       volScalarField;
    location    "30.00000000";
    object      H2_0;
}
// * * * * * * * * * * * * * * * * * * * * * * * * * * * * * * * * * * * * * //

dimensions      [0 0 0 0 0 0 0];

internalField   nonuniform List<scalar> 
3000
(
2.137965127e-21
2.401811565e-21
2.799945849e-21
3.330472733e-21
3.987967043e-21
4.754526478e-21
5.583928715e-21
6.375243753e-21
6.934731502e-21
8.027169356e-21
9.054144797e-21
1.060313093e-20
1.267174328e-20
1.525774358e-20
1.834655847e-20
2.188431609e-20
2.569278507e-20
2.906601774e-20
1.798178718e-20
2.044152336e-20
2.418689644e-20
2.927180895e-20
3.578702364e-20
4.382612475e-20
5.335641936e-20
6.384322066e-20
7.280443263e-20
3.425379609e-20
3.934698454e-20
4.721591164e-20
5.812605179e-20
7.246236643e-20
9.05868483e-20
1.123981655e-19
1.3615099e-19
1.553214836e-19
6.083287849e-20
7.073496846e-20
8.627459393e-20
1.082400505e-19
1.376624498e-19
1.753637656e-19
2.207116932e-19
2.688661772e-19
3.058322526e-19
1.046196369e-19
1.232046124e-19
1.527891484e-19
1.952606454e-19
2.528841785e-19
3.271106195e-19
4.157255376e-19
5.075582283e-19
5.755029631e-19
1.776309e-19
2.117684159e-19
2.667431321e-19
3.465553645e-19
4.556484272e-19
5.961919455e-19
7.623746577e-19
9.312213508e-19
1.053052332e-18
3.006586536e-19
3.624349344e-19
4.62801419e-19
6.096366956e-19
8.111240181e-19
1.070160149e-18
1.373746985e-18
1.677695936e-18
1.893346389e-18
5.097538379e-19
6.203653095e-19
8.012281539e-19
1.067155686e-18
1.432690345e-18
1.901329261e-18
2.446595321e-18
2.986828077e-18
3.365896746e-18
8.674121484e-19
1.063917437e-18
1.386675727e-18
1.862728185e-18
2.51743244e-18
3.354535029e-18
4.323074432e-18
5.275655412e-18
5.939139864e-18
1.482120186e-18
1.829225148e-18
2.401088725e-18
3.246129736e-18
4.408106306e-18
5.890190753e-18
7.597714839e-18
9.268610107e-18
1.042692533e-17
2.542388647e-18
3.153014056e-18
4.161065831e-18
5.652125135e-18
7.70116554e-18
1.030875552e-17
1.330275321e-17
1.622235853e-17
1.824204392e-17
4.37611944e-18
5.447439734e-18
7.218360346e-18
9.838868272e-18
1.343648008e-17
1.800337e-17
2.322844634e-17
2.830939641e-17
3.183746843e-17
7.553867563e-18
9.430548883e-18
1.253584297e-17
1.713196749e-17
2.343502056e-17
3.141183135e-17
4.048524229e-17
4.924539231e-17
5.549420319e-17
1.306754984e-17
1.635222683e-17
2.179329298e-17
2.985308695e-17
4.090702138e-17
5.486901448e-17
7.05969862e-17
8.506972031e-17
9.68777683e-17
2.263782598e-17
2.838080147e-17
3.790623853e-17
5.204130515e-17
7.149034367e-17
9.624995985e-17
1.247896283e-16
1.532814613e-16
1.711624299e-16
3.924383886e-17
4.926414263e-17
6.5892976e-17
9.057631025e-17
1.245289595e-16
1.676693219e-16
2.170324135e-16
2.64895258e-16
2.9740218e-16
6.804957154e-17
8.549987947e-17
1.144625432e-16
1.574451065e-16
2.165256113e-16
2.91482139e-16
3.770459177e-16
4.598058434e-16
5.164578397e-16
1.180149582e-16
1.483672382e-16
1.987458111e-16
2.734990985e-16
3.762073789e-16
5.064347664e-16
6.549919541e-16
7.986304702e-16
8.970217115e-16
2.046927009e-16
2.57449856e-16
3.450209889e-16
4.749544745e-16
6.534461237e-16
8.797006833e-16
1.137726738e-15
1.387152655e-15
1.557989845e-15
3.550837588e-16
4.467507162e-16
5.989180293e-16
8.246946301e-16
1.134819302e-15
1.527866501e-15
1.976013245e-15
2.409128037e-15
2.705729439e-15
6.160687649e-16
7.753112267e-16
1.039668804e-15
1.431906678e-15
1.970643667e-15
2.653337734e-15
3.431589329e-15
4.183589403e-15
4.698472659e-15
1.069049381e-15
1.345651789e-15
1.804852559e-15
2.486175515e-15
3.4218965e-15
4.60749147e-15
5.95879333e-15
7.264263814e-15
8.157983379e-15
1.85537339e-15
2.335794319e-15
3.133362636e-15
4.316666971e-15
5.941626189e-15
8.000180153e-15
1.034599086e-14
1.261178653e-14
1.41627194e-14
3.220474489e-15
4.054852227e-15
5.439983105e-15
7.49482521e-15
1.031617657e-14
1.388960976e-14
1.796068696e-14
2.189190808e-14
2.458223931e-14
5.59048271e-15
7.039508278e-15
9.444791281e-15
1.301249642e-14
1.790998364e-14
2.411123559e-14
3.117377999e-14
3.799141798e-14
4.265569765e-14
9.705128823e-15
1.222137518e-14
1.639757053e-14
2.259065329e-14
3.108945986e-14
4.184660323e-14
5.409241265e-14
6.590821777e-14
7.39886972e-14
1.684805487e-14
2.121695363e-14
2.84664301e-14
3.921362011e-14
5.395577491e-14
7.260545783e-14
9.382330172e-14
1.142833247e-13
1.282673228e-13
2.924543121e-14
3.682934892e-14
4.940982708e-14
6.805194046e-14
9.360888346e-14
1.259168075e-13
1.626436624e-13
1.980284199e-13
2.221938304e-13
5.07546583e-14
6.391472905e-14
8.573614586e-14
1.180526215e-13
1.62321541e-13
2.182306491e-13
2.817168154e-13
3.428118997e-13
3.844898491e-13
8.805151981e-14
1.108749055e-13
1.486988289e-13
2.046703238e-13
2.812641419e-13
3.778751278e-13
4.874192657e-13
5.926741923e-13
6.643707561e-13
1.526706514e-13
1.922203118e-13
2.577167455e-13
3.545386049e-13
4.868559154e-13
6.534779911e-13
8.420465962e-13
1.022864623e-12
1.145792208e-12
2.645003363e-13
3.329537372e-13
4.462116722e-13
6.134181219e-13
8.415300655e-13
1.128176371e-12
1.451790405e-12
1.761298634e-12
1.971187802e-12
4.577431341e-13
5.760330104e-13
7.715172606e-13
1.059636621e-12
1.451850468e-12
1.94339964e-12
2.496652665e-12
3.024073235e-12
3.380614617e-12
7.910326258e-13
9.950049665e-13
1.331592197e-12
1.826648764e-12
2.49874545e-12
3.338300367e-12
4.279708407e-12
5.173596725e-12
5.775560088e-12
1.364508578e-12
1.715258195e-12
2.293002606e-12
3.140584098e-12
4.287479071e-12
5.714430483e-12
7.307286746e-12
8.812557955e-12
9.821624663e-12
2.348456154e-12
2.949517266e-12
3.937382176e-12
5.382144146e-12
7.329356499e-12
9.740567825e-12
1.241781323e-11
1.49338095e-11
1.661152483e-11
4.031006846e-12
5.056647359e-12
6.737856923e-12
9.187559949e-12
1.247374005e-11
1.652043858e-11
2.098603779e-11
2.515609847e-11
2.79202131e-11
6.896980904e-12
8.638222368e-12
1.148348735e-11
1.561137184e-11
2.11186596e-11
2.785744435e-11
3.52422107e-11
4.208954889e-11
4.659852347e-11
1.175711524e-11
1.469559754e-11
1.947969182e-11
2.63856939e-11
3.554236939e-11
4.666670207e-11
5.876386245e-11
6.989436576e-11
7.717216932e-11
1.995796083e-11
2.488278875e-11
3.286733114e-11
4.432792808e-11
5.94182793e-11
7.760750203e-11
9.722309178e-11
1.151234334e-10
1.26741282e-10
3.371948012e-11
4.190919338e-11
5.512463848e-11
7.397368015e-11
9.860398948e-11
1.280410854e-10
1.595072995e-10
1.87977164e-10
2.063149587e-10
5.667235025e-11
7.017367309e-11
9.184713779e-11
1.225467032e-10
1.623347014e-10
2.094627654e-10
2.593797907e-10
3.041510755e-10
3.327696202e-10
9.470356702e-11
1.167511983e-10
1.519446697e-10
2.014268465e-10
2.650062253e-10
3.396184859e-10
4.17913702e-10
4.875286172e-10
5.316950487e-10
1.572715842e-10
1.929096637e-10
2.494563935e-10
3.283453764e-10
4.288088841e-10
5.456003212e-10
6.670252852e-10
7.740711754e-10
8.414955114e-10
2.594266397e-10
3.164135576e-10
4.062705105e-10
5.306316701e-10
6.875786661e-10
8.68331857e-10
1.054560169e-09
1.217394056e-09
1.319255805e-09
4.248754664e-10
5.149806861e-10
6.56153955e-10
8.499656403e-10
1.092376588e-09
1.369014559e-09
1.65156151e-09
1.896705067e-09
2.0490774e-09
6.905717761e-10
8.31408342e-10
1.050659731e-09
1.349268971e-09
1.719505471e-09
2.138325633e-09
2.56258883e-09
2.928039164e-09
3.153856974e-09
1.113507231e-09
1.331089728e-09
1.667700939e-09
2.122611958e-09
2.681943604e-09
3.30945679e-09
3.940283087e-09
4.48007263e-09
4.81184385e-09
1.78063864e-09
2.112917977e-09
2.623880377e-09
3.309342902e-09
4.145540643e-09
5.076488061e-09
6.005816595e-09
6.796276082e-09
7.279807926e-09
2.823237886e-09
3.324947537e-09
4.092068583e-09
5.114090956e-09
6.351811922e-09
7.720133161e-09
9.077461264e-09
1.022580862e-08
1.092532162e-08
4.437419771e-09
5.186681917e-09
6.326263985e-09
7.834884168e-09
9.649815801e-09
1.164360697e-08
1.361029453e-08
1.52664034e-08
1.627156716e-08
6.913223534e-09
8.020526436e-09
9.696495846e-09
1.190240997e-08
1.454044482e-08
1.742228287e-08
2.025107718e-08
2.262361426e-08
2.405925821e-08
1.067525377e-08
1.229550756e-08
1.473705397e-08
1.79340714e-08
2.173736585e-08
2.587205956e-08
2.991378767e-08
3.32923436e-08
3.533177441e-08
1.633832772e-08
1.86871091e-08
2.221266641e-08
2.680827079e-08
3.225061545e-08
3.814278587e-08
4.388254174e-08
4.866770817e-08
5.155092478e-08
2.478482932e-08
2.816017652e-08
3.320944498e-08
3.976557689e-08
4.749969312e-08
5.584417833e-08
6.394997541e-08
7.069376282e-08
7.475188724e-08
3.726946987e-08
4.208088416e-08
4.925746659e-08
5.854484835e-08
6.946539307e-08
8.121432234e-08
9.260160505e-08
1.020606971e-07
1.077478429e-07
5.556020384e-08
6.236697537e-08
7.24947131e-08
8.556458207e-08
1.008912034e-07
1.173421185e-07
1.332581089e-07
1.464633123e-07
1.543983988e-07
8.212563842e-08
9.168700636e-08
1.058836188e-07
1.241612807e-07
1.455465611e-07
1.684565446e-07
1.905896394e-07
2.089371581e-07
2.199601132e-07
1.203808397e-07
1.337207175e-07
1.534925761e-07
1.788973755e-07
2.08564854e-07
2.402968055e-07
2.709184767e-07
2.962900135e-07
3.115359321e-07
1.750038257e-07
1.934927275e-07
2.208544972e-07
2.559510484e-07
2.968698295e-07
3.405794279e-07
3.827270302e-07
4.176436135e-07
4.386365082e-07
2.52333485e-07
2.77790265e-07
3.154136819e-07
3.636009582e-07
4.1970596e-07
4.795782723e-07
5.372842356e-07
5.850964089e-07
6.138639001e-07
3.608581922e-07
3.956754067e-07
4.470736373e-07
5.128205678e-07
5.892864819e-07
6.708268867e-07
7.493968461e-07
8.145133589e-07
8.537235212e-07
5.118072746e-07
5.591051692e-07
6.28859091e-07
7.17991729e-07
8.215627868e-07
9.319432123e-07
1.038284538e-06
1.126440976e-06
1.179562259e-06
7.198572341e-07
7.836679674e-07
8.776944975e-07
9.977328556e-07
1.137106355e-06
1.285565537e-06
1.428565787e-06
1.547133046e-06
1.618616905e-06
1.003948317e-06
1.0894267e-06
1.215283829e-06
1.375822698e-06
1.562080249e-06
1.760372941e-06
1.951323709e-06
2.109652533e-06
2.205136992e-06
1.388188421e-06
1.501842942e-06
1.669062563e-06
1.882185065e-06
2.129260432e-06
2.392142903e-06
2.645196635e-06
2.854988785e-06
2.981517744e-06
1.902810529e-06
2.052744723e-06
2.273179585e-06
2.553886761e-06
2.879047903e-06
3.22477532e-06
3.557411591e-06
3.833098078e-06
3.999344873e-06
2.58514171e-06
2.78129331e-06
3.069457589e-06
3.436085008e-06
3.860396211e-06
4.311193689e-06
4.744655936e-06
5.103748376e-06
5.320222571e-06
3.48053838e-06
3.734896842e-06
4.10827155e-06
4.582855497e-06
5.131573244e-06
5.714027455e-06
6.273674691e-06
6.737040067e-06
7.016245891e-06
4.643236691e-06
4.970017227e-06
5.449287161e-06
6.057835859e-06
6.760683538e-06
7.50599185e-06
8.22149929e-06
8.813498608e-06
9.170006828e-06
6.137068909e-06
6.55281942e-06
7.16200646e-06
7.934630396e-06
8.825896891e-06
9.769913187e-06
1.067526049e-05
1.142369807e-05
1.187409787e-05
8.035992498e-06
8.559610752e-06
9.326070945e-06
1.029693247e-05
1.141535138e-05
1.259838712e-05
1.373160062e-05
1.466746268e-05
1.523018433e-05
1.042436649e-05
1.107700798e-05
1.203126644e-05
1.323832118e-05
1.462670857e-05
1.609308118e-05
1.749574483e-05
1.865276621e-05
1.9347817e-05
1.33968914e-05
1.420175312e-05
1.537715935e-05
1.686167554e-05
1.856632418e-05
2.036367286e-05
2.20802631e-05
2.349443803e-05
2.434332083e-05
1.705811734e-05
1.804008923e-05
1.947228501e-05
2.127813727e-05
2.334797109e-05
2.552634576e-05
2.760338996e-05
2.931245765e-05
3.033763536e-05
2.152143882e-05
2.270662447e-05
2.443283052e-05
2.660557829e-05
2.909107505e-05
3.170178584e-05
3.418679674e-05
3.622851025e-05
3.745147024e-05
2.690754349e-05
2.832266506e-05
3.038081158e-05
3.29665961e-05
3.591853033e-05
3.901288428e-05
4.195207193e-05
4.43619163e-05
4.580300643e-05
3.334235427e-05
3.501406383e-05
3.744179633e-05
4.048611456e-05
4.39542325e-05
4.758068593e-05
5.101659076e-05
5.382719929e-05
5.550464344e-05
4.09545653e-05
4.290870952e-05
4.574246747e-05
4.928865239e-05
5.331815305e-05
5.752029062e-05
6.149100018e-05
6.473118651e-05
6.666125727e-05
4.98731066e-05
5.21336865e-05
5.540604813e-05
5.949190494e-05
6.412246271e-05
6.893790674e-05
7.347549157e-05
7.716884214e-05
7.936436738e-05
6.022090594e-05
6.280816375e-05
6.654685286e-05
7.120426777e-05
7.646849319e-05
8.192723493e-05
8.705629456e-05
9.12200995e-05
9.369003707e-05
7.211053999e-05
7.504079039e-05
7.926768164e-05
8.452110368e-05
9.044298009e-05
9.6565862e-05
0.0001023022337
0.0001069465602
0.0001096955283
8.564120222e-05
8.89259619e-05
9.365592213e-05
9.952099206e-05
0.0001061144674
0.0001129118775
0.0001192615678
0.0001243885225
0.0001274164331
0.0001008947128
0.0001045399402
0.0001097798099
0.0001162622045
0.0001235300431
0.0001310009032
0.0001379593118
0.0001435625492
0.0001468643901
0.0001179317452
0.0001219372344
0.0001276850331
0.000134779605
0.000142712587
0.0001508437146
0.000158395217
0.0001644597414
0.0001680255336
0.0001367884747
0.0001411474481
0.0001473918711
0.0001550821576
0.0001636587006
0.0001724246109
0.0001805425537
0.0001870448528
0.0001908598014
0.0001574738437
0.0001621727839
0.0001688930422
0.0001771512007
0.0001863374587
0.0001957006513
0.00020434779
0.0002112563213
0.0002153011851
0.0001799676259
0.000184986373
0.0001921524132
0.0002009396166
0.0002106900778
0.0002206018133
0.0002297311811
0.0002370072009
0.0002412590121
0.0002042194355
0.0002095315635
0.0002171046758
0.000226371969
0.0002366305399
0.0002470320662
0.0002565881658
0.0002641865611
0.0002686184116
0.0002301487821
0.0002357222438
0.0002436560409
0.0002533456289
0.000264047167
0.0002748713866
0.0002847918512
0.0002926627022
0.0002972454298
0.0002576461997
0.0002634442084
0.000271685921
0.0002817328072
0.0002928049925
0.0003039784043
0.0003141957986
0.000322285774
0.0003269885544
0.0002865753991
0.0002925574924
0.0003010494967
0.0003113833621
0.000322748772
0.0003341935474
0.0003446372219
0.0003528909834
0.0003576820836
0.0003167763124
0.0003228995261
0.0003315809992
0.0003421281868
0.0003537064204
0.0003653424491
0.000375940288
0.0003843017541
0.0003891491807
0.0003480688116
0.0003542888883
0.0003630974806
0.0003737829495
0.0003854926484
0.0003972393903
0.0004079192689
0.0004163325536
0.0004212044285
0.0003802568012
0.0003865293675
0.0003954028022
0.0004061519448
0.0004179126201
0.0004296906764
0.000440381507
0.0004487915265
0.0004536552521
0.0004131322684
0.0004194139646
0.0004282915367
0.0004390317874
0.0004507656182
0.0004624984033
0.000473129792
0.0004814831743
0.0004863119676
0.0004464786795
0.0004527284018
0.0004615527794
0.0004722146058
0.0004838480746
0.0004954689271
0.0005059930174
0.0005142576681
0.0005190340463
0.0004800730164
0.0004862529594
0.0004949743171
0.0005055067554
0.0005169920125
0.0005284572002
0.0005388349752
0.0005469818145
0.0005516896473
0.0005137269498
0.0005198130592
0.0005283987434
0.0005387627614
0.0005500587162
0.0005613294337
0.0005715272695
0.0005795310856
0.0005841563312
0.0005472912264
0.0005532627797
0.0005616844
0.0005718467642
0.0005829187454
0.0005939621864
0.000603951897
0.0006117916008
0.0006163225095
0.0005806273921
0.0005864671666
0.0005947011839
0.0006046346215
0.0006154543893
0.0006262439558
0.0006360028169
0.0006436614573
0.000648088582
0.0006136102373
0.000619304569
0.0006273323997
0.0006370155501
0.0006475611583
0.0006580763214
0.000667586898
0.0006750515107
0.0006793676173
0.0006461294435
0.000651668125
0.0006594759771
0.000668893128
0.0006791485908
0.0006893745389
0.0006986243496
0.0007058856891
0.000710085604
0.0006780904489
0.0006834665032
0.0006910450414
0.0007001856985
0.0007101405031
0.0007200676477
0.0007290487177
0.0007361009123
0.0007401813305
0.0007094146475
0.0007146240165
0.0007219679189
0.0007308262646
0.0007404747807
0.0007500981748
0.0007588065212
0.000765646683
0.0007696059526
0.0007400390418
0.0007450802256
0.000752187677
0.0007607619668
0.0007701028012
0.0007794215128
0.0007878565989
0.0007944844149
0.000798322314
0.0007699154637
0.0007747891387
0.0007816613005
0.0007899532363
0.0007989885715
0.0008080050493
0.0008161692373
0.0008225865624
0.0008263040763
0.000799009477
0.0008037181142
0.0008103585975
0.0008183727122
0.0008271076609
0.0008358271206
0.000843725145
0.0008499356115
0.0008535347204
0.00082729906
0.0008318465615
0.0008382609279
0.0008460040033
0.0008544460029
0.0008628758537
0.0008705143319
0.0008765229878
0.0008800064693
0.0008547731642
0.0008591645291
0.0008653598328
0.0008728403692
0.0008809986315
0.0008891479572
0.0008965349474
0.0009023479299
0.0009057191805
0.0008814302251
0.0008856712524
0.0008916556344
0.0008988833815
0.0009067684071
0.0009146475096
0.0009217921223
0.0009274163703
0.0009306792476
0.0009072766925
0.0009113737247
0.0009171560626
0.0009241416157
0.0009317647773
0.0009393847846
0.0009462968486
0.0009517398553
0.0009548985418
0.0009323256275
0.0009362853353
0.0009418749502
0.0009486294119
0.0009560026052
0.0009633751428
0.0009700649253
0.0009753345297
0.000978393417
0.0009565954036
0.0009604246099
0.0009658310268
0.0009723657307
0.0009795010894
0.000986638012
0.0009931159883
0.0009982202026
0.001001183795
0.0009801085317
0.0009838140719
0.0009890468291
0.0009953731202
0.001002282788
0.001009195966
0.001015472634
0.001020419504
0.001023292341
0.001002890624
0.001006479241
0.001011547743
0.001017676806
0.001024372758
0.001031073899
0.00103715964
0.001041957144
0.00104474374
0.001024969488
0.001028447744
0.00103336115
0.001039303882
0.001045797796
0.001052298343
0.00105820331
0.001062859265
0.001065564056
0.001046374352
0.001049748576
0.001054515723
0.001060282652
0.001066585821
0.001072896849
0.001078630884
0.001083152882
0.001085780188
0.001067135244
0.001070411496
0.001075040851
0.001080642066
0.001086765326
0.001092897474
0.001098470051
0.001102865417
0.001105419417
0.001087282461
0.001090466506
0.001094966128
0.001100411244
0.001106364933
0.001112328366
0.001117748552
0.001122024313
0.001124509025
0.001106846147
0.001109943443
0.001114320969
0.001119619105
0.001125413037
0.001131217423
0.001136493857
0.001140656717
0.001143075984
0.001125855958
0.001128871654
0.001133134291
0.001138294063
0.001143937525
0.001149592022
0.001154732899
0.001158789234
0.001161146719
0.00114434081
0.001147279747
0.001151434279
0.001156463802
0.001161965551
0.001167478808
0.001172491883
0.001176447734
0.001178746912
0.001162328685
0.001165195406
0.0011692482
0.0011741551
0.001179523375
0.001184903539
0.001189796127
0.001193657202
0.001195901363
0.001179846494
0.001182645251
0.001186602274
0.001191393704
0.001196636238
0.001201890969
0.001206669956
0.001210441637
0.001212633886
0.001196919984
0.001199654754
0.001203521588
0.001208204243
0.001213328288
0.001218464774
0.001223136629
0.001226823977
0.001228967241
0.001213573677
0.001216248174
0.001220030037
0.001224610181
0.001229622523
0.001234647499
0.001239218293
0.001242826062
0.001244923091
0.001229830848
0.001232448537
0.001236150298
0.001240633783
0.001245540768
0.001250460539
0.001254935957
0.001258468607
0.001260521984
0.001245713512
0.001248277625
0.001251903828
0.001256296116
0.001261103673
0.001265924133
0.001270309496
0.001273771203
0.001275783347
0.001261242439
0.001263755988
0.001267310869
0.001271617056
0.00127633072
0.001281057375
0.001285357658
0.001288752328
0.001290725505
0.001276437181
0.001278902971
0.001282390478
0.001286615315
0.001291240249
0.001295878239
0.001300098088
0.001303429373
0.001305365703
0.001291316102
0.001293736746
0.001297160556
0.001301308471
0.001305849489
0.001310403608
0.001314547361
0.00131781867
0.001319720132
0.001305896426
0.001308274355
0.001311637893
0.00131571301
0.001320174598
0.001324649317
0.001328721018
0.001331935534
0.001333803975
0.001320194279
0.001322531757
0.001325838211
0.001329844371
0.001334230708
0.001338630193
0.001342633613
0.001345794301
0.001347631447
0.001334224746
0.001336523879
0.001339776214
0.001343716993
0.00134803197
0.001352360101
0.001356298753
0.001359408379
0.001361215836
0.001348001915
0.001350264663
0.001353465641
0.001357344365
0.001361591605
0.001365851994
0.00136972915
0.001372790291
0.001374569554
0.00136153894
0.001363767125
0.001366919313
0.001370739079
0.001374921952
0.001379117962
0.001382936669
0.001385951721
0.001387704186
0.001374848086
0.001377043403
0.00138014919
0.001383912877
0.001388034519
0.00139216928
0.001395932371
0.001398903567
0.001400630531
0.001387940785
0.001390104809
0.001393166417
0.001396876704
0.001400940032
0.001405016454
0.001408726567
0.001411655983
0.001413358654
0.001400827685
0.001402961884
0.001405981377
0.001409640754
0.001413648482
0.001417669272
0.00142132886
0.001424218428
0.001425897928
0.001413518703
0.001415624438
0.001418603737
0.001422214521
0.001426169171
0.001430136846
0.00143374819
0.001436599707
0.001438257081
0.001426023067
0.001428101605
0.001431042496
0.00143460684
0.001438510758
0.001442427659
0.001445992881
0.001448808016
0.001450444234
0.001438349365
0.001440401884
0.001443306028
0.001446825933
0.001450681301
0.001454549604
0.001458070675
0.001460850982
0.001462466948
0.001450505589
0.001452533184
0.001455402122
0.001458879451
0.001462688295
0.001466510025
0.001469988779
0.001472735702
0.001474332255
0.001462499171
0.00146450286
0.001467338028
0.001470774512
0.001474538718
0.001478315755
0.001481753897
0.001484468778
0.001486046698
0.001474337026
0.001476317756
0.001479120489
0.001482517736
0.001486239057
0.001489973152
0.001493372267
0.001496056354
0.001497616367
0.001486025588
0.001487984239
0.001490755778
0.001494115285
0.001497795351
0.001501488131
0.001504849693
0.001507504148
0.001509046928
0.001497570842
0.001499508234
0.001502249732
0.001505572892
0.00150921322
0.001512866197
0.001516191578
0.00151881748
0.001520343655
0.00150897836
0.001510895253
0.001513607785
0.001516895892
0.001520497893
0.001524112476
0.001527402952
0.001530001305
0.001531511459
0.001520253324
0.001522150428
0.001524834994
0.001528089254
0.001531654241
0.00153523174
0.001538488497
0.001541060237
0.001542554913
0.001531400563
0.001533278539
0.001535936067
0.001539157603
0.001542686798
0.001546228433
0.001549452578
0.001551998574
0.001553478278
0.001542424574
0.001544284035
0.001546915393
0.001550105249
0.001553599791
0.001557106699
0.00156029926
0.001562820323
0.001564285526
0.001553329546
0.001555171065
0.001557777061
0.001560936211
0.00156439716
0.001567870398
0.001571032335
0.001573529221
0.001574980362
0.001564119385
0.001565943496
0.001568524881
0.001571654233
0.001575082578
0.001578523134
0.001581655341
0.001584128754
0.001585566242
0.001574797734
0.001576604936
0.001579162412
0.001582262811
0.001585659475
0.00158906827
0.001592171581
0.001594622177
0.001596046393
0.001585367994
0.00158715875
0.001589692972
0.001592765209
0.001596131053
0.001599508945
0.001602584139
0.001605012532
0.001606423833
0.00159583334
0.001597608084
0.001600119664
0.001603164476
0.001606500303
0.001609848095
0.001612895899
0.001615302662
0.00161670138
0.001606196739
0.001607955876
0.001610445385
0.001613463462
0.001616770023
0.001620088465
0.00162310956
0.001625495226
0.001626881673
0.001616460966
0.001618204876
0.001620672847
0.001623664834
0.001626942832
0.001630232625
0.001633227646
0.001635592718
0.001636967184
0.001626628618
0.001628357655
0.001630804589
0.001633771089
0.001637021181
0.001640282982
0.001643252524
0.00164559747
0.001646960228
0.001636702127
0.001638416623
0.001640842988
0.001643784566
0.001647007369
0.001650241793
0.001653186413
0.001655511672
0.001656862979
0.001646683774
0.001648384039
0.001650790275
0.00165370746
0.001656903551
0.001660111174
0.001663031396
0.001665337381
0.001666677474
0.001656575696
0.001658262024
0.001660648541
0.001663541831
0.001666711751
0.001669893116
0.00167278943
0.001675076526
0.001676405631
0.001666379903
0.001668052566
0.001670419752
0.001673289613
0.001676433871
0.001679589485
0.001682462352
0.001684730924
0.001686049251
0.00167609828
0.001677757537
0.001680105754
0.001682952625
0.001686071699
0.00168920204
0.001692051894
0.001694302282
0.001695610029
0.001685732603
0.001687378696
0.001689708285
0.001692532578
0.001695626918
0.001698732434
0.001701559682
0.001703792207
0.001705089562
0.00169528454
0.001696917696
0.00169922898
0.001702031081
0.00170510111
0.001708182225
0.001710987249
0.001713202213
0.001714489351
0.001704755663
0.001706376096
0.001708669376
0.001711449652
0.001714495767
0.001717552877
0.001720336038
0.001722533725
0.001723810812
0.001714147451
0.001715755363
0.001718030923
0.001720789716
0.001723812291
0.001726845771
0.001729607408
0.001731788085
0.001733055274
0.001723461297
0.001725056876
0.001727314984
0.001730052616
0.001733052003
0.001736062203
0.001738802635
0.001740966553
0.00174222399
0.001732698508
0.001734281934
0.001736522839
0.001739239613
0.001742216143
0.001745203392
0.001747922916
0.001750070309
0.001751318132
0.001741860315
0.001743431754
0.001745655692
0.001748351891
0.001751305871
0.001754270477
0.001756969373
0.00175910046
0.001760338795
0.001750947868
0.001752507475
0.001754714665
0.001757390554
0.001760322271
0.00176326452
0.001765943045
0.00176805803
0.001769286995
0.001759962241
0.001761510159
0.001763700804
0.001766356626
0.001769266345
0.001772186501
0.001774844895
0.001776943964
0.001778163667
0.001768904423
0.001770440786
0.001772615072
0.00177525105
0.001778139013
0.001781037317
0.001783675794
0.001785759117
0.001786969656
0.001777775324
0.001779300251
0.001781458345
0.00178407468
0.001786941105
0.00178981777
0.001792436524
0.00179450425
0.00179570571
0.001786575759
0.001788089355
0.001790231405
0.001792828274
0.001795673349
0.001798528562
0.001801127757
0.001803180014
0.001804372469
0.001795306442
0.001796808797
0.001798934927
0.001801512477
0.00180433636
0.001807170272
0.001809750042
0.001811786933
0.001812970441
0.001803967969
0.001805459154
0.001807569462
0.001810127807
0.001812930617
0.001815743341
0.001818303785
0.00182032538
0.001821499981
0.001812560801
0.001814040865
0.001816135417
0.001818674632
0.001821456442
0.001824248045
0.001826789213
0.00182879555
0.001829961261
0.001821085235
0.001822554201
0.001824633025
0.001827153134
0.001829913965
0.001832684455
0.001835206346
0.001837197414
0.001838354227
0.001829541375
0.001830999232
0.001833062307
0.001835563279
0.001838303081
0.001841052397
0.001843554942
0.001845530679
0.001846678552
0.001837929086
0.001839375784
0.001841423033
0.001843904761
0.001846623403
0.001849351398
0.001851834447
0.001853794722
0.001854933573
0.001846247949
0.001847683388
0.001849714661
0.001852176951
0.001854874203
0.001857580621
0.001860043924
0.001861988524
0.001863118223
0.001854497196
0.001855921218
0.001857936279
0.001860378826
0.001863054331
0.00186573879
0.001868181973
0.001870110585
0.00187123094
0.001862675645
0.001864088016
0.001866086523
0.001868508892
0.001871162143
0.001873824103
0.001876246643
0.001878158831
0.001879269577
0.001870781613
0.001872182013
0.001874163495
0.001876565089
0.001879195397
0.001881834127
0.001884235324
0.001886130506
0.001887231291
0.001878812831
0.001880200832
0.001882164665
0.001884544695
0.001887151156
0.0018897657
0.001892144637
0.001894022056
0.001895112424
0.001886766336
0.001888141385
0.001890086765
0.001892444217
0.001895025668
0.001897614804
0.001899970315
0.00190182901
0.00190290838
0.001894638371
0.001895999769
0.001897925677
0.001900259273
0.001902814253
0.001905376449
0.001907707077
0.001909545849
0.001910613501
0.001902424265
0.001903771143
0.001905676318
0.001907984475
0.001910511184
0.001913044554
0.001915348509
0.001917165888
0.001918220942
0.001910118329
0.001911449625
0.001913332528
0.001915613322
0.00191810957
0.001920611831
0.001922886948
0.001924681164
0.001925722556
0.001917713743
0.00191902818
0.001920886964
0.001923138088
0.00192560126
0.001928069685
0.001930313391
0.001932082339
0.001933108811
0.001925202464
0.001926498531
0.00192833101
0.00193054974
0.001932976754
0.001935408141
0.001937617419
0.001939358635
0.001940368716
0.001932575149
0.001933851082
0.001935654711
0.001937837878
0.001940225156
0.001942615799
0.001944787161
0.00194649781
0.001947489809
0.001939821104
0.001941074876
0.00194284673
0.001944990706
0.00194733416
0.001949679831
0.001951809312
0.001953486174
0.001954458175
0.001946928275
0.001948157587
0.001949894363
0.001951995053
0.001954290081
0.001956586034
0.001958669196
0.001960308676
0.001961258543
0.001953883275
0.001955085567
0.001956783585
0.001958836441
0.001961077948
0.001963318943
0.001965350896
0.001966949046
0.00196787444
0.001960671479
0.00196184394
0.001963499172
0.001965499225
0.001967681659
0.001969862008
0.001971837464
0.001973390023
0.001974288426
0.001967277164
0.001968416763
0.001970024871
0.00197196679
0.001974084214
0.001976197851
0.001978111192
0.001979613652
0.001980482409
0.001973683725
0.001974787253
0.001976343657
0.001978221826
0.001980268007
0.001982308595
0.001984153976
0.001985601665
0.001986438031
0.001979873957
0.001980938082
0.00198243804
0.001984246667
0.001986215206
0.001988176266
0.001989947738
0.001991335925
0.001992137134
0.001985830401
0.001986851742
0.001988290454
0.001990023699
0.001991908177
0.001993783248
0.001995474916
0.001996798938
0.001997562277
0.001991535752
0.001992510962
0.001993883694
0.001995535828
0.001997329983
0.001999112802
0.002000718993
0.002001974396
0.002002697292
0.001996973321
0.001997899181
0.001999201404
0.002000766976
0.002002464895
0.002004149602
0.002005665054
0.002006847744
0.002007527853
0.002002127525
0.002003001053
0.002004228588
0.00200570261
0.002007298934
0.002008880276
0.002010300334
0.002011406736
0.002012042032
0.002006984404
0.002007802955
0.002008952129
0.002010330261
0.002011820391
0.002013293932
0.002014614733
0.002015641939
0.002016230809
0.002011532121
0.002012293495
0.002013361286
0.002014640014
0.002016020304
0.002017382616
0.002018601267
0.002019547171
0.002020088486
0.00201576143
0.002016463969