/*--------------------------------*- C++ -*----------------------------------*\
| =========                 |                                                 |
| \\      /  F ield         | OpenFOAM: The Open Source CFD Toolbox           |
|  \\    /   O peration     | Version:  2212                                  |
|   \\  /    A nd           | Website:  www.openfoam.com                      |
|    \\/     M anipulation  |                                                 |
\*---------------------------------------------------------------------------*/
FoamFile
{
    version     2.0;
    format      ascii;
    arch        "LSB;label=32;scalar=64";
    class       volScalarField;
    location    "30.00000000";
    object      H_0;
}
// * * * * * * * * * * * * * * * * * * * * * * * * * * * * * * * * * * * * * //

dimensions      [0 0 0 0 0 0 0];

internalField   nonuniform List<scalar> 
3000
(
2.464971853e-29
2.767846102e-29
3.223933558e-29
3.829442793e-29
4.574840596e-29
5.432666282e-29
6.335389661e-29
7.139359281e-29
7.593329569e-29
9.218650278e-29
1.038590334e-28
1.213869459e-28
1.446208207e-28
1.733137063e-28
2.069083226e-28
2.441334435e-28
2.820340787e-28
3.124596377e-28
2.055002087e-28
2.331749529e-28
2.75060889e-28
3.313919977e-28
4.02568014e-28
4.886587961e-28
5.879051792e-28
6.9292648e-28
7.774203109e-28
3.894008364e-28
4.462191249e-28
5.334177587e-28
6.531311215e-28
8.083369496e-28
1.001144784e-27
1.228062901e-27
1.468183171e-27
1.653670965e-27
6.878932946e-28
7.976286627e-28
9.686827528e-28
1.208183166e-27
1.525072885e-27
1.925043384e-27
2.397461615e-27
2.887783956e-27
3.251059253e-27
1.176961168e-27
1.381864003e-27
1.705922163e-27
2.167018173e-27
2.785711509e-27
3.572263316e-27
4.496976477e-27
5.437192659e-27
6.112788276e-27
1.988594404e-27
2.363413767e-27
2.96330165e-27
3.827057718e-27
4.995915047e-27
6.484397339e-27
8.221246837e-27
9.957757617e-27
1.118496048e-26
3.35051743e-27
4.026453222e-27
5.118270567e-27
6.703444418e-27
8.858916546e-27
1.160160482e-26
1.477887538e-26
1.791627989e-26
2.011117298e-26
5.656494197e-27
6.863130128e-27
8.825442211e-27
1.1690442e-26
1.559614426e-26
2.055747348e-26
2.627100875e-26
3.186446013e-26
3.575574106e-26
9.587369252e-27
1.172528669e-26
1.521911591e-26
2.033906207e-26
2.732766712e-26
3.618938547e-26
4.634914041e-26
5.62379351e-26
6.30981405e-26
1.632223285e-26
2.008960438e-26
2.626748618e-26
3.534237117e-26
4.773577337e-26
6.342548972e-26
8.135449828e-26
9.874008959e-26
1.107910926e-25
2.790551476e-26
3.451880821e-26
4.538937144e-26
6.138111452e-26
8.322092949e-26
1.108266991e-25
1.422914105e-25
1.727314954e-25
1.938578222e-25
4.788643742e-26
5.946678862e-26
7.853358626e-26
1.066070949e-25
1.44930633e-25
1.932821248e-25
2.482372097e-25
3.013063849e-25
3.383872717e-25
8.242981153e-26
1.026804694e-25
1.360669118e-25
1.852571453e-25
2.523689167e-25
3.368302414e-25
4.323264994e-25
5.239597501e-25
5.899191171e-25
1.422361162e-25
1.77625052e-25
2.3605195e-25
3.222402254e-25
4.398943614e-25
5.877512456e-25
7.533921496e-25
9.048887984e-25
1.030012101e-24
2.458406084e-25
3.076295515e-25
4.098034665e-25
5.608510557e-25
7.678069818e-25
1.030088478e-24
1.331000537e-24
1.630300661e-24
1.820150797e-24
4.252947396e-25
5.329709707e-25
7.111675811e-25
9.747712176e-25
1.335977403e-24
1.793059113e-24
2.31389846e-24
2.817859968e-24
3.16323007e-24
7.360975887e-25
9.234128315e-25
1.233523691e-24
1.692319241e-24
2.320757075e-24
3.115136785e-24
4.018621651e-24
4.892084922e-24
5.494277344e-24
1.274464947e-24
1.599973505e-24
2.139025005e-24
2.936644008e-24
4.029121488e-24
5.409740704e-24
6.97964817e-24
8.498529578e-24
9.544834022e-24
2.207313633e-24
2.772683137e-24
3.709227771e-24
5.095346183e-24
6.994186655e-24
9.394085155e-24
1.212326685e-23
1.476406555e-23
1.658137137e-23
3.824359133e-24
4.806195605e-24
6.433132189e-24
8.841797741e-24
1.214232154e-23
1.631469296e-23
2.105996772e-23
2.564691726e-23
2.880264185e-23
6.628735356e-24
8.333971635e-24
1.116052717e-23
1.534669832e-23
2.1084877e-23
2.834103927e-23
3.659403938e-23
4.455142486e-23
5.002751064e-23
1.149482298e-23
1.445727323e-23
1.936948486e-23
2.664755434e-23
3.662839844e-23
4.925535263e-23
6.362255085e-23
7.746877935e-23
8.690742489e-23
1.994361788e-23
2.509266676e-23
3.363408835e-23
4.62957978e-23
6.366995792e-23
8.566518265e-23
1.10710147e-22
1.348644353e-22
1.513304585e-22
3.462422647e-23
4.358038312e-23
5.844475002e-23
8.049454448e-23
1.107763978e-22
1.491508653e-22
1.92896621e-22
2.351419168e-22
2.639864943e-22
6.015836751e-23
7.575314005e-23
1.016530568e-22
1.40109286e-22
1.929870182e-22
2.600961489e-22
3.3673477e-22
4.109007561e-22
4.616795572e-22
1.046273902e-22
1.318225058e-22
1.770304516e-22
2.44244528e-22
3.368264785e-22
4.545843862e-22
5.894248595e-22
7.203431902e-22
8.103810231e-22
1.822028378e-22
2.29725677e-22
3.08827651e-22
4.266543605e-22
5.893555075e-22
7.969562713e-22
1.035605224e-21
1.26844942e-21
1.429700523e-21
3.178283077e-22
4.011044462e-22
5.399652871e-22
7.473427546e-22
1.034695401e-21
1.402975878e-21
1.828679864e-21
2.246947028e-21
2.539561929e-21
5.556135132e-22
7.020744541e-22
9.468874415e-22
1.313787372e-21
1.824586425e-21
2.483197285e-21
3.250239955e-21
4.011133643e-21
4.550954227e-21
9.740169094e-22
1.232811645e-21
1.666795483e-21
2.320260667e-21
3.235711038e-21
4.425454973e-21
5.824767254e-21
7.230342234e-21
8.245911357e-21
1.7135936e-21
2.173578844e-21
2.948210604e-21
4.121706581e-21
5.778905123e-21
7.954449823e-21
1.054509011e-20
1.318828761e-20
1.514149628e-20
3.028320278e-21
3.851847102e-21
5.246167227e-21
7.374668172e-21
1.041067216e-20
1.444591388e-20
1.932363517e-20
2.439378537e-20
2.823971687e-20
5.381833909e-21
6.869153442e-21
9.40418181e-21
1.331050583e-20
1.89498455e-20
2.655598594e-20
3.591165881e-20
4.584439673e-20
5.35990724e-20
9.630650899e-21
1.23446461e-20
1.700780392e-20
2.427406519e-20
3.491252279e-20
4.950368603e-20
6.780298422e-20
8.768247604e-20
1.036769681e-19
1.737882716e-20
2.239058493e-20
3.10833361e-20
4.480396564e-20
6.521340607e-20
9.372633967e-20
1.302355811e-19
1.708531448e-19
2.045236706e-19
3.167685382e-20
4.105732913e-20
5.750303621e-20
8.383601245e-20
1.236881615e-19
1.80457629e-19
2.547088917e-19
3.39283554e-19
4.113975406e-19
5.842515154e-20
7.624618409e-20
1.078611821e-19
1.592713113e-19
2.384929001e-19
3.53590166e-19
5.07289587e-19
6.862830381e-19
8.428133906e-19
1.092483995e-19
1.436545473e-19
2.05463365e-19
3.07593331e-19
4.678486371e-19
7.051504682e-19
1.02820891e-18
1.411948349e-18
1.754808319e-18
2.075017788e-19
2.750668706e-19
3.980099164e-19
6.044012337e-19
9.33903736e-19
1.430387932e-18
2.117771528e-18
2.947888353e-18
3.702309858e-18
4.010795141e-19
5.361058439e-19
7.848893987e-19
1.20880876e-18
1.896194026e-18
2.947402389e-18
4.422684274e-18
6.227021205e-18
7.887115675e-18
7.902873883e-19
1.064936218e-18
1.576810989e-18
2.460540395e-18
3.912090366e-18
6.157419222e-18
9.339023843e-18
1.326299856e-17
1.690051802e-17
1.589701401e-18
2.158147362e-18
3.22798157e-18
5.094480943e-18
8.189240882e-18
1.301150623e-17
1.988018067e-17
2.838416488e-17
3.62898607e-17
3.268021801e-18
4.464507191e-18
6.733105768e-18
1.07195045e-17
1.73642448e-17
2.774624429e-17
4.254074124e-17
6.084305769e-17
7.783017788e-17
6.869507369e-18
9.428661304e-18
1.430332605e-17
2.289803214e-17
3.723566481e-17
5.958987404e-17
9.130488894e-17
1.3032656e-16
1.663303697e-16
1.47623754e-17
2.031970231e-17
3.092208874e-17
4.960569207e-17
8.065998053e-17
1.287483116e-16
1.963541884e-16
2.787078506e-16
3.539284375e-16
3.239451539e-17
4.463410993e-17
6.795670765e-17
1.088918915e-16
1.764241828e-16
2.798777323e-16
4.234215653e-16
5.958363118e-16
7.511116098e-16
7.241197102e-17
9.971513524e-17
1.515692089e-16
2.420039329e-16
3.897408261e-16
6.131460369e-16
9.184291837e-16
1.279120093e-15
1.598410995e-15
1.642256426e-16
2.25788795e-16
3.422158826e-16
5.43868719e-16
8.701533645e-16
1.357777708e-15
2.015308349e-15
2.7809584e-15
3.447311899e-15
3.757788084e-16
5.156521248e-16
7.792199361e-16
1.233419909e-15
1.964086551e-15
3.050023689e-15
4.507811398e-15
6.198319149e-15
7.657500912e-15
8.615881817e-16
1.180428994e-15
1.780336307e-15
2.813392786e-15
4.478161745e-15
6.967923396e-15
1.035114016e-14
1.433959914e-14
1.782243718e-14
1.965125554e-15
2.690692396e-15
4.058394495e-15
6.426441901e-15
1.028788449e-14
1.618638681e-14
2.446219021e-14
3.460622381e-14
4.378019628e-14
4.431278784e-15
6.072809866e-15
9.18503404e-15
1.46388473e-14
2.37256801e-14
3.807974527e-14
5.913618558e-14
8.628141414e-14
1.119903675e-13
9.848862718e-15
1.353649035e-14
2.059431466e-14
3.317706763e-14
5.471660709e-14
9.000334735e-14
1.440043912e-13
2.165587222e-13
2.876717967e-13
2.162405562e-14
2.987805454e-14
4.586249715e-14
7.489139978e-14
1.258110078e-13
2.114946693e-13
3.455959074e-13
5.278409779e-13
7.065324826e-13
4.734153493e-14
6.58908365e-14
1.021925377e-13
1.690169478e-13
2.877033793e-13
4.882785911e-13
7.983395944e-13
1.205700018e-12
1.586065959e-12
1.048927191e-13
1.469958308e-13
2.297662254e-13
3.823270707e-13
6.50901675e-13
1.092226551e-12
1.737740581e-12
2.518211963e-12
3.180215938e-12
2.383349271e-13
3.345554735e-13
5.222968135e-13
8.620417362e-13
1.438259839e-12
2.325944142e-12
3.506800533e-12
4.779594225e-12
5.745813864e-12
5.556416343e-13
7.727555679e-13
1.186043987e-12
1.90249431e-12
3.038043751e-12
4.628734031e-12
6.519124016e-12
8.35052038e-12
9.630214314e-12
1.302371923e-12
1.769098198e-12
2.619697577e-12
3.9993231e-12
5.99838537e-12
8.525134365e-12
1.126122665e-11
1.374530969e-11
1.54080284e-11
2.955665819e-12
3.871984762e-12
5.448802831e-12
7.814629039e-12
1.095615835e-11
1.463549999e-11
1.843036522e-11
2.179107406e-11
2.400052016e-11
6.239549793e-12
7.836119464e-12
1.043244533e-11
1.408266511e-11
1.866518334e-11
2.385407258e-11
2.913787679e-11
3.380099728e-11
3.684922578e-11
1.196662755e-11
1.446041854e-11
1.836705977e-11
2.367723801e-11
3.021484309e-11
3.758583507e-11
4.512644085e-11
5.182071586e-11
5.620308178e-11
2.091500046e-11
2.457684174e-11
3.023418875e-11
3.786611807e-11
4.727653549e-11
5.797979273e-11
6.905682668e-11
7.900494282e-11
8.55772185e-11
3.400940415e-11
3.929690625e-11
4.7463706e-11
5.853111506e-11
7.231644792e-11
8.820404929e-11
1.049074499e-10
1.201680827e-10
1.304175545e-10
5.256572686e-11
6.021429789e-11
7.208999585e-11
8.832961992e-11
1.08806128e-10
1.327899546e-10
1.584980796e-10
1.824982732e-10
1.989753228e-10
7.83803974e-11
8.948486974e-11
1.068367582e-10
1.308070499e-10
1.614637751e-10
1.980277516e-10
2.380728154e-10
2.763610489e-10
3.032963342e-10
1.137487524e-10
1.298410187e-10
1.551723701e-10
1.905575023e-10
2.364990857e-10
2.923295763e-10
3.548221163e-10
4.160027443e-10
4.600787668e-10
1.614987442e-10
1.84677613e-10
2.214425757e-10
2.733775731e-10
3.418068111e-10
4.264632015e-10
5.231511252e-10
6.198476936e-10
6.909977487e-10
2.251887441e-10
2.582463662e-10
3.110595662e-10
3.864408332e-10
4.870860378e-10
6.135516276e-10
7.604795711e-10
9.100426645e-10
1.022038616e-09
3.094644645e-10
3.560048751e-10
4.308171326e-10
5.385226577e-10
6.838755697e-10
8.687720911e-10
1.086432868e-09
1.311025342e-09
1.481544945e-09
4.206460773e-10
4.851696058e-10
5.893589793e-10
7.402893065e-10
9.455102051e-10
1.208765937e-09
1.521468961e-09
1.847217673e-09
2.097130075e-09
5.675029724e-10
6.55421303e-10
7.977413943e-10
1.00459899e-09
1.28698799e-09
1.650857499e-09
2.085238278e-09
2.540421418e-09
2.892295788e-09
7.620289698e-10
8.795685444e-10
1.069899065e-09
1.34665859e-09
1.724693789e-09
2.212245466e-09
2.795235724e-09
3.408094194e-09
3.884549169e-09
1.019889999e-09
1.173846215e-09
1.422715093e-09
1.783804133e-09
2.27589318e-09
2.909368687e-09
3.666530363e-09
4.464529098e-09
5.091233385e-09
1.360184441e-09
1.55751906e-09
1.875424716e-09
2.3347364e-09
2.957984947e-09
3.757646032e-09
4.71286863e-09
5.725973976e-09
6.528782291e-09
1.804325346e-09
2.051667667e-09
2.448346547e-09
3.018376803e-09
3.787934839e-09
4.772198456e-09
5.950585155e-09
7.200528626e-09
8.185393629e-09
2.374249835e-09
2.677480837e-09
3.161494278e-09
3.853194642e-09
4.783189039e-09
5.972925816e-09
7.388028642e-09
8.874079673e-09
1.00405649e-08
3.090827268e-09
3.455099001e-09
4.034329476e-09
4.858843254e-09
5.967785545e-09
7.368168589e-09
9.012939557e-09
1.072654188e-08
1.206907097e-08
3.974349268e-09
4.405455211e-09
5.092456118e-09
6.063469677e-09
7.346962125e-09
8.947276266e-09
1.080653718e-08
1.272792084e-08
1.422678696e-08
5.055266845e-09
5.560256158e-09
6.353941945e-09
7.462866387e-09
8.910489669e-09
1.069429587e-08
1.27447797e-08
1.484571224e-08
1.647599185e-08
6.343782233e-09
6.917410636e-09
7.811209822e-09
9.04743966e-09
1.064321363e-08
1.258723329e-08
1.4798058e-08
1.704301354e-08
1.877443633e-08
7.831920757e-09
8.468379681e-09
9.452748901e-09
1.080141601e-08
1.25236264e-08
1.459815863e-08
1.693204978e-08
1.927994947e-08
2.107846803e-08
9.507487213e-09
1.019889725e-08
1.126080956e-08
1.270250173e-08
1.452418908e-08
1.669421355e-08
1.91091802e-08
2.151543127e-08
2.334506642e-08
1.135198076e-08
1.208816542e-08
1.32112437e-08
1.472250023e-08
1.661244735e-08
1.883908903e-08
2.12902897e-08
2.370884457e-08
2.553343904e-08
1.334054744e-08
1.410927492e-08
1.527432511e-08
1.682851839e-08
1.875251886e-08
2.099467295e-08
2.343629254e-08
2.582156451e-08
2.760630609e-08
1.544283557e-08
1.623027159e-08
1.741603566e-08
1.898444967e-08
2.090670319e-08
2.312268209e-08
2.55096968e-08
2.781822264e-08
2.953084801e-08
1.762425958e-08
1.841552484e-08
1.959954521e-08
2.115253875e-08
2.303706931e-08
2.518617776e-08
2.747591579e-08
2.966762858e-08
3.127904007e-08
1.984743193e-08
2.062720639e-08
2.178673173e-08
2.329491285e-08
2.51069482e-08
2.715095997e-08
2.930448109e-08
3.134347765e-08
3.282592708e-08
2.207363236e-08
2.282676612e-08
2.393964519e-08
2.53749995e-08
2.708227649e-08
2.898690593e-08
3.097090404e-08
3.282917994e-08
3.416756148e-08
2.426423493e-08
2.497633117e-08
2.602184114e-08
2.7358726e-08
2.893252308e-08
3.066826182e-08
3.245513776e-08
3.411010727e-08
3.529060075e-08
2.638204049e-08
2.703998515e-08
2.799956564e-08
2.921556153e-08
3.063155655e-08
3.217441809e-08
3.374285966e-08
3.517812446e-08
3.619132568e-08
2.839246988e-08
2.89848834e-08
2.984274263e-08
3.091932221e-08
3.21582177e-08
3.349021783e-08
3.482548314e-08
3.603098637e-08
3.687212345e-08
3.026456096e-08
3.07821392e-08
3.152568005e-08
3.244861619e-08
3.349640835e-08
3.460557217e-08
3.569914163e-08
3.667048009e-08
3.733852097e-08
3.197163506e-08
3.240731177e-08
3.302725642e-08
3.378656476e-08
3.463412391e-08
3.551348041e-08
3.636120481e-08
3.709709087e-08
3.759242327e-08
3.349114942e-08
3.383989262e-08
3.432973457e-08
3.491847979e-08
3.555935943e-08
3.620315015e-08
3.680034852e-08
3.729760247e-08
3.760520994e-08
3.480180417e-08
3.505951018e-08
3.541311434e-08
3.582263677e-08
3.62478843e-08
3.664137107e-08
3.695763307e-08
3.720150919e-08
3.735024075e-08
3.586996378e-08
3.603169219e-08
3.623956374e-08
3.644002472e-08
3.662248267e-08
3.676877382e-08
3.68664727e-08
3.691994533e-08
3.694059249e-08
3.660047438e-08
3.665220285e-08
3.670731946e-08
3.674239615e-08
3.67431249e-08
3.670042164e-08
3.661598492e-08
3.650865632e-08
3.641936835e-08
3.702811741e-08
3.699890113e-08
3.69400548e-08
3.683879884e-08
3.668661405e-08
3.648278828e-08
3.62401019e-08
3.599258202e-08
3.580749068e-08
3.72429625e-08
3.714568632e-08
3.698992902e-08
3.676974575e-08
3.648338338e-08
3.613816141e-08
3.575682004e-08
3.538713462e-08
3.511911669e-08
3.727847184e-08
3.712124403e-08
3.687999807e-08
3.655469589e-08
3.615017245e-08
3.568126916e-08
3.517965126e-08
3.47049897e-08
3.436637307e-08
3.715155801e-08
3.694137588e-08
3.662487565e-08
3.620751237e-08
3.57003134e-08
3.512498663e-08
3.452100838e-08
3.39580231e-08
3.356064246e-08
3.687552715e-08
3.661928329e-08
3.623767333e-08
3.574125995e-08
3.514675454e-08
3.448197547e-08
3.379305127e-08
3.315772306e-08
3.271279748e-08
3.646389042e-08
3.616852403e-08
3.573196569e-08
3.516943381e-08
3.450272769e-08
3.376495855e-08
3.300774781e-08
3.231515866e-08
3.183314687e-08
3.593116646e-08
3.560356329e-08
3.51220656e-08
3.450602743e-08
3.378167879e-08
3.298657913e-08
3.217671882e-08
3.144084446e-08
3.093132671e-08
3.529273063e-08
3.493956833e-08
3.442276863e-08
3.376525416e-08
3.299699627e-08
3.215916176e-08
3.13110483e-08
3.054460381e-08
3.001620304e-08
3.456439469e-08
3.419199706e-08
3.364896328e-08
3.296119563e-08
3.216171288e-08
3.12944774e-08
3.04211147e-08
2.963545925e-08
2.909580176e-08
3.376194587e-08
3.337616592e-08
3.281524221e-08
3.210746947e-08
3.128823876e-08
3.040354556e-08
2.95164591e-08
2.872155631e-08
2.817726771e-08
3.29007253e-08
3.250686189e-08
3.193556253e-08
3.121694829e-08
3.038814511e-08
2.949648303e-08
2.860569363e-08
2.781012003e-08
2.726685071e-08
3.199527553e-08
3.159802315e-08
3.102297243e-08
3.030154107e-08
2.947200401e-08
2.858240059e-08
2.769644869e-08
2.690744158e-08
2.636991544e-08
3.105906811e-08
3.066249632e-08
3.008940929e-08
2.937203891e-08
2.854928368e-08
2.766934529e-08
2.679535549e-08
2.601889112e-08
2.549097132e-08
3.01043125e-08
2.971187049e-08
2.914556789e-08
2.84380221e-08
2.762829523e-08
2.676428357e-08
2.590805938e-08
2.514895247e-08
2.463371858e-08
2.914184171e-08
2.87563829e-08
2.820083275e-08
2.75078225e-08
2.671618457e-08
2.587311941e-08
2.503925824e-08
2.430127505e-08
2.380110643e-08
2.818106621e-08
2.780488762e-08
2.726326628e-08
2.658853282e-08
2.581896183e-08
2.500074028e-08
2.419276049e-08
2.34787384e-08
2.29953996e-08
2.722998491e-08
2.68648765e-08
2.633964257e-08
2.568605366e-08
2.494156007e-08
2.415108446e-08
2.337155699e-08
2.268352505e-08
2.221824971e-08
2.62952412e-08
2.594254078e-08
2.543551565e-08
2.480516846e-08
2.408791537e-08
2.332722416e-08
2.257790222e-08
2.191719691e-08
2.147076777e-08
2.538221302e-08
2.504286401e-08
2.455531529e-08
2.394964019e-08
2.326106116e-08
2.253145276e-08
2.181339654e-08
2.118077283e-08
2.075359659e-08
2.449512486e-08
2.416973259e-08
2.370245461e-08
2.312231482e-08
2.246322706e-08
2.176538022e-08
2.107907313e-08
2.047480544e-08
2.006698026e-08
2.363716993e-08
2.332605542e-08
2.287944594e-08
2.232523207e-08
2.169594236e-08
2.103002592e-08
2.037548029e-08
1.97994534e-08
1.941082915e-08
2.281063885e-08
2.251388883e-08
2.208802011e-08
2.155973653e-08
2.096013691e-08
2.03259082e-08
1.970275916e-08
1.915454853e-08
1.878477948e-08
2.201704683e-08
2.173455883e-08
2.132924119e-08
2.082658314e-08
2.025623584e-08
1.965312756e-08
1.906071527e-08
1.853965673e-08
1.818824717e-08
2.125725447e-08
2.098877672e-08
2.060361463e-08
2.012603583e-08
1.958424736e-08
1.901144275e-08
1.844888317e-08
1.795413258e-08
1.762047537e-08
2.053157983e-08
2.027674587e-08
1.991118649e-08
1.945795733e-08
1.894384195e-08
1.840033891e-08
1.786658369e-08
1.739716706e-08
1.708057607e-08
1.983989974e-08
1.959825793e-08
1.925163231e-08
1.882188926e-08
1.833442246e-08
1.781908731e-08
1.731297385e-08
1.686782898e-08
1.656756573e-08
1.918173954e-08
1.895277784e-08
1.862433547e-08
1.821712215e-08
1.775518519e-08
1.726679714e-08
1.678708963e-08
1.63651002e-08
1.60803956e-08
1.855635121e-08
1.833951763e-08
1.802845489e-08
1.764275593e-08
1.720517215e-08
1.674245949e-08
1.628788228e-08
1.58879052e-08
1.561797695e-08
1.796278024e-08
1.77574995e-08
1.746298278e-08
1.709775112e-08
1.668331526e-08
1.624498435e-08
1.581424843e-08
1.543513559e-08
1.517920184e-08
1.739992209e-08
1.720560894e-08
1.692679303e-08
1.658097169e-08
1.618847308e-08
1.577323119e-08
1.536505494e-08
1.500567008e-08
1.476296004e-08
1.686656909e-08
1.668263877e-08
1.641868131e-08
1.609122036e-08
1.571946092e-08
1.532603385e-08
1.493915896e-08
1.459839046e-08
1.436815234e-08
1.636144888e-08
1.618732519e-08
1.593739779e-08
1.56272673e-08
1.527507521e-08
1.490222055e-08
1.453542387e-08
1.421219423e-08
1.399370108e-08
1.588325549e-08
1.571837684e-08
1.548167334e-08
1.518787301e-08
1.485411279e-08
1.450062959e-08
1.415273169e-08
1.384600429e-08
1.363855804e-08
1.543067397e-08
1.527449781e-08
1.50502403e-08
1.477180639e-08
1.445538604e-08
1.412012159e-08
1.378999258e-08
1.349877614e-08
1.330171032e-08
1.500239974e-08
1.48544056e-08
1.464184853e-08
1.437785855e-08
1.40777343e-08
1.375958853e-08
1.344615182e-08
1.316950316e-08
1.298218442e-08
1.459715325e-08
1.445684473e-08
1.425527757e-08
1.400485321e-08
1.372003245e-08
1.341796047e-08
1.312019472e-08
1.285722014e-08
1.267904892e-08
1.421369099e-08
1.408059689e-08
1.388934557e-08
1.365165425e-08
1.338119689e-08
1.309421007e-08
1.281114991e-08
1.256100543e-08
1.239141599e-08
1.385081334e-08
1.372448813e-08
1.35429156e-08
1.331717094e-08
1.306018966e-08
1.278735562e-08
1.251809127e-08
1.22799821e-08
1.211844199e-08
1.350736997e-08
1.338739373e-08
1.321489978e-08
1.300036121e-08
1.275602089e-08
1.249646255e-08
1.224013874e-08
1.201331813e-08
1.185932731e-08
1.318226321e-08
1.306824121e-08
1.290426177e-08
1.270023357e-08
1.246774995e-08
1.222064407e-08
1.197645839e-08
1.176022601e-08
1.161331571e-08
1.287444983e-08
1.27660118e-08
1.261001786e-08
1.241584772e-08
1.219448571e-08
1.195906091e-08
1.172626172e-08
1.151996179e-08
1.137969314e-08
1.258294158e-08
1.247974079e-08
1.233123705e-08
1.214631433e-08
1.193538595e-08
1.171092042e-08
1.148880458e-08
1.129182374e-08
1.115778634e-08
1.230680478e-08
1.2208517e-08
1.206704033e-08
1.189079412e-08
1.168965621e-08
1.14754753e-08
1.126338566e-08
1.107515078e-08
1.094696118e-08
1.204515923e-08
1.195148159e-08
1.181659938e-08
1.164849641e-08
1.145654827e-08
1.125202189e-08
1.104934479e-08
1.086932067e-08
1.074662083e-08
1.179717655e-08
1.170782634e-08
1.157913479e-08
1.141867732e-08
1.123535829e-08
1.103989834e-08
1.084606102e-08
1.067374814e-08
1.05562039e-08
1.156207814e-08
1.147679164e-08
1.135391408e-08
1.120063776e-08
1.102542474e-08
1.083848254e-08
1.065295061e-08
1.048788292e-08
1.037518247e-08
1.133913297e-08
1.125766427e-08
1.11402494e-08
1.099372117e-08
1.082612629e-08
1.064719005e-08
1.046946502e-08
1.031120776e-08
1.020306023e-08
1.112765514e-08
1.104977497e-08
1.093749525e-08
1.079731129e-08
1.063687957e-08
1.046547197e-08
1.029508886e-08
1.014323648e-08
1.003937052e-08
1.092700141e-08
1.085249602e-08
1.074504608e-08
1.061082983e-08
1.045713697e-08
1.02928128e-08
1.01293379e-08
9.983512048e-09
9.883674495e-09
1.073656871e-08
1.066523881e-08
1.056233389e-08
1.04337342e-08
1.028638444e-08
1.012872839e-08
9.971757063e-09
9.831604733e-09
9.735559364e-09
1.055579166e-08
1.04874514e-08
1.038882593e-08
1.026551525e-08
1.012413938e-08
9.972763953e-09
9.821918581e-09
9.687110324e-09
9.594636666e-09
1.038414016e-08
1.031861618e-08
1.02240224e-08
1.01056951e-08
9.96994858e-09
9.824492086e-09
9.679420183e-09
9.549648436e-09
9.460540651e-09
1.022111711e-08
1.015824764e-08
1.006745432e-08
9.953825109e-09
9.823386261e-09
9.683510988e-09
9.543883385e-09
9.418860906e-09
9.332926751e-09
1.006625615e-08
1.000589016e-08
9.918681388e-09
9.809483851e-09
9.684052235e-09
9.549442705e-09
9.41495187e-09
9.294410286e-09
9.211470141e-09
9.919119566e-09
9.86111598e-09
9.777290066e-09
9.672275282e-09
9.551570137e-09
9.421931499e-09
9.292289977e-09
9.175978422e-09
9.095864389e-09
9.779296334e-09
9.723523303e-09
9.642891716e-09
9.541826977e-09
9.425585791e-09
9.30064232e-09
9.175581282e-09
9.063265138e-09
8.985820201e-09
9.646400228e-09
9.59273445e-09
9.515120861e-09
9.417788487e-09
9.305765667e-09
9.185259378e-09
9.064527273e-09
8.955987004e-09
8.881064247e-09
9.520068092e-09
9.468394186e-09
9.393633571e-09
9.299829814e-09
9.191795452e-09
9.075484814e-09
8.958846125e-09
8.853876192e-09
8.781338083e-09
9.399958219e-09
9.35016814e-09
9.278105958e-09
9.187639984e-09
9.083378722e-09
8.971037468e-09
8.858271558e-09
8.756679421e-09
8.686397142e-09
9.285748841e-09
9.237741351e-09
9.168232776e-09
9.080925731e-09
8.980235709e-09
8.871651741e-09
8.762551788e-09
8.664156979e-09
8.596009809e-09
9.177136742e-09
9.13081691e-09
9.063726131e-09
8.979410276e-09
8.88210216e-09
8.777076537e-09
8.671448553e-09
8.576081822e-09
8.509956568e-09
9.073835961e-09
9.029114714e-09
8.964314285e-09
8.8828322e-09
8.788728293e-09
8.687074293e-09
8.58473622e-09
8.492238747e-09
8.428029218e-09
8.975576612e-09
8.93237031e-09
8.869740557e-09
8.790944407e-09
8.699877824e-09
8.601420088e-09
8.502200956e-09
8.412423624e-09
8.350030144e-09
8.882103783e-09
8.84033384e-09
8.779762305e-09
8.703513167e-09
8.615327076e-09
8.519900813e-09
8.423639975e-09
8.336442699e-09
8.275771655e-09
8.793176528e-09
8.752769053e-09
8.694149998e-09
8.620317237e-09
8.534864162e-09
8.442314418e-09
8.348860839e-09
8.264111943e-09
8.205075377e-09
8.708566944e-09
8.669452416e-09
8.61268635e-09
8.541147049e-09
8.458288228e-09
8.368469216e-09
8.277680813e-09
8.195256465e-09
8.137771685e-09
8.628059307e-09
8.590172278e-09
8.535165532e-09
8.465803967e-09
8.385408761e-09
8.298183237e-09
8.209926282e-09
8.129709962e-09
8.073699193e-09
8.551449295e-09
8.514728109e-09
8.461392447e-09
8.394099602e-09
8.316044946e-09
8.231283642e-09
8.145432204e-09
8.067314221e-09
8.012704276e-09
8.478543255e-09
8.442929799e-09
8.391182051e-09
8.325855171e-09
8.25002508e-09
8.167606177e-09
8.084041606e-09
8.00791865e-09
7.954640629e-09
8.40915753e-09
8.374597001e-09
8.324358731e-09
8.260900914e-09
8.187186017e-09
8.106994661e-09
8.025605124e-09
7.951379851e-09
7.899368869e-09
8.343117832e-09
8.309558518e-09
8.260755721e-09
8.199075543e-09
8.127372659e-09
8.049300518e-09
7.969980558e-09
7.897561217e-09
7.846756144e-09
8.280258648e-09
8.247651735e-09
8.200214551e-09
8.140225717e-09
8.070437468e-09
7.994382322e-09
7.917032467e-09
7.846332549e-09
7.796675782e-09
8.220422672e-09
8.18872206e-09
8.142584519e-09
8.084205543e-09
8.016239993e-09
7.942105364e-09
7.866631762e-09
7.797569688e-09
7.749006941e-09
8.163460245e-09
8.132622379e-09
8.087722158e-09
8.030876072e-09
7.964646404e-09
7.892341211e-09
7.818655304e-09
7.75115414e-09
7.703634254e-09
8.109228788e-09
8.079212503e-09
8.035490706e-09
7.98010479e-09
7.915528999e-09
7.844967248e-09
7.772985472e-09
7.706972681e-09
7.660447461e-09
8.057592198e-09
8.028358574e-09
7.985759524e-09
7.931765048e-09
7.868765666e-09
7.79986617e-09
7.729509691e-09
7.664916906e-09
7.619340982e-09
8.008420183e-09
7.979932399e-09
7.938403438e-09
7.885735429e-09
7.824239261e-09
7.756925371e-09
7.688119846e-09
7.624882682e-09
7.580213391e-09
7.961587473e-09
7.933810671e-09
7.893301965e-09
7.841898966e-09
7.781836836e-09
7.716036196e-09
7.648711552e-09
7.586769436e-09
7.542966735e-09
7.916972875e-09
7.88987401e-09
7.850338342e-09
7.800142168e-09
7.741448658e-09
7.677092954e-09
7.611183172e-09
7.550479197e-09
7.507505587e-09
7.874458076e-09
7.848005756e-09
7.809398294e-09
7.760353757e-09
7.702966917e-09
7.639991598e-09
7.575434489e-09
7.515915263e-09
7.473735729e-09
7.833926122e-09
7.808090404e-09
7.770368427e-09
7.72242301e-09
7.666284004e-09
7.604627951e-09
7.541364881e-09
7.482980343e-09
7.441562289e-09
7.795259447e-09
7.770011598e-09
7.733134143e-09
7.68623757e-09
7.631290224e-09
7.570895305e-09
7.508870819e-09
7.451573994e-09
7.410887142e-09
7.758337352e-09
7.733649512e-09
7.697576911e-09
7.651680584e-09
7.597870757e-09
7.538681215e-09
7.477842503e-09
7.421589115e-09
7.381605319e-09
7.723032762e-09
7.698877517e-09
7.663570765e-09
7.618626986e-09
7.56590171e-09
7.507863284e-09
7.448159386e-09
7.392907254e-09
7.353600194e-09
7.689208148e-09
7.665557935e-09
7.630977845e-09
7.586938758e-09
7.53524504e-09
7.478303722e-09
7.419684368e-09
7.36539248e-09
7.326737126e-09
7.656710443e-09
7.633536776e-09
7.599642841e-09
7.556459001e-09
7.50574218e-09
7.449842483e-09
7.392256428e-09
7.338883561e-09
7.300855338e-09
7.625364829e-09
7.602637275e-09
7.569386173e-09
7.527004649e-09
7.477206196e-09
7.422288797e-09
7.36568151e-09
7.313184248e-09
7.275757786e-09
7.594967302e-09
7.572652166e-09
7.539995833e-09
7.498357744e-09
7.449412383e-09
7.395410994e-09
7.339721545e-09
7.288051555e-09
7.251198901e-09
7.565275945e-09
7.543334625e-09
7.511217824e-09
7.470255224e-09
7.422087262e-09
7.368924618e-09
7.314081615e-09
7.263182023e-09
7.226870218e-09
7.536000946e-09
7.514387913e-09
7.482745253e-09
7.442377295e-09
7.394896083e-09
7.342478922e-09
7.288395398e-09
7.238196158e-09
7.20238407e-09
7.506793474e-09
7.485453865e-09
7.454206242e-09
7.414334582e-09
7.367429052e-09
7.315642057e-09
7.26220923e-09
7.212621416e-09
7.17725578e-09
7.47723364e-09
7.456100468e-09
7.42515094e-09
7.385654401e-09
7.339186715e-09
7.287885431e-09
7.234965365e-09
7.185874387e-09
7.150885038e-09
7.446817934e-09
7.425808962e-09
7.39503811e-09
7.355766697e-09
7.309565099e-09
7.258567947e-09
7.205985239e-09
7.157243102e-09
7.122537478e-09
7.414946665e-09
7.393961016e-09
7.363221942e-09
7.323990365e-09
7.277841462e-09
7.226921092e-09
7.174453842e-09
7.125870695e-09
7.091327772e-09
7.380912117e-09
7.359826762e-09
7.328939901e-09
7.289520894e-09
7.243161695e-09
7.192036085e-09
7.139406585e-09
7.090741946e-09
7.056205896e-09
7.343888294e-09
7.32255461e-09
7.291302666e-09
7.251420481e-09
7.204530686e-09
7.152854532e-09
7.099720258e-09
7.050674512e-09
7.015948502e-09
7.30292333e-09
7.281163952e-09
7.249287322e-09
7.208611919e-09
7.160807088e-09
7.108164235e-09
7.054109946e-09
7.004316867e-09
6.969157548e-09
7.256935804e-09
7.234542125e-09
7.201735264e-09
7.159877751e-09
7.110704064e-09
7.056601854e-09
7.001133827e-09
6.950155076e-09
6.914268461e-09
7.204716102e-09
7.181446751e-09
7.147356079e-09
7.103866245e-09
7.052797848e-09
6.996664407e-09
6.939207755e-09
6.886530472e-09
6.84957004e-09
7.144934301e-09
7.120515006e-09
7.084738917e-09
7.039105585e-09
6.985545444e-09
6.926731102e-09
6.866631627e-09
6.811670208e-09
6.773238059e-09
7.076155824e-09
7.050281091e-09
7.01237271e-09
6.964027756e-09
6.90731305e-09
6.84509702e-09
6.781628704e-09
6.723732076e-09
6.683384046e-09
6.996866009e-09
6.96920303e-09
6.928676336e-09
6.87700317e-09
6.816416174e-09
6.750019561e-09
6.682398868e-09
6.620864279e-09
6.578119818e-09
6.905504463e-09
6.875699617e-09
6.832039469e-09
6.776386672e-09
6.711171917e-09
6.639777925e-09
6.567185795e-09
6.501279941e-09
6.455637334e-09
6.800509657e-09
6.768197884e-09
6.720874337e-09
6.660574902e-09
6.589963132e-09
6.512744985e-09
6.434356979e-09
6.363344857e-09
6.314302031e-09
6.680373657e-09
6.645190843e-09
6.593677921e-09