/*--------------------------------*- C++ -*----------------------------------*\
| =========                 |                                                 |
| \\      /  F ield         | OpenFOAM: The Open Source CFD Toolbox           |
|  \\    /   O peration     | Version:  2212                                  |
|   \\  /    A nd           | Website:  www.openfoam.com                      |
|    \\/     M anipulation  |                                                 |
\*---------------------------------------------------------------------------*/
FoamFile
{
    version     2.0;
    format      ascii;
    arch        "LSB;label=32;scalar=64";
    class       volScalarField;
    location    "30.00000000";
    object      PC3H4_0;
}
// * * * * * * * * * * * * * * * * * * * * * * * * * * * * * * * * * * * * * //

dimensions      [0 0 0 0 0 0 0];

internalField   nonuniform List<scalar> 
3000
(
1.075352757e-20
1.208062567e-20
1.408316693e-20
1.675161926e-20
2.005869574e-20
2.391435148e-20
2.808609626e-20
3.206626939e-20
3.488039266e-20
4.037504214e-20
4.554053871e-20
5.333165477e-20
6.373639956e-20
7.674351767e-20
9.227970832e-20
1.100740021e-19
1.292299206e-19
1.461966717e-19
9.044482572e-20
1.028168539e-19
1.216554092e-19
1.472316185e-19
1.800020077e-19
2.204372868e-19
2.683730007e-19
3.211197493e-19
3.661930349e-19
1.722899657e-19
1.979078084e-19
2.374871411e-19
2.923632662e-19
3.644724804e-19
4.5563553e-19
5.653426855e-19
6.84815203e-19
7.81239359e-19
3.059779519e-19
3.557837802e-19
4.339454747e-19
5.444280507e-19
6.924178381e-19
8.820492074e-19
1.110141708e-18
1.352350623e-18
1.538283719e-18
5.262177989e-19
6.196971779e-19
7.685025792e-19
9.821273626e-19
1.27196454e-18
1.645311823e-18
2.091031051e-18
2.552935395e-18
2.894687165e-18
8.934524438e-19
1.065158761e-18
1.341672968e-18
1.743116098e-18
2.291837416e-18
2.998749908e-18
3.834623927e-18
4.683897671e-18
5.29668956e-18
1.512262664e-18
1.822987948e-18
2.327816177e-18
3.06637557e-18
4.07982679e-18
5.382740254e-18
6.909737519e-18
8.438556488e-18
9.523247042e-18
2.563979628e-18
3.12033895e-18
4.030052412e-18
5.367628955e-18
7.206215093e-18
9.563401012e-18
1.230601074e-17
1.502330396e-17
1.692996508e-17
4.362947764e-18
5.351340767e-18
6.97476817e-18
9.369243312e-18
1.266231163e-17
1.687281778e-17
2.174443261e-17
2.653577901e-17
2.98730112e-17
7.45483884e-18
9.200726657e-18
1.207711812e-17
1.632755328e-17
2.217212967e-17
2.962680383e-17
3.821540783e-17
4.661977418e-17
5.244593562e-17
1.27878336e-17
1.58591913e-17
2.092954698e-17
2.842936273e-17
3.873574628e-17
5.185155778e-17
6.691094747e-17
8.159615417e-17
9.175488927e-17
2.201122912e-17
2.739981522e-17
3.630729172e-17
4.948807468e-17
6.758355795e-17
9.055438102e-17
1.16835794e-16
1.423922692e-16
1.601379828e-16
3.799482954e-17
4.743426306e-17
6.305344362e-17
8.61712938e-17
1.178747621e-16
1.579970056e-16
2.036349886e-16
2.476972683e-16
2.791279392e-16
6.572782233e-17
8.224926162e-17
1.096170235e-16
1.501566084e-16
2.057562897e-16
2.759830756e-16
3.550923675e-16
4.278877457e-16
4.872807784e-16
1.138648583e-16
1.427511604e-16
1.906626745e-16
2.617599291e-16
3.595856531e-16
4.841227672e-16
6.276730259e-16
7.709828551e-16
8.609210386e-16
1.973905691e-16
2.477911718e-16
3.314316669e-16
4.555850607e-16
6.263616698e-16
8.433510377e-16
1.091639761e-15
1.332382513e-15
1.495887224e-15
3.422790012e-16
4.300513844e-16
5.757291509e-16
7.919248522e-16
1.089090712e-15
1.466110513e-15
1.896483155e-15
2.312752868e-15
2.597703717e-15
5.935972555e-16
7.46264587e-16
9.996611059e-16
1.375658702e-15
1.892265625e-15
2.547289445e-15
3.29450937e-15
4.016989155e-15
4.51188208e-15
1.029573052e-15
1.294933489e-15
1.735402917e-15
2.388948507e-15
3.286734246e-15
4.424760142e-15
5.722591829e-15
6.977166156e-15
7.836451187e-15
1.786017108e-15
2.247087924e-15
3.012466302e-15
4.148088176e-15
5.707967993e-15
7.684935499e-15
9.93904534e-15
1.211754678e-14
1.360940667e-14
3.098731884e-15
3.899697201e-15
5.229375539e-15
7.202272294e-15
9.912037296e-15
1.334588451e-14
1.726037156e-14
2.104281748e-14
2.363260191e-14
5.377155373e-15
6.768423369e-15
9.078133333e-15
1.250508409e-14
1.721161824e-14
2.317498054e-14
2.997182332e-14
3.653814128e-14
4.103341476e-14
9.332245451e-15
1.174868962e-14
1.57603369e-14
2.171217769e-14
2.988547538e-14
4.023968875e-14
5.20387599e-14
6.343536757e-14
7.12363241e-14
1.619849632e-14
2.039528943e-14
2.73622871e-14
3.769783041e-14
5.188879877e-14
6.986262444e-14
9.033952386e-14
1.101129686e-13
1.236449257e-13
2.811927731e-14
3.540765561e-14
4.750586344e-14
6.545087796e-14
9.008449426e-14
1.212758491e-13
1.56799374e-13
1.91091057e-13
2.14551675e-13
4.881532185e-14
6.147165855e-14
8.247728646e-14
1.136275516e-13
1.563752571e-13
2.104820537e-13
2.720766145e-13
3.315083191e-13
3.72151903e-13
8.474315445e-14
1.067180514e-13
1.431818165e-13
1.972385494e-13
2.713893484e-13
3.651944203e-13
4.71916952e-13
5.748277596e-13
6.451651463e-13
1.471000741e-13
1.852460281e-13
2.485239222e-13
3.422909209e-13
4.708384624e-13
6.333424134e-13
8.180729158e-13
9.960528726e-13
1.117601218e-12
2.552882197e-13
3.214813769e-13
4.312397895e-13
5.937867544e-13
8.164526975e-13
1.097667022e-12
1.416992799e-12
1.724291797e-12
1.933925555e-12
4.428857702e-13
5.576839351e-13
7.479325268e-13
1.029460648e-12
1.414715926e-12
1.900654519e-12
2.451644904e-12
2.981061208e-12
3.341684041e-12
7.679101934e-13
9.668389815e-13
1.296276101e-12
1.783275359e-12
2.448811348e-12
3.286895101e-12
4.235366567e-12
5.144853801e-12
5.7631609e-12
1.330396537e-12
1.674706756e-12
2.244376983e-12
3.085400053e-12
4.232768517e-12
5.674555942e-12
7.302285431e-12
8.859064868e-12
9.914775537e-12
2.30237849e-12
2.897358623e-12
3.880614748e-12
5.329811427e-12
7.302587582e-12
9.775005355e-12
1.255778415e-11
1.521062962e-11
1.700397869e-11
3.978774071e-12
5.004724014e-12
6.697706743e-12
9.187766208e-12
1.256831063e-11
1.679114456e-11
2.152628425e-11
2.602240694e-11
2.905019137e-11
6.863271106e-12
8.62748852e-12
1.153345534e-11
1.579666178e-11
2.156536967e-11
2.874271899e-11
3.675454456e-11
4.432583057e-11
4.940128314e-11
1.181237808e-11
1.483562443e-11
1.98044353e-11
2.707136917e-11
3.686555236e-11
4.899358009e-11
6.24597189e-11
7.511479895e-11
8.355345284e-11
2.027535243e-11
2.543416898e-11
3.389039866e-11
4.621203417e-11
6.274102278e-11
8.309530395e-11
1.05556592e-10
1.265313658e-10
1.404344438e-10
3.469076545e-11
4.34489468e-11
5.776019962e-11
7.852283484e-11
1.062236601e-10
1.401187288e-10
1.772629872e-10
2.117040626e-10
2.343835225e-10
5.913649731e-11
7.391661989e-11
9.797989251e-11
1.327160417e-10
1.787727389e-10
2.347264549e-10
2.955733466e-10
3.515580977e-10
3.881643499e-10
1.003854835e-10
1.251566267e-10
1.653176744e-10
2.229627552e-10
2.988649557e-10
3.903540142e-10
4.890174823e-10
5.790535067e-10
6.374895338e-10
1.696037608e-10
2.107967908e-10
2.772685025e-10
3.720763673e-10
4.959631496e-10
6.440273523e-10
8.022977112e-10
9.454968698e-10
1.037733225e-09
2.850529691e-10
3.529626107e-10
4.619769214e-10
6.163911976e-10
8.165189653e-10
1.053566189e-09
1.304641468e-09
1.529834406e-09
1.67378143e-09
4.763434563e-10
5.872397836e-10
7.642577881e-10
1.013145951e-09
1.332941058e-09
1.708230007e-09
2.102043681e-09
2.45219663e-09
2.674347327e-09
7.91048793e-10
9.703031279e-10
1.254725061e-09
1.651525531e-09
2.156843051e-09
2.744287954e-09
3.355038879e-09
3.893464901e-09
4.232599822e-09
1.304866497e-09
1.591502493e-09
2.04347047e-09
2.668990484e-09
3.458413675e-09
4.367579591e-09
5.304284906e-09
6.12331893e-09
6.635670336e-09
2.137029827e-09
2.590246297e-09
3.300329119e-09
4.275178284e-09
5.494478344e-09
6.885938806e-09
8.307122068e-09
9.540169789e-09
1.030658656e-08
3.473388881e-09
4.181776855e-09
5.284584082e-09
6.786557691e-09
8.648816998e-09
1.075545607e-08
1.288947875e-08
1.472767713e-08
1.586352877e-08
5.600547521e-09
6.69495535e-09
8.388070654e-09
1.067623835e-08
1.348965816e-08
1.664605521e-08
1.981913898e-08
2.253431499e-08
2.420314564e-08
8.955747096e-09
1.062705572e-08
1.319713821e-08
1.664498655e-08
2.085109802e-08
2.553388831e-08
3.020861506e-08
3.418485521e-08
3.661717959e-08
1.419893661e-08
1.672242151e-08
2.058093718e-08
2.572170455e-08
3.194763319e-08
3.88307545e-08
4.565884765e-08
5.143588319e-08
5.495506771e-08
2.231580226e-08
2.60843201e-08
3.181617839e-08
3.940454981e-08
4.853419218e-08
5.856426846e-08
6.845884598e-08
7.679168582e-08
8.184975051e-08
3.476362569e-08
4.033266022e-08
4.876211116e-08
5.985773301e-08
7.312817657e-08
8.762693861e-08
1.018612404e-07
1.138022061e-07
1.210295625e-07
5.367501761e-08
6.182306031e-08
7.410205521e-08
9.018207836e-08
1.093143598e-07
1.301181902e-07
1.504602986e-07
1.674713295e-07
1.777448584e-07
8.213692883e-08
9.394664333e-08
1.11674631e-07
1.347863594e-07
1.621621394e-07
1.918098433e-07
2.207034372e-07
2.44805891e-07
2.593389311e-07
1.245791543e-07
1.41545987e-07
1.669293122e-07
1.998928613e-07
2.387887894e-07
2.807699136e-07
3.215708903e-07
3.55536865e-07
3.759893756e-07
1.873024989e-07
2.114788373e-07
2.475421436e-07
2.942185486e-07
3.491144176e-07
4.081914413e-07
4.654672021e-07
5.130525705e-07
5.416599896e-07
2.791937439e-07
3.133789966e-07
3.642431554e-07
4.29884639e-07
5.068610832e-07
5.894769078e-07
6.693766168e-07
7.356102454e-07
7.753538821e-07
4.126840714e-07
4.606722532e-07
5.319140928e-07
6.236123132e-07
7.308515361e-07
8.456363878e-07
9.563604045e-07
1.047936448e-06
1.102791104e-06
6.050129346e-07
6.719079474e-07
7.710139444e-07
8.982586097e-07
1.046665989e-06
1.205083101e-06
1.357515364e-06
1.483336093e-06
1.558600665e-06
8.798480415e-07
9.724529011e-07
1.109376905e-06
1.284747225e-06
1.488746221e-06
1.705957728e-06
1.914522319e-06
2.08640647e-06
2.189122059e-06
1.269284532e-06
1.396576762e-06
1.584433986e-06
1.824490914e-06
2.103086444e-06
2.399108959e-06
2.68287566e-06
2.916458538e-06
3.05594262e-06
1.81625845e-06
1.989996772e-06
2.245972983e-06
2.572446347e-06
2.950617851e-06
3.35179214e-06
3.73587194e-06
4.051748905e-06
4.240275767e-06
2.577501335e-06
2.813023379e-06
3.159560305e-06
3.6008597e-06
4.111294383e-06
4.652113065e-06
5.169405862e-06
5.594576894e-06
5.848250181e-06
3.627138734e-06
3.944352072e-06
4.410593941e-06
5.003633019e-06
5.688831298e-06
6.414168587e-06
7.107520839e-06
7.677197679e-06
8.017042917e-06
5.060818811e-06
5.485355496e-06
6.108838367e-06
6.90118087e-06
7.815925233e-06
8.783694835e-06
9.7084974e-06
1.046828552e-05
1.092157937e-05
7.000163769e-06
7.564679363e-06
8.393221359e-06
9.445473516e-06
1.065964548e-05
1.194383179e-05
1.317098382e-05
1.417938784e-05
1.478119303e-05
9.597289516e-06
1.034282419e-05
1.143653478e-05
1.282492077e-05
1.442648122e-05
1.61203366e-05
1.77393718e-05
1.907043988e-05
1.986522927e-05
1.303906232e-05
1.401640746e-05
1.544966454e-05
1.726849967e-05
1.936632073e-05
2.158535855e-05
2.370733018e-05
2.545306797e-05
2.649619943e-05
1.755081104e-05
1.882167743e-05
2.068478345e-05
2.304848553e-05
2.577455716e-05
2.86587696e-05
3.141827684e-05
3.369026237e-05
3.504893496e-05
2.339902253e-05
2.503679808e-05
2.743697721e-05
3.048113993e-05
3.399154581e-05
3.770613297e-05
4.126172644e-05
4.41912315e-05
4.59444728e-05
3.089259467e-05
3.298243559e-05
3.604378234e-05
3.992479185e-05
4.439882143e-05
4.913272101e-05
5.366496668e-05
5.740095638e-05
5.963824633e-05
4.038212468e-05
4.302012261e-05
4.688212852e-05
5.17748618e-05
5.741175408e-05
6.337348677e-05
6.908029229e-05
7.378504821e-05
7.660347463e-05
5.225656962e-05
5.554777654e-05
6.036214822e-05
6.645545802e-05
7.346855653e-05
8.087933987e-05
8.796875177e-05
9.381156531e-05
9.731184425e-05
6.693647518e-05
7.099165156e-05
7.69172824e-05
8.440720841e-05
9.301564694e-05
0.0001021001924
0.0001107814892
0.0001179316997
0.000122215715
8.486299419e-05
8.979407847e-05
9.699023835e-05
0.0001060711341
0.0001164894063
0.0001274648651
0.0001379382482
0.0001465584266
0.0001517235426
0.000106482327
0.0001123968226
0.0001210149146
0.0001318689903
0.0001442949911
0.0001573583011
0.0001698033351
0.0001800328565
0.0001861545772
0.0001322261148
0.0001392208376
0.0001493954405
0.0001621816143
0.0001767841219
0.000192099733
0.0002066547241
0.0002185888661
0.0002257176751
0.0001624895181
0.0001706442719
0.0001824841251
0.0001973273035
0.0002142347666
0.00023191061
0.0002486521166
0.0002623372722
0.0002704913505
0.0001976093416
0.0002069813232
0.0002205627502
0.0002375423802
0.0002568143704
0.0002768862728
0.000295825962
0.0003112559423
0.0003204261304
0.0002378467318
0.0002484631282
0.0002638090812
0.000282932897
0.0003045562885
0.0003269859686
0.0003480654859
0.0003651766742
0.00037531783
0.0002833392048
0.0002951831029
0.0003122593503
0.0003334677764
0.0003573539814
0.0003820264325
0.0004051166479
0.000423788908
0.0004348226073
0.0003340757088
0.0003470906718
0.0003658064802
0.0003889715685
0.0004149570896
0.0004416826101
0.0004665871816
0.0004866481157
0.0004984660031
0.0003898954635
0.0004039860307
0.0004241957922
0.0004491240618
0.00047697517
0.0005054957366
0.0005319585299
0.0005531905778
0.0005656591217
0.0004504861575
0.0004655205333
0.0004870283234
0.000513467335
0.0005428886724
0.0005728880573
0.0006006036871
0.0006227534115
0.0006357197695
0.0005153899126
0.0005312047238
0.0005537716351
0.0005814197728
0.0006120661637
0.0006431828889
0.0006718094418
0.0006945982081
0.0007078967323
0.0005840168341
0.0006004235665
0.0006237772371
0.00065229587
0.0006837863421
0.0007156283998
0.000744801328
0.0007679365775
0.0007813955045
0.0006556650578
0.0006724576339
0.0006963031905
0.0007253302313
0.0007572631526
0.0007894233907
0.0008187696051
0.0008419560222
0.000855404058
0.0007295456604
0.0007465085651
0.0007705401504
0.000799704017
0.0008316722838
0.0008637434242
0.0008928946821
0.0009158446593
0.0009291180044
0.0008048105564
0.0008217269476
0.0008456390582
0.0008745721445
0.0009061774987
0.0009377658782
0.0009663704001
0.0009888115569
0.0010017535
0.0008805815188
0.000897240839
0.0009207388344
0.0009490897968
0.0009799556631
0.001010693438
0.001038426587
0.001060110856
0.001072581609
0.0009559786473
0.0009721833636
0.000994992656
0.001022436976
0.001052219259
0.001081774362
0.001108346833
0.001129056026
0.001140934207
0.001030146931
0.001045718151
0.001067591763
0.001093840271
0.001122235857
0.001150319594
0.001175483431
0.00119503323
0.00120621766
0.001102279936
0.001117061774
0.001137786124
0.001162591386
0.001189344332
0.001215716727
0.001239269393
0.001257511983
0.001267922921
0.001171640076
0.001185502753
0.001204901686
0.001228062327
0.001252967918
0.00127744111
0.001299228077
0.001316053884
0.001325634098
0.001237575401
0.001250417152
0.001268354352
0.001289717575
0.001312624578
0.001335064763
0.001354981406
0.001370320713
0.001379038324
0.001299533449
0.001311281381
0.001327661417
0.001347124176
0.001367935613
0.001388263618
0.0014062584
0.001420080955
0.001427917815
0.001357073913
0.001367683907
0.001382451853
0.0013999622
0.00141863502
0.001436815248
0.001452851094
0.001465130507
0.001472075337
0.001409884336
0.001419340229
0.001432475359
0.001448004571
0.001464509812
0.001480522509
0.001494594976
0.001505335111
0.001511393591
0.001457721806
0.001466014792
0.001477509105
0.001491057555
0.001505406183
0.001519272242
0.001531409665
0.001540639022
0.001545830383
0.001500400103
0.001507543056
0.001517418961
0.001529020837
0.001541258494
0.001553031827
0.001563290251
0.001571057677
0.001575412197
0.001537832351
0.001543856323
0.001552161069
0.001561878799
0.001572080002
0.001581841442
0.001590299444
0.001596670137
0.00160022688
0.001570021074
0.001574971935
0.001581772824
0.001589691621
0.001597953977
0.001605805582
0.00161255928
0.001617610997
0.001620415693
0.001597048078
0.001600983279
0.001606363161
0.001612585747
0.001619024378
0.001625084023
0.001630242369
0.001634061881
0.001636164968
0.001619063653
0.001622049156
0.001626102182
0.001630743809
0.001635486116
0.001639882485
0.001643562946
0.001646242817
0.001647697667
0.001636275255
0.001638382685
0.001641210391
0.001644394288
0.001647575196
0.001650443277
0.001652767984
0.001654403725
0.001655265098
0.001648936011
0.001650240112
0.001651947935
0.001653801265
0.001655559051
0.001657036221
0.001658128653
0.001658816296
0.001659139028
0.001657333482
0.001657909913
0.001658604192
0.001659254614
0.001659727375
0.001659950113
0.001659932348
0.001659766447
0.001659604378
0.001661779053
0.00166170256
0.001661488061
0.001661060904
0.001660383686
0.001659484931
0.001658475449
0.001657547503
0.001656952632
0.001662598255
0.001661941219
0.001660919182
0.001659535235
0.001657837807
0.001655944926
0.001654056944
0.001652454208
0.001651476064
0.001660122237
0.001658953585
0.001657220262
0.001654994132
0.001652399357
0.001649632683
0.001646972966
0.001644777613
0.001643462817
0.001654680504
0.00165306494
0.001650710585
0.00164774958
0.001644372316
0.001640844173
0.001637512263
0.001634800851
0.001633192834
0.00164659496
0.001644592486
0.001641700724
0.001638104175
0.001634050628
0.001629864787
0.001625952581
0.001622795772
0.001620934636
0.001636175212
0.001633840887
0.001630488415
0.001626347363
0.001621714818
0.001616966285
0.001612557901
0.001609020384
0.001606942863
0.001623715069
0.001621098958
0.001617355496
0.001612752674
0.001607629514
0.001602404592
0.001597576451
0.001593717022
0.001591456534
0.001609490093
0.001606637363
0.001602565802
0.001597575835
0.001592041783
0.001586418331
0.001581239407
0.001577111168
0.001574697924
0.001593756068
0.001590707186
0.001586363878
0.001581053646
0.001575180169
0.001569228012
0.001563760189
0.00155941082
0.001556871979
0.001576748249
0.001573539259
0.00156897441
0.001563403507
0.001557254308
0.001551035717
0.001545334224
0.00154080632
0.001538166175
0.001558681229
0.001555344069
0.001550602168
0.001544823424
0.001538455006
0.001532025243
0.00152613914
0.001521470576
0.001518750752
0.001539749277
0.001536312106
0.001531432398
0.001525492435
0.001518954686
0.001512362586
0.001506335256
0.001501559555
0.001498779215
0.001520127047
0.001516614595
0.001511631551
0.001505571339
0.001498908127
0.001492196656
0.001486066302
0.001481213011
0.001478389066
0.001499970557
0.001496404454
0.001491348234
0.001485203634
0.001478453376
0.001471660188
0.001465460313
0.001460555367
0.001457702669
0.001479418328
0.001475817419
0.00147071431
0.001464516592
0.001457712804
0.001450870765
0.001444630628
0.00143969669
0.001436828233
0.001458592625
0.001454973271
0.001449846098
0.001443622422
0.001436794223
0.001429931902
0.00142367695
0.001418733741
0.001415860837
0.001437600749
0.001433977095
0.001428845599
0.00142261946
0.00141579205
0.001408934173
0.001402686435
0.001397751035
0.001394883486
0.00141653632
0.00141292055
0.001407801733
0.001401593367
0.00139478845
0.001387956318
0.001381734773
0.001376821897
0.00137396815
0.001395480544
0.001391883102
0.001386791538
0.001380618291
0.001373854469
0.001367066335
0.001360887244
0.001356009496
0.001353176789
0.001374503416
0.001370933209
0.001365881325
0.001359757983
0.001353051109
0.001346322519
0.001340199725
0.001335367836
0.001332562327
0.001353664866
0.001350129443
0.001345127769
0.001339066857
0.001332430348
0.001325774453
0.001319719657
0.001314942687
0.001312169574
0.00133301582
0.001329521536
0.00132457893
0.001318590973
0.001312036096
0.001305463926
0.001299486932
0.001294772465
0.001292036096
0.001312599193
0.001309151348
0.001304275193
0.001298368958
0.001291905083
0.001285425797
0.00127953473
0.001274889043
0.001272193014
0.001292450787
0.001289053757
0.001284250141
0.001278432842
0.001272067667
0.001265688775
0.001259890284
0.001255318501
0.001252665741
0.001272600123
0.001269257469
0.00126453134
0.001258808832
0.001252548586
0.001246276145
0.001240575576
0.001236081807
0.001233474662
0.001253071189
0.001249785758
0.001245141065
0.001239518004
0.001233367626
0.001227206421
0.001221607979
0.001217195443
0.001214635743
0.001233883111
0.001230657127
0.001226096944
0.00122057694
0.001214540239
0.001208493938
0.001203000827
0.001198671962
0.001196161087
0.001215050769
0.001211885909
0.001207412542
0.00120199829
0.001196078089
0.001190149384
0.001184763934
0.001180520497
0.001178059435
0.001196585336
0.001193482799
0.001189097889
0.001183791287
0.001177989545
0.001172180281
0.001166904059
0.001162747214
0.001160336611
0.001178494765
0.001175455337
0.001171159945
0.001165962194
0.001160280126
0.001154591407
0.001149425323
0.001145355718
0.001142995924
0.001160784227
0.001157808334
0.001153603016
0.001148514718
0.001142952888
0.001137385183
0.001132329573
0.001128347413
0.00112603852
0.001143456491
0.001140544248
0.001136429127
0.001131450365
0.001126008779
0.001120562004
0.001115616714
0.001111721823
0.001109463704
0.001126512269
0.001123663525
0.001119638348
0.001114768758
0.001109446944
0.001104120546
0.001099284999
0.001095476873
0.001093269215
0.001109950519
0.001107164892
0.001103229088
0.001098467924
0.001093265001
0.001088058024
0.001083331287
0.001079609143
0.001077451474
0.001093768708
0.001091045622
0.001087198347
0.001082544542
0.001077459279
0.001072370427
0.001067751265
0.001064114089
0.001062005799
0.00107796305
0.001075301766
0.001071541947
0.001066994159
0.001062025036
0.001057052727
0.00105253965
0.00104898623
0.001046926602
0.001062528713
0.001059928352
0.001056254724
0.001051811384
0.001046956637
0.001042099052
0.001037690361
0.001034219324
0.001032207547
0.001047460001
0.00104491957
0.001041330709
0.00103699006
0.001032247724
0.00102750285
0.001023196673
0.001019806516
0.001017841702
0.001032750508
0.001030268922
0.001026763274
0.001022523406
0.001017891355
0.001013257021
0.001009051349
0.001005740462
0.001003821665
0.001018393265
0.001015969361
0.001012545269
0.001008404151
0.001003880128
0.0009993540389
0.0009952467549
0.0009920134438
0.000990139672
0.001004380854
0.001002013412
0.0009986691372
0.0009946246396
0.0009902062903
0.0009857860552
0.0009817749581
0.0009786174688
0.000976787694
0.0009907055137
0.0009883932703
0.0009851270116
0.0009811769362
0.0009768618303
0.000972544988
0.000968627817
0.0009655443495
0.0009637575189
0.000977359236
0.0009751008928
0.0009719108061
0.0009680529031
0.0009638385583
0.0009596225992
0.0009557970526
0.0009527857772
0.0009510408222
0.0009643338387
0.0009621280767
0.0009590122879
0.0009552442746
0.0009511281761
0.000947010561
0.0009432743134
0.000940333384
0.0009386292268
0.0009516210359
0.0009494665235
0.0009464231428
0.0009427427192
0.0009387223358
0.0009347005125
0.0009310512293
0.0009281787945
0.0009265143555
0.0009392124957
0.0009371078968
0.0009341350293
0.0009305398914
0.0009266126903
0.0009226841076
0.0009191194578
0.0009163136705
0.0009146878734
0.0009270998889
0.0009250438703
0.0009221396259
0.0009186274774
0.0009147909364
0.0009109530559
0.0009074707226
0.0009047297485
0.0009031415252
0.0009152749317
0.0009132661685
0.0009104286702
0.0009069972321
0.00090324885
0.0008994991571
0.0008960968462
0.0008934188709
0.0008918671654
0.0009037294203
0.0009017666013
0.0008989939921
0.0008956410112
0.0008919783167
0.0008883143284
0.0008849897772
0.0008823730116
0.0008808567833
0.0008924552609
0.0008905370926
0.0008878275415
0.0008845507971
0.0008809713565
0.0008773906291
0.0008741416116
0.0008715842973
0.0008701025237
0.0008814444936
0.0008795697038
0.0008769214107
0.0008737187207
0.0008702201436
0.0008667202784
0.0008635446113
0.0008610450242
0.0008595967035
0.0008706893126
0.0008688566534
0.0008662678529
0.0008631370785
0.000859717023
0.0008562956715
0.0008531912179
0.0008507476717
0.0008493318241
0.0008601820819
0.0008583903321
0.0008558592972
0.0008527983464
0.0008494545233
0.0008461093907
0.0008430740639
0.0008406849123
0.0008393005821
0.0008499153483
0.0008481633151
0.0008456883595
0.0008426951906
0.0008394253663
0.0008361542147
0.0008331859807
0.0008308496198
0.0008294958756
0.0008398818511
0.0008381683716
0.0008357478516
0.0008328204754
0.0008296224746
0.0008264231253
0.0008235200044
0.0008212348738
0.0008199108103
0.0008300745286
0.0008283984713
0.0008260307876
0.0008231672688
0.0008200389761
0.0008169093111
0.0008140693798
0.0008118339639
0.0008105387016
0.0008204865242
0.000818846789
0.0008165303876
0.0008137288465
0.0008106682076
0.0008076061709
0.0008048275625
0.0008026403907
0.0008013730768
0.0008111111883
0.0008095067077
0.0008072400807
0.0008044986934
0.0008015037159
0.000798507314
0.0007957882192
0.0007936478666
0.0007924076748
0.0008019420807
0.0008003718199
0.0007981535055
0.0007954705046
0.0007925392582
0.0007896065605
0.0007869452272
0.0007848503145
0.0007836364452
0.0007929729705
0.0007914359272
0.0007892645101
0.0007866381848
0.0007837688014
0.0007808979395
0.0007782926731
0.0007762418665
0.0007750535465
0.0007841978351
0.0007826930397
0.0007805671509
0.0007779958465
0.0007751865195
0.0007723756876
0.0007698248502
0.0007678168608
0.0007666533433
0.0007756108587
0.0007741373738
0.0007720556901
0.0007695378076
0.0007667867919
0.0007640342456
0.0007615362556
0.0007595698391
0.000758430403
0.0007672064295
0.00076576335
0.0007637245935
0.000761258589
0.0007585641999
0.0007558682556
0.0007534215869
0.0007514955428
0.0007503794928
0.0007589791372
0.0007575655894
0.0007555685272
0.0007531529111
0.0007505135235
0.0007478725576
0.0007454757388
0.00074358891
0.0007424955758
0.0007509237695
0.0007495389109
0.0007475823541
0.0007452156906
0.0007426297381
0.0007400421862
0.0007376937995
0.0007358450713
0.0007347738076
0.000743035309
0.000741678328
0.0007397611312
0.0007374420371
0.0007349080113
0.0007323723668
0.0007300710476
0.0007282593474
0.000727209533
0.0007353089301
0.0007339790453
0.0007321001059
0.0007298272501
0.0007273436997
0.0007248585136
0.0007226029495
0.0007208272459
0.0007197982838
0.0007277399963
0.0007264364561
0.0007245947142
0.000722366817
0.0007199323468
0.0007174962269
0.0007152851573
0.0007135444598
0.0007125357769
0.0007203240582
0.0007190461408
0.0007172405782
0.0007150564109
0.0007126696821
0.0007102812922
0.0007081135079
0.0007064068668
0.0007054179135
0.0007130568525
0.0007118038655
0.000710033506
0.0007078918908
0.0007055516203
0.0007032096807
0.0007010840239
0.0006994105304
0.0006984407811
0.0007059343019
0.0007047055827
0.0007029694922
0.0007008693024
0.0006985742635
0.0006962775513
0.0006941929162
0.0006925517025
0.0006916006556
0.0006989525176
0.0006977474336
0.0006960447205
0.0006939848815
0.0006917339046
0.0006894812549
0.0006874365888
0.0006858268294
0.0006848940079
0.0006921078027
0.0006909257519
0.0006892555687
0.0006872350592
0.000685027034
0.0006828173414
0.0006808116465
0.0006792325596
0.0006783175124
0.0006853966589
0.0006842370717
0.000682598616
0.0006806164707
0.0006784503484
0.0006762825702
0.0006743149063
0.0006727657564
0.0006718680591
0.0006788157962
0.0006776781364
0.0006760706544
0.0006741259665
0.0006720007637
0.0006698739238
0.0006679434124
0.0006664235131
0.0006655427704
0.0006723621452
0.0006712459127
0.0006696687019
0.0006677606283
0.0006656754321
0.0006635886264
0.0006616944554
0.0006602031736
0.0006593390218
0.0006660328736
0.0006649376078
0.0006633900217
0.0006615177881
0.0006594717625
0.0006574241654
0.000655565596
0.0006541023577
0.0006532544677
0.0006598254072
0.0006587506901
0.0006572321441
0.0006553950524
0.0006533874463
0.0006513783196
0.000649554694
0.0006481189907
0.000647287072
0.0006537374536
0.0006526829154
0.0006511928933
0.0006493903299
0.0006474204872
0.0006454491901
0.0006436599415
0.0006422513378
0.0006414351437
0.0006477670314
0.0006467323556
0.0006452704182
0.0006435018645
0.0006415692352
0.0006396352363
0.0006378799
0.0006364980435
0.0006356973763
0.0006419125028
0.0006408974329
0.0006394632269
0.0006377282708
0.0006358324247
0.0006339353156
0.0006322135421
0.0006308581735
0.0006300728907
0.000636172609
0.0006351769557
0.0006337702248
0.0006320685737
0.0006302092147
0.0006283487255
0.0006266602948
0.0006253312596
0.0006245612812
0.0006305465085
0.0006295701581
0.000628190754
0.0006265222495
0.0006246992317
0.0006228752472
0.0006212200837
0.0006199173447
0.0006191626604
0.0006250338171
0.0006240767397
0.0006227246345
0.0006210892668
0.0006193026114
0.0006175151881
0.0006158933771
0.0006146170273
0.000613877704
0.000619634647
0.0006186969052
0.0006173722042
0.0006157701277
0.0006140200394
0.000612269423
0.0006106812259
0.0006094315008
0.0006087076905
0.0006143496444
0.000613431402
0.0006121343554
0.0006105659035
0.0006088527873
0.0006071394287
0.0006055852983
0.0006043625882
0.0006036545345
0.0006091800227
0.0006082815531
0.0006070125676
0.0006054782663
0.0006038027422
0.0006021273122
0.000600607906
0.0005994127659
0.0005987208101
0.00060412759
0.0006032492821
0.0006020089308
0.0006005095111
0.0005988724266
0.0005972358283
0.0005957520181
0.0005945851756
0.0005939097613
0.0005991947698
0.000598337134
0.0005971261626
0.0005956625668
0.0005940650047
0.0005924683811
0.0005910212611
0.000589883621
0.0005892252958
0.0005943846073
0.0005935482786
0.0005923676098
0.0005909409961
0.0005893842777
0.0005878290131
0.0005864198992
0.000585312544
0.0005846719599
0.0005897007633
0.0005888865007
0.0005877372339
0.0005863489752
0.0005848346575
0.0005833223737
0.0005819527983
0.000580876982
0.0005802548915
0.0005851474909
0.0005843561748
0.0005832395799
0.0005818912558
0.0005804211213
0.0005789536649
0.0005776253644
0.0005765825007
0.0005759797485
0.000580729595
0.0005799622188
0.0005788797253
0.0005775731062
0.0005761491437
0.0005747285649
0.0005734434569
0.0005724351002
0.0005718526109
0.0005764523694
0.0005757100276
0.0005746632052
0.0005734002282
0.0005720246036
0.0005706531239
0.0005694132757
0.0005684410926
0.0005678798535
0.0005723215118
0.0005716053819
0.0005705959147
0.0005693786491
0.0005680536648
0.0005667336332
0.000565541218
0.0005646069509
0.0005640679881
0.000568343014
0.0005676543327
0.0005666839835
0.000565514586
0.0005642426289
0.0005629764651
0.0005618337066
0.000560939126
0.0005604234756
0.0005645230249
0.0005638630582
0.0005629336247
0.0005618142828
0.0005605977581
0.0005593878823
0.0005582969867
0.0005574438337
0.0005569525059
0.0005608676872
0.0005602376935
0.0005593509537
0.0005582838175
0.0005571250702
0.0005559738194
0.0005549368937
0.0005541268123
0.0005536607495
0.0005573829456
0.0005567841316
0.000555941781
0.0005549288829
0.0005538301052
0.0005527396355
0.0005517585943