/*--------------------------------*- C++ -*----------------------------------*\
| =========                 |                                                 |
| \\      /  F ield         | OpenFOAM: The Open Source CFD Toolbox           |
|  \\    /   O peration     | Version:  2212                                  |
|   \\  /    A nd           | Website:  www.openfoam.com                      |
|    \\/     M anipulation  |                                                 |
\*---------------------------------------------------------------------------*/
FoamFile
{
    version     2.0;
    format      ascii;
    arch        "LSB;label=32;scalar=64";
    class       surfaceScalarField;
    location    "30.00000000";
    object      phi;
}
// * * * * * * * * * * * * * * * * * * * * * * * * * * * * * * * * * * * * * //

dimensions      [1 0 -1 0 0 0 0];

oriented        oriented;

internalField   nonuniform List<scalar> 
5690
(
-5.46230727e-11
8.582612609e-10
1.326723973e-11
-1.340824646e-10
1.421068152e-09
-2.673734723e-10
1.983754511e-09
-4.775003551e-10
2.553961374e-09
-7.880423775e-10
3.132628448e-09
-1.196684524e-09
3.694214084e-09
-1.608542541e-09
4.146496317e-09
-1.625629515e-09
4.186709382e-09
2.965228638e-09
-1.155435013e-10
9.453427831e-10
2.846284967e-11
-2.663838013e-10
1.571907829e-09
-4.848090194e-10
2.20218019e-09
-7.650646402e-10
2.834216723e-09
-1.074435747e-09
3.441999366e-09
-1.324520165e-09
3.944297159e-09
-1.354598004e-09
4.176573201e-09
-9.116268888e-10
3.743736973e-09
2.053601777e-09
-1.516368187e-10
1.058760288e-09
3.821943745e-11
-3.350706985e-10
1.755341581e-09
-5.766017094e-10
2.44371156e-09
-8.450406851e-10
3.102655552e-09
-1.077912513e-09
3.674871694e-09
-1.178782352e-09
4.045167355e-09
-1.024305331e-09
4.022096545e-09
-5.510974601e-10
3.270529267e-09
1.502504038e-09
-1.482785149e-10
1.168986132e-09
3.805265999e-11
-3.174113538e-10
1.924473878e-09
-5.213438873e-10
2.647644478e-09
-7.179324683e-10
3.299244181e-09
-8.458354593e-10
3.802774474e-09
-8.31261477e-10
4.030593353e-09
-6.199012593e-10
3.810736491e-09
-2.730654446e-10
2.923693927e-09
1.229438409e-09
-1.315493487e-10
1.266283952e-09
3.425142237e-11
-2.743074629e-10
2.067232051e-09
-4.335324025e-10
2.806869389e-09
-5.674106778e-10
3.433122792e-09
-6.263614773e-10
3.861725123e-09
-5.680875546e-10
3.97231927e-09
-3.842466359e-10
3.626895526e-09
-1.47333657e-10
2.686781184e-09
1.082104755e-09
-1.070111371e-10
1.345019078e-09
2.827633661e-11
-2.180662011e-10
2.17828675e-09
-3.334961806e-10
2.922299124e-09
-4.182377168e-10
3.517864619e-09
-4.37831779e-10
3.881319254e-09
-3.729486495e-10
3.907436208e-09
-2.348503634e-10
3.488797047e-09
-8.198796452e-11
2.53391871e-09
1.000116756e-09
-8.367733225e-11
1.406346282e-09
2.235019815e-11
-1.674004091e-10
2.262009446e-09
-2.493283843e-10
3.00422703e-09
-3.023543411e-10
3.570890634e-09
-3.040898955e-10
3.883054959e-09
-2.47367746e-10
3.850714176e-09
-1.47948389e-10
3.389377635e-09
-4.784017656e-11
2.433810389e-09
9.522765183e-10
-6.330545178e-11
1.452562887e-09
1.708903571e-11
-1.246526551e-10
2.323356379e-09
-1.816317517e-10
3.06120625e-09
-2.143876994e-10
3.60364666e-09
-2.09045478e-10
3.877712918e-09
-1.644792761e-10
3.806147754e-09
-9.524282622e-11
3.320141235e-09
-2.982262821e-11
2.368390519e-09
9.22453949e-10
-4.711714784e-11
1.486865004e-09
1.281509492e-11
-9.163122613e-11
2.367870295e-09
-1.31236739e-10
3.100811753e-09
-1.517268592e-10
3.624136955e-09
-1.44587449e-10
3.87057368e-09
-1.110655589e-10
3.772625462e-09
-6.279565765e-11
3.271871108e-09
-1.900940647e-11
2.324604689e-09
9.034447326e-10
-3.466650442e-11
1.512036286e-09
9.495228215e-12
-6.672955756e-11
2.399933526e-09
-9.427714793e-11
3.128359193e-09
-1.072869799e-10
3.637146803e-09
-1.005522918e-10
3.863839158e-09
-7.602741505e-11
3.748100455e-09
-4.246289179e-11
3.238306309e-09
-1.279522115e-11
2.294936956e-09
8.906495016e-10
-2.53835774e-11
1.530433871e-09
6.986012934e-12
-4.848516049e-11
2.423035588e-09
-6.780251788e-11
3.147676461e-09
-7.627148291e-11
3.645615621e-09
-7.064820272e-11
3.858216042e-09
-5.283862923e-11
3.730291088e-09
-2.924060869e-11
3.214708329e-09
-8.709056102e-12
2.274405384e-09
8.819402707e-10
-1.855462882e-11
1.543860513e-09
5.12802208e-12
-3.522892198e-11
2.439710202e-09
-4.889094765e-11
3.161338495e-09
-5.45487491e-11
3.651273406e-09
-5.013729775e-11
3.853804623e-09
-3.72693509e-11
3.717423143e-09
-2.056709048e-11
3.19800607e-09
-6.15381885e-12
2.259992463e-09
8.757864622e-10
-1.357712528e-11
1.55367534e-09
3.762279819e-12
-2.566968806e-11
2.451802907e-09
-3.543556902e-11
3.171104458e-09
-3.93188901e-11
3.655156741e-09
-3.59614644e-11
3.850447159e-09
-2.663419941e-11
3.708095719e-09
-1.466935871e-11
3.186040957e-09
-4.381221908e-12
2.249704472e-09
8.714053182e-10
-9.962310902e-12
1.560871096e-09
2.766497513e-12
-1.877849219e-11
2.460619332e-09
-2.583057513e-11
3.178156698e-09
-2.856395826e-11
3.65788995e-09
-2.605705108e-11
3.847940228e-09
-1.927699125e-11
3.701315819e-09
-1.063110485e-11
3.177395016e-09
-3.194188752e-12
2.242267466e-09
8.682110191e-10
-7.337536423e-12
1.566168685e-09
2.039932433e-12
-1.380525069e-11
2.467087161e-09
-1.894934747e-11
3.183300958e-09
-2.091642556e-11
3.659856705e-09
-1.906060363e-11
3.846084381e-09
-1.410322886e-11
3.696358657e-09
-7.791801616e-12
3.171083739e-09
-2.340050736e-12
2.236815766e-09
8.658708608e-10
-5.429237396e-12
1.570087415e-09
1.510557932e-12
-1.020400639e-11
2.471861759e-09
-1.399165144e-11
3.187088646e-09
-1.543528005e-11
3.661300083e-09
-1.407057658e-11
3.844719683e-09
-1.043125462e-11
3.692719333e-09
-5.790880799e-12
3.16644326e-09
-1.734301902e-12
2.232759242e-09
8.641364488e-10
-4.037076196e-12
1.573001045e-09
1.123495684e-12
-7.584226154e-12
2.475408772e-09
-1.039675176e-11
3.18990108e-09
-1.147170145e-11
3.662374959e-09
-1.046760522e-11
3.843715679e-09
-7.777427598e-12
3.690029198e-09
-4.335785001e-12
3.163001367e-09
-1.290536239e-12
2.22971398e-09
8.628457102e-10
-3.017840457e-12
1.575178945e-09
8.399760478e-13
-5.668705286e-12
2.478059666e-09
-7.771739845e-12
3.192004006e-09
-8.578885704e-12
3.663182057e-09
-7.834293094e-12
3.842971131e-09
-5.827513048e-12
3.688022433e-09
-3.25244677e-12
3.160426198e-09
-9.694962361e-13
2.227431065e-09
8.618760889e-10
-2.268816275e-12
1.576816343e-09
6.31470861e-13
-4.261827384e-12
2.480052781e-09
-5.843711174e-12
3.193585777e-09
-6.451387238e-12
3.663789616e-09
-5.890420173e-12
3.842410162e-09
-4.37613791e-12
3.686508056e-09
-2.431814143e-12
3.158481728e-09
-7.257445962e-13
2.225724926e-09
8.611502256e-10
-1.71812745e-12
1.578056302e-09
4.781904475e-13
-3.227168905e-12
2.481561985e-09
-4.424153513e-12
3.194782631e-09
-4.880275748e-12
3.664245598e-09
-4.445908482e-12
3.841975819e-09
-3.283247171e-12
3.685345407e-09
-1.796740619e-12
3.156995033e-09
-5.359222437e-13
2.224463998e-09
8.606140479e-10
-1.314717372e-12
1.579005078e-09
3.659371913e-13
-2.468785804e-12
2.482716238e-09
-3.381629602e-12
3.195695409e-09
-3.72152502e-12
3.664585356e-09
-3.371500661e-12
3.841625767e-09
-2.454539451e-12
3.684428417e-09
-1.294504467e-12
3.155834833e-09
-3.847191117e-13
2.223554399e-09
8.602291875e-10
-1.026116314e-12
1.579745673e-09
2.855746001e-13
-1.927217323e-12
2.483617384e-09
-2.638374849e-12
3.196406598e-09
-2.896949135e-12
3.66484385e-09
-2.608191227e-12
3.841336974e-09
-1.869357326e-12
3.683689376e-09
-9.451970941e-13
3.154910345e-09
-2.393742687e-13
2.222848827e-09
8.599898908e-10
-8.285713403e-13
1.580343887e-09
2.304456374e-13
-1.558054711e-12
2.48434678e-09
-2.134830258e-12
3.196983414e-09
-2.345323374e-12
3.665054272e-09
-2.115811479e-12
3.841107597e-09
-1.523426311e-12
3.683096847e-09
-7.794159908e-13
3.154166028e-09
-1.7569235e-13
2.222245072e-09
8.598141945e-10
-7.128167972e-13
1.580859074e-09
1.976667178e-13
-1.347327508e-12
2.484981214e-09
-1.859328786e-12
3.197495566e-09
-2.059633684e-12
3.665254431e-09
-1.867286925e-12
3.840915369e-09
-1.347659727e-12
3.682577098e-09
-6.931482983e-13
3.153511608e-09
-1.639521987e-13
2.221715864e-09
8.596500609e-10
-6.711864427e-13
1.581345118e-09
1.851526067e-13
-1.280136733e-12
2.485590007e-09
-1.788500127e-12
3.198004215e-09
-2.009646025e-12
3.66547549e-09
-1.842091051e-12
3.840747741e-09
-1.333059716e-12
3.682067745e-09
-6.792840452e-13
3.152858023e-09
-1.476677865e-13
2.221184488e-09
8.595022992e-10
-6.956805921e-13
1.581849879e-09
1.909504498e-13
-1.338610283e-12
2.486232644e-09
-1.891861493e-12
3.19855767e-09
-2.155805817e-12
3.66573949e-09
-2.019373338e-12
3.84061133e-09
-1.504944985e-12
3.681553003e-09
-7.97619169e-13
3.152150656e-09
-1.823360406e-13
2.220569401e-09
8.593200717e-10
-7.955934394e-13
1.582428375e-09
2.171439079e-13
-1.546061383e-12
2.486982937e-09
-2.215826277e-12
3.199227493e-09
-2.570127531e-12
3.666093878e-09
-2.462078403e-12
3.840503522e-09
-1.888504092e-12
3.68097938e-09
-1.037277629e-12
3.15129931e-09
-2.511253718e-13
2.219783164e-09
8.590690438e-10
-9.790313034e-13
1.583141677e-09
2.657724631e-13
-1.920014476e-12
2.487923979e-09
-2.7883876e-12
3.200095879e-09
-3.288734378e-12
3.666594322e-09
-3.213037116e-12
3.84042796e-09
-2.522354603e-12
3.680288797e-09
-1.428750561e-12
3.150205742e-09
-3.709123861e-13
2.218725231e-09
8.586980953e-10
-1.255943674e-12
1.584058239e-09
3.393985148e-13
-2.480644394e-12
2.489148795e-09
-3.639039445e-12
3.201254258e-09
-4.347041109e-12
3.667302466e-09
-4.313828941e-12
3.840394704e-09
-3.454759575e-12
3.679429704e-09
-2.01268995e-12
3.14876369e-09
-5.587895216e-13
2.21727149e-09
8.581393243e-10
-1.637138715e-12
1.585254422e-09
4.409364798e-13
-3.249655e-12
2.490761462e-09
-4.801089544e-12
3.20280556e-09
-5.787530415e-12
3.668288983e-09
-5.809136309e-12
3.840416297e-09
-4.723311086e-12
3.678343736e-09
-2.81291373e-12
3.146853194e-09
-8.241499574e-13
2.215282922e-09
8.573152933e-10
-2.131951935e-12
1.586813404e-09
5.729370124e-13
-4.245218854e-12
2.492875092e-09
-6.300881694e-12
3.204861024e-09
-7.641271847e-12
3.669629342e-09
-7.729508104e-12
3.840504668e-09
-6.352556622e-12
3.676966777e-09
-3.844348441e-12
3.14434495e-09
-1.172739575e-12
2.212611272e-09
8.561425521e-10
-2.746425572e-12
1.588822785e-09
7.370210562e-13
-5.478616749e-12
2.495607682e-09
-8.15270738e-12
3.20753504e-09
-9.921904337e-12
3.671398458e-09
-1.008424823e-11
3.840667168e-09
-8.345805667e-12
3.675228497e-09
-5.106339102e-12
3.141105544e-09
-1.60400902e-12
2.209108792e-09
8.545383658e-10
-3.481112522e-12
1.591370455e-09
9.3342606e-13
-6.949040402e-12
2.499075731e-09
-1.035119786e-11
3.210937291e-09
-1.261620439e-11
3.673663353e-09
-1.285164227e-11
3.840902637e-09
-1.067727391e-11
3.673054271e-09
-6.577811874e-12
3.137006124e-09
-2.109602737e-12
2.204640551e-09
8.524285626e-10
-4.329096883e-12
1.594538987e-09
1.160552148e-12
-8.639465232e-12
2.503386003e-09
-1.286518895e-11
3.21516318e-09
-1.567679809e-11
3.676474825e-09
-1.597184582e-11
3.841197607e-09
-1.328624755e-11
3.670368717e-09
-8.213730913e-12
3.131933566e-09
-2.672123531e-12
2.199099014e-09
8.49756323e-10
-5.273992244e-12
1.598398674e-09
1.414299929e-12
-1.051338293e-11
2.508625257e-09
-1.563275138e-11
3.220282737e-09
-1.90167103e-11
3.679858689e-09
-1.934253243e-11
3.841523409e-09
-1.607479873e-11
3.667101023e-09
-9.944777995e-12
3.125803491e-09
-3.265210376e-12
2.192419488e-09
8.464910381e-10
-6.288657347e-12
1.602999646e-09
1.687689739e-12
-1.251261965e-11
2.514848974e-09
-1.855878702e-11
3.226329113e-09
-2.250785154e-11
3.683807712e-09
-2.28194357e-11
3.841835041e-09
-1.891050646e-11
3.663192125e-09
-1.168081821e-11
3.11857388e-09
-3.855393446e-12
2.184594107e-09
8.426355516e-10
-7.334931386e-12
1.608363727e-09
1.970846782e-12
-1.455686808e-11
2.52207058e-09
-2.151599354e-11
3.233288378e-09
-2.598440854e-11
3.688276099e-09
-2.622246501e-11
3.842073081e-09
-2.163423253e-11
3.658603851e-09
-1.331772943e-11
3.11025758e-09
-4.405318181e-12
2.175681775e-09
8.382301266e-10
-8.364305835e-12
1.61447694e-09
2.251100609e-12
-1.654607884e-11
2.530252126e-09
-2.434994757e-11
3.241092234e-09
-2.925174191e-11
3.69317793e-09
-2.93479005e-11
3.842169229e-09
-2.407324236e-11
3.653329083e-09
-1.47473003e-11
3.100931766e-09
-4.877692672e-12
2.165812247e-09
8.333524354e-10
-9.319992423e-12
1.621283568e-09
2.513396729e-12
-1.836572449e-11
2.539297826e-09
-2.688867561e-11
3.249615028e-09
-3.210078902e-11
3.698390186e-09
-3.19861973e-11
3.842054752e-09
-2.605831462e-11
3.647401116e-09
-1.586879944e-11
3.090742209e-09
-5.239409841e-12
2.155182886e-09
8.28113149e-10
-1.014053522e-11
1.628682955e-09
2.741192955e-12
-1.989477282e-11
2.549052247e-09
-2.895641027e-11
3.258676409e-09
-3.432690423e-11
3.703760836e-09
-3.394293925e-11
3.841670924e-09
-2.744204064e-11
3.640900264e-09
-1.660041459e-11
3.079900551e-09
-5.465367776e-12
2.14404787e-09
8.226478699e-10
-1.076475019e-11
1.636529975e-09
2.91776787e-12
-2.101622958e-11
2.5593041e-09
-3.039036707e-11
3.268050263e-09
-3.575099877e-11
3.709121576e-09
-3.505990998e-11
3.840979895e-09
-2.811520996e-11
3.633955707e-09
-1.68883254e-11
3.068673711e-09
-5.541187685e-12
2.13270081e-09
8.171066819e-10
-1.113761855e-11
1.644639852e-09
3.027782187e-12
-2.162911783e-11
2.56979599e-09
-3.105838581e-11
3.277479304e-09
-3.623988812e-11
3.714303191e-09
-3.52333726e-11
3.839973409e-09
-2.801886454e-11
3.626741254e-09
-1.67117137e-11
3.057366561e-09
-5.464065322e-12
2.121453242e-09
8.116426679e-10
-1.121655274e-11
1.65279746e-09
3.058960921e-12
-2.16601392e-11
2.580239891e-09
-3.087472496e-11
3.28669374e-09
-3.572232917e-11
3.719150891e-09
-3.442600308e-11
3.838677103e-09
-2.714964298e-11
3.619464797e-09
-1.608316115e-11
3.046299968e-09
-5.241880883e-12
2.110612011e-09
8.064009253e-10
-1.097684028e-11
1.66077063e-09
3.003651933e-12
-2.107340295e-11
2.590336721e-09
-2.981133097e-11
3.295431633e-09
-3.41976995e-11
3.72353728e-09
-3.266994685e-11
3.837149349e-09
-2.555769065e-11
3.612352501e-09
-1.504486381e-11
3.035787031e-09
-4.891275813e-12
2.100458482e-09
8.015097328e-10
-1.041543207e-11
1.66832605e-09
2.859969578e-12
-1.987611934e-11
2.599797534e-09
-2.790224682e-11
3.303457855e-09
-3.173565835e-11
3.727370665e-09
-3.006084187e-11
3.8354745e-09
-2.333805936e-11
3.60562981e-09
-1.366179422e-11
3.026110741e-09
-4.435243494e-12
2.091232002e-09
7.970744475e-10
-9.552300191e-12
1.675245956e-09
2.63234907e-12
-1.811877447e-11
2.608363913e-09
-2.523996513e-11
3.310579225e-09
-2.846702358e-11
3.730597724e-09
-2.67446351e-11
3.833752059e-09
-2.061762017e-11
3.599502873e-09
-1.201315152e-11
3.017506276e-09
-3.90042249e-12
2.083119311e-09
7.931739309e-10
-8.428747564e-12
1.681343424e-09
2.331257421e-12
-1.588976217e-11
2.61582471e-09
-2.196432801e-11
3.316653955e-09
-2.456743359e-11
3.733200843e-09
-2.289951913e-11
3.83208408e-09
-1.753988561e-11
3.594143216e-09
-1.018348276e-11
3.010149858e-09
-3.31508894e-12
2.07625093e-09
7.898587688e-10
-7.102841189e-12
1.686474195e-09
1.972071347e-12
-1.330536216e-11
2.622027043e-09
-1.824621182e-11
3.321594909e-09
-2.023711918e-11
3.735191725e-09
-1.871661113e-11
3.830563527e-09
-1.425110741e-11
3.589677634e-09
-8.256000973e-12
3.004154742e-09
-2.7094584e-12
2.070704402e-09
7.871492745e-10
-5.642892733e-12
1.690543722e-09
1.573362988e-12
-1.049679845e-11
2.626880841e-09
-1.426911219e-11
3.325367259e-09
-1.568054308e-11
3.736603108e-09
-1.438224416e-11
3.829265208e-09
-1.088771252e-11
3.586183049e-09
-6.305267325e-12
2.999572314e-09
-2.102549399e-12
2.066501632e-09
7.850466556e-10
-4.119953911e-12
1.693508783e-09
1.154888047e-12
-7.596142659e-12
2.630356998e-09
-1.021058833e-11
3.327981641e-09
-1.108752511e-11
3.737480022e-09
-1.006245226e-11
3.828240093e-09
-7.566205514e-12
3.583686797e-09
-4.393983997e-12
2.99640012e-09
-1.487881821e-12
2.063595426e-09
7.835586617e-10
-2.601196723e-12
1.695374371e-09
7.356182816e-13
-4.725010227e-12
2.632480871e-09
-6.229149398e-12
3.329485606e-09
-6.62235551e-12
3.737873239e-09
-5.896578518e-12
3.827514209e-09
-4.383302862e-12
3.582173478e-09
-2.563197756e-12
2.994580044e-09
-9.071540112e-13
2.06193933e-09
7.826514449e-10
-1.144476773e-12
1.69618673e-09
3.321520362e-13
-1.985312235e-12
2.633321876e-09
-2.453006242e-12
3.329953044e-09
-2.412538366e-12
3.73783281e-09
-1.986991654e-12
3.827088574e-09
-1.409537413e-12
3.581595888e-09
-8.152470734e-13
2.993985731e-09
-3.662607172e-13
2.061490338e-09
7.822851772e-10
2.047340815e-13
1.696024396e-09
-4.236447916e-14
5.436261188e-13
2.632983241e-09
1.018378271e-12
3.329478003e-09
1.441914591e-12
3.737409319e-09
1.578617087e-12
3.826951854e-09
1.298031211e-12
3.58187636e-09
7.329472896e-13
2.994550743e-09
1.262871672e-13
2.062096912e-09
7.824114133e-10
1.413646966e-12
1.694989218e-09
-3.784344487e-13
2.804972545e-12
2.631592213e-09
4.115870642e-12
3.328166828e-09
4.875691779e-12
3.736649532e-09
4.751280341e-12
3.82707626e-09
3.710053683e-12
3.58291756e-09
2.081584493e-12
2.996179146e-09
5.672650102e-13
2.063611074e-09
7.829785625e-10
2.462681719e-12
1.693196878e-09
-6.702926386e-13
4.766292336e-12
2.629288869e-09
6.803061366e-12
3.326129832e-09
7.858520543e-12
3.735594103e-09
7.515464902e-12
3.827419246e-09
5.817419413e-12
3.584615551e-09
3.296551072e-12
2.998699957e-09
9.583668581e-13
2.06594915e-09
7.839368773e-10
3.345423593e-12
1.690767307e-09
-9.158171826e-13
6.418773327e-12
2.626215715e-09
9.072033993e-12
3.323476381e-09
1.0385212e-11
3.734280984e-09
9.86740122e-12
3.827936977e-09
7.620358991e-12
3.586862467e-09
4.348695112e-12
3.001971531e-09
1.297747618e-12
2.069000072e-09
7.852346835e-10
4.064967635e-12
1.687818016e-09
-1.115677239e-12
7.769734719e-12
2.6225111e-09
1.093463891e-11
3.320311326e-09
1.247018557e-11
3.732745497e-09
1.182022715e-11
3.8285869e-09
9.127869539e-12
3.5895547e-09
5.234481863e-12
3.005864838e-09
1.585446623e-12
2.072649073e-09
7.86820193e-10
4.631171951e-12
1.684459364e-09
-1.272552024e-12
8.837785458e-12
2.618304632e-09
1.241632585e-11
3.316732694e-09
1.414106405e-11
3.731020748e-09
1.339829212e-11
3.829329618e-09
1.035731867e-11
3.592595589e-09
5.963556665e-12
3.010258583e-09
1.823148886e-12
2.076789407e-09
7.886433052e-10
5.058051252e-12
1.680791651e-09
-1.390365053e-12
9.648483366e-12
2.613714308e-09
1.355095523e-11
3.312830177e-09
1.543387108e-11
3.729137761e-09
1.463333123e-11
3.83013003e-09
1.133171841e-11
3.595897132e-09
6.54935412e-12
3.01504097e-09
2.027244069e-12
2.081311461e-09
7.906704558e-10
5.361664769e-12
1.676903659e-09
-1.473681557e-12
1.023085109e-11
2.60884517e-09
1.437641474e-11
3.308684542e-09
1.638826553e-11
3.72712585e-09
1.555952739e-11
3.830958641e-09
1.207451796e-11
3.599382103e-09
7.003516755e-12
3.020111972e-09
2.185411121e-12
2.086129556e-09
7.928558128e-10
5.558708296e-12
1.672872195e-09
-1.527240675e-12
1.061505639e-11
2.603788852e-09
1.493218057e-11
3.304367301e-09
1.704570133e-11
3.725012314e-09
1.621308778e-11
3.831791223e-09
1.261164422e-11
3.602983576e-09
7.340211391e-12
3.025383382e-09
2.304943569e-12
2.091164809e-09
7.951607475e-10
5.665467114e-12
1.668762397e-09
-1.555659276e-12
1.083050619e-11
2.59862385e-09
1.525684995e-11
3.299940869e-09
1.74467872e-11
3.7228224e-09
1.662945884e-11
3.832608601e-09
1.296850748e-11
3.606644607e-09
7.573424551e-12
3.030778464e-09
2.391500171e-12
2.096346698e-09
7.975522173e-10
5.697198091e-12
1.664628469e-09
-1.563273015e-12
1.090483643e-11
2.59341623e-09
1.538681577e-11
3.29545888e-09
1.763005843e-11
3.720579183e-09
1.684247646e-11
3.833396212e-09
1.316943536e-11
3.610317719e-09
7.716310159e-12
3.03623165e-09
2.449214285e-12
2.101613793e-09
8.000013557e-10
5.667757351e-12
1.660514689e-09
-1.553999546e-12
1.086333069e-11
2.588220669e-09
1.53555004e-11
3.290966719e-09
1.763118971e-11
3.718303481e-09
1.688380116e-11
3.834143571e-09
1.323743308e-11
3.61396413e-09
7.781418049e-12
3.041687786e-09
2.481819094e-12
2.106913434e-09
8.02483096e-10
5.589450228e-12
1.656456513e-09
-1.531282495e-12
1.07285677e-11
2.583081603e-09
1.519303304e-11
3.286502217e-09
1.748263208e-11
3.716013836e-09
1.678251891e-11
3.834843663e-09
1.319385196e-11
3.617552868e-09
7.780517117e-12
3.047101253e-09
2.492825032e-12
2.112201154e-09
8.049758724e-10
5.472997949e-12
1.652481653e-09
-1.498123881e-12
1.052032013e-11
2.578034368e-09
1.492612278e-11
3.282096341e-09
1.721344178e-11
3.713726498e-09
1.656488794e-11
3.835492283e-09
1.305811965e-11
3.621059771e-09
7.72445603e-12
3.052435017e-09
2.485555049e-12
2.117440034e-09
8.074613971e-10
5.327605472e-12
1.648611174e-09
-1.457102665e-12
1.025569808e-11
2.573106349e-09
1.457809527e-11
3.277773878e-09
1.684922643e-11
3.71145539e-09
1.62542377e-11
3.836087374e-09
1.284765046e-11
3.624466515e-09
7.623067592e-12
3.057659678e-09
2.463076297e-12
2.122600007e-09
8.099244328e-10
5.161066426e-12
1.644860516e-09
-1.410383935e-12
9.949341877e-12
2.568318128e-09
1.416901581e-11
3.273554166e-09
1.641220876e-11
3.709212209e-09
1.587107223e-11
3.836628561e-09
1.257793444e-11
3.627759763e-09
7.485176408e-12
3.062752512e-09
2.428124233e-12
2.127657098e-09
8.123525234e-10
4.979903871e-12
1.641240417e-09
-1.359769849e-12
9.613583102e-12
2.563684507e-09
1.371590208e-11
3.269451809e-09
1.592145338e-11
3.707006627e-09
1.543321501e-11
3.837116802e-09
1.226261813e-11
3.630930422e-09
7.318623126e-12
3.067696566e-09
2.383132255e-12
2.132592648e-09
8.147356552e-10
4.789500841e-12
1.637757714e-09
-1.306744468e-12
9.258649641e-12
2.559215426e-09
1.323304361e-11
3.265477339e-09
1.539316107e-11
3.70484645e-09
1.495596558e-11
3.837554038e-09
1.191352353e-11
3.633972935e-09
7.130273647e-12
3.07247986e-09
2.330281271e-12
2.137392654e-09
8.170659444e-10
4.594231252e-12
1.634416051e-09
-1.252508081e-12
8.892916322e-12
2.554916804e-09
1.273232117e-11
3.26163784e-09
1.484095548e-11
3.70273777e-09
1.445227536e-11
3.837942818e-09
1.154073305e-11
3.636884559e-09
6.926047517e-12
3.077094585e-09
2.271520908e-12
2.142047168e-09
8.193374489e-10
4.397606389e-12
1.63121651e-09
-1.198018601e-12
8.523179515e-12
2.550791266e-09
1.222345772e-11
3.257937497e-09
1.427609574e-11
3.700685139e-09
1.393295713e-11
3.838286046e-09
1.11527584e-11
3.639664785e-09
6.710945465e-12
3.081536417e-09
2.208304873e-12
2.146549838e-09
8.215457393e-10
4.202398722e-12
1.628158158e-09
-1.144029229e-12
8.154858789e-12
2.546838816e-09
1.171420415e-11
3.254378122e-09
1.37075561e-11
3.698691837e-09
1.340666093e-11
3.838586973e-09
1.075634423e-11
3.642315055e-09
6.488718986e-12
3.085804014e-09
2.142760581e-12
2.150895863e-09
8.236885197e-10
4.010803823e-12
1.625238479e-09
-1.091128355e-12
7.79227711e-12
2.543057355e-09
1.121082547e-11
3.250959548e-09
1.314273272e-11
3.696759967e-09
1.288074859e-11
3.83884895e-09
1.035747632e-11
3.644838295e-09
6.265389897e-12
3.089896071e-09
2.075979413e-12
2.155085311e-09
8.257645203e-10
3.824493164e-12
1.622453734e-09
-1.039756627e-12
7.438787262e-12
2.53944308e-09
1.071843957e-11
3.247679864e-09
1.258789118e-11
3.694890523e-09
1.236160478e-11
3.83907524e-09
9.964734592e-12
3.647235187e-09
6.043365579e-12
3.093817443e-09
2.008349736e-12
2.159120305e-09
8.277728617e-10
3.644898423e-12
1.619799145e-09
-9.903191571e-13
7.097114375e-12
2.535990861e-09
1.024100614e-11
3.244535959e-09
1.204775587e-11
3.69308379e-09
1.185790976e-11
3.839265124e-09
9.580138175e-12
3.649512977e-09
5.823010391e-12
3.097574562e-09
1.941117048e-12
2.163002147e-09
8.29713974e-10
3.472356038e-12
1.617269651e-09
-9.428772618e-13
6.767968093e-12
2.532695225e-09
9.782719159e-12
3.241521228e-09
1.153104253e-11
3.691335513e-09
1.137132592e-11
3.839424884e-09
9.204316137e-12
3.65167995e-09
5.607886763e-12
3.101170934e-09
1.875058502e-12
2.166734964e-09
8.315890808e-10
3.309615135e-12
1.614858146e-09
-8.981332676e-13
6.458268851e-12
2.529546571e-09
9.346351614e-12
3.238633191e-09
1.103525271e-11
3.68964666e-09
1.089995756e-11
3.8395602e-09
8.841325643e-12
3.65373854e-09
5.399283635e-12
3.104612919e-09
1.810673535e-12
2.170323633e-09
8.333998394e-10
3.155173018e-12
1.612558642e-09
-8.556925155e-13
6.163712603e-12
2.526538069e-09
8.929429564e-12
3.235867524e-09
1.055787668e-11
3.688018243e-09
1.044850059e-11
3.839669577e-09
8.492785945e-12
3.655694277e-09
5.198392328e-12
3.107907322e-09
1.748423079e-12
2.173773708e-09
8.35148324e-10
3.0080616e-12
1.610365931e-09
-8.153644725e-13
5.881469571e-12
2.523664718e-09
8.533511041e-12
3.233215531e-09
1.010627841e-11
3.686445498e-09
1.001988505e-11
3.839755973e-09
8.160868021e-12
3.657553374e-09
5.006582247e-12
3.111061687e-09
1.688821237e-12
2.177091574e-09
8.368371599e-10
2.870611389e-12
1.608273036e-09
-7.777222501e-13
5.617865935e-12
2.520917523e-09
8.161375778e-12
3.230672083e-09
9.680345695e-12
3.684926562e-09
9.614546638e-12
3.839821784e-09
7.846235113e-12
3.659321761e-09
4.8243684e-12
3.114083656e-09
1.63206986e-12
2.180283974e-09
8.384692397e-10
2.741680591e-12
1.606273753e-09
-7.423947397e-13
5.370449e-12
2.518288819e-09
7.811632087e-12
3.22823098e-09
9.279476556e-12
3.68345876e-09
9.232459704e-12
3.839868837e-09
7.549151617e-12
3.661005125e-09
4.65201714e-12
3.116980886e-09
1.578289668e-12
2.183357817e-09
8.400475756e-10
2.621210073e-12
1.60436197e-09
-7.094084296e-13
5.139008519e-12
2.515771085e-09
7.483990004e-12
3.225886085e-09
8.903351796e-12
3.682039449e-09
8.873369962e-12
3.839898897e-09
7.269495104e-12
3.662609075e-09
4.489502717e-12
3.119760967e-09
1.527481265e-12
2.186319944e-09
8.415751238e-10
2.508764148e-12
1.602531875e-09
-6.786231451e-13
4.922765269e-12
2.513357129e-09
7.177452742e-12
3.223631475e-09
8.550906632e-12
3.680666054e-09
8.536277317e-12
3.839913635e-09
7.006463213e-12
3.664139002e-09
4.336329884e-12
3.122431195e-09
1.4794728e-12
2.189176876e-09
8.430546426e-10
2.403839643e-12
1.600778016e-09
-6.499152206e-13
4.720753612e-12
2.511040226e-09
6.89065607e-12
3.221461639e-09
8.220538899e-12
3.679336233e-09
8.219561874e-12
3.839914703e-09
6.758660051e-12
3.665600008e-09
4.191577006e-12
3.124998378e-09
1.433923686e-12
2.191934587e-09
8.44488591e-10
2.305751262e-12
1.599095431e-09
-6.231061634e-13
4.531674253e-12
2.508814296e-09
6.621696117e-12
3.219371665e-09
7.909952742e-12
3.678048034e-09
7.920894509e-12
3.839903809e-09
6.524103092e-12
3.666996861e-09
4.053933258e-12
3.127468637e-09
1.390340744e-12
2.194598236e-09
8.458789577e-10
2.213672466e-12
1.597479768e-09
-5.97970273e-13
4.353897938e-12
2.506674074e-09
6.368162075e-12
3.217357415e-09
7.616214289e-12
3.676800025e-09
7.637288653e-12
3.839882767e-09
6.300273145e-12
3.668333924e-09
3.921759556e-12
3.129847215e-09
1.348113398e-12
2.197171909e-09
8.472270932e-10
2.12662755e-12
1.595927396e-09
-5.742359586e-13
4.185469514e-12
2.504615248e-09
6.127191917e-12
3.215415677e-09
7.335854371e-12
3.675591389e-09
7.365193632e-12
3.839853473e-09
6.084159971e-12
3.669615018e-09
3.793116767e-12
3.132138282e-09
1.306547673e-12
2.199658453e-09
8.485336391e-10
2.043509804e-12
1.594435494e-09
-5.516036674e-13
4.024177405e-12
2.502634584e-09
5.895561031e-12
3.21354428e-09
7.064986747e-12
3.674421976e-09
7.100634066e-12
3.839817856e-09
5.872404629e-12
3.670843294e-09
3.665868422e-12
3.134344792e-09
1.264898257e-12
2.202059372e-09
8.49798521e-10
1.963118335e-12
1.593002119e-09
-5.297517832e-13
3.8676613e-12
2.50073002e-09
5.669789268e-12
3.21174215e-09
6.799429573e-12
3.673292321e-09
6.839387083e-12
3.839777874e-09
5.66149259e-12
3.67202119e-09
3.537816319e-12
3.136468406e-09
1.222407117e-12
2.204374754e-09
8.510209117e-10
1.884212876e-12
1.591626247e-09
-5.083433398e-13
3.713499858e-12
2.4989007e-09
5.446302038e-12
3.21000934e-09
6.534910342e-12
3.672203658e-09
6.577198706e-12
3.839735513e-09
5.447943516e-12
3.67315042e-09
3.406819174e-12
3.138509474e-09
1.178328086e-12
2.206603245e-09
8.521992057e-10
1.805570082e-12
1.590307739e-09
-4.870476937e-13
3.5593023e-12
2.497146937e-09
5.22162785e-12
3.208346984e-09
6.267322446e-12
3.671157876e-09
6.310015379e-12
3.839692742e-09
5.228466993e-12
3.674231955e-09
3.270851275e-12
3.140467059e-09
1.131953734e-12
2.208742125e-09
8.533310867e-10
1.726051961e-12
1.589047271e-09
-4.655616509e-13
3.402856327e-12
2.495470105e-09
4.992606816e-12
3.206757194e-09
5.99297044e-12
3.670157423e-09
6.034197624e-12
3.839651461e-09
5.000099194e-12
3.675266042e-09
3.128075854e-12
3.142339056e-09
1.082653088e-12
2.210787481e-09
8.544136408e-10
1.644691145e-12
1.587846212e-09
-4.436233901e-13
3.242302448e-12
2.493872465e-09
4.756603655e-12
3.205242864e-09
5.708800907e-12
3.669205161e-09
5.746763429e-12
3.839613462e-09
4.760434921e-12
3.676252329e-09
2.976984867e-12
3.144122455e-09
1.029897768e-12
2.212734485e-09
8.55443461e-10
1.560774442e-12
1.586706459e-09
-4.210301235e-13
3.076282581e-12
2.492356926e-09
4.511714592e-12
3.203807421e-09
5.412638149e-12
3.668304195e-09
5.445612194e-12
3.839580449e-09
4.507776674e-12
3.677190092e-09
2.816527769e-12
3.145813645e-09
9.733426358e-13
2.214577616e-09
8.564167703e-10
1.473855663e-12
1.585630239e-09
-3.976481021e-13
2.903970353e-12
2.490926776e-09
4.256832972e-12
3.202454552e-09
5.103317528e-12
3.667457681e-09
5.129851211e-12
3.839553874e-09
4.241729449e-12
3.67807814e-09
2.646541031e-12
3.147408803e-09
9.128272699e-13
2.216311307e-09
8.573295767e-10
1.3837492e-12
1.584619924e-09
-3.734297391e-13
2.725098308e-12
2.489585389e-09
3.991818745e-12
3.201187825e-09
4.780873517e-12
3.666668604e-09
4.799484336e-12
3.839535229e-09
3.962172672e-12
3.678915414e-09
2.467421775e-12
3.148903557e-09
8.489369609e-13
2.217929765e-09
8.581784712e-10
1.290415597e-12
1.583677901e-09
-3.483734418e-13
2.539480533e-12
2.488336285e-09
3.716170431e-12
3.200011124e-09
4.445204704e-12
3.665939557e-09
4.455876162e-12
3.83952454e-09
3.672123809e-12
3.679699166e-09
2.282379308e-12
3.150293306e-09
7.834177585e-13
2.219428666e-09
8.589618397e-10
1.194216243e-12
1.582806245e-09
-3.225324216e-13
2.348441555e-12
2.487182029e-09
3.433085355e-12
3.198926459e-09
4.10164158e-12
3.665271005e-09
4.105931972e-12
3.839520254e-09
3.378626431e-12
3.680426487e-09
2.096214077e-12
3.151575705e-09
7.178501168e-13
2.220806963e-09
8.596796761e-10
1.097053083e-12
1.582005627e-09
-2.964068542e-13
2.156055309e-12
2.48612301e-09
3.149186363e-12
3.197933308e-09
3.758327864e-12
3.664661887e-09
3.757185727e-12
3.839521422e-09
3.086717548e-12
3.681096971e-09
1.911452003e-12
3.152750955e-09
6.529409054e-13
2.222065459e-09
8.603326445e-10