/*--------------------------------*- C++ -*----------------------------------*\
| =========                 |                                                 |
| \\      /  F ield         | OpenFOAM: The Open Source CFD Toolbox           |
|  \\    /   O peration     | Version:  2212                                  |
|   \\  /    A nd           | Website:  www.openfoam.com                      |
|    \\/     M anipulation  |                                                 |
\*---------------------------------------------------------------------------*/
FoamFile
{
    version     2.0;
    format      ascii;
    arch        "LSB;label=32;scalar=64";
    class       volScalarField;
    location    "30.00000000";
    object      T_0;
}
// * * * * * * * * * * * * * * * * * * * * * * * * * * * * * * * * * * * * * //

dimensions      [0 0 0 1 0 0 0];

internalField   nonuniform List<scalar> 
3000
(
300.9397987
300.9282748
300.9081549
300.8748231
300.8188018
300.7199151
300.5325341
300.1452555
299.2493354
300.8006562
300.7650266
300.70493
300.6109267
300.4666229
300.2444571
299.8989926
299.3593304
298.5371505
300.6330948
300.5739531
300.4776037
300.3344894
300.1300929
299.8445921
299.4546384
298.94144
298.3180594
300.4536631
300.3759547
300.2531398
300.0784271
299.8428106
299.5371012
299.1563739
298.7083979
298.2268607
300.2731413
300.1827224
300.0433098
299.8518055
299.605042
299.3024582
298.9501207
298.565213
298.1776344
300.097831
300.0000372
299.8521976
299.6547379
299.4093137
299.1211673
298.8016191
298.4690888
298.15
299.9307523
299.8298207
299.6796356
299.4835335
299.2466924
298.977777
298.68993
298.3998569
298.15
299.7733228
299.6724345
299.5242221
299.3342002
299.1098664
298.8615956
298.6025758
298.347129
298.15
299.6260562
299.527477
299.3841551
299.2030925
298.9931446
298.7652922
298.5319661
298.3052435
298.15
299.4890246
299.3942962
299.2577321
299.0872375
298.8923153
298.6838912
298.4733492
298.2708795
298.15
299.362042
299.2721457
299.1434332
298.9842536
298.8042649
298.6139695
298.4236575
298.2419905
298.15
299.2447723
299.1602705
299.0399487
298.892259
298.7266896
298.553133
298.3808427
298.2172523
298.15
299.1367855
299.0579338
298.9461538
298.8097596
298.6578671
298.4996797
298.3435072
298.195789
298.15
299.0375976
298.9644351
298.8610858
298.7355646
298.596498
298.4523823
298.310684
298.1770251
298.15
298.9467039
298.8791229
298.7839249
298.6687244
298.5415972
298.4103485
298.2817031
298.1606394
298.15
298.8636106
298.801412
298.7139902
298.6084992
298.4924351
298.3729241
298.2559833
298.15
298.15
298.7878709
298.7308113
298.6507569
298.5543761
298.4485884
298.3398886
298.233686
298.15
298.15
298.7191278
298.6669594
298.5938819
298.5060749
298.4098949
298.3112347
298.2149174
298.15
298.15
298.6571706
298.6096812
298.5432634
298.4636189
298.3765611
298.2874005
298.2003771
298.15
298.15
298.6020146
298.5590746
298.4991408
298.4274602
298.3493276
298.2694822
298.1915554
298.15
298.15
298.554014
298.5156382
298.4622474
298.3986707
298.329714
298.2595454
298.1911225
298.15
298.15
298.5140204
298.4804518
298.4340291
298.3792163
298.3203702
298.2610751
298.2035017
298.15
298.15
298.4835978
298.4554244
298.4169445
298.3723337
298.3255544
298.2795863
298.2356406
298.1925405
298.15
298.46531
298.4436232
298.4148611
298.3830214
298.351754
298.3234074
298.2979947
298.2722927
298.2394276
298.4630883
298.4496937
298.4335573
298.4186568
298.4084514
298.4046339
298.4057037
298.4056137
298.3929953
298.4826921
298.4803799
298.481335
298.4897361
298.5090274
298.5402297
298.5799247
298.6182224
298.6374022
298.5322639
298.5451444
298.5697398
298.6107271
298.6717777
298.7532328
298.8492496
298.9447924
299.0134029
298.6229792
298.6568866
298.7143777
298.8010118
298.9210003
299.0739995
299.2511034
299.4305009
299.5740214
298.7697849
298.8327432
298.9358051
299.0858822
299.2881005
299.5414004
299.8330009
300.1323038
300.3858212
298.9922092
299.0949532
299.2604642
299.4975456
299.8126429
300.2038727
300.6535236
301.1197545
301.5295022
299.3152264
299.4717604
299.7216242
300.0760841
300.5432771
301.1202231
301.7828828
302.4751967
303.0996199
299.7701473
299.9983186
300.3602852
300.8703083
301.5384549
302.3600806
303.3029459
304.2931941
305.2032881
300.3955034
300.7175594
301.2259892
301.9384352
302.8668528
304.0038968
305.3066194
306.6791085
307.9578144
301.2378841
301.6809738
302.3774792
303.3485149
304.6074085
306.1423973
307.8965092
309.7467906
311.4873177
302.352679
302.9492482
303.8831308
305.1785151
306.8488744
308.8753965
311.1828065
313.6154137
315.9184761
303.8046639
304.5926823
305.8210698
307.5159655
309.6887866
312.3098979
315.2803874
318.4055429
321.3756438
305.668356
306.6913016
308.2788748
310.4570538
313.2317563
316.557435
320.3051671
324.2346077
327.9756428
308.0280472
309.3345623
311.3527535
314.105068
317.5870129
321.7306552
326.3698236
331.2120161
335.8225773
310.9774067
312.6205345
315.1460839
318.5681049
322.8651832
327.9392328
333.5790958
339.4342178
345.0030326
314.6185319
316.6544488
319.767231
323.9560138
329.1743706
335.2852984
342.0249549
348.9800745
355.5819928
319.0603236
321.5465089
325.3265948
330.3766229
336.61571
343.8586816
351.7820223
359.9069001
367.5997539
324.4160756
327.4089092
331.9329194
337.931403
345.2786812
353.7323503
362.9036353
372.2474985
381.0700178
330.8002112
334.3520696
339.6889892
346.7108299
355.2365608
364.9584656
375.4189209
386.0084251
395.9792446
338.3241728
342.4801893
348.6869449
356.7897981
366.5424222
377.5654285
389.331134
401.1695742
412.2872318
347.0915778
351.8863365
359.0035463
368.2234848
379.2260667
391.556185
404.6173624
417.685046
429.9287899
357.1928888
362.6474022
370.695772
381.0440394
393.2921545
406.9078947
421.2295365
435.4851281
448.8163186
368.6999815
374.8193305
383.7971493
395.2583945
408.7196595
423.5728962
439.0965467
454.4791391
468.843045
381.661104
388.4330773
398.3151564
410.8473585
425.4626044
441.4807664
458.1271831
474.5588499
489.8866784
396.0967643
403.4917171
414.2299319
427.7660055
443.4519002
460.5411857
478.2135843
495.6021986
511.8132525
411.9970429
419.9690206
431.4943902
445.9452498
462.5980345
480.6473011
499.2349127
517.4770677
534.4809525
429.3206922
437.809681
450.0357131
465.29441
482.7943313
501.6793101
521.0610125
540.0449463
557.7437671
447.9961881
456.9312104
469.7580923
485.7045342
503.9205183
523.5080109
543.555838
563.1642343
581.4548416
467.9246816
477.227432
490.5466088
507.0523371
525.8464231
545.9981356
566.5805287
586.693158
605.4694251
488.983548
498.5716603
512.2699612
529.2027987
548.4348784
569.0117188
589.9968809
610.4931321
629.6476151
511.0286264
520.8192543
534.784006
552.0134136
571.5458343
592.4114223
613.6699544
634.430831
653.8565403
533.9026464
543.8154893
557.9379697
575.3384062
595.0389803
616.0622532
637.4694201
658.3795243
677.9717704
557.4408801
567.400448
581.5785444
599.0320992
618.7765019
639.8338288
661.2714187
682.2206531
701.8786384
581.4763896
591.4135646
605.5536446
622.9519315
642.6254691
663.6022537
684.960038
705.8449769
725.4731256
605.8446318
615.6976113
629.7156814
646.9610473
666.459831
687.2516271
708.4284277
729.1533649
748.6623819
630.3872859
640.1020157
653.9242757
670.930417
690.1620105
710.6751938
731.5795853
752.0572761
771.3649376
654.9552574
664.4854668
678.0483839
694.7404775
713.6241015
733.7761564
754.3268357
774.4789456
793.5106372
679.4108825
688.7178287
701.9678523
718.2823146
736.748699
756.4681847
776.5940519
796.3513461
815.0403565
703.6294014
712.68142
725.5744479
741.458423
759.4493873
778.6756429
798.3156368
817.6179417
835.9055418
727.4998072
736.2717442
748.7724286
764.1830895
781.6509219
800.3335662
819.4363014
838.2322756
856.0676138
750.9251759
759.3977577
771.4787162
786.3824435
803.2891398
821.3874237
839.9106749
858.1574274
875.4972729
773.8225703
781.9817489
793.6227321
807.9942277
824.3106451
841.7927028
859.7027804
877.3653723
894.1737389
796.1226039
803.9589094
815.1459632
828.9673425
844.6723131
861.5143554
878.7854069
895.8362724
912.0839546
817.7687512
825.2766704
836.0013246
849.2612196
864.3406561
880.5261376
897.1394094
913.5577245
929.2217754
838.716483
845.8938788
856.152377
868.8450731
883.2910919
898.8098777
914.7529612
930.5239873
945.5871652
858.9322925
865.779869
875.572452
887.6970725
901.5071505
916.3547016
931.6207844
946.7352069
961.1854132
878.3926639
884.9134817
894.2437298
905.8034766
918.9796559
933.1562469
947.7433795
962.1966518
976.0263758
897.0830271
903.2820678
912.1563067
923.1577666
935.7059152
949.2158938
963.1262774
976.9179547
990.1236982
914.996727
920.8805099
929.307282
939.7598049
951.6889507
964.540065
977.7793813
990.9123869
1003.495267
932.13403
937.7102772
945.6998786
955.6150322
966.9367868
979.1396411
991.7166461
1004.199294
1016.159462
948.5011786
953.778524
961.3425979
970.7336792
981.4616962
993.0291679
1004.957414
1016.794544
1028.138982
964.1095067
969.0972472
976.2484332
985.1300424
995.2795456
1006.229032
1017.517126
1028.721195
1039.457148
978.9746264
983.6825109
990.4341463
998.8218212
1008.412302
1018.75465
1029.419209
1040.002152
1050.1386
993.1156896
997.5537413
1003.922865
1011.833025
1020.875783
1030.630269
1040.686608
1050.661594
1060.208871
1006.558274
1010.73681
1016.731175
1024.180121
1032.695447
1041.879311
1051.343515
1060.724613
1069.694029
1019.320366
1023.24938
1028.885973
1035.890077
1043.895542
1052.526382
1061.415026
1070.216893
1078.620442
1031.430705
1035.120092
1040.412624
1046.988164
1054.501367
1062.596904
1070.926779
1079.164378
1087.014441
1042.916083
1046.375529
1051.337482
1057.50053
1064.538899
1072.116755
1079.904634
1087.593003
1094.902142
1053.804068
1057.043003
1061.687527
1067.453795
1074.034415
1081.111916
1088.374361
1095.528438
1102.309243
1064.122612
1067.150143
1071.489953
1076.874657
1083.014116
1089.608141
1096.361357
1102.995854
1109.260861
1073.899624
1076.724469
1080.771753
1085.78951
1091.503782
1097.630642
1103.890379
1110.019719
1115.781389
1083.162536
1085.792978
1089.55933
1094.224073
1099.528433
1105.203808
1110.985316
1116.623628
1121.894392
1091.937898
1094.381746
1097.87812
1102.203051
1107.112039
1112.350951
1117.668994
1122.830167
1127.622517
1100.250982
1102.515562
1105.752255
1109.749835
1114.277259
1119.094109
1123.963029
1128.660809
1132.98744
1108.12545
1110.217606
1113.204275
1116.886257
1121.04525
1125.453896
1129.887724
1134.135858
1138.00985
1115.583072
1117.509198
1120.254909
1123.632408
1127.435525
1131.449412
1135.462015
1139.274413
1142.709356
1122.643528
1124.409621
1126.92293
1130.006537
1133.465894
1137.098211
1140.703475
1144.094396
1147.104615
1129.324296
1130.936029
1133.225092
1136.025011
1139.152453
1142.416321
1145.628338
1148.612574
1151.213275
1135.640633
1137.103443
1139.176141
1141.702352
1144.509631
1147.418295
1150.251555
1152.844603
1155.052012
1141.605632
1142.924814
1144.788888
1147.051304
1149.550262
1152.117267
1154.586822
1156.805033
1158.636526
1147.230347
1148.411143
1150.074317
1152.082932
1154.285638
1156.524969
1158.64654
1160.507227
1161.981538
1152.523951
1153.571626
1155.041704
1156.80669
1158.725527
1160.651665
1162.441813
1163.96353
1165.100763
1157.493891
1158.413782
1159.698699
1161.23046
1162.878294
1164.506403
1165.982126
1167.184239
1168.006674
1162.145971
1162.943682
1164.051794
1165.361023
1166.751055
1168.097311
1169.278387
1170.182737
1170.713108
1166.485023
1167.166329
1168.106585
1169.206098
1170.354466
1171.437441
1172.343957
1172.971982
1173.232569
1170.519882
1171.092068
1171.875185
1172.778497
1173.701242
1174.53917
1175.191055
1175.563954
1175.576754
1174.263049
1174.733271
1175.369741
1176.090261
1176.80333
1177.414289
1177.831288
1177.970005
1177.756704
1177.726469
1178.10183
1178.602067
1179.153127
1179.672363
1180.07426
1180.275868
1180.201012
1179.782873
1180.922044
1181.20961
1181.583959
1181.978789
1182.31987
1182.53036
1182.535726
1182.267446
1181.665164
1183.861885
1184.06866
1184.327362
1184.579021
1184.757372
1184.793759
1184.621555
1184.179404
1183.41296
1186.558417
1186.691304
1186.844429
1186.965723
1186.996413
1186.875525
1186.543825
1185.946623
1185.035144
1189.024391
1189.090143
1189.14752
1189.150911
1189.048547
1188.786621
1188.312772
1187.578486
1186.540122
1191.272842
1191.27801
1191.249153
1191.146666
1190.92529
1190.537862
1189.938378
1189.084011
1187.935838
1193.316997
1193.267883
1193.161925
1192.965064
1192.638058
1192.139869
1191.430335
1190.471844
1189.229789
1195.170166
1195.072778
1194.898407
1194.618088
1194.198098
1193.603015
1192.798018
1191.750251
1190.42904
1196.845613
1196.70563
1196.471041
1196.117528
1195.616405
1194.937365
1194.050444
1192.927104
1191.54024
1198.35643
1198.179174
1197.892032
1197.474898
1196.903654
1196.152627
1195.196245
1194.009872
1192.569631
1199.715413
1199.505831
1199.173244
1198.701343
1198.070129
1197.2581
1196.243638
1195.005616
1193.523069
1200.934953
1200.697602
1200.326111
1199.807567
1199.125662
1198.262635
1197.200405
1195.920987
1194.406033
1202.026938
1201.765987
1201.361559
1200.803768
1200.079595
1199.174608
1198.073878
1196.762224
1195.223644
1203.002679
1202.721909
1202.289952
1201.699596
1200.940737
1200.001894
1198.870934
1197.535164
1195.980681
1203.872848
1203.575667
1203.121041
1202.504112
1201.717345
1200.751859
1199.597989
1198.245244
1196.681594
1204.647446
1204.336899
1203.863942
1203.225776
1202.417114
1201.431359
1200.26101
1198.897521
1197.330525
1205.335776
1205.014566
1204.527124
1203.872437
1203.047179
1202.046742
1200.86552
1199.496676
1197.931323
1205.946439
1205.616951
1205.118408
1204.45134
1203.614118
1202.603862
1201.416617
1200.04704
1198.48756
1206.487345
1206.151666
1205.644979
1204.969137
1204.123971
1203.108097
1201.918987
1200.552606
1199.002549
1206.965725
1206.62567
1206.113404
1205.431908
1204.582264
1203.56437
1202.376932
1201.017054
1199.479361
1207.38816
1207.045296
1206.529662
1205.845191
1204.994031
1203.977174
1202.794387
1201.443763
1199.920839
1207.760618
1207.416287
1206.899174
1206.214012
1205.363847
1204.350601
1203.174949
1201.835839
1200.329616
1208.088486
1207.743829
1207.226841
1206.542917
1205.695856
1204.688367
1203.521895
1202.19613
1200.708127
1208.376612
1208.032594
1207.517079
1206.836007
1205.993805
1204.99384
1203.838211
1202.527244
1201.058624
1208.629349
1208.286774
1207.773855
1207.096974
1206.261075
1205.27007
1204.126612
1202.831571
1201.383191
1208.850593
1208.510126
1208.000729
1207.329136
1206.50071
1205.519816
1204.389567
1203.111301
1201.683754
1209.043822
1208.70601
1208.200888
1207.535468
1206.715451
1205.745568
1204.629317
1203.368435
1201.962093
1209.212142
1208.877423
1208.37718
1207.718637
1206.907759
1205.949575
1204.847898
1203.604807
1202.219856
1209.358314
1209.027037
1208.53215
1207.88103
1207.079848
1206.133868
1205.047161
1203.822095
1202.458564
1209.484797
1209.157233
1208.668065
1208.024781
1207.233702
1206.300277
1205.228785
1204.021836
1202.679625
1209.593774
1209.270126
1208.786949
1208.151799
1207.371106
1206.450455
1205.394293
1204.205435
1202.884341
1209.687184
1209.367599
1208.890606
1208.263791
1207.493659
1206.585894
1205.545074
1204.374182
1203.073916
1209.76675
1209.451327
1208.980641
1208.362283
1207.6028
1206.707941
1205.682385
1204.529259
1203.249465
1209.833998
1209.522798
1209.058487
1208.44864
1207.699818
1206.817813
1205.807374
1204.671746
1203.412017
1209.890286
1209.583334
1209.12542
1208.524083
1207.785876
1206.916609
1205.921084
1204.802639
1203.562526
1209.936817
1209.634112
1209.182578
1208.589703
1207.862015
1207.005325
1206.024464
1204.922849
1203.701876
1209.974662
1209.676179
1209.230978
1208.646481
1207.929176
1207.08486
1206.11838
1205.033213
1203.830883
1210.00477
1209.710467
1209.271526
1208.695293
1207.988206
1207.156032
1206.203622
1205.134501
1203.950303
1210.027986
1209.737808
1209.305033
1208.736926
1208.039866
1207.21958
1206.280911
1205.227419
1204.060838
1210.045064
1209.758941
1209.332223
1208.772089
1208.084846
1207.276176
1206.350905
1205.312618
1204.163137
1210.056672
1209.774527
1209.353747
1208.801415
1208.123767
1207.326431
1206.414206
1205.390696
1204.2578
1210.063408
1209.785158
1209.370185
1208.825477
1208.157193
1207.370899
1206.471366
1205.462205
1204.345384
1210.065806
1209.791361
1209.382059
1208.844791
1208.185631
1207.410086
1206.522888
1205.527653
1204.426406
1210.06434
1209.79361
1209.389839
1208.859819
1208.209544
1207.444452
1206.569235
1205.587506
1204.501344
1210.059437
1209.792327
1209.393945
1208.870983
1208.22935
1207.474416
1206.610829
1205.642197
1204.570641
1210.051477
1209.787892
1209.394755
1208.87866
1208.245428
1207.500361
1206.64806
1205.692122
1204.634709
1210.040803
1209.780648
1209.392613
1208.883193
1208.258124
1207.522636
1206.681285
1205.73765
1204.693928
1210.02772
1209.7709
1209.387825
1208.884891
1208.267751
1207.541562
1206.71083
1205.779118
1204.748651
1210.012502
1209.758925
1209.38067
1208.884037
1208.274595
1207.55743
1206.736997
1205.816839
1204.799206
1209.995397
1209.74497
1209.371397
1208.880884
1208.278916
1207.570507
1206.760062
1205.851101
1204.845896
1209.976627
1209.72926
1209.360235
1208.875664
1208.28095
1207.581038
1206.78028
1205.882173
1204.889004
1209.95639
1209.711996
1209.347387
1208.868587
1208.280915
1207.589248
1206.797884
1205.910299
1204.928791
1209.934868
1209.693361
1209.333041
1208.859843
1208.279007
1207.595341
1206.813091
1205.935707
1204.965498
1209.912221
1209.673518
1209.317363
1208.849605
1208.275406
1207.599505
1206.826099
1205.958608
1204.999351
1209.888597
1209.652617
1209.300507
1208.838031
1208.270276
1207.601913
1206.837089
1205.979196
1205.030558
1209.864125
1209.630791
1209.28261
1208.825265
1208.263767
1207.602724
1206.846231
1205.997651
1205.059312
1209.838926
1209.608161
1209.263798
1208.811437
1208.256017
1207.602083
1206.853679
1206.014139
1205.085793
1209.813105
1209.584838
1209.244183
1208.796665
1208.247151
1207.600123
1206.859575
1206.028813
1205.110167
1209.78676
1209.56092
1209.22387
1208.781058
1208.237284
1207.596966
1206.864052
1206.041817
1205.132589
1209.759977
1209.536496
1209.202951
1208.764715
1208.22652
1207.592725
1206.86723
1206.05328
1205.153201
1209.732835
1209.511648
1209.181511
1208.747724
1208.214954
1207.587503
1206.869221
1206.063325
1205.172136
1209.705404
1209.486449
1209.159626
1208.730167
1208.202675
1207.581394
1206.870127
1206.072064
1205.189517
1209.677748
1209.460964
1209.137366
1208.712119
1208.189762
1207.574484
1206.870044
1206.079601
1205.20546
1209.649923
1209.435253
1209.114795
1208.693647
1208.176289
1207.566855
1206.869059
1206.086031
1205.220069
1209.621982
1209.40937
1209.091968
1208.674811
1208.162321
1207.558578
1206.867252
1206.091444
1205.233443
1209.593971
1209.383362
1209.068938
1208.655669
1208.14792
1207.54972
1206.864697
1206.095921
1205.245674
1209.565929
1209.357273
1209.04575
1208.636269
1208.133141
1207.540343
1206.861462
1206.099539
1205.256845
1209.537894
1209.331141
1209.022445
1208.616658
1208.118034
1207.530503
1206.85761
1206.102367
1205.267035
1209.509898
1209.305
1208.999061
1208.596875
1208.102644
1207.52025
1206.853197
1206.104469
1205.276317
1209.481967
1209.278879
1208.975629
1208.576956
1208.087012
1207.50963
1206.848275
1206.105906
1205.284758
1209.454125
1209.252803
1208.952177
1208.556933
1208.071172
1207.498683
1206.842892
1206.106729
1205.292419
1209.426388
1209.22679
1208.928727
1208.536831
1208.055155
1207.487445
1206.837089
1206.106989
1205.299357
1209.398768
1209.200854
1208.905293
1208.516668
1208.038984
1207.475944
1206.830899
1206.106726
1205.305623
1209.371269
1209.174999
1208.881883
1208.496455
1208.022673
1207.4642
1206.824351
1206.105976
1205.311261
1209.343881
1209.149218
1208.858493
1208.47619
1208.006226
1207.452222
1206.81746
1206.104763
1205.316305
1209.316581
1209.12349
1208.835103
1208.455857
1207.98963
1207.440003
1206.810226
1206.103097
1205.320778
1209.289325
1209.09777
1208.811669
1208.435416
1207.972848
1207.427511
1206.802626
1206.100967
1205.324683
1209.262036
1209.071982
1208.788117
1208.414792
1207.95581
1207.414683
1206.794604
1206.098328
1205.327994
1209.234595
1209.046006
1208.764324
1208.393865
1207.938395
1207.4014
1206.786051
1206.095086
1205.330636
1209.206819
1209.019658
1208.740105
1208.372443
1207.920411
1207.387474
1206.776784
1206.091073
1205.332467
1209.178441
1208.992663
1208.715177
1208.350238
1207.901565
1207.372607
1206.766511
1206.086008
1205.333235
1209.149075
1208.964627
1208.689135
1208.326831
1207.881422
1207.356355
1206.754784
1206.079456
1205.332529
1209.118176
1208.934991
1208.661397
1208.301615
1207.859352
1207.338066
1206.740939
1206.070753
1205.329715
1209.084986
1208.902975
1208.631153
1208.273741
1207.834462
1207.31681
1206.724015
1206.058929
1205.323836
1209.048473
1208.867513
1208.597289
1208.242037
1207.805518
1207.291285
1206.702656
1206.042592
1205.313505
1209.007246
1208.827168
1208.558301
1208.204915
1207.770834
1207.25971
1206.67499
1206.019804
1205.296755
1208.959468
1208.780037
1208.512191
1208.160258
1207.72816
1207.219688
1206.638483
1205.987916
1205.270872
1208.902742
1208.723639
1208.456352
1208.105297
1207.674536
1207.168059
1206.589774
1205.94339
1205.232189
1208.833992
1208.654782
1208.387424
1208.03646
1207.606141
1207.100726
1206.524487
1205.881591
1205.17587
1208.749325
1208.569429
1208.301156
1207.94922
1207.51812
1207.012474
1206.437032
1205.796571
1205.095661
1208.643884
1208.462542
1208.192242
1207.83792
1207.404406
1206.896772
1206.320389
1205.680832
1204.98364
1208.5117
1208.327927
1208.054155
1207.69561
1207.257532
1206.745576
1206.165901
1205.5251
1204.829963
1208.345532
1208.158075
1207.878992
1207.513867
1207.068457
1206.549142
1205.963065
1205.318102
1204.622629
1208.136719
1207.944011
1207.657305
1207.282636
1206.826392
1206.295845
1205.699351
1205.046373
1204.347265
1207.875041
1207.67515
1207.37797
1206.990087
1206.518657
1205.972032
1205.360043
1204.694091
1203.986959
1207.548592
1207.339174
1207.028058
1206.622494
1206.13056
1205.561905
1204.928131
1204.24297
1203.52215
1207.143689
1206.921943
1206.592749
1206.16415
1205.645324
1205.047454
1204.384248
1203.672211
1202.930584
1206.6448
1206.407428
1206.055272
1205.597324
1205.04405
1204.408442
1203.706675
1202.958518
1202.187356
1206.034516
1205.77769
1205.396905
1204.902266
1204.305749
1203.622447
1202.871408
1202.076199
1201.26503
1205.293571
1205.01291
1204.597005
1204.057265
1203.407417
1202.664979
1201.852308
1200.997343
1200.133861
1204.400899
1204.091455
1203.633103
1203.038765
1202.324181
1201.509652
1200.621311
1199.692085
1198.762098
1203.333748
1202.990012
1202.481052
1201.821536
1201.02951
1200.128433
1199.148723
1198.12894
1197.11638
1202.067848
1201.683764
1201.115226
1200.378908
1199.495474
1198.491952
1197.403573
1196.275215
1195.162197
1200.577625
1200.14662
1199.508778
1198.683055
1197.693073
1196.569867
1195.354036
1194.097484
1192.86443
1198.836465
1198.351502
1197.633942
1196.70533
1195.59261
1194.331282
1192.967895
1191.562105
1190.187926
1196.817026
1196.270664
1195.462386
1194.416649
1193.164108
1191.745209
1190.213053
1188.635784
1187.09811
1194.491591
1193.876068
1192.965599
1191.787907
1190.377763
1188.781058
1187.05806
1185.286148
1183.561614
1191.83246
1191.139778
1190.115316
1188.790424
1187.204416
1185.409146
1183.472664
1181.482329
1179.546893
1188.812357
1188.034395
1186.883959
1185.396412
1183.616052
1181.601212
1179.428351
1177.195533
1175.024825
1185.404877
1184.533499
1183.245101
1181.579452
1179.586279
1177.330927
1174.898868
1172.399582
1169.969261
1181.58493
1180.612102
1179.17392
1177.314954
1175.090815
1172.574372
1169.860712
1167.071401
1164.357521
1177.329183
1176.247099
1174.647653
1172.580615
1170.107925
1167.310481
1164.293546
1161.191404
1158.170779
1172.616502
1171.417697
1169.646022
1167.356838
1164.618838
1161.521417
1158.180589
1154.743961
1151.394512
1167.42835
1166.105817
1164.151623
1161.627092
1158.60811
1155.193055
1151.509143
1147.717822
1144.018805
1161.749141
1160.296436
1158.150303
1155.378392
1152.064162
1148.315385
1144.27086
1140.106245
1136.038419
1155.566712
1153.978102
1151.631648
1148.601671
1144.979504
1140.882617
1136.46173
1131.907029
1127.452877
1148.872706
1147.143246
1144.589225
1141.291891
1137.350734
1132.893189
1128.082147
1123.122553
1118.266465
1141.662654
1139.788185
1137.02051
1133.44802
1129.178584
1124.349801
1119.136906
1113.759733
1108.488137
1133.935936
1131.913136
1128.926945
1125.07307
1120.467915
1115.259374
1109.63511
1103.829883
1098.131333
1125.69581
1123.522227
1120.313926
1116.174053
1111.227641
1105.632932
1099.590015
1093.348517
1087.213755
1116.94938
1114.623442
1111.190729
1106.761883
1101.470594
1095.485429
1089.018816
1082.335096
1075.757059
1107.707469
1105.228495
1101.570361
1096.851212
1091.213351
1084.835561
1077.942429
1070.812762
1063.786533
1097.984445
1095.352641
1091.46938
1086.46025
1080.476058
1073.705603
1066.385331
1058.808138
1051.330776
1087.797947
1085.014413
1080.90763
1075.610537
1069.282266
1062.121342
1054.375609
1046.351398
1038.421547
1077.168528
1074.235245
1069.907873
1064.326592
1057.65869
1050.1121
1041.945444
1033.477295
1025.094544
1066.119161
1063.038941
1058.495175
1052.635226
1045.634503
1037.710324
1029.131939
1020.228995
1011.396601
1054.67468
1051.451003
1046.696024
1040.564233
1033.239259
1024.948433
1015.973905
1006.663721
997.2779027
1042.861313
1039.498102
1034.537618
1028.141121
1020.499853
1011.849844
1002.482892
992.5858863
982.9206092
1030.706521
1027.2081
1022.048358
1015.394916
1007.446068
998.2812861
988.5177766
978.3689183
968.2791397
1018.238939
1014.610091
1009.258057
1002.356382
993.9405889
984.588559
974.4497268
963.9020655
953.4023756
1005.488157
1001.734128
996.0305888
988.8815665
980.3374759
970.6566453
960.1565922
949.2252008
938.3311685
992.3129472
988.4344423
982.7136755
975.3351083
966.5155967
956.5203475
945.6748433
934.3763319
923.1046183
979.0684244
975.0754867
969.1858592
961.5891828
952.5079776
942.2139514
931.0400816
919.3923494
907.7608408
965.6281975
961.5272044
955.4781399
947.675534
938.3472586
927.7711143
916.2870586
904.3091491
892.3369303
952.0222222
947.8198593
941.621243
933.6254929
924.0654969
913.2247249
901.4495841
889.1615447
876.8687916
938.2801112
933.9833146
927.6453999
919.4697726
909.6939884
898.6067558
886.5603965
873.9831296
861.3909648
924.4309584
920.0468531
913.5801747
905.2383065
895.2631185
883.9481257
871.6510295
858.8061364
845.9364684
910.5031643
906.0390109
899.4543057
890.9601007
880.8022257
869.2785709
856.7516867
843.6613101
830.5366669
896.5242956
891.9874403
885.2955744
876.6631099
866.3394834
854.6265335
841.891134
828.5778025
815.221166
882.5209638
877.9187923
871.1306928
862.3741306
851.9018004
840.0190673
827.0966106
813.5830877
800.0177331
868.5187231
863.8586177
856.9852091
848.118713
837.5147379
825.4817614
812.3937598
798.7029001
784.9522424
854.5419861
849.8312855
842.8834306
833.9210885
823.2024442
811.0386824
797.8065788
783.9611933
770.0486435
840.6139535
835.8599166
828.8483613
819.8041139
808.987606
796.7123335
783.357387
769.3801174
755.3289474
826.7565599
821.9663319
814.9016555
805.7892308
794.8914145
782.5236298
769.0668106
754.9800126
740.8132358
812.9904326
808.1710144
801.0635845
791.8964386
780.9335471
768.4918872
754.9537804
740.7794234
726.5196837
799.3348637
794.4930852
787.3530172
778.1442816
767.1321603
754.6348256
741.035549
726.7951229
712.4645967
785.8077945
780.9502909
773.7874127
764.5498465
753.5038967
740.9685866
727.3277168
713.0421511
698.662461
772.4258114
767.5590013
760.3828211
751.1287727
740.0639047
727.5077612
713.844269
699.5338631
685.1260029
759.2041481
754.3342178
747.1539008
737.8952746
726.8258658
714.265425
700.5976223
686.2819852
671.8662565
746.1567057
741.2895946
734.1139412
724.8621695
713.8020313
701.2531844
687.5986784
673.2966802
658.8926398
733.2960752
728.4374649
721.274894
712.0409153
701.0032657
688.4812274
674.8568857
660.5866178
646.213034
720.6335692
715.7888746
708.6474111
699.4416538
688.4390974
675.9583821
662.3803055
648.1590504
633.8338682
708.1792595
703.3536233
696.2408894
687.0732597
676.1177737
663.6921793
650.175682
636.0198892
621.7602051
695.9420208
691.1403099
684.0635195
674.9433953
664.0463213
651.6889183
638.2485145
624.1737851
609.9958279
683.9295777
679.156382
672.1223397
663.0585683
652.2306084
639.9537345
626.6031317
612.6242093
598.5433289
672.1485579
667.4081916
660.4232935
651.4241921
640.6754097
628.4906697
615.2427667
601.3735339
587.4041963
660.604547
655.9010506
648.9712878
640.0446477
629.3844712
617.3027412
604.1696319
590.4231131
576.5788998
649.3021453
644.6392894
637.770253
628.9233464
618.3605774
606.3920127
593.3849942
579.7733617
566.0669752
638.2450244
633.6263149
626.8232038
618.0627925
607.6056165
595.7596635
582.8892475
569.4238328
555.8671053
627.4359862
622.8646701
616.1322993
607.4646469
597.1206461
585.4060567
572.6819846
559.3732927
545.977199
616.8770197
612.3560924
605.6989038
597.1297881
586.9059575
575.3308062
562.7620666
549.619793
536.3944663
606.5693591
602.1015721
595.5236458
587.0583738
576.961138
565.5328411
553.1276897
540.1607403
527.1154902
596.5135399
592.1014091
585.6064758
577.2498997
567.2851321
556.0104677
543.7764492
530.9929618
518.1362957
586.709454
582.355269
575.9467234
567.7032572
557.8762989
546.7614297
534.7054004
522.1127681
509.4524134
577.1564032
572.8622363
566.5431502
558.4167874
548.7324687
537.7829642
525.9111169
513.516012
501.0589408
567.853149
563.620865
557.3940019
549.3883332
539.8509949
529.0718564
517.3897457
505.1981463
492.9505998
558.7979605
554.6292257
548.4970544
540.6152865
531.2288026
520.6244892
509.1370615
497.1542792
485.1217909
549.9886563
545.8849472
539.8496546
532.0946275
522.8624281
512.4368848
501.1485079
489.3792182
477.5666446
541.4226425
537.3852523
531.4487509
523.8229505
514.7480479
504.5047457
493.4192588
481.8675494
470.2790728
533.0969442
529.1269914
523.2909681
515.7965985
506.8816379
496.8235798
485.9442572
474.6135841
463.2527735
525.0083636
521.1068266
515.3727308
508.011664
499.2588828
489.388604
478.7182009
467.6114678
456.4813058
517.1534369
513.3211431
507.6901933
500.4639939
491.8752516
482.1948469
471.735629
460.8552132