/*--------------------------------*- C++ -*----------------------------------*\
| =========                 |                                                 |
| \\      /  F ield         | OpenFOAM: The Open Source CFD Toolbox           |
|  \\    /   O peration     | Version:  2212                                  |
|   \\  /    A nd           | Website:  www.openfoam.com                      |
|    \\/     M anipulation  |                                                 |
\*---------------------------------------------------------------------------*/
FoamFile
{
    version     2.0;
    format      ascii;
    arch        "LSB;label=32;scalar=64";
    class       volVectorField;
    location    "30.00000000";
    object      U;
}
// * * * * * * * * * * * * * * * * * * * * * * * * * * * * * * * * * * * * * //

dimensions      [0 1 -1 0 0 0 0];

internalField   nonuniform List<vector> 
3000
(
(0.06774687546 -0.001860873134 1.40002578e-11)
(0.06790901823 -0.003176109632 2.831261355e-11)
(0.0682589974 -0.004944197625 5.736096066e-11)
(0.06885328947 -0.007252378983 1.212750649e-10)
(0.06972842936 -0.01016463718 2.813393691e-10)
(0.07078254692 -0.0140144026 9.3128866e-11)
(0.07107896889 -0.0172187358 3.478322761e-11)
(0.06716024323 -0.02081136759 1.525019355e-11)
(0.04593767923 -0.01011314195 3.709691574e-12)
(0.07324788286 -0.004019001276 6.131625243e-11)
(0.07420361999 -0.006582687181 1.181005339e-10)
(0.07551324653 -0.009501408726 2.055599449e-10)
(0.07718394837 -0.01250582803 3.448940016e-10)
(0.07887367517 -0.01529741223 5.549571598e-10)
(0.07945100105 -0.01744310196 2.686954062e-10)
(0.07679865797 -0.01698120117 1.269136143e-10)
(0.06576974997 -0.01429653825 5.268553468e-11)
(0.03740721629 -0.003949622816 1.437683459e-11)
(0.0820263919 -0.005379204427 1.128278274e-10)
(0.08300142263 -0.008499052958 2.073122532e-10)
(0.08415020629 -0.01169310409 3.377766921e-10)
(0.08502848811 -0.01442355708 5.170610258e-10)
(0.08471353063 -0.01623825194 7.435628209e-10)
(0.08156875395 -0.01646434868 3.901560466e-10)
(0.0731944814 -0.0141694786 1.931981671e-10)
(0.05482440377 -0.009345278326 9.114406678e-11)
(0.02362193257 -0.00171719847 2.576038108e-11)
(0.09163682883 -0.005334806074 1.250604911e-10)
(0.09225435076 -0.008216123258 2.323357564e-10)
(0.09265206168 -0.01087576644 4.041608346e-10)
(0.09206981313 -0.01269825664 6.020049404e-10)
(0.08933286003 -0.01329156079 8.217264594e-10)
(0.08275055238 -0.01233002718 4.643287792e-10)
(0.07028797982 -0.009246040593 2.54998618e-10)
(0.04939851606 -0.004901524076 1.265352116e-10)
(0.01957702217 -0.0006580094633 3.609233215e-11)
(0.1001159798 -0.004786788052 -1.421137068e-10)
(0.09991803601 -0.007219253777 -3.842637719e-10)
(0.09896041414 -0.009254613915 1.929593732e-10)
(0.09634400466 -0.01031769122 4.598270655e-10)
(0.0909127656 -0.01019707848 5.53320608e-10)
(0.08122469834 -0.008738513019 4.1331841e-10)
(0.06599651784 -0.005991857236 2.620551698e-10)
(0.04420195898 -0.002757577693 1.399662448e-10)
(0.01627803894 -0.0002513221025 4.095808987e-11)
(0.1073920163 -0.003935510917 -6.403178085e-11)
(0.1062844542 -0.00582038169 -4.68357055e-11)
(0.1039264133 -0.007257464804 2.359376321e-10)
(0.09944043277 -0.007779548881 4.926081049e-10)
(0.09183487566 -0.00732321786 7.406152417e-10)
(0.08006568578 -0.005894560575 4.576510613e-10)
(0.0633973832 -0.003770173286 2.818063659e-10)
(0.0415224997 -0.001565811311 1.516007002e-10)
(0.01500054681 -0.0001160709588 4.472876754e-11)
(0.1129575547 -0.003102339027 -2.560297338e-10)
(0.1109399228 -0.004518704548 -5.114844146e-10)
(0.1072563643 -0.005508486428 5.031125616e-11)
(0.1011436853 -0.005721418049 3.483407738e-10)
(0.09182976002 -0.005185426331 4.821278334e-10)
(0.07861532849 -0.003984657539 3.946427708e-10)
(0.06113581372 -0.002421290788 2.754187415e-10)
(0.03942518438 -0.0009363903148 1.601293959e-10)
(0.01402033725 -4.704647062e-05 4.910923482e-11)
(0.1172804012 -0.002364432267 -1.529492278e-10)
(0.114472048 -0.003396371164 -1.685551794e-10)
(0.1096853794 -0.004062199889 8.831797711e-11)
(0.1023062234 -0.00411128887 3.645666061e-10)
(0.09176979122 -0.003615562244 6.754822209e-10)
(0.07763237391 -0.002683168556 4.570419254e-10)
(0.05974030707 -0.001574316318 3.382304064e-10)
(0.0382393194 -0.0005852886773 2.170183252e-10)
(0.0135477708 -2.832958078e-05 6.834365335e-11)
(0.1204273779 -0.001769405872 -1.731867124e-10)
(0.1169623041 -0.002514947103 -2.984514784e-10)
(0.1112891535 -0.002962709603 -5.34089843e-10)
(0.1029425343 -0.002938474796 -2.633610497e-10)
(0.09152979207 -0.002525906943 2.853029112e-10)
(0.07678398051 -0.001827775203 4.504801948e-10)
(0.05866820497 -0.001045788696 6.00293703e-10)
(0.03735837263 -0.0003774019339 4.615697965e-10)
(0.01318625286 -1.401965866e-05 1.246811378e-10)
(0.1227659834 -0.001308003153 -1.311522784e-10)
(0.1187830569 -0.001842123 -1.946222151e-10)
(0.1124299922 -0.002143700072 -2.146357789e-10)
(0.1033720547 -0.002092850125 -3.953666299e-11)
(0.09134842333 -0.001768664519 2.178784052e-10)
(0.07620847034 -0.001257550039 3.396984051e-10)
(0.05797446778 -0.0007088567151 3.669955846e-10)
(0.03681344068 -0.000253169922 2.615500958e-10)
(0.0129802332 -1.025355447e-05 8.137568868e-11)
(0.1244432584 -0.0009609235972 1.980657663e-10)
(0.1200607808 -0.001344267218 5.419649563e-10)
(0.1131942055 -0.001549813026 1.974235549e-10)
(0.1036159486 -0.001495379442 2.580821033e-10)
(0.09116269182 -0.001248386265 5.55833173e-10)
(0.07575990599 -0.0008769728318 3.835302522e-10)
(0.05745976637 -0.0004892538418 2.993223939e-10)
(0.03641291542 -0.0001730905276 1.9270561e-10)
(0.01282359327 -6.239201894e-06 6.080990444e-11)
(0.1256675563 -0.000704288797 1.896155446e-10)
(0.1209833585 -0.0009798577138 3.02462162e-10)
(0.1137357762 -0.001121714976 2.353709536e-10)
(0.1037813283 -0.001073100816 2.62925221e-10)
(0.09102704917 -0.000888385047 3.541147789e-10)
(0.07544788468 -0.0006194531261 3.346992059e-10)
(0.05711011221 -0.0003439974696 2.949664317e-10)
(0.0361465929 -0.0001218066504 2.04383282e-10)
(0.01272339778 -4.872583379e-06 6.579937929e-11)
(0.126544853 -0.000516231208 2.612592469e-11)
(0.1216350657 -0.0007155418352 -7.013876774e-11)
(0.1141063826 -0.0008150191405 -4.340000325e-10)
(0.1038796197 -0.0007751315429 -3.040688766e-10)
(0.09091226625 -0.0006382110953 1.303840337e-10)
(0.07521197396 -0.0004430176225 3.341901625e-10)
(0.05685171999 -0.0002453704693 5.426699436e-10)
(0.03594997124 -8.683120554e-05 4.203007926e-10)
(0.01264751857 -3.360398475e-06 1.109857323e-10)
(0.1271816633 -0.0003792501782 -3.975210815e-11)
(0.1221046329 -0.0005242012968 -1.090429952e-10)
(0.1143697433 -0.0005950058726 -1.991299623e-10)
(0.10394613 -0.0005637422662 -1.023127954e-10)
(0.09082734587 -0.0004627073828 1.091798744e-10)
(0.07504292734 -0.00032056255 2.298728366e-10)
(0.05666883373 -0.0001776066496 2.67909968e-10)
(0.03581207189 -6.312037575e-05 1.798318967e-10)
(0.01259520995 -2.627594368e-06 5.409284499e-11)
(0.1276396014 -0.0002794972985 -3.724763348e-11)
(0.1224390352 -0.000385680154 -5.700394731e-11)
(0.1145530052 -0.0004368328928 -3.244584403e-11)
(0.1039866023 -0.0004129839348 1.232358451e-10)
(0.09075926036 -0.0003384687573 4.334500474e-10)
(0.07491548966 -0.0002343794361 2.421832007e-10)
(0.05653262255 -0.0001300596759 1.11647099e-10)
(0.03570919865 -4.633235745e-05 -7.958614344e-11)
(0.01255558875 -1.866098537e-06 -1.285097624e-11)
(0.127971672 -0.0002068688118 -1.625855272e-11)
(0.1226800898 -0.000285162713 -1.051402485e-11)
(0.1146833682 -0.00032260903 3.154024367e-11)
(0.1040132008 -0.0003047142593 1.230171187e-10)
(0.0907076606 -0.0002497151424 2.174660995e-10)
(0.07482168486 -0.0001730881467 1.631254784e-10)
(0.0564331667 -9.648839217e-05 8.712970092e-11)
(0.03563454474 -3.450321728e-05 1.559582067e-11)
(0.01252705196 -1.304644453e-06 2.88803851e-12)
(0.1282112432 -0.0001538162245 1.928023674e-12)
(0.1228526482 -0.000211946877 1.670157888e-11)
(0.1147747823 -0.0002396771152 5.146006662e-11)
(0.104028969 -0.0002263633608 9.995659477e-11)
(0.0906667875 -0.0001856311673 1.32094423e-10)
(0.0747505802 -0.0001288578515 1.115650749e-10)
(0.05635841197 -7.215586768e-05 7.098052199e-11)
(0.03557870414 -2.584865964e-05 3.220689459e-11)
(0.01250550429 -8.63711166e-07 8.62033611e-12)
(0.1283848786 -0.0001149630825 1.291713163e-11)
(0.1229769439 -0.0001583869119 2.935694094e-11)
(0.114839528 -0.0001791036755 5.455040489e-11)
(0.1040384346 -0.0001692032122 8.069623711e-11)
(0.09063507726 -0.0001388534394 9.261172012e-11)
(0.07469712586 -9.649339768e-05 8.067898779e-11)
(0.0563026724 -5.411105105e-05 5.594821997e-11)
(0.03553727264 -1.940916712e-05 2.997262598e-11)
(0.01248955892 -6.579095813e-07 8.603446432e-12)
(0.1285103428 -8.640685342e-05 1.792262457e-11)
(0.1230660406 -0.0001190509647 3.317312057e-11)
(0.1148848345 -0.0001346333612 5.075406926e-11)
(0.1040432242 -0.0001272210014 6.485178041e-11)
(0.09060983227 -0.000104404285 6.813290651e-11)
(0.07465620593 -7.253502964e-05 5.823465739e-11)
(0.05626044287 -4.052922426e-05 4.072992737e-11)
(0.03550594619 -1.447858941e-05 2.222952478e-11)
(0.01247745377 -5.192392323e-07 6.356316828e-12)
(0.1286014652 -6.54179961e-05 1.852162957e-11)
(0.1231303213 -9.013781682e-05 3.09204955e-11)
(0.1149168611 -0.0001019261395 4.14703364e-11)
(0.104045503 -9.62869474e-05 4.575111712e-11)
(0.09059019532 -7.889943274e-05 4.117643184e-11)
(0.07462531995 -5.46448385e-05 2.98068448e-11)
(0.05622898169 -3.01295315e-05 1.736665227e-11)
(0.03548283192 -1.059103113e-05 7.480876681e-12)
(0.01246850769 -4.338671633e-07 1.62217149e-12)
(0.1286680859 -5.004837208e-05 1.464089515e-11)
(0.1231770677 -6.896013624e-05 2.094133305e-11)
(0.1149397613 -7.794341111e-05 1.771253363e-11)
(0.1040464716 -7.353827537e-05 -1.307969819e-11)
(0.09057511591 -6.002499426e-05 -4.370280335e-11)
(0.07460214111 -4.12482449e-05 -5.724804541e-11)
(0.05620574251 -2.204249033e-05 -4.482337177e-11)
(0.03546567052 -7.439570293e-06 -2.769417807e-11)
(0.01246193595 -3.768288018e-07 -8.962468379e-12)
(0.1287182155 -3.904845919e-05 4.496792658e-11)
(0.123212443 -5.382305744e-05 9.637214731e-11)
(0.1149574666 -6.083427461e-05 2.042401182e-10)
(0.1040479943 -5.733357075e-05 -4.463073322e-10)
(0.09056492714 -4.662125877e-05 -5.912565338e-10)
(0.07458612442 -3.170560917e-05 -5.042567396e-10)
(0.05618993854 -1.649457034e-05 -2.269048939e-10)
(0.03545389843 -4.992078831e-06 -1.015141143e-10)
(0.01245734272 3.349670094e-08 -2.7778288e-11)
(0.1287584367 -3.150633401e-05 2.037991242e-11)
(0.1232416356 -4.34775046e-05 1.533374787e-11)
(0.1149734582 -4.920670206e-05 -4.794923408e-11)
(0.1040519459 -4.638475789e-05 -2.971592625e-10)
(0.09056018804 -3.779364513e-05 -3.912552405e-10)
(0.07457717798 -2.571139688e-05 -3.429022084e-10)
(0.05618115834 -1.367073925e-05 -2.158951268e-10)
(0.0354482447 -3.826673143e-06 -1.114367039e-10)
(0.01245501299 -7.934865301e-08 -3.194050474e-11)
(0.1287947173 -2.703372751e-05 -1.087929481e-11)
(0.1232696373 -3.747331909e-05 -4.115511725e-11)
(0.1149916058 -4.267897912e-05 -1.118955234e-10)
(0.1040613072 -4.05821403e-05 -2.2362673e-10)
(0.09056371442 -3.334266686e-05 -2.691492669e-10)
(0.07457779504 -2.266994026e-05 -2.400719144e-10)
(0.05618131132 -1.225158631e-05 -1.698565098e-10)
(0.03544916306 -3.16233097e-06 -9.61466942e-11)
(0.01245604825 -7.002138384e-07 -2.847617335e-11)
(0.1288335763 -2.534444373e-05 -3.187097946e-11)
(0.1233022497 -3.540243518e-05 -6.798655225e-11)
(0.1150167317 -4.077026612e-05 -1.226965775e-10)
(0.1040795017 -3.932773019e-05 -1.817380622e-10)
(0.09057631255 -3.282711282e-05 -2.069874911e-10)
(0.0745874079 -2.239191835e-05 -1.87456654e-10)
(0.05618987698 -1.225073097e-05 -1.377128707e-10)
(0.03545670132 -2.661207504e-06 -7.947069021e-11)
(0.01246038688 -1.146415748e-06 -2.37202875e-11)
(0.1288814247 -2.615873087e-05 -4.182291831e-11)
(0.1233452176 -3.681638251e-05 -7.629728657e-11)
(0.1150537865 -4.286456989e-05 -1.161762521e-10)
(0.1041110327 -4.18594386e-05 -1.498836699e-10)
(0.09060345468 -3.562253878e-05 -1.608870053e-10)
(0.07461126312 -2.488794132e-05 -1.441156031e-10)
(0.05621103984 -1.433470747e-05 -1.071431419e-10)
(0.03547327294 -2.994237417e-06 -6.257362564e-11)
(0.01246838314 -1.913421613e-06 -1.87982833e-11)
(0.1289457776 -2.977670275e-05 -4.409552833e-11)
(0.1234055471 -4.226433585e-05 -7.458686697e-11)
(0.1151091365 -4.982385084e-05 -1.037120687e-10)
(0.1041615995 -4.944479654e-05 -1.237799962e-10)
(0.09064995208 -4.299978874e-05 -1.268984365e-10)
(0.07465381106 -3.080008003e-05 -1.115805969e-10)
(0.05624827252 -1.854225993e-05 -8.30074447e-11)
(0.03550119537 -3.8723498e-06 -4.878943694e-11)
(0.01248107359 -3.003421774e-06 -1.471849655e-11)
(0.1290363496 -3.649135288e-05 -4.207453894e-11)
(0.1234926815 -5.220062888e-05 -6.824825206e-11)
(0.1151918661 -6.225308211e-05 -9.014645666e-11)
(0.1042397684 -6.275512981e-05 -1.031462125e-10)
(0.09072340769 -5.565938517e-05 -1.027758587e-10)
(0.07472139126 -4.072039885e-05 -8.911873941e-11)
(0.05630699295 -2.532080656e-05 -6.611106591e-11)
(0.03554460636 -5.530097575e-06 -3.895142716e-11)
(0.0125002096 -4.58811277e-06 -1.178598054e-11)
(0.1291647938 -4.667396517e-05 -3.659366987e-11)
(0.123617982 -6.717984521e-05 -5.722809801e-11)
(0.1153129022 -8.083328958e-05 -7.399277343e-11)
(0.1043558897 -8.247253184e-05 -9.648170331e-11)
(0.09083349379 -7.425776122e-05 -9.398975109e-11)
(0.07482272772 -5.532567048e-05 -7.892762606e-11)
(0.05639432325 -3.530932098e-05 -5.742130412e-11)
(0.03560831405 -8.251175837e-06 -3.356264401e-11)
(0.01252759132 -6.801532501e-06 -1.014666889e-11)
(0.1293455819 -6.073694223e-05 2.608522161e-11)
(0.12379567 -8.780919058e-05 8.381638557e-11)
(0.1154860668 -0.0001063225329 2.384596518e-10)
(0.1045231821 -0.0001094243533 -3.00167184e-10)
(0.0909925124 -9.960173498e-05 -1.621852277e-10)
(0.0749687359 -7.526511198e-05 -9.806983509e-11)
(0.05651915521 -4.895212665e-05 -6.079198717e-11)
(0.03569836907 -1.21760208e-05 -3.31178075e-11)
(0.01256549217 -9.763524006e-06 -9.767526942e-12)
(0.1295961615 -7.905473883e-05 3.04741946e-11)
(0.1240429632 -0.0001146295025 5.20238405e-11)
(0.1157281768 -0.0001393757786 4.301502767e-11)
(0.1047577971 -0.0001442897924 -1.197764142e-10)
(0.0912155394 -0.0001323151797 -1.146448421e-10)
(0.07517278658 -0.0001010251237 -8.421921668e-11)
(0.05669228444 -6.6580286e-05 -5.535429872e-11)
(0.03582201093 -1.740118679e-05 -3.055105522e-11)
(0.01261656813 -1.358211889e-05 -9.022868665e-12)
(0.1299373664 -0.0001019021221 1.727254986e-11)
(0.1243804608 -0.0001480316576 1.869706649e-11)
(0.1160593862 -0.0001804432785 -5.379822874e-12)
(0.1050790932 -0.0001875001983 -6.523732217e-11)
(0.09152058405 -0.0001727477036 -7.674297405e-11)
(0.07545075827 -0.0001328355405 -6.483205239e-11)
(0.05692643641 -8.832015872e-05 -4.605897789e-11)
(0.03598770444 -2.393430168e-05 -2.650422825e-11)
(0.01268388366 -1.834250934e-05 -7.975356545e-12)
(0.1303935531 -0.0001293815709 5.035198901e-12)
(0.1248322601 -0.0001881389127 -4.16866587e-13)
(0.116503279 -0.000229618055 -1.923866189e-11)
(0.1055096897 -0.0002390761967 -4.616868305e-11)
(0.09192861347 -0.000220823009 -5.594995019e-11)
(0.07582102352 -0.0001705556562 -5.158712176e-11)
(0.05723621093 -0.0001140210945 -3.99405422e-11)
(0.03620506226 -3.167043736e-05 -2.471575113e-11)
(0.01277086778 -2.409705897e-05 -7.719561004e-12)
(0.1309926908 -0.0001613594535 -3.212303648e-12)
(0.1254260256 -0.0002347060266 -1.088236571e-11)
(0.1170868955 -0.0002865144867 -2.50451012e-11)
(0.1060754459 -0.0002985017908 -4.10994915e-11)
(0.09246347531 -0.0002759239536 -5.037156434e-11)
(0.07630432245 -0.0002135847905 -5.227859603e-11)
(0.05763793446 -0.0001431957657 -4.764147607e-11)
(0.03648471633 -4.037272365e-05 -3.36313686e-11)
(0.01288126271 -3.085598937e-05 -1.050143264e-11)
(0.1317662865 -0.0001973946493 -1.525723743e-11)
(0.126192893 -0.0002870306048 -2.549558781e-11)
(0.1178405994 -0.0003501624021 -3.821336037e-11)
(0.1068052805 -0.0003646183641 -5.373276716e-11)
(0.09315166764 -0.0003368059022 -7.110645731e-11)
(0.07692349611 -0.0002608052455 -9.070304883e-11)
(0.05814939107 -0.0001749933697 -1.068792077e-10)
(0.03683810445 -4.966894244e-05 -8.300163154e-11)
(0.01301903869 -3.858158527e-05 -1.778050323e-11)
(0.1327491897 -0.0002366905673 -9.339665925e-10)
(0.1271672427 -0.0003438876009 -3.18655857e-10)
(0.1187978109 -0.0004189378974 -1.517450429e-10)
(0.1077308474 -0.0004355671099 -1.210784795e-10)
(0.09402196262 -0.0004015638762 -1.489296158e-10)
(0.07770308117 -0.0003105790525 -2.285194782e-10)
(0.05878944591 -0.000208216093 -4.011083201e-10)
(0.03727719045 -5.906782491e-05 -3.08904982e-10)
(0.01318829033 -4.718816057e-05 2.561095627e-11)
(0.1339792555 -0.0002780769094 -3.8633263e-10)
(0.1283863269 -0.0004034992859 -2.718659391e-10)
(0.1199945785 -0.0004905428717 -1.847938923e-10)
(0.1088860448 -0.0005087919161 -1.573124403e-10)
(0.09510486329 -0.0004676627931 -1.695157961e-10)
(0.07866875494 -0.0003607973132 -2.001163216e-10)
(0.05957755243 -0.0002413748006 -2.189880556e-10)
(0.03781411386 -6.799231524e-05 -1.522616197e-10)
(0.01339311014 -5.65453679e-05 -3.470725639e-11)
(0.1354968783 -0.0003200105293 -2.017442946e-10)
(0.1298897589 -0.0004635539867 -2.029857443e-10)
(0.1214689975 -0.0005620489364 -1.750907175e-10)
(0.1103063641 -0.0005811125805 -1.599586273e-10)
(0.09643190209 -0.0005320401199 -1.587306269e-10)
(0.07984664371 -0.0004089897958 -1.581397606e-10)
(0.06053315872 -0.0002727861143 -1.402428904e-10)
(0.03846078545 -7.582578859e-05 -9.114483272e-11)
(0.0136374464 -6.648554716e-05 -2.695559278e-11)
(0.1373443871 -0.0003606129946 -1.250088213e-10)
(0.1317188469 -0.0005212788553 -1.52479802e-10)
(0.1232604632 -0.0006300089122 -1.517802348e-10)
(0.1120280658 -0.0006488744339 -1.451419093e-10)
(0.09803478224 -0.0005912826999 -1.375145004e-10)
(0.0812625073 -0.0004524910163 -1.241433301e-10)
(0.06167503754 -0.0003007012162 -9.893880831e-11)
(0.03922844933 -8.196497203e-05 -6.112910574e-11)
(0.01392495427 -7.681366761e-05 -1.858180338e-11)
(0.1395652901 -0.0003977518587 -8.731330022e-11)
(0.1339157633 -0.0005735677547 -1.178160022e-10)
(0.1254087488 -0.0006906390048 -1.271334054e-10)
(0.1140871825 -0.0007081687245 -1.250996076e-10)
(0.09994437365 -0.0006418612275 -1.160228164e-10)
(0.08294082855 -0.00048864275 -9.973846667e-11)
(0.06302057409 -0.0003234507053 -7.554158125e-11)
(0.04012724077 -8.58730537e-05 -4.540053868e-11)
(0.01425885066 -8.731753535e-05 -1.378676404e-11)
(0.1422033598 -0.0004291606632 -6.604383572e-11)
(0.1365225435 -0.0006171666265 -9.4153653e-11)
(0.1279529093 -0.0007400665213 -1.069819706e-10)
(0.1165183715 -0.0007551110431 -1.083872514e-10)
(0.1021896019 -0.0006804009263 -1.008418692e-10)
(0.08490385414 -0.0005150087433 -8.695292639e-11)
(0.06458505269 -0.0003395840232 -6.548789904e-11)
(0.04116576784 -8.712381844e-05 -3.927896431e-11)
(0.01464178281 -9.777812124e-05 -1.198338603e-11)
(0.1453015333 -0.0004525915472 -5.59684975e-11)
(0.1395799012 -0.0006489050314 -8.477648271e-11)
(0.1309300219 -0.0007746228485 -1.052091858e-10)
(0.1193536502 -0.0007861519503 -1.166290447e-10)
(0.1047962841 -0.0007039640719 -1.025792601e-10)
(0.08717064779 -0.0005295804558 -1.033997479e-10)
(0.06638099641 -0.0003479876811 -7.716290266e-11)
(0.04235074821 -8.543089351e-05 -4.514504676e-11)
(0.01507572031 -0.0001079783094 -1.362001963e-11)
(0.1489006101 -0.0004659946965 -7.265341105e-11)
(0.1431258601 -0.0006659540365 -1.30403027e-10)
(0.1343737884 -0.0007911511808 -2.18770771e-10)
(0.1226210621 -0.0007983849464 -3.955268543e-10)
(0.1077859811 -0.0007103064577 -3.89203728e-11)
(0.08975622418 -0.0005309433706 -2.72933842e-10)
(0.06841760917 -0.0003479663972 -1.38533285e-10)
(0.04368672747 -8.066116415e-05 -6.671330785e-11)
(0.0155618768 -0.0001177097906 -1.858066928e-11)
(0.1530377431 -0.0004677004081 -7.846898184e-11)
(0.1471942257 -0.0006660834696 -1.331696601e-10)
(0.1383130519 -0.0007872985776 -1.886313748e-10)
(0.1263433517 -0.0007898120967 -2.228039256e-10)
(0.1111749428 -0.0006980708121 -1.493290969e-10)
(0.09267082423 -0.0005183827255 -1.592328045e-10)
(0.07070035348 -0.000339279534 -1.089376104e-10)
(0.04517588864 -7.28326678e-05 -5.893766361e-11)
(0.01610066147 -0.0001267782259 -1.698943461e-11)
(0.157744754 -0.0004565840871 -7.268227293e-11)
(0.1518129529 -0.0006478861355 -1.166310416e-10)
(0.1427703156 -0.0007617494233 -1.500679642e-10)
(0.130536748 -0.0007595306021 -1.597607554e-10)
(0.1149732353 -0.000666893058 -1.352048875e-10)
(0.09591938562 -0.0004919188959 -1.1559366e-10)
(0.07323069014 -0.0003221345799 -8.211255404e-11)
(0.0468179594 -6.210065064e-05 -4.629637176e-11)
(0.01669166351 -0.0001350072413 -1.358866222e-11)
(0.1630463318 -0.0004321947006 -6.188046694e-11)
(0.1570024909 -0.0006109328624 -9.583025645e-11)
(0.1477603545 -0.0007143633769 -1.175863308e-10)
(0.1352099391 -0.0007078133288 -1.215898992e-10)
(0.1191841058 -0.0006174126506 -1.081923361e-10)
(0.09950123533 -0.0004522736774 -8.831185884e-11)
(0.07600598528 -0.0002971436489 -6.269630301e-11)
(0.04861021806 -4.87347402e-05 -3.57864135e-11)
(0.01733366296 -0.0001422390071 -1.058748512e-11)
(0.1689582559 -0.0003948193431 -5.056044966e-11)
(0.1627742578 -0.0005558351836 -7.676259707e-11)
(0.1532890616 -0.0006461952382 -9.208843376e-11)
(0.1403633469 -0.0006360684238 -9.434392974e-11)
(0.1238036504 -0.0005511843277 -8.517254918e-11)
(0.1034100349 -0.0004007726594 -6.931114562e-11)
(0.07901958817 -0.0002652443367 -4.960895277e-11)
(0.05054759796 -3.309782765e-05 -2.87313179e-11)
(0.01802466073 -0.0001483393709 -8.590567812e-12)
(0.1754857833 -0.0003454705479 -4.087189019e-11)
(0.1691293649 -0.000484200916 -6.156751195e-11)
(0.1593526151 -0.000559394926 -7.346173792e-11)
(0.1459887369 -0.0005466909006 -7.574742049e-11)
(0.12882077 -0.0004705120575 -6.996770875e-11)
(0.1076339341 -0.0003392134642 -5.876002119e-11)
(0.0822610373 -0.0002276152213 -4.394856583e-11)
(0.05262290943 -1.565755659e-05 -2.660167245e-11)
(0.01876187871 -0.0001532269734 -8.134786087e-12)
(0.1826224455 -0.0002858010867 -3.542588557e-11)
(0.1760577952 -0.0003984885291 -5.305428216e-11)
(0.1659371181 -0.0004570059646 -6.382227976e-11)
(0.1520692634 -0.0004428365842 -6.801027526e-11)
(0.1342174845 -0.0003782343163 -6.708307228e-11)
(0.1121559833 -0.0002697105566 -6.224535698e-11)
(0.08571645907 -0.0001855028429 -5.260303269e-11)
(0.05482714975 2.878891993e-06 -3.479339788e-11)
(0.0195416841 -0.000157119566 -1.056228881e-11)
(0.190349366 -0.0002179497418 -6.312972035e-11)
(0.183538085 -0.0003017654586 -7.177696479e-11)
(0.1730186653 -0.0003426638755 -7.576960777e-11)
(0.1585798254 -0.0003281119128 -8.044251014e-11)
(0.1399694098 -0.0002774561653 -8.728434041e-11)
(0.1169545536 -0.0001944831337 -9.614969917e-11)
(0.08936889313 -0.0001400495863 -1.005060619e-10)
(0.05714899749 2.11703663e-05 -7.172110887e-11)
(0.02036057629 -0.0001608581043 -1.646634031e-11)
(0.1986353464 -0.0001443584269 -7.08363671e-10)
(0.1915376961 -0.0001974589819 -2.812248686e-10)
(0.1805639872 -0.0002203172253 -1.568396208e-10)
(0.1654878825 -0.0002063267001 -1.276276842e-10)
(0.1460466075 -0.0001713953667 -1.391562905e-10)
(0.1220041335 -0.0001156717707 -1.841745566e-10)
(0.09319898732 -9.292983796e-05 -2.857339584e-10)
(0.05957563684 3.937011557e-05 -2.04669112e-10)
(0.02121447815 -0.0001635734208 9.598601552e-12)
(0.2074376528 -6.757481537e-05 -2.83644351e-10)
(0.2000139699 -8.907191512e-05 -2.192718963e-10)
(0.1885314995 -9.388766599e-05 -1.628947072e-10)
(0.1727544509 -8.114980856e-05 -1.4009077e-10)
(0.1524143485 -6.305224335e-05 -1.398373332e-10)
(0.1272759894 -3.501910641e-05 -1.492735654e-10)
(0.09718400431 -4.577134961e-05 -1.504197951e-10)
(0.06209500233 5.671888654e-05 -1.009528501e-10)
(0.0220985974 -0.0001650979325 -2.372521006e-11)
(0.2167036879 9.934316755e-06 -1.416391455e-10)
(0.208915764 2.001551124e-05 -1.51885716e-10)
(0.1968728178 3.284306244e-05 -1.381644214e-10)
(0.1803354289 4.378659558e-05 -1.264861603e-10)
(0.1590343335 4.477845778e-05 -1.192995085e-10)
(0.132738924 4.406281479e-05 -1.10831361e-10)
(0.1013007006 2.486595797e-06 -9.27839326e-11)
(0.0646928929 7.49390769e-05 -5.861776339e-11)
(0.02300809229 -0.0001662409949 -1.723361705e-11)
(0.2263725386 8.587859751e-05 -8.351262302e-11)
(0.2181848987 0.0001266455178 -1.059609625e-10)
(0.2055340925 0.00015635696 -1.086023698e-10)
(0.188182825 0.0001652248395 -1.034604491e-10)
(0.1658658468 0.00014949581 -9.453515141e-11)
(0.1383601846 0.0001199291469 -8.1206207e-11)
(0.1055271185 5.06803915e-05 -6.199835552e-11)
(0.06735264382 9.353484095e-05 -3.734025918e-11)
(0.02393778267 -0.0001669309298 -1.122024633e-11)
(0.236376607 0.0001582670209 -5.473320546e-11)
(0.2277576756 0.000228122719 -7.526668834e-11)
(0.2144573431 0.0002737150765 -8.194362008e-11)
(0.1962458146 0.0002805657703 -7.944574427e-11)
(0.1728662548 0.0002489067346 -7.093783253e-11)
(0.1441060051 0.0001924256711 -5.796081437e-11)
(0.1098385793 9.617555984e-05 -4.173308946e-11)
(0.07005963014 0.0001105041896 -2.407090272e-11)
(0.02488269508 -0.0001665429985 -7.120223913e-12)
(0.2466446885 0.00022558566 -3.723482142e-11)
(0.2375676016 0.0003224378982 -5.280941695e-11)
(0.2235826931 0.0003827493066 -5.853928276e-11)
(0.2044724604 0.0003878139064 -5.616556093e-11)
(0.179992329 0.0003413921408 -4.811268829e-11)
(0.149942482 0.0002602101228 -3.668690483e-11)
(0.1142096525 0.0001384808422 -2.392214663e-11)
(0.07280000974 0.0001258904751 -1.233871575e-11)
(0.02583790771 -0.0001652261079 -3.367921491e-12)
(0.2571045839 0.000286753678 -2.379848581e-11)
(0.2475476281 0.0004081611214 -3.328405737e-11)
(0.2328501519 0.0004819181114 -3.513235012e-11)
(0.2128110648 0.000485539096 -3.009413125e-11)
(0.1872013563 0.0004258055333 -2.068422791e-11)
(0.1558362248 0.0003223437655 -1.06717883e-11)
(0.1186164555 0.0001772330705 1.909105683e-13)
(0.07555926556 0.000139633138 5.148416245e-12)
(0.02679851886 -0.0001631262958 2.449359674e-12)
(0.2676850267 0.0003410951547 -1.014099325e-11)
(0.2576317965 0.0004843967116 -1.118050908e-11)
(0.2422009537 0.0005702467616 -4.326686133e-12)
(0.2212112083 0.0005728189956 1.081476271e-11)
(0.1944518582 0.0005013980972 2.999565745e-11)
(0.1617549136 0.0003782189175 2.84890273e-11)
(0.1230359327 0.0002122085796 5.014310434e-11)
(0.07832354918 0.0001516933241 4.653762719e-11)
(0.0277596964 -0.0001603995689 1.55688344e-11)
(0.2783174916 0.0003882785797 5.718251024e-12)
(0.2677567964 0.0005507029006 1.703431731e-11)
(0.251578817 0.0006472471045 4.291496847e-11)
(0.229624721 0.0006491782219 9.835620412e-11)
(0.2017042974 0.0005677789593 2.21469211e-10)
(0.1676677944 0.0004275180998 4.878919824e-11)
(0.1274461353 0.000243396428 2.025152569e-10)
(0.08107943469 0.0001616196951 1.760140789e-10)
(0.02871725189 -0.0001576090056 4.447088866e-11)
(0.2889375652 0.0004282523652 1.51380724e-11)
(0.2778631512 0.00060700319 2.980951998e-11)
(0.2609309119 0.0007128236483 5.123303109e-11)
(0.2380064356 0.0007144950102 7.885995283e-11)
(0.2089216435 0.0006248228868 1.034541217e-10)
(0.1735460995 0.0004701083838 7.883394473e-11)
(0.1318265446 0.0002705436974 9.458104449e-11)
(0.08381444426 0.0001700008428 7.385668598e-11)
(0.02966721407 -0.0001541910572 2.310661744e-11)
(0.2994859703 0.0004611846257 1.796205241e-11)
(0.2878961147 0.0006535177983 3.143577206e-11)
(0.2702086005 0.0007672114313 4.628419929e-11)
(0.246314768 0.0007689622321 5.975464297e-11)
(0.2160698158 0.0006726678873 6.658512749e-11)
(0.1793633816 0.0005060643339 6.084632345e-11)
(0.1361583298 0.0002936789909 5.44821447e-11)
(0.08651742982 0.0001768819653 3.733460808e-11)
(0.03060557562 -0.0001502053174 1.187296563e-11)
(0.3099092233 0.0004874049183 1.690764071e-11)
(0.2978062489 0.0006906877408 2.7866782e-11)
(0.2793679138 0.000810888539 3.7797962e-11)
(0.2545120851 0.0008130022121 4.474692304e-11)
(0.2231179435 0.0007116383516 4.652176972e-11)
(0.1850956637 0.0005355861218 4.224978505e-11)
(0.1404243939 0.0003129216829 3.404913423e-11)
(0.08917814609 0.0001823129121 2.156775649e-11)
(0.03152890092 -0.0001457533813 6.7070822e-12)
(0.3201600004 0.0005073612531 1.42817439e-11)
(0.3075497544 0.000719115733 2.273623054e-11)
(0.2883698376 0.0008445138342 2.93942327e-11)
(0.2625649457 0.0008472128752 3.310047345e-11)
(0.2300385614 0.0007422068302 3.300397086e-11)
(0.1907215973 0.0005589809814 2.911108353e-11)
(0.1446095095 0.0003284486068 2.234154135e-11)
(0.09178744853 0.0001863453554 1.358662457e-11)
(0.0324341258 -0.00014093339 4.155608437e-12)
(0.3301972435 0.0005215786353 1.140922902e-11)
(0.3170885697 0.0007395137959 1.778916355e-11)
(0.2971804028 0.000868872575 2.234176281e-11)
(0.2704441773 0.0008723188504 2.440407864e-11)
(0.2368076698 0.0007649576722 2.368689498e-11)
(0.1962225037 0.0005766429857 2.04289253e-11)
(0.1487003407 0.0003404873823 1.530588297e-11)
(0.09433732056 0.0001890536101 9.136400259e-12)
(0.03331856949 -0.0001358323384 2.773668052e-12)
(0.3399860669 0.0005306252992 8.921920549e-12)
(0.3263902991 0.0007526582525 1.375155235e-11)
(0.3057706333 0.0008848300007 1.700172276e-11)
(0.2781248421 0.0008891306883 1.827896663e-11)
(0.2434047138 0.0007805538179 1.751116335e-11)
(0.2015823594 0.0005890296197 1.496043432e-11)
(0.1526854332 0.0003493031275 1.113176034e-11)
(0.09682086933 0.0001905311236 6.623612777e-12)
(0.0341799247 -0.000130525671 2.012393671e-12)
(0.3494975059 0.0005350878719 7.137720149e-12)
(0.3354279962 0.0007593537114 1.097966185e-11)
(0.314116372 0.0008932915849 1.356081149e-11)
(0.2855861007 0.0008985070627 1.461345804e-11)
(0.2498124804 0.0007897049082 1.409944679e-11)
(0.2067877229 0.0005966378688 1.218659598e-11)
(0.1565551654 0.0003551851705 9.19896654e-12)
(0.09923229907 0.0001908851636 5.554767991e-12)
(0.03501624842 -0.0001250784075 1.706860777e-12)
(0.3587081547 0.000535551931 6.397407216e-12)
(0.3441798453 0.0007604073586 9.973663797e-12)
(0.3221980155 0.0008951718342 1.260739035e-11)
(0.2928110007 0.0009013227823 1.403718023e-11)
(0.2560169368 0.0007931390078 1.409088499e-11)
(0.2118276175 0.0005999829135 1.269229555e-11)
(0.1603016705 0.0003584352159 9.945191415e-12)
(0.1015668674 0.0001902308907 6.188920958e-12)