/*--------------------------------*- C++ -*----------------------------------*\
| =========                 |                                                 |
| \\      /  F ield         | OpenFOAM: The Open Source CFD Toolbox           |
|  \\    /   O peration     | Version:  2106                                  |
|   \\  /    A nd           | Website:  www.openfoam.com                      |
|    \\/     M anipulation  |                                                 |
\*---------------------------------------------------------------------------*/
FoamFile
{
    version     2.0;
    format      ascii;
    arch        "LSB;label=32;scalar=64";
    class       volScalarField;
    location    "219.99956";
    object      A1C2H3;
}
// * * * * * * * * * * * * * * * * * * * * * * * * * * * * * * * * * * * * * //

dimensions      [0 0 0 0 0 0 0];

internalField   nonuniform List<scalar> 
3360
(
2.30541e-18
2.37959e-18
2.48282e-18
2.60908e-18
2.75313e-18
2.91023e-18
3.07611e-18
3.24693e-18
3.41925e-18
3.59004e-18
3.75667e-18
3.91693e-18
4.06896e-18
4.21131e-18
4.34286e-18
4.46282e-18
4.57073e-18
4.66637e-18
4.74978e-18
4.82121e-18
4.8811e-18
4.93001e-18
4.96864e-18
4.99778e-18
5.01828e-18
5.03104e-18
5.03695e-18
1.01134e-17
1.04851e-17
1.10096e-17
1.16628e-17
1.24247e-17
1.32777e-17
1.42064e-17
1.51964e-17
1.62346e-17
1.73082e-17
1.84053e-17
1.95143e-17
2.06234e-17
2.17214e-17
2.27969e-17
2.38391e-17
2.4837e-17
2.57802e-17
2.66586e-17
2.74629e-17
2.81844e-17
2.88155e-17
2.93496e-17
2.97816e-17
3.01076e-17
3.03253e-17
3.04338e-17
3.17313e-17
3.31239e-17
3.51027e-17
3.75892e-17
4.05183e-17
4.38314e-17
4.74728e-17
5.13877e-17
5.55206e-17
5.98147e-17
6.42122e-17
6.86555e-17
7.30877e-17
7.74525e-17
8.16955e-17
8.57651e-17
8.96135e-17
9.31978e-17
9.64808e-17
9.94316e-17
1.02027e-16
1.04249e-16
1.06088e-16
1.07542e-16
1.08614e-16
1.09313e-16
1.09653e-16
9.24094e-17
9.69993e-17
1.03565e-16
1.11872e-16
1.21724e-16
1.32937e-16
1.45327e-16
1.58703e-16
1.72866e-16
1.87605e-16
2.02703e-16
2.1794e-16
2.33096e-16
2.47957e-16
2.6232e-16
2.76e-16
2.88832e-16
3.00675e-16
3.11417e-16
3.20973e-16
3.29287e-16
3.36331e-16
3.421e-16
3.46612e-16
3.49904e-16
3.5203e-16
3.53056e-16
2.69979e-16
2.84457e-16
3.05209e-16
3.31525e-16
3.62803e-16
3.98466e-16
4.37919e-16
4.80532e-16
5.25634e-16
5.72517e-16
6.2045e-16
6.68693e-16
7.16524e-16
7.63251e-16
8.08234e-16
8.509e-16
8.90752e-16
9.27384e-16
9.60479e-16
9.89811e-16
1.01524e-15
1.03671e-15
1.05425e-15
1.06792e-15
1.07787e-15
1.08428e-15
1.08737e-15
7.96048e-16
8.40514e-16
9.04323e-16
9.85311e-16
1.08162e-15
1.19147e-15
1.31299e-15
1.4442e-15
1.583e-15
1.72716e-15
1.87438e-15
2.02237e-15
2.16888e-15
2.31178e-15
2.4491e-15
2.57911e-15
2.70033e-15
2.81155e-15
2.91185e-15
3.00059e-15
3.0774e-15
3.14215e-15
3.19494e-15
3.23606e-15
3.26595e-15
3.28518e-15
3.29443e-15
2.36464e-15
2.49975e-15
2.69363e-15
2.93972e-15
3.23236e-15
3.56603e-15
3.93502e-15
4.33322e-15
4.75414e-15
5.19095e-15
5.63666e-15
6.08425e-15
6.52693e-15
6.95827e-15
7.37241e-15
7.76416e-15
8.12912e-15
8.46372e-15
8.76528e-15
9.03193e-15
9.26261e-15
9.457e-15
9.61543e-15
9.73879e-15
9.82844e-15
9.88612e-15
9.91384e-15
7.0477e-15
7.45426e-15
8.03796e-15
8.77909e-15
9.66066e-15
1.0666e-14
1.17778e-14
1.29775e-14
1.42455e-14
1.55611e-14
1.69031e-14
1.82502e-14
1.95821e-14
2.08794e-14
2.21244e-14
2.33016e-14
2.43977e-14
2.54023e-14
2.63073e-14
2.71071e-14
2.77987e-14
2.83813e-14
2.8856e-14
2.92254e-14
2.94938e-14
2.96664e-14
2.97493e-14
2.10613e-14
2.22832e-14
2.40372e-14
2.6264e-14
2.89124e-14
3.19321e-14
3.52708e-14
3.88726e-14
4.26782e-14
4.66252e-14
5.06501e-14
5.46892e-14
5.86812e-14
6.25681e-14
6.62974e-14
6.98226e-14
7.31045e-14
7.61117e-14
7.88202e-14
8.12138e-14
8.32835e-14
8.50268e-14
8.6447e-14
8.75523e-14
8.83554e-14
8.88718e-14
8.912e-14
6.29465e-14
6.66066e-14
7.18615e-14
7.85335e-14
8.64688e-14
9.55168e-14
1.0552e-13
1.16311e-13
1.27711e-13
1.39534e-13
1.51588e-13
1.63683e-13
1.75634e-13
1.87269e-13
1.98429e-13
2.08977e-13
2.18795e-13
2.27788e-13
2.35887e-13
2.43042e-13
2.49228e-13
2.54437e-13
2.58679e-13
2.6198e-13
2.64378e-13
2.6592e-13
2.66661e-13
1.88234e-13
1.99193e-13
2.14925e-13
2.34895e-13
2.58642e-13
2.85711e-13
3.15632e-13
3.479e-13
3.81979e-13
4.17311e-13
4.53322e-13
4.89445e-13
5.25129e-13
5.59858e-13
5.93162e-13
6.2463e-13
6.53913e-13
6.80733e-13
7.04879e-13
7.26211e-13
7.44649e-13
7.60174e-13
7.72818e-13
7.82656e-13
7.89801e-13
7.94396e-13
7.96603e-13
5.62407e-13
5.9514e-13
6.42124e-13
7.01759e-13
7.72658e-13
8.53462e-13
9.42753e-13
1.03902e-12
1.14066e-12
1.246e-12
1.35334e-12
1.46096e-12
1.56725e-12
1.67065e-12
1.76978e-12
1.8634e-12
1.9505e-12
2.03024e-12
2.10201e-12
2.1654e-12
2.22017e-12
2.26627e-12
2.30381e-12
2.33301e-12
2.35421e-12
2.36784e-12
2.37439e-12
1.67878e-12
1.77639e-12
1.91644e-12
2.09414e-12
2.3053e-12
2.54584e-12
2.81149e-12
3.09773e-12
3.39976e-12
3.71259e-12
4.03114e-12
4.35037e-12
4.66541e-12
4.97173e-12
5.26522e-12
5.54228e-12
5.79989e-12
6.03564e-12
6.24773e-12
6.43496e-12
6.59668e-12
6.73277e-12
6.84354e-12
6.92969e-12
6.99223e-12
7.03243e-12
7.05173e-12
4.99777e-12
5.28758e-12
5.70329e-12
6.23046e-12
6.85656e-12
7.56929e-12
8.35584e-12
9.20269e-12
1.00955e-11
1.10195e-11
1.19595e-11
1.29006e-11
1.38287e-11
1.47302e-11
1.55932e-11
1.64072e-11
1.71635e-11
1.78551e-11
1.84768e-11
1.90252e-11
1.94987e-11
1.98968e-11
2.02207e-11
2.04725e-11
2.06552e-11
2.07726e-11
2.0829e-11
1.48286e-11
1.56846e-11
1.69116e-11
1.84663e-11
2.0311e-11
2.24085e-11
2.47206e-11
2.72066e-11
2.9824e-11
3.2529e-11
3.52771e-11
3.80248e-11
4.07304e-11
4.33553e-11
4.58648e-11
4.8229e-11
5.04228e-11
5.24268e-11
5.42265e-11
5.58126e-11
5.71807e-11
5.83303e-11
5.92649e-11
5.99909e-11
6.05174e-11
6.08555e-11
6.10178e-11
4.3749e-11
4.62537e-11
4.98407e-11
5.43807e-11
5.97601e-11
6.58676e-11
7.25884e-11
7.98023e-11
8.73837e-11
9.52038e-11
1.03134e-10
1.11047e-10
1.18825e-10
1.26357e-10
1.33545e-10
1.40305e-10
1.46568e-10
1.52279e-10
1.57402e-10
1.6191e-10
1.65793e-10
1.69052e-10
1.71699e-10
1.73753e-10
1.75242e-10
1.76197e-10
1.76655e-10
1.28106e-10
1.35341e-10
1.45689e-10
1.58765e-10
1.74227e-10
1.91744e-10
2.10974e-10
2.31563e-10
2.53144e-10
2.75346e-10
2.978e-10
3.20148e-10
3.42056e-10
3.63219e-10
3.83366e-10
4.0227e-10
4.19745e-10
4.35649e-10
4.49885e-10
4.62391e-10
4.73146e-10
4.8216e-10
4.89469e-10
4.95135e-10
4.99235e-10
5.01864e-10
5.03123e-10
3.71251e-10
3.91766e-10
4.21056e-10
4.57984e-10
5.01536e-10
5.50727e-10
6.04556e-10
6.61993e-10
7.2199e-10
7.83495e-10
8.45479e-10
9.0696e-10
9.67026e-10
1.02486e-09
1.07975e-09
1.1311e-09
1.17843e-09
1.2214e-09
1.25977e-09
1.2934e-09
1.32226e-09
1.34641e-09
1.36595e-09
1.38108e-09
1.39201e-09
1.39901e-09
1.40236e-09
1.06113e-09
1.11785e-09
1.19866e-09
1.30023e-09
1.41961e-09
1.55391e-09
1.70025e-09
1.85573e-09
2.01742e-09
2.18244e-09
2.34801e-09
2.51153e-09
2.67063e-09
2.82321e-09
2.96747e-09
3.10196e-09
3.22552e-09
3.33734e-09
3.4369e-09
3.52394e-09
3.59847e-09
3.66067e-09
3.71093e-09
3.74975e-09
3.77777e-09
3.79569e-09
3.80425e-09
2.97781e-09
3.12957e-09
3.34513e-09
3.61507e-09
3.93094e-09
4.2846e-09
4.66804e-09
5.07327e-09
5.49245e-09
5.91802e-09
6.34282e-09
6.76028e-09
7.16451e-09
7.55043e-09
7.91376e-09
8.25111e-09
8.55992e-09
8.83843e-09
9.08561e-09
9.30111e-09
9.48512e-09
9.63836e-09
9.7619e-09
9.85717e-09
9.9258e-09
9.96961e-09
9.99053e-09
8.16062e-09
8.55017e-09
9.10161e-09
9.78915e-09
1.05896e-08
1.1481e-08
1.24418e-08
1.34513e-08
1.44893e-08
1.5537e-08
1.6577e-08
1.75935e-08
1.85728e-08
1.95032e-08
2.03753e-08
2.11816e-08
2.19168e-08
2.25776e-08
2.31622e-08
2.36703e-08
2.41031e-08
2.44626e-08
2.47518e-08
2.49744e-08
2.51346e-08
2.52366e-08
2.52853e-08
2.17029e-08
2.26549e-08
2.39975e-08
2.56638e-08
2.75935e-08
2.97298e-08
3.20186e-08
3.44086e-08
3.68514e-08
3.93025e-08
4.17216e-08
4.40735e-08
4.63278e-08
4.84593e-08
5.04484e-08
5.22801e-08
5.39442e-08
5.54346e-08
5.67491e-08
5.78885e-08
5.88564e-08
5.96587e-08
6.03029e-08
6.07978e-08
6.11532e-08
6.13794e-08
6.14871e-08
5.56621e-08
5.78651e-08
6.09611e-08
6.47859e-08
6.91922e-08
7.40429e-08
7.92098e-08
8.45737e-08
9.00248e-08
9.54642e-08
1.00804e-07
1.0597e-07
1.10899e-07
1.15539e-07
1.19851e-07
1.23808e-07
1.2739e-07
1.30589e-07
1.33403e-07
1.35836e-07
1.37898e-07
1.39603e-07
1.4097e-07
1.42019e-07
1.42771e-07
1.43249e-07
1.43477e-07
1.36949e-07
1.41769e-07
1.48521e-07
1.56829e-07
1.66356e-07
1.76792e-07
1.87852e-07
1.99275e-07
2.10827e-07
2.22298e-07
2.3351e-07
2.44309e-07
2.54571e-07
2.64197e-07
2.73114e-07
2.81269e-07
2.88632e-07
2.9519e-07
3.00945e-07
3.0591e-07
3.1011e-07
3.13579e-07
3.16356e-07
3.18482e-07
3.20005e-07
3.20973e-07
3.21432e-07
3.22253e-07
3.32252e-07
3.46223e-07
3.63357e-07
3.82931e-07
4.04288e-07
4.26829e-07
4.50016e-07
4.73371e-07
4.96477e-07
5.18978e-07
5.40578e-07
5.61039e-07
5.80177e-07
5.97856e-07
6.13987e-07
6.28519e-07
6.41435e-07
6.52748e-07
6.62493e-07
6.70725e-07
6.77514e-07
6.82941e-07
6.87093e-07
6.90065e-07
6.9195e-07
6.92846e-07
7.24995e-07
7.44791e-07
7.72397e-07
8.06172e-07
8.44651e-07
8.86512e-07
9.30564e-07
9.75744e-07
1.02112e-06
1.06589e-06
1.10937e-06
1.15101e-06
1.19037e-06
1.2271e-06
1.26096e-06
1.29181e-06
1.31955e-06
1.34417e-06
1.36571e-06
1.38424e-06
1.39987e-06
1.41276e-06
1.42304e-06
1.43091e-06
1.43653e-06
1.4401e-06
1.44179e-06
1.56276e-06
1.6005e-06
1.65306e-06
1.71727e-06
1.79029e-06
1.86958e-06
1.95286e-06
2.03811e-06
2.12358e-06
2.20776e-06
2.28938e-06
2.36743e-06
2.44108e-06
2.50974e-06
2.57297e-06
2.63049e-06
2.68217e-06
2.728e-06
2.76805e-06
2.80249e-06
2.83152e-06
2.85543e-06
2.87451e-06
2.88909e-06
2.89951e-06
2.90612e-06
2.90925e-06
3.239e-06
3.30898e-06
3.40639e-06
3.52528e-06
3.66039e-06
3.80697e-06
3.96079e-06
4.11813e-06
4.27574e-06
4.43086e-06
4.5812e-06
4.72486e-06
4.86038e-06
4.98664e-06
5.10288e-06
5.2086e-06
5.30356e-06
5.38774e-06
5.4613e-06
5.52452e-06
5.57782e-06
5.62171e-06
5.65673e-06
5.68348e-06
5.70261e-06
5.71473e-06
5.72048e-06
6.47921e-06
6.60659e-06
6.7839e-06
7.00033e-06
7.2463e-06
7.5132e-06
7.79338e-06
8.08006e-06
8.36736e-06
8.65027e-06
8.92459e-06
9.18689e-06
9.43447e-06
9.66529e-06
9.8779e-06
1.00714e-05
1.02453e-05
1.03995e-05
1.05343e-05
1.06503e-05
1.0748e-05
1.08285e-05
1.08928e-05
1.09419e-05
1.0977e-05
1.09993e-05
1.10099e-05
1.25386e-05
1.27671e-05
1.30855e-05
1.34743e-05
1.39166e-05
1.43971e-05
1.4902e-05
1.54194e-05
1.59385e-05
1.64504e-05
1.69474e-05
1.74232e-05
1.78729e-05
1.82926e-05
1.86796e-05
1.90321e-05
1.93491e-05
1.96304e-05
1.98765e-05
2.00882e-05
2.02667e-05
2.04138e-05
2.05311e-05
2.06208e-05
2.06849e-05
2.07255e-05
2.07447e-05
2.34468e-05
2.38472e-05
2.44052e-05
2.50873e-05
2.58639e-05
2.67083e-05
2.75966e-05
2.85078e-05
2.94231e-05
3.03266e-05
3.12047e-05
3.20463e-05
3.28423e-05
3.3586e-05
3.42721e-05
3.48976e-05
3.54605e-05
3.59604e-05
3.63978e-05
3.67744e-05
3.70923e-05
3.73544e-05
3.75638e-05
3.77239e-05
3.78385e-05
3.79111e-05
3.79455e-05
4.20774e-05
4.27435e-05
4.36717e-05
4.48061e-05
4.60973e-05
4.7501e-05
4.89773e-05
5.04912e-05
5.20117e-05
5.35125e-05
5.49711e-05
5.63693e-05
5.76925e-05
5.89293e-05
6.00711e-05
6.11123e-05
6.20498e-05
6.28826e-05
6.36116e-05
6.42393e-05
6.47693e-05
6.52061e-05
6.5555e-05
6.58218e-05
6.60126e-05
6.61336e-05
6.6191e-05
7.16651e-05
7.26845e-05
7.41036e-05
7.58359e-05
7.78051e-05
7.99424e-05
8.21859e-05
8.44815e-05
8.6782e-05
8.90472e-05
9.12436e-05
9.33437e-05
9.53259e-05
9.71738e-05
9.88759e-05
0.000100425
0.000101817
0.000103051
0.000104131
0.000105059
0.000105842
0.000106486
0.000107001
0.000107395
0.000107676
0.000107854
0.000107939
0.000114771
0.000116181
0.000118141
0.000120526
0.00012323
0.000126153
0.000129212
0.00013233
0.000135444
0.0001385
0.000141454
0.000144268
0.000146917
0.00014938
0.000151643
0.000153698
0.000155541
0.000157173
0.000158597
0.000159821
0.000160851
0.0001617
0.000162377
0.000162894
0.000163264
0.000163498
0.000163609
0.00017207
0.000173838
0.00017629
0.000179269
0.000182635
0.000186265
0.000190052
0.000193901
0.000197735
0.000201486
0.000205101
0.000208539
0.000211767
0.000214762
0.000217509
0.00022
0.00022223
0.000224203
0.000225923
0.0002274
0.000228643
0.000229666
0.000230482
0.000231105
0.000231551
0.000231833
0.000231967
0.000242295
0.000244348
0.000247193
0.000250643
0.000254535
0.000258726
0.000263088
0.000267514
0.000271913
0.00027621
0.000280346
0.000284272
0.000287953
0.000291365
0.00029449
0.000297321
0.000299855
0.000302095
0.000304047
0.000305722
0.000307132
0.000308292
0.000309217
0.000309924
0.000310429
0.000310749
0.000310901
0.000323048
0.000325309
0.000328439
0.000332232
0.000336507
0.000341103
0.000345883
0.000350727
0.000355537
0.000360231
0.000364744
0.000369024
0.000373036
0.00037675
0.000380152
0.000383232
0.000385988
0.000388422
0.000390544
0.000392365
0.000393897
0.000395158
0.000396163
0.000396931
0.00039748
0.000397829
0.000397994
0.00041162
0.000414021
0.000417343
0.000421366
0.000425898
0.000430769
0.00043583
0.000440956
0.000446043
0.000451005
0.000455773
0.000460293
0.000464528
0.000468448
0.000472037
0.000475286
0.000478193
0.00048076
0.000482998
0.000484918
0.000486534
0.000487863
0.000488924
0.000489734
0.000490313
0.000490681
0.000490855
0.000505461
0.000507948
0.000511387
0.000515552
0.000520241
0.000525278
0.000530511
0.00053581
0.000541066
0.000546191
0.000551114
0.000555781
0.000560151
0.000564197
0.0005679
0.000571252
0.00057425
0.000576899
0.000579207
0.000581187
0.000582855
0.000584226
0.00058532
0.000586156
0.000586754
0.000587134
0.000587314
0.000602384
0.000604913
0.000608412
0.000612647
0.000617415
0.000622535
0.000627853
0.000633236
0.000638574
0.000643779
0.000648777
0.000653514
0.00065795
0.000662056
0.000665813
0.000669214
0.000672256
0.000674943
0.000677285
0.000679293
0.000680985
0.000682376
0.000683486
0.000684335
0.000684941
0.000685326
0.000685509
0.000700596
0.000703136
0.000706647
0.000710897
0.00071568
0.000720817
0.00072615
0.000731548
0.0007369
0.000742116
0.000747125
0.000751871
0.000756315
0.000760428
0.000764191
0.000767596
0.000770642
0.000773333
0.000775678
0.000777689
0.000779382
0.000780775
0.000781886
0.000782736
0.000783343
0.000783729
0.000783912
0.000798681
0.000801202
0.000804689
0.000808909
0.000813658
0.000818756
0.000824048
0.000829403
0.000834712
0.000839885
0.000844852
0.000849558
0.000853963
0.000858039
0.000861768
0.000865142
0.00086816
0.000870826
0.000873148
0.00087514
0.000876817
0.000878197
0.000879297
0.000880139
0.00088074
0.000881122
0.000881303
0.000895522
0.000898005
0.000901437
0.00090559
0.000910263
0.000915278
0.000920484
0.000925751
0.000930971
0.000936056
0.000940938
0.000945562
0.00094989
0.000953894
0.000957557
0.00096087
0.000963834
0.000966451
0.000968731
0.000970687
0.000972333
0.000973687
0.000974767
0.000975593
0.000976183
0.000976558
0.000976736
0.000990259
0.000992684
0.000996037
0.00100009
0.00100466
0.00100955
0.00101464
0.00101978
0.00102487
0.00102983
0.00103459
0.0010391
0.00104332
0.00104723
0.0010508
0.00105403
0.00105691
0.00105946
0.00106169
0.00106359
0.0010652
0.00106651
0.00106757
0.00106837
0.00106895
0.00106931
0.00106948
0.00108223
0.00108458
0.00108784
0.00109177
0.0010962
0.00110095
0.00110588
0.00111086
0.0011158
0.00112061
0.00112522
0.00112959
0.00113368
0.00113746
0.00114092
0.00114404
0.00114684
0.00114931
0.00115146
0.0011533
0.00115485
0.00115613
0.00115715
0.00115793
0.00115848
0.00115884
0.001159
0.00117093
0.0011732
0.00117634
0.00118014
0.00118441
0.00118899
0.00119374
0.00119854
0.0012033
0.00120794
0.00121238
0.00121659
0.00122053
0.00122417
0.0012275
0.00123051
0.0012332
0.00123557
0.00123764
0.00123941
0.00124091
0.00124214
0.00124312
0.00124386
0.0012444
0.00124474
0.0012449
0.001256
0.00125818
0.0012612
0.00126484
0.00126893
0.00127333
0.00127789
0.00128249
0.00128705
0.00129149
0.00129575
0.00129979
0.00130356
0.00130705
0.00131023
0.00131312
0.00131569
0.00131797
0.00131995
0.00132165
0.00132307
0.00132425
0.00132519
0.0013259
0.00132642
0.00132674
0.00132689
0.00133719
0.00133927
0.00134214
0.00134562
0.00134953
0.00135373
0.00135808
0.00136247
0.00136683
0.00137106
0.00137513
0.00137897
0.00138257
0.00138589
0.00138893
0.00139168
0.00139414
0.0013963
0.00139819
0.00139981
0.00140117
0.00140229
0.00140318
0.00140386
0.00140435
0.00140466
0.00140481
0.00141431
0.00141629
0.00141902
0.00142233
0.00142605
0.00143004
0.00143417
0.00143835
0.00144248
0.00144651
0.00145037
0.00145402
0.00145743
0.00146059
0.00146347
0.00146608
0.00146841
0.00147047
0.00147226
0.00147379
0.00147509
0.00147615
0.001477
0.00147764
0.0014781
0.0014784
0.00147854
0.00148727
0.00148915
0.00149174
0.00149487
0.00149839
0.00150217
0.00150608
0.00151003
0.00151395
0.00151776
0.00152141
0.00152486
0.00152809
0.00153108
0.0015338
0.00153627
0.00153847
0.00154042
0.00154211
0.00154356
0.00154478
0.00154578
0.00154658
0.00154719
0.00154763
0.00154791
0.00154804
0.00155605
0.00155782
0.00156026
0.00156322
0.00156654
0.0015701
0.00157379
0.00157752
0.00158121
0.0015848
0.00158824
0.00159149
0.00159454
0.00159735
0.00159992
0.00160224
0.00160432
0.00160615
0.00160774
0.00160911
0.00161026
0.0016112
0.00161195
0.00161253
0.00161294
0.0016132
0.00161333
0.00162064
0.00162231
0.0016246
0.00162738
0.0016305
0.00163385
0.00163732
0.00164082
0.00164429
0.00164766
0.00165089
0.00165395
0.00165681
0.00165945
0.00166186
0.00166404
0.00166599
0.00166771
0.0016692
0.00167048
0.00167156
0.00167245
0.00167316
0.0016737
0.00167408
0.00167433
0.00167444
0.0016811
0.00168266
0.00168481
0.00168742
0.00169034
0.00169348
0.00169673
0.00170001
0.00170325
0.00170641
0.00170944
0.0017123
0.00171497
0.00171744
0.0017197
0.00172174
0.00172356
0.00172517
0.00172657
0.00172777
0.00172878
0.00172961
0.00173027
0.00173077
0.00173113
0.00173136
0.00173147
0.00173751
0.00173897
0.00174098
0.00174341
0.00174614
0.00174907
0.0017521
0.00175516
0.00175819
0.00176114
0.00176397
0.00176664
0.00176913
0.00177144
0.00177354
0.00177544
0.00177714
0.00177864
0.00177995
0.00178106
0.001782
0.00178278
0.00178339
0.00178386
0.0017842
0.00178441
0.00178452
0.00178997
0.00179133
0.0017932
0.00179547
0.00179801
0.00180073
0.00180356
0.00180641
0.00180923
0.00181197
0.0018146
0.00181708
0.0018194
0.00182154
0.0018235
0.00182527
0.00182685
0.00182824
0.00182946
0.0018305
0.00183137
0.00183209
0.00183266
0.0018331
0.00183341
0.00183361
0.0018337
0.00183861
0.00183987
0.00184161
0.00184371
0.00184607
0.0018486
0.00185122
0.00185387
0.00185648
0.00185903
0.00186146
0.00186377
0.00186592
0.00186791
0.00186972
0.00187136
0.00187283
0.00187412
0.00187524
0.0018762
0.00187701
0.00187768
0.00187821
0.00187862
0.00187891
0.00187909
0.00187918
0.00188358
0.00188474
0.00188635
0.0018883
0.00189048
0.00189282
0.00189525
0.00189769
0.00190011
0.00190246
0.00190472
0.00190685
0.00190884
0.00191068
0.00191235
0.00191387
0.00191522
0.00191642
0.00191745
0.00191834
0.00191909
0.00191971
0.0019202
0.00192057
0.00192084
0.00192101
0.00192109
0.00192501
0.00192609
0.00192758
0.00192937
0.00193139
0.00193355
0.00193578
0.00193804
0.00194027
0.00194244
0.00194452
0.00194648
0.00194832
0.00195001
0.00195156
0.00195295
0.0019542
0.0019553
0.00195626
0.00195708
0.00195777
0.00195833
0.00195878
0.00195913
0.00195938
0.00195953
0.00195961
0.00196309
0.00196408
0.00196545
0.0019671
0.00196896
0.00197094
0.001973
0.00197508
0.00197713
0.00197912
0.00198104
0.00198284
0.00198453
0.00198608
0.00198751
0.00198879
0.00198994
0.00199095
0.00199183
0.00199258
0.00199321
0.00199373
0.00199415
0.00199446
0.00199469
0.00199483
0.0019949
0.00199798
0.00199889
0.00200015
0.00200166
0.00200337
0.00200519
0.00200708
0.00200898
0.00201086
0.00201269
0.00201445
0.0020161
0.00201765
0.00201908
0.00202038
0.00202156
0.00202261
0.00202353
0.00202434
0.00202503
0.00202561
0.00202609
0.00202646
0.00202676
0.00202696
0.00202709
0.00202716
0.00202987
0.0020307
0.00203185
0.00203324
0.0020348
0.00203647
0.00203819
0.00203994
0.00204166
0.00204333
0.00204494
0.00204645
0.00204787
0.00204917
0.00205036
0.00205144
0.0020524
0.00205325
0.00205398
0.00205461
0.00205514
0.00205558
0.00205593
0.00205619
0.00205638
0.0020565
0.00205656
0.00205894
0.0020597
0.00206075
0.00206202
0.00206344
0.00206496
0.00206654
0.00206813
0.00206971
0.00207124
0.0020727
0.00207408
0.00207537
0.00207656
0.00207765
0.00207863
0.00207951
0.00208028
0.00208095
0.00208153
0.00208201
0.00208241
0.00208273
0.00208297
0.00208314
0.00208325
0.0020833
0.00208538
0.00208608
0.00208704
0.00208819
0.00208949
0.00209088
0.00209232
0.00209377
0.0020952
0.0020966
0.00209793
0.00209919
0.00210037
0.00210145
0.00210244
0.00210334
0.00210414
0.00210484
0.00210545
0.00210598
0.00210642
0.00210678
0.00210707
0.00210729
0.00210744
0.00210754
0.00210759
0.00210941
0.00211005
0.00211092
0.00211197
0.00211315
0.00211442
0.00211573
0.00211705
0.00211836
0.00211963
0.00212084
0.00212199
0.00212306
0.00212405
0.00212495
0.00212576
0.00212649
0.00212713
0.00212769
0.00212817
0.00212857
0.0021289
0.00212916
0.00212936
0.0021295
0.00212959
0.00212964
0.00213123
0.00213181
0.0021326
0.00213356
0.00213464
0.00213579
0.00213699
0.00213819
0.00213938
0.00214054
0.00214164
0.00214269
0.00214366
0.00214456
0.00214539
0.00214613
0.00214679
0.00214737
0.00214788
0.00214831
0.00214868
0.00214898
0.00214922
0.0021494
0.00214953
0.00214961
0.00214965
0.00215107
0.00215159
0.00215232
0.00215319
0.00215418
0.00215523
0.00215632
0.00215742
0.0021585
0.00215956
0.00216056
0.00216152
0.00216241
0.00216323
0.00216398
0.00216466
0.00216526
0.00216579
0.00216626
0.00216665
0.00216698
0.00216726
0.00216748
0.00216764
0.00216776
0.00216784
0.00216787
0.00216915
0.00216963
0.00217029
0.00217109
0.00217199
0.00217295
0.00217395
0.00217496
0.00217595
0.00217692
0.00217784
0.00217871
0.00217953
0.00218028
0.00218097
0.00218159
0.00218214
0.00218263
0.00218305
0.00218342
0.00218372
0.00218397
0.00218417
0.00218433
0.00218444
0.0021845
0.00218454
0.00218571
0.00218615
0.00218676
0.0021875
0.00218833
0.00218922
0.00219014
0.00219106
0.00219198
0.00219287
0.00219372
0.00219453
0.00219528
0.00219597
0.00219661
0.00219718
0.00219769
0.00219814
0.00219853
0.00219887
0.00219915
0.00219938
0.00219956
0.0021997
0.00219981
0.00219987
0.0021999
0.00220102
0.00220143
0.002202
0.00220268
0.00220345
0.00220428
0.00220513
0.00220599
0.00220685
0.00220767
0.00220847
0.00220922
0.00220992
0.00221057
0.00221116
0.00221169
0.00221217
0.00221259
0.00221295
0.00221326
0.00221353
0.00221374
0.00221391
0.00221405
0.00221414
0.0022142
0.00221423
0.00221534
0.00221573
0.00221626
0.00221691
0.00221763
0.00221841
0.00221921
0.00222003
0.00222083
0.00222161
0.00222236
0.00222307
0.00222373
0.00222434
0.0022249
0.0022254
0.00222585
0.00222625
0.0022266
0.00222689
0.00222714
0.00222735
0.00222751
0.00222764
0.00222772
0.00222778
0.00222781
0.00222896
0.00222933
0.00222984
0.00223046
0.00223116
0.0022319
0.00223267
0.00223345
0.00223422
0.00223497
0.00223569
0.00223637
0.00223701
0.0022376
0.00223813
0.00223862
0.00223905
0.00223944
0.00223977
0.00224005
0.0022403
0.00224049
0.00224065
0.00224077
0.00224086
0.00224091
0.00224094
0.00224219
0.00224255
0.00224305
0.00224365
0.00224433
0.00224505
0.00224581
0.00224657
0.00224732
0.00224806
0.00224877
0.00224943
0.00225006
0.00225064
0.00225117
0.00225164
0.00225207
0.00225245
0.00225278
0.00225306
0.0022533
0.00225349
0.00225365
0.00225376
0.00225385
0.0022539
0.00225393
0.00225532
0.00225568
0.00225618
0.00225678
0.00225746
0.00225819
0.00225894
0.0022597
0.00226046
0.0022612
0.00226191
0.00226258
0.00226321
0.00226379
0.00226432
0.0022648
0.00226523
0.00226561
0.00226594
0.00226623
0.00226647
0.00226666
0.00226682
0.00226694
0.00226703
0.00226708
0.00226711
0.0022687
0.00226906
0.00226957
0.00227019
0.00227088
0.00227162
0.0022724
0.00227318
0.00227396
0.00227471
0.00227544
0.00227613
0.00227678
0.00227738
0.00227792
0.00227842
0.00227886
0.00227926
0.0022796
0.00227989
0.00228014
0.00228034
0.0022805
0.00228063
0.00228072
0.00228077
0.0022808
0.00228263
0.00228302
0.00228355
0.00228419
0.00228491
0.00228569
0.0022865
0.00228732
0.00228813
0.00228893
0.00228969
0.00229042
0.0022911
0.00229172
0.0022923
0.00229282
0.00229329
0.0022937
0.00229407
0.00229437
0.00229464
0.00229485
0.00229502
0.00229515
0.00229525
0.00229531
0.00229533
0.00229745
0.00229786
0.00229842
0.0022991
0.00229987
0.0023007
0.00230156
0.00230244
0.00230331
0.00230415
0.00230497
0.00230574
0.00230647
0.00230714
0.00230776
0.00230832
0.00230882
0.00230927
0.00230965
0.00230998
0.00231026
0.00231049
0.00231068
0.00231082
0.00231092
0.00231098
0.00231101
0.00231344
0.00231388
0.00231449
0.00231522
0.00231605
0.00231695
0.00231788
0.00231882
0.00231976
0.00232068
0.00232156
0.0023224
0.00232318
0.00232391
0.00232458
0.00232519
0.00232573
0.00232621
0.00232663
0.00232699
0.00232729
0.00232754
0.00232774
0.00232789
0.002328
0.00232807
0.0023281
0.00233086
0.00233134
0.002332
0.0023328
0.0023337
0.00233467
0.00233568
0.00233671
0.00233773
0.00233873
0.00233969
0.0023406
0.00234145
0.00234225
0.00234298
0.00234364
0.00234423
0.00234475
0.00234521
0.0023456
0.00234593
0.0023462
0.00234642
0.00234658
0.0023467
0.00234678
0.00234682
0.00234989
0.00235041
0.00235113
0.002352
0.00235298
0.00235404
0.00235514
0.00235626
0.00235737
0.00235845
0.0023595
0.00236049
0.00236142
0.00236229
0.00236308
0.0023638
0.00236444
0.00236501
0.00236551
0.00236593
0.00236629
0.00236659
0.00236683
0.00236701
0.00236714
0.00236722
0.00236726
0.00237062
0.00237118
0.00237196
0.00237291
0.00237397
0.00237512
0.00237631
0.00237752
0.00237872
0.00237989
0.00238103
0.0023821
0.00238311
0.00238404
0.0023849
0.00238568
0.00238637
0.00238699
0.00238753
0.00238799
0.00238838
0.0023887
0.00238895
0.00238915
0.00238929
0.00238938
0.00238942
0.00239301
0.00239361
0.00239445
0.00239546
0.0023966
0.00239783
0.00239911
0.0024004
0.00240169
0.00240295
0.00240416
0.00240531
0.00240639
0.00240739
0.0024083
0.00240913
0.00240988
0.00241053
0.00241111
0.0024116
0.00241202
0.00241236
0.00241263
0.00241284
0.00241299
0.00241308
0.00241313
0.00241685
0.00241749
0.00241837
0.00241944
0.00242064
0.00242194
0.00242329
0.00242465
0.00242601
0.00242733
0.00242861
0.00242982
0.00243095
0.002432
0.00243296
0.00243384
0.00243462
0.00243531
0.00243591
0.00243643
0.00243686
0.00243722
0.0024375
0.00243772
0.00243788
0.00243798
0.00243803
0.00244176
0.00244242
0.00244334
0.00244444
0.00244569
0.00244703
0.00244842
0.00244983
0.00245123
0.00245259
0.00245391
0.00245515
0.00245632
0.0024574
0.00245838
0.00245928
0.00246008
0.00246079
0.00246141
0.00246194
0.00246238
0.00246275
0.00246304
0.00246326
0.00246342
0.00246353
0.00246357
0.00246719
0.00246785
0.00246877
0.00246989
0.00247115
0.00247249
0.00247389
0.00247531
0.00247672
0.00247809
0.0024794
0.00248065
0.00248182
0.0024829
0.00248389
0.00248478
0.00248558
0.00248629
0.0024869
0.00248743
0.00248787
0.00248824
0.00248853
0.00248875
0.00248891
0.00248901
0.00248906
0.00249241
0.00249306
0.00249396
0.00249506
0.00249628
0.0024976
0.00249897
0.00250035
0.00250172
0.00250305
0.00250433
0.00250553
0.00250667
0.00250771
0.00250867
0.00250953
0.0025103
0.00251099
0.00251158
0.00251209
0.00251252
0.00251287
0.00251315
0.00251336
0.00251352
0.00251361
0.00251366
0.00251662
0.00251724
0.00251809
0.00251912
0.00252028
0.00252152
0.0025228
0.0025241
0.00252538
0.00252663
0.00252783
0.00252896
0.00253001
0.00253099
0.00253188
0.00253268
0.0025334
0.00253404
0.00253459
0.00253506
0.00253545
0.00253578
0.00253604
0.00253624
0.00253638
0.00253647
0.00253651
0.002539
0.00253956
0.00254033
0.00254127
0.00254231
0.00254343
0.00254459
0.00254576
0.00254692
0.00254804
0.00254911
0.00255013
0.00255107
0.00255195
0.00255274
0.00255346
0.0025541
0.00255466
0.00255515
0.00255557
0.00255593
0.00255621
0.00255645
0.00255662
0.00255675
0.00255683
0.00255686
0.00255883
0.00255932
0.00255999
0.00256079
0.0025617
0.00256267
0.00256367
0.00256467
0.00256566
0.00256663
0.00256754
0.00256841
0.00256921
0.00256996
0.00257063
0.00257124
0.00257178
0.00257226
0.00257267
0.00257303
0.00257332
0.00257357
0.00257376
0.00257391
0.00257401
0.00257408
0.00257411
0.00257559
0.00257599
0.00257654
0.0025772
0.00257794
0.00257873
0.00257954
0.00258035
0.00258116
0.00258193
0.00258267
0.00258337
0.00258401
0.00258461
0.00258515
0.00258563
0.00258607
0.00258644
0.00258677
0.00258705
0.00258729
0.00258748
0.00258763
0.00258775
0.00258783
0.00258789
0.00258791
0.00258898
0.00258929
0.00258971
0.00259022
0.00259078
0.00259138
0.002592
0.00259262
0.00259323
0.00259382
0.00259437
0.00259489
0.00259538
0.00259582
0.00259623
0.00259659
0.00259691
0.00259719
0.00259743
0.00259764
0.00259781
0.00259796
0.00259807
0.00259815
0.00259822
0.00259825
0.00259827
0.00259904
0.00259926
0.00259956
0.00259992
0.00260032
0.00260074
0.00260118
0.00260162
0.00260204
0.00260245
0.00260284
0.0026032
0.00260354
0.00260385
0.00260412
0.00260437
0.00260459
0.00260478
0.00260495
0.00260509
0.00260521
0.00260531
0.00260538
0.00260544
0.00260548
0.00260551
0.00260552
0.00260609
0.00260623
0.00260642
0.00260666
0.00260692
0.00260719
0.00260747
0.00260775
0.00260802
0.00260828
0.00260853
0.00260876
0.00260897
0.00260916
0.00260934
0.00260949
0.00260963
0.00260975
0.00260985
0.00260994
0.00261001
0.00261007
0.00261012
0.00261015
0.00261018
0.00261019
0.0026102
0.00261065
0.00261073
0.00261085
0.00261098
0.00261113
0.00261129
0.00261145
0.0026116
0.00261176
0.0026119
0.00261204
0.00261216
0.00261228
0.00261238
0.00261248
0.00261256
0.00261263
0.0026127
0.00261275
0.00261279
0.00261283
0.00261286
0.00261289
0.00261291
0.00261292
0.00261293
0.00261293
0.00261334
0.00261337
0.00261343
0.00261349
0.00261356
0.00261363
0.0026137
0.00261377
0.00261384
0.0026139
0.00261396
0.00261402
0.00261407
0.00261411
0.00261415
0.00261419
0.00261422
0.00261424
0.00261427
0.00261429
0.0026143
0.00261431
0.00261432
0.00261433
0.00261434
0.00261434
0.00261434
0.0026147
0.00261471
0.00261473
0.00261475
0.00261477
0.00261479
0.00261481
0.00261484
0.00261486
0.00261488
0.00261489
0.00261491
0.00261492
0.00261494
0.00261495
0.00261496
0.00261497
0.00261498
0.00261498
0.00261499
0.00261499
0.002615
0.002615
0.002615
0.002615
0.002615
0.002615