/*--------------------------------*- C++ -*----------------------------------*\
| =========                 |                                                 |
| \\      /  F ield         | OpenFOAM: The Open Source CFD Toolbox           |
|  \\    /   O peration     | Version:  2106                                  |
|   \\  /    A nd           | Website:  www.openfoam.com                      |
|    \\/     M anipulation  |                                                 |
\*---------------------------------------------------------------------------*/
FoamFile
{
    version     2.0;
    format      ascii;
    arch        "LSB;label=32;scalar=64";
    class       volScalarField;
    location    "219.99956";
    object      C2H3;
}
// * * * * * * * * * * * * * * * * * * * * * * * * * * * * * * * * * * * * * //

dimensions      [0 0 0 0 0 0 0];

internalField   nonuniform List<scalar> 
3360
(
4.54367e-21
4.6899e-21
4.89339e-21
5.14229e-21
5.42625e-21
5.73593e-21
6.06292e-21
6.39964e-21
6.73932e-21
7.076e-21
7.40448e-21
7.72039e-21
8.0201e-21
8.3007e-21
8.56002e-21
8.79651e-21
9.00922e-21
9.19776e-21
9.36219e-21
9.503e-21
9.62105e-21
9.71747e-21
9.79363e-21
9.85107e-21
9.89149e-21
9.91663e-21
9.9283e-21
1.99345e-20
2.06673e-20
2.17013e-20
2.29891e-20
2.4491e-20
2.61728e-20
2.80037e-20
2.99555e-20
3.20021e-20
3.41188e-20
3.62817e-20
3.84679e-20
4.06546e-20
4.28192e-20
4.49396e-20
4.69941e-20
4.89614e-20
5.08209e-20
5.25527e-20
5.41383e-20
5.55607e-20
5.68048e-20
5.78578e-20
5.87094e-20
5.93521e-20
5.97812e-20
5.99952e-20
6.25569e-20
6.53028e-20
6.92046e-20
7.41076e-20
7.98833e-20
8.64162e-20
9.35965e-20
1.01316e-19
1.09466e-19
1.17933e-19
1.26604e-19
1.35366e-19
1.44106e-19
1.52713e-19
1.61079e-19
1.69104e-19
1.76693e-19
1.83761e-19
1.90234e-19
1.96053e-19
2.0117e-19
2.05552e-19
2.09179e-19
2.12046e-19
2.1416e-19
2.15538e-19
2.16209e-19
1.82224e-19
1.91277e-19
2.04226e-19
2.2061e-19
2.40041e-19
2.62156e-19
2.86593e-19
3.12976e-19
3.4091e-19
3.69981e-19
3.99761e-19
4.29813e-19
4.59707e-19
4.89018e-19
5.1735e-19
5.44333e-19
5.69642e-19
5.93002e-19
6.14189e-19
6.33038e-19
6.49438e-19
6.63331e-19
6.7471e-19
6.83609e-19
6.90104e-19
6.94298e-19
6.9632e-19
5.32521e-19
5.61085e-19
6.02024e-19
6.5394e-19
7.15648e-19
7.86005e-19
8.6384e-19
9.47911e-19
1.03689e-18
1.12939e-18
1.22396e-18
1.31914e-18
1.41351e-18
1.5057e-18
1.59445e-18
1.67862e-18
1.75725e-18
1.82953e-18
1.89483e-18
1.9527e-18
2.00287e-18
2.04524e-18
2.07983e-18
2.10681e-18
2.12644e-18
2.1391e-18
2.14518e-18
1.57061e-18
1.65836e-18
1.78428e-18
1.9441e-18
2.13416e-18
2.35093e-18
2.59073e-18
2.84968e-18
3.12359e-18
3.40808e-18
3.69862e-18
3.99069e-18
4.27982e-18
4.56183e-18
4.83284e-18
5.08943e-18
5.32866e-18
5.54816e-18
5.74611e-18
5.92124e-18
6.07283e-18
6.20062e-18
6.30481e-18
6.38595e-18
6.44494e-18
6.4829e-18
6.50115e-18
4.66679e-18
4.93348e-18
5.31618e-18
5.80194e-18
6.37959e-18
7.03825e-18
7.76661e-18
8.55266e-18
9.38354e-18
1.02458e-17
1.11256e-17
1.20092e-17
1.28831e-17
1.37346e-17
1.45521e-17
1.53255e-17
1.60459e-17
1.67065e-17
1.73018e-17
1.78282e-17
1.82836e-17
1.86673e-17
1.89801e-17
1.92236e-17
1.94006e-17
1.95145e-17
1.95692e-17
1.3913e-17
1.47157e-17
1.58682e-17
1.73315e-17
1.90721e-17
2.10571e-17
2.32524e-17
2.56213e-17
2.81249e-17
3.07226e-17
3.33723e-17
3.60324e-17
3.86623e-17
4.12239e-17
4.36822e-17
4.60067e-17
4.81712e-17
5.01548e-17
5.19418e-17
5.35211e-17
5.48869e-17
5.60373e-17
5.69745e-17
5.7704e-17
5.8234e-17
5.85748e-17
5.87386e-17
4.15886e-17
4.40017e-17
4.74657e-17
5.18635e-17
5.70939e-17
6.30577e-17
6.96516e-17
7.67652e-17
8.42813e-17
9.20768e-17
1.00026e-16
1.08003e-16
1.15888e-16
1.23565e-16
1.3093e-16
1.37893e-16
1.44375e-16
1.50314e-16
1.55664e-16
1.60392e-16
1.6448e-16
1.67923e-16
1.70728e-16
1.72911e-16
1.74497e-16
1.75517e-16
1.76008e-16
1.24328e-16
1.31559e-16
1.41939e-16
1.55119e-16
1.70795e-16
1.88668e-16
2.08429e-16
2.29746e-16
2.52267e-16
2.75622e-16
2.99435e-16
3.23328e-16
3.46938e-16
3.69923e-16
3.9197e-16
4.12807e-16
4.32202e-16
4.49969e-16
4.65968e-16
4.80104e-16
4.92324e-16
5.02615e-16
5.10996e-16
5.17518e-16
5.22255e-16
5.25301e-16
5.26765e-16
3.7188e-16
3.93534e-16
4.24616e-16
4.64074e-16
5.10993e-16
5.6448e-16
6.23599e-16
6.87356e-16
7.54693e-16
8.24503e-16
8.95658e-16
9.67034e-16
1.03754e-15
1.10616e-15
1.17197e-15
1.23415e-15
1.29201e-15
1.345e-15
1.39271e-15
1.43486e-15
1.4713e-15
1.50197e-15
1.52695e-15
1.54639e-15
1.56051e-15
1.56959e-15
1.57395e-15
1.11136e-15
1.17605e-15
1.2689e-15
1.38676e-15
1.52687e-15
1.68656e-15
1.86302e-15
2.05326e-15
2.25413e-15
2.46231e-15
2.67443e-15
2.88713e-15
3.09718e-15
3.30152e-15
3.49742e-15
3.68245e-15
3.85458e-15
4.01217e-15
4.15401e-15
4.27927e-15
4.38751e-15
4.47862e-15
4.55279e-15
4.6105e-15
4.6524e-15
4.67933e-15
4.69227e-15
3.31817e-15
3.5111e-15
3.78794e-15
4.13917e-15
4.55655e-15
5.032e-15
5.55708e-15
6.12285e-15
6.71984e-15
7.33817e-15
7.9678e-15
8.59876e-15
9.22146e-15
9.82691e-15
1.0407e-14
1.09546e-14
1.14638e-14
1.19297e-14
1.23489e-14
1.2719e-14
1.30386e-14
1.33076e-14
1.35265e-14
1.36968e-14
1.38204e-14
1.38998e-14
1.3938e-14
9.88059e-15
1.04535e-14
1.12754e-14
1.23176e-14
1.35553e-14
1.49643e-14
1.65192e-14
1.81933e-14
1.99583e-14
2.17848e-14
2.3643e-14
2.55035e-14
2.7338e-14
2.91201e-14
3.0826e-14
3.24351e-14
3.393e-14
3.5297e-14
3.65259e-14
3.76099e-14
3.85457e-14
3.93327e-14
3.99729e-14
4.04705e-14
4.08316e-14
4.10635e-14
4.11749e-14
2.93236e-14
3.10162e-14
3.34424e-14
3.65165e-14
4.01639e-14
4.43112e-14
4.88826e-14
5.37978e-14
5.8973e-14
6.4321e-14
6.97542e-14
7.51865e-14
8.05354e-14
8.57247e-14
9.06857e-14
9.53593e-14
9.96961e-14
1.03657e-13
1.07215e-13
1.1035e-13
1.13054e-13
1.15326e-13
1.17174e-13
1.18608e-13
1.19649e-13
1.20317e-13
1.20638e-13
8.65402e-14
9.14939e-14
9.85882e-14
1.07567e-13
1.18206e-13
1.30285e-13
1.43576e-13
1.57842e-13
1.72835e-13
1.883e-13
2.03981e-13
2.19629e-13
2.35009e-13
2.49902e-13
2.64114e-13
2.7748e-13
2.89862e-13
3.01155e-13
3.11281e-13
3.20193e-13
3.27869e-13
3.34311e-13
3.39542e-13
3.43602e-13
3.46543e-13
3.4843e-13
3.49334e-13
2.53517e-13
2.6783e-13
2.88303e-13
3.14172e-13
3.44763e-13
3.79419e-13
4.17465e-13
4.582e-13
5.00899e-13
5.44825e-13
5.8925e-13
6.33466e-13
6.7681e-13
7.18678e-13
7.58537e-13
7.95935e-13
8.30505e-13
8.61967e-13
8.90125e-13
9.14861e-13
9.36132e-13
9.53956e-13
9.68408e-13
9.79608e-13
9.87713e-13
9.92907e-13
9.95395e-13
7.35258e-13
7.75862e-13
8.33841e-13
9.0694e-13
9.9316e-13
1.09055e-12
1.19713e-12
1.31088e-12
1.4297e-12
1.55153e-12
1.67432e-12
1.79612e-12
1.91514e-12
2.02974e-12
2.13852e-12
2.24029e-12
2.33411e-12
2.41927e-12
2.49532e-12
2.56197e-12
2.61917e-12
2.66701e-12
2.70573e-12
2.73569e-12
2.75734e-12
2.77119e-12
2.77782e-12
2.10532e-12
2.21768e-12
2.37775e-12
2.57898e-12
2.81553e-12
3.08173e-12
3.37189e-12
3.68027e-12
4.0011e-12
4.32866e-12
4.65748e-12
4.98239e-12
5.29866e-12
5.60211e-12
5.88916e-12
6.15686e-12
6.40293e-12
6.62569e-12
6.82408e-12
6.99756e-12
7.14612e-12
7.27011e-12
7.37029e-12
7.44767e-12
7.50349e-12
7.53916e-12
7.5562e-12
5.93625e-12
6.23725e-12
6.66481e-12
7.20032e-12
7.8271e-12
8.52911e-12
9.29053e-12
1.00957e-11
1.0929e-11
1.17758e-11
1.26217e-11
1.34537e-11
1.42602e-11
1.5031e-11
1.57574e-11
1.64327e-11
1.70515e-11
1.76102e-11
1.81066e-11
1.85397e-11
1.89099e-11
1.92183e-11
1.94671e-11
1.96591e-11
1.97974e-11
1.98857e-11
1.99278e-11
1.64684e-11
1.72448e-11
1.83434e-11
1.97123e-11
2.1305e-11
2.30773e-11
2.49861e-11
2.69898e-11
2.90486e-11
3.11249e-11
3.3184e-11
3.5195e-11
3.71307e-11
3.89684e-11
4.06897e-11
4.22802e-11
4.37299e-11
4.50323e-11
4.61842e-11
4.71854e-11
4.80382e-11
4.87468e-11
4.93171e-11
4.97563e-11
5.00723e-11
5.02738e-11
5.037e-11
4.49945e-11
4.69242e-11
4.96396e-11
5.29986e-11
5.68721e-11
6.11377e-11
6.56786e-11
7.03843e-11
7.51516e-11
7.98868e-11
8.45074e-11
8.89428e-11
9.31359e-11
9.70429e-11
1.00633e-10
1.03886e-10
1.06794e-10
1.09356e-10
1.11579e-10
1.13476e-10
1.15063e-10
1.1636e-10
1.17387e-10
1.18167e-10
1.18721e-10
1.1907e-10
1.19235e-10
1.20594e-10
1.25219e-10
1.31682e-10
1.39603e-10
1.48634e-10
1.58449e-10
1.68747e-10
1.7925e-10
1.89716e-10
1.9994e-10
2.09756e-10
2.19038e-10
2.27698e-10
2.3568e-10
2.42955e-10
2.49513e-10
2.55359e-10
2.60511e-10
2.64993e-10
2.68833e-10
2.72064e-10
2.74719e-10
2.76835e-10
2.78448e-10
2.79597e-10
2.80321e-10
2.80663e-10
3.09004e-10
3.19675e-10
3.34608e-10
3.52987e-10
3.7412e-10
3.97428e-10
4.22438e-10
4.4879e-10
4.76219e-10
5.04545e-10
5.33642e-10
5.63412e-10
5.93753e-10
6.24539e-10
6.55592e-10
6.86672e-10
7.17473e-10
7.47623e-10
7.76696e-10
8.04228e-10
8.29739e-10
8.5275e-10
8.72805e-10
8.89481e-10
9.02408e-10
9.11265e-10
9.15795e-10
7.6666e-10
7.97349e-10
8.41763e-10
8.98991e-10
9.68643e-10
1.05064e-09
1.14497e-09
1.25146e-09
1.36938e-09
1.49726e-09
1.63272e-09
1.77252e-09
1.91283e-09
2.04967e-09
2.17936e-09
2.29886e-09
2.40608e-09
2.49986e-09
2.57992e-09
2.64666e-09
2.70094e-09
2.74391e-09
2.77683e-09
2.80097e-09
2.81755e-09
2.82766e-09
2.83229e-09
2.28244e-09
2.40972e-09
2.59157e-09
2.81929e-09
3.08266e-09
3.3693e-09
3.66533e-09
3.95696e-09
4.23234e-09
4.48288e-09
4.70363e-09
4.8928e-09
5.05089e-09
5.17983e-09
5.2823e-09
5.36132e-09
5.42005e-09
5.46163e-09
5.48911e-09
5.50541e-09
5.51286e-09
5.51374e-09
5.51017e-09
5.50412e-09
5.49736e-09
5.49151e-09
5.48797e-09
6.00158e-09
6.21108e-09
6.49728e-09
6.83803e-09
7.21393e-09
7.60849e-09
8.00843e-09
8.40379e-09
8.78799e-09
9.15442e-09
9.498e-09
9.81561e-09
1.01055e-08
1.03671e-08
1.06003e-08
1.08059e-08
1.09847e-08
1.1138e-08
1.12673e-08
1.13743e-08
1.14608e-08
1.15286e-08
1.15798e-08
1.16166e-08
1.1641e-08
1.16551e-08
1.16611e-08
1.04552e-08
1.0842e-08
1.13862e-08
1.20617e-08
1.28472e-08
1.37256e-08
1.46829e-08
1.57081e-08
1.6792e-08
1.79266e-08
1.91043e-08
2.0317e-08
2.15557e-08
2.28101e-08
2.40681e-08
2.53258e-08
2.6567e-08
2.7774e-08
2.89289e-08
3.00135e-08
3.10098e-08
3.19008e-08
3.26709e-08
3.33064e-08
3.37929e-08
3.41222e-08
3.42885e-08
1.75296e-08
1.84175e-08
1.97075e-08
2.1376e-08
2.34421e-08
2.59063e-08
2.87783e-08
3.20714e-08
3.57973e-08
3.99624e-08
4.45635e-08
4.9585e-08
5.49969e-08
6.07534e-08
6.67919e-08
7.30353e-08
7.93926e-08
8.57622e-08
9.2019e-08
9.80308e-08
1.03666e-07
1.08798e-07
1.13305e-07
1.17078e-07
1.20017e-07
1.22039e-07
1.23077e-07
3.56926e-08
3.81244e-08
4.17372e-08
4.65411e-08
5.2588e-08
5.99507e-08
6.8708e-08
7.89356e-08
9.06943e-08
1.03973e-07
1.18712e-07
1.34806e-07
1.52096e-07
1.70375e-07
1.89384e-07
2.08824e-07
2.28364e-07
2.47655e-07
2.66339e-07
2.84055e-07
3.00458e-07
3.15221e-07
3.28047e-07
3.38671e-07
3.46874e-07
3.52473e-07
3.55323e-07
9.38943e-08
1.00295e-07
1.0974e-07
1.22168e-07
1.37582e-07
1.55996e-07
1.77399e-07
2.01727e-07
2.28839e-07
2.58511e-07
2.90436e-07
3.24224e-07
3.59416e-07
3.95497e-07
4.31908e-07
4.68068e-07
5.03391e-07
5.37306e-07
5.6925e-07
5.98693e-07
6.25156e-07
6.48219e-07
6.67694e-07
6.83437e-07
6.9533e-07
7.0329e-07
7.07271e-07
2.42437e-07
2.54858e-07
2.72805e-07
2.95787e-07
3.23395e-07
3.55218e-07
3.90804e-07
4.29624e-07
4.71076e-07
5.14476e-07
5.59075e-07
6.04072e-07
6.48648e-07
6.9228e-07
7.34599e-07
7.75202e-07
8.13689e-07
8.49683e-07
8.82849e-07
9.12894e-07
9.39572e-07
9.62682e-07
9.82075e-07
9.97642e-07
1.00932e-06
1.01708e-06
1.02094e-06
4.97883e-07
5.13803e-07
5.36133e-07
5.63606e-07
5.94979e-07
6.29589e-07
6.6676e-07
7.05787e-07
7.45976e-07
7.86675e-07
8.27282e-07
8.67261e-07
9.06146e-07
9.43536e-07
9.79099e-07
1.01255e-06
1.04367e-06
1.07227e-06
1.09819e-06
1.12134e-06
1.14163e-06
1.15901e-06
1.17344e-06
1.18492e-06
1.19346e-06
1.1991e-06
1.20189e-06
7.6663e-07
7.79497e-07
7.97332e-07
8.18979e-07
8.43421e-07
8.6979e-07
8.97311e-07
9.25321e-07
9.53265e-07
9.80689e-07
1.00724e-06
1.03263e-06
1.05667e-06
1.0792e-06
1.10014e-06
1.11943e-06
1.13703e-06
1.15292e-06
1.16712e-06
1.17963e-06
1.19047e-06
1.19967e-06
1.20725e-06
1.21323e-06
1.21767e-06
1.22058e-06
1.22202e-06
9.53399e-07
9.60121e-07
9.69249e-07
9.80033e-07
9.91824e-07
1.00407e-06
1.01635e-06
1.0283e-06
1.0397e-06
1.05039e-06
1.06027e-06
1.0693e-06
1.0775e-06
1.08487e-06
1.09147e-06
1.09734e-06
1.10254e-06
1.10712e-06
1.11112e-06
1.11459e-06
1.11755e-06
1.12004e-06
1.12208e-06
1.12368e-06
1.12487e-06
1.12565e-06
1.12604e-06
1.01078e-06
1.01148e-06
1.01228e-06
1.01296e-06
1.01337e-06
1.01339e-06
1.01294e-06
1.01202e-06
1.01064e-06
1.00886e-06
1.00675e-06
1.00438e-06
1.00186e-06
9.99255e-07
9.96647e-07
9.94101e-07
9.91675e-07
9.89414e-07
9.8735e-07
9.8551e-07
9.83909e-07
9.82554e-07
9.81447e-07
9.80584e-07
9.79956e-07
9.79552e-07
9.79358e-07
9.59921e-07
9.57009e-07
9.52876e-07
9.47709e-07
9.4168e-07
9.34959e-07
9.27711e-07
9.20099e-07
9.12277e-07
9.0439e-07
8.96569e-07
8.88927e-07
8.81564e-07
8.74561e-07
8.67983e-07
8.61881e-07
8.56291e-07
8.51236e-07
8.46732e-07
8.42783e-07
8.39386e-07
8.36533e-07
8.34208e-07
8.32395e-07
8.31072e-07
8.30216e-07
8.29801e-07
8.54048e-07
8.49878e-07
8.44069e-07
8.36973e-07
8.28902e-07
8.20133e-07
8.10916e-07
8.01469e-07
7.91979e-07
7.82607e-07
7.73485e-07
7.6472e-07
7.56396e-07
7.48579e-07
7.41317e-07
7.34642e-07
7.28573e-07
7.23122e-07
7.18289e-07
7.14068e-07
7.10448e-07
7.07414e-07
7.04946e-07
7.03022e-07
7.01619e-07
7.0071e-07
7.00269e-07
7.37521e-07
7.33466e-07
7.27849e-07
7.21036e-07
7.13347e-07
7.05063e-07
6.96428e-07
6.87649e-07
6.78899e-07
6.70319e-07
6.62022e-07
6.54096e-07
6.46609e-07
6.3961e-07
6.33133e-07
6.27199e-07
6.2182e-07
6.16999e-07
6.12732e-07
6.09012e-07
6.05824e-07
6.03154e-07
6.00983e-07
5.99291e-07
5.98057e-07
5.97258e-07
5.9687e-07
6.33585e-07
6.30171e-07
6.25453e-07
6.19744e-07
6.13321e-07
6.06423e-07
5.99255e-07
5.9199e-07
5.84768e-07
5.77704e-07
5.70888e-07
5.6439e-07
5.58262e-07
5.52539e-07
5.47248e-07
5.42407e-07
5.38022e-07
5.34094e-07
5.30618e-07
5.27588e-07
5.24993e-07
5.22818e-07
5.21049e-07
5.1967e-07
5.18664e-07
5.18012e-07
5.17696e-07
5.49443e-07
5.46747e-07
5.43024e-07
5.38522e-07
5.33461e-07
5.28031e-07
5.22392e-07
5.1668e-07
5.11005e-07
5.05457e-07
5.00106e-07
4.95005e-07
4.90193e-07
4.85701e-07
4.81546e-07
4.77742e-07
4.74293e-07
4.712e-07
4.68461e-07
4.66072e-07
4.64023e-07
4.62306e-07
4.60908e-07
4.59818e-07
4.59021e-07
4.58504e-07
4.58253e-07
4.84543e-07
4.82468e-07
4.79602e-07
4.76136e-07
4.72239e-07
4.68056e-07
4.63711e-07
4.59306e-07
4.54928e-07
4.50644e-07
4.46508e-07
4.42561e-07
4.38836e-07
4.35353e-07
4.32128e-07
4.29172e-07
4.26488e-07
4.2408e-07
4.21944e-07
4.20077e-07
4.18474e-07
4.17128e-07
4.16031e-07
4.15175e-07
4.14548e-07
4.14142e-07
4.13944e-07
4.35557e-07
4.33969e-07
4.31775e-07
4.2912e-07
4.26132e-07
4.22921e-07
4.19582e-07
4.16193e-07
4.1282e-07
4.09515e-07
4.06319e-07
4.03265e-07
4.00377e-07
3.97673e-07
3.95165e-07
3.92861e-07
3.90767e-07
3.88884e-07
3.87212e-07
3.85749e-07
3.8449e-07
3.83431e-07
3.82566e-07
3.81889e-07
3.81394e-07
3.81071e-07
3.80914e-07
3.98843e-07
3.97622e-07
3.95932e-07
3.93886e-07
3.91581e-07
3.89101e-07
3.86517e-07
3.83891e-07
3.81272e-07
3.78702e-07
3.76211e-07
3.73826e-07
3.71567e-07
3.69446e-07
3.67476e-07
3.65662e-07
3.6401e-07
3.62522e-07
3.61198e-07
3.60036e-07
3.59035e-07
3.58192e-07
3.57503e-07
3.56962e-07
3.56566e-07
3.56307e-07
3.56181e-07
3.71296e-07
3.70345e-07
3.6903e-07
3.67435e-07
3.65635e-07
3.63695e-07
3.61671e-07
3.5961e-07
3.57551e-07
3.55524e-07
3.53557e-07
3.51669e-07
3.49876e-07
3.48189e-07
3.46618e-07
3.45169e-07
3.43846e-07
3.42651e-07
3.41585e-07
3.40649e-07
3.3984e-07
3.39158e-07
3.38599e-07
3.3816e-07
3.37838e-07
3.37627e-07
3.37525e-07
3.50504e-07
3.49754e-07
3.48714e-07
3.47451e-07
3.46025e-07
3.44484e-07
3.42874e-07
3.41231e-07
3.39585e-07
3.37961e-07
3.36382e-07
3.34862e-07
3.33414e-07
3.32049e-07
3.30775e-07
3.29596e-07
3.28517e-07
3.27541e-07
3.26668e-07
3.25899e-07
3.25234e-07
3.24671e-07
3.24209e-07
3.23846e-07
3.23578e-07
3.23403e-07
3.23318e-07
3.34675e-07
3.34072e-07
3.33236e-07
3.3222e-07
3.31069e-07
3.29824e-07
3.28521e-07
3.27187e-07
3.25848e-07
3.24524e-07
3.23233e-07
3.21987e-07
3.20797e-07
3.19672e-07
3.18619e-07
3.17642e-07
3.16746e-07
3.15933e-07
3.15204e-07
3.1456e-07
3.14002e-07
3.13529e-07
3.1314e-07
3.12834e-07
3.12607e-07
3.12459e-07
3.12387e-07
3.22495e-07
3.22002e-07
3.21317e-07
3.20484e-07
3.19539e-07
3.18515e-07
3.1744e-07
3.16337e-07
3.15228e-07
3.14128e-07
3.13052e-07
3.12011e-07
3.11015e-07
3.1007e-07
3.09183e-07
3.08359e-07
3.076e-07
3.0691e-07
3.0629e-07
3.05741e-07
3.05264e-07
3.04859e-07
3.04525e-07
3.04262e-07
3.04067e-07
3.03939e-07
3.03876e-07
3.1301e-07
3.12599e-07
3.12028e-07
3.11333e-07
3.10542e-07
3.09684e-07
3.0878e-07
3.07852e-07
3.06915e-07
3.05984e-07
3.05071e-07
3.04186e-07
3.03335e-07
3.02527e-07
3.01766e-07
3.01057e-07
3.00403e-07
2.99807e-07
2.9927e-07
2.98793e-07
2.98378e-07
2.98025e-07
2.97733e-07
2.97503e-07
2.97332e-07
2.97219e-07
2.97164e-07
3.05527e-07
3.05178e-07
3.04693e-07
3.04101e-07
3.03428e-07
3.02695e-07
3.01922e-07
3.01126e-07
3.00321e-07
2.99519e-07
2.9873e-07
2.97962e-07
2.97224e-07
2.9652e-07
2.95856e-07
2.95235e-07
2.94662e-07
2.94137e-07
2.93664e-07
2.93243e-07
2.92876e-07
2.92563e-07
2.92304e-07
2.92099e-07
2.91946e-07
2.91846e-07
2.91797e-07
2.99539e-07
2.99239e-07
2.9882e-07
2.98307e-07
2.97723e-07
2.97086e-07
2.96413e-07
2.95719e-07
2.95014e-07
2.94311e-07
2.93618e-07
2.92942e-07
2.9229e-07
2.91667e-07
2.91077e-07
2.90526e-07
2.90014e-07
2.89546e-07
2.89122e-07
2.88745e-07
2.88415e-07
2.88133e-07
2.879e-07
2.87715e-07
2.87577e-07
2.87486e-07
2.87442e-07
2.94678e-07
2.94414e-07
2.94046e-07
2.93595e-07
2.9308e-07
2.92518e-07
2.91922e-07
2.91306e-07
2.9068e-07
2.90054e-07
2.89435e-07
2.8883e-07
2.88245e-07
2.87686e-07
2.87155e-07
2.86657e-07
2.86195e-07
2.8577e-07
2.85386e-07
2.85043e-07
2.84743e-07
2.84486e-07
2.84272e-07
2.84103e-07
2.83977e-07
2.83894e-07
2.83853e-07
2.90671e-07
2.90435e-07
2.90107e-07
2.89703e-07
2.89243e-07
2.88738e-07
2.88204e-07
2.87649e-07
2.87085e-07
2.86519e-07
2.85958e-07
2.8541e-07
2.84878e-07
2.84369e-07
2.83884e-07
2.83429e-07
2.83006e-07
2.82616e-07
2.82263e-07
2.81948e-07
2.81671e-07
2.81434e-07
2.81237e-07
2.8108e-07
2.80964e-07
2.80887e-07
2.80848e-07
2.87315e-07
2.87102e-07
2.86804e-07
2.86439e-07
2.86021e-07
2.85562e-07
2.85076e-07
2.8457e-07
2.84055e-07
2.83537e-07
2.83023e-07
2.82519e-07
2.8203e-07
2.8156e-07
2.81113e-07
2.80692e-07
2.803e-07
2.79939e-07
2.79611e-07
2.79318e-07
2.7906e-07
2.78839e-07
2.78655e-07
2.78509e-07
2.784e-07
2.78328e-07
2.78292e-07
2.8446e-07
2.84265e-07
2.83992e-07
2.83656e-07
2.83272e-07
2.8285e-07
2.82402e-07
2.81935e-07
2.81459e-07
2.8098e-07
2.80503e-07
2.80035e-07
2.79581e-07
2.79143e-07
2.78726e-07
2.78333e-07
2.77967e-07
2.77629e-07
2.77321e-07
2.77046e-07
2.76804e-07
2.76596e-07
2.76423e-07
2.76285e-07
2.76182e-07
2.76114e-07
2.7608e-07
2.81991e-07
2.8181e-07
2.81557e-07
2.81246e-07
2.80889e-07
2.80497e-07
2.80079e-07
2.79644e-07
2.79199e-07
2.78751e-07
2.78305e-07
2.77867e-07
2.7744e-07
2.77029e-07
2.76636e-07
2.76266e-07
2.7592e-07
2.75601e-07
2.75311e-07
2.7505e-07
2.74821e-07
2.74624e-07
2.7446e-07
2.74329e-07
2.74231e-07
2.74167e-07
2.74135e-07
2.79821e-07
2.79652e-07
2.79415e-07
2.79123e-07
2.78788e-07
2.7842e-07
2.78028e-07
2.77619e-07
2.772e-07
2.76777e-07
2.76356e-07
2.75941e-07
2.75538e-07
2.75148e-07
2.74776e-07
2.74424e-07
2.74096e-07
2.73792e-07
2.73516e-07
2.73268e-07
2.73049e-07
2.72861e-07
2.72705e-07
2.7258e-07
2.72486e-07
2.72424e-07
2.72394e-07
2.77883e-07
2.77724e-07
2.775e-07
2.77224e-07
2.76907e-07
2.76559e-07
2.76187e-07
2.75799e-07
2.75401e-07
2.74999e-07
2.74599e-07
2.74204e-07
2.73819e-07
2.73447e-07
2.73092e-07
2.72756e-07
2.72442e-07
2.72151e-07
2.71887e-07
2.71649e-07
2.71439e-07
2.71259e-07
2.71108e-07
2.70988e-07
2.70899e-07
2.70839e-07
2.7081e-07
2.76126e-07
2.75974e-07
2.7576e-07
2.75498e-07
2.75196e-07
2.74864e-07
2.74508e-07
2.74138e-07
2.73757e-07
2.73373e-07
2.72989e-07
2.72611e-07
2.72241e-07
2.71885e-07
2.71543e-07
2.7122e-07
2.70918e-07
2.70638e-07
2.70383e-07
2.70154e-07
2.69952e-07
2.69778e-07
2.69633e-07
2.69517e-07
2.6943e-07
2.69373e-07
2.69344e-07
2.74506e-07
2.7436e-07
2.74156e-07
2.73904e-07
2.73614e-07
2.73295e-07
2.72953e-07
2.72597e-07
2.72231e-07
2.71861e-07
2.71491e-07
2.71126e-07
2.7077e-07
2.70425e-07
2.70095e-07
2.69783e-07
2.69491e-07
2.6922e-07
2.68973e-07
2.68751e-07
2.68555e-07
2.68386e-07
2.68246e-07
2.68133e-07
2.68049e-07
2.67993e-07
2.67966e-07
2.7299e-07
2.72849e-07
2.72652e-07
2.72409e-07
2.72129e-07
2.71821e-07
2.7149e-07
2.71145e-07
2.70791e-07
2.70432e-07
2.70074e-07
2.6972e-07
2.69374e-07
2.6904e-07
2.6872e-07
2.68416e-07
2.68132e-07
2.67869e-07
2.67628e-07
2.67412e-07
2.67222e-07
2.67058e-07
2.6692e-07
2.66811e-07
2.66729e-07
2.66674e-07
2.66647e-07
2.7155e-07
2.71413e-07
2.71222e-07
2.70986e-07
2.70714e-07
2.70414e-07
2.70093e-07
2.69757e-07
2.69412e-07
2.69063e-07
2.68713e-07
2.68368e-07
2.68031e-07
2.67705e-07
2.67392e-07
2.67096e-07
2.66818e-07
2.66561e-07
2.66326e-07
2.66114e-07
2.65928e-07
2.65767e-07
2.65633e-07
2.65526e-07
2.65445e-07
2.65392e-07
2.65366e-07
2.70161e-07
2.70027e-07
2.6984e-07
2.69609e-07
2.69344e-07
2.6905e-07
2.68736e-07
2.68408e-07
2.6807e-07
2.67728e-07
2.67385e-07
2.67047e-07
2.66717e-07
2.66396e-07
2.6609e-07
2.65799e-07
2.65526e-07
2.65273e-07
2.65043e-07
2.64835e-07
2.64652e-07
2.64494e-07
2.64362e-07
2.64256e-07
2.64177e-07
2.64125e-07
2.64099e-07
2.688e-07
2.68669e-07
2.68485e-07
2.68258e-07
2.67996e-07
2.67708e-07
2.67399e-07
2.67075e-07
2.66743e-07
2.66406e-07
2.66069e-07
2.65735e-07
2.65409e-07
2.65094e-07
2.64791e-07
2.64504e-07
2.64235e-07
2.63986e-07
2.63758e-07
2.63553e-07
2.63372e-07
2.63216e-07
2.63085e-07
2.62981e-07
2.62903e-07
2.62851e-07
2.62826e-07
2.67446e-07
2.67316e-07
2.67134e-07
2.6691e-07
2.66651e-07
2.66366e-07
2.6606e-07
2.65739e-07
2.6541e-07
2.65076e-07
2.64742e-07
2.64412e-07
2.64088e-07
2.63775e-07
2.63475e-07
2.63191e-07
2.62924e-07
2.62676e-07
2.6245e-07
2.62247e-07
2.62067e-07
2.61912e-07
2.61783e-07
2.61679e-07
2.61602e-07
2.6155e-07
2.61525e-07
2.66078e-07
2.65949e-07
2.65768e-07
2.65544e-07
2.65286e-07
2.65002e-07
2.64697e-07
2.64378e-07
2.6405e-07
2.63717e-07
2.63384e-07
2.63055e-07
2.62732e-07
2.6242e-07
2.6212e-07
2.61836e-07
2.6157e-07
2.61323e-07
2.61097e-07
2.60894e-07
2.60715e-07
2.6056e-07
2.60431e-07
2.60328e-07
2.6025e-07
2.60199e-07
2.60174e-07
2.64673e-07
2.64544e-07
2.64362e-07
2.64138e-07
2.6388e-07
2.63595e-07
2.63289e-07
2.62969e-07
2.62639e-07
2.62305e-07
2.61971e-07
2.6164e-07
2.61317e-07
2.61003e-07
2.60703e-07
2.60417e-07
2.6015e-07
2.59902e-07
2.59675e-07
2.59471e-07
2.59291e-07
2.59136e-07
2.59006e-07
2.58902e-07
2.58824e-07
2.58773e-07
2.58747e-07
2.63208e-07
2.63078e-07
2.62894e-07
2.62668e-07
2.62407e-07
2.62119e-07
2.6181e-07
2.61487e-07
2.61154e-07
2.60816e-07
2.60478e-07
2.60144e-07
2.59817e-07
2.595e-07
2.59196e-07
2.58907e-07
2.58637e-07
2.58386e-07
2.58157e-07
2.5795e-07
2.57768e-07
2.57611e-07
2.5748e-07
2.57375e-07
2.57297e-07
2.57245e-07
2.57219e-07
2.61657e-07
2.61524e-07
2.61338e-07
2.61107e-07
2.60842e-07
2.60548e-07
2.60233e-07
2.59904e-07
2.59565e-07
2.59221e-07
2.58876e-07
2.58536e-07
2.58202e-07
2.57879e-07
2.57569e-07
2.57276e-07
2.57e-07
2.56745e-07
2.56511e-07
2.56301e-07
2.56116e-07
2.55956e-07
2.55822e-07
2.55715e-07
2.55635e-07
2.55582e-07
2.55556e-07
2.5999e-07
2.59854e-07
2.59662e-07
2.59425e-07
2.59152e-07
2.5885e-07
2.58527e-07
2.58188e-07
2.5784e-07
2.57486e-07
2.57133e-07
2.56783e-07
2.5644e-07
2.56108e-07
2.5579e-07
2.55488e-07
2.55205e-07
2.54943e-07
2.54703e-07
2.54487e-07
2.54297e-07
2.54133e-07
2.53996e-07
2.53886e-07
2.53804e-07
2.5375e-07
2.53723e-07
2.58173e-07
2.58031e-07
2.57832e-07
2.57587e-07
2.57304e-07
2.56991e-07
2.56656e-07
2.56304e-07
2.55943e-07
2.55576e-07
2.55209e-07
2.54847e-07
2.54491e-07
2.54147e-07
2.53818e-07
2.53505e-07
2.53212e-07
2.5294e-07
2.52692e-07
2.52468e-07
2.52271e-07
2.52102e-07
2.5196e-07
2.51846e-07
2.51761e-07
2.51705e-07
2.51677e-07
2.56165e-07
2.56017e-07
2.55809e-07
2.55551e-07
2.55255e-07
2.54927e-07
2.54576e-07
2.54208e-07
2.5383e-07
2.53446e-07
2.53062e-07
2.52682e-07
2.5231e-07
2.5195e-07
2.51606e-07
2.51279e-07
2.50972e-07
2.50688e-07
2.50429e-07
2.50195e-07
2.49989e-07
2.49812e-07
2.49664e-07
2.49546e-07
2.49457e-07
2.49399e-07
2.4937e-07
2.53921e-07
2.53764e-07
2.53543e-07
2.53271e-07
2.52957e-07
2.5261e-07
2.52239e-07
2.5185e-07
2.51449e-07
2.51043e-07
2.50637e-07
2.50236e-07
2.49843e-07
2.49463e-07
2.49099e-07
2.48753e-07
2.4843e-07
2.4813e-07
2.47857e-07
2.47611e-07
2.47394e-07
2.47207e-07
2.47051e-07
2.46927e-07
2.46833e-07
2.46772e-07
2.46741e-07
2.51383e-07
2.51215e-07
2.50979e-07
2.50688e-07
2.50352e-07
2.49982e-07
2.49584e-07
2.49168e-07
2.48741e-07
2.48307e-07
2.47873e-07
2.47445e-07
2.47026e-07
2.4662e-07
2.46232e-07
2.45864e-07
2.45519e-07
2.452e-07
2.44909e-07
2.44647e-07
2.44416e-07
2.44218e-07
2.44052e-07
2.4392e-07
2.43821e-07
2.43756e-07
2.43723e-07
2.48487e-07
2.48305e-07
2.4805e-07
2.47736e-07
2.47373e-07
2.46972e-07
2.46543e-07
2.46094e-07
2.45632e-07
2.45164e-07
2.44696e-07
2.44234e-07
2.43783e-07
2.43346e-07
2.42928e-07
2.42532e-07
2.42161e-07
2.41818e-07
2.41505e-07
2.41224e-07
2.40977e-07
2.40764e-07
2.40587e-07
2.40445e-07
2.40339e-07
2.40269e-07
2.40234e-07
2.45153e-07
2.44955e-07
2.44677e-07
2.44333e-07
2.43937e-07
2.435e-07
2.43032e-07
2.42542e-07
2.42038e-07
2.41528e-07
2.41019e-07
2.40516e-07
2.40025e-07
2.3955e-07
2.39095e-07
2.38666e-07
2.38263e-07
2.37892e-07
2.37553e-07
2.37249e-07
2.36981e-07
2.36751e-07
2.36559e-07
2.36406e-07
2.36292e-07
2.36216e-07
2.36179e-07
2.4129e-07
2.41071e-07
2.40764e-07
2.40385e-07
2.39948e-07
2.39466e-07
2.38951e-07
2.38411e-07
2.37857e-07
2.37297e-07
2.36737e-07
2.36185e-07
2.35646e-07
2.35125e-07
2.34627e-07
2.34157e-07
2.33717e-07
2.33311e-07
2.32941e-07
2.32609e-07
2.32317e-07
2.32066e-07
2.31857e-07
2.31691e-07
2.31566e-07
2.31484e-07
2.31444e-07
2.36784e-07
2.3654e-07
2.36199e-07
2.35777e-07
2.35292e-07
2.34756e-07
2.34183e-07
2.33584e-07
2.3297e-07
2.32348e-07
2.31728e-07
2.31117e-07
2.30521e-07
2.29945e-07
2.29396e-07
2.28877e-07
2.28393e-07
2.27946e-07
2.27539e-07
2.27174e-07
2.26854e-07
2.26579e-07
2.2635e-07
2.26168e-07
2.26032e-07
2.25942e-07
2.25898e-07
2.31504e-07
2.31231e-07
2.30847e-07
2.30375e-07
2.2983e-07
2.29231e-07
2.2859e-07
2.2792e-07
2.27233e-07
2.26539e-07
2.25848e-07
2.25167e-07
2.24504e-07
2.23864e-07
2.23254e-07
2.22679e-07
2.22142e-07
2.21647e-07
2.21197e-07
2.20795e-07
2.20442e-07
2.20139e-07
2.19887e-07
2.19686e-07
2.19537e-07
2.19438e-07
2.1939e-07
2.25295e-07
2.24986e-07
2.24553e-07
2.2402e-07
2.23407e-07
2.22731e-07
2.22009e-07
2.21256e-07
2.20485e-07
2.19707e-07
2.18932e-07
2.18169e-07
2.17428e-07
2.16714e-07
2.16034e-07
2.15393e-07
2.14796e-07
2.14247e-07
2.13748e-07
2.13302e-07
2.12911e-07
2.12576e-07
2.12298e-07
2.12077e-07
2.11912e-07
2.11804e-07
2.1175e-07
2.17979e-07
2.17629e-07
2.17139e-07
2.16535e-07
2.1584e-07
2.15076e-07
2.14261e-07
2.13412e-07
2.12542e-07
2.11666e-07
2.10796e-07
2.0994e-07
2.09109e-07
2.08311e-07
2.07551e-07
2.06837e-07
2.06172e-07
2.05561e-07
2.05007e-07
2.04513e-07
2.0408e-07
2.03709e-07
2.03402e-07
2.03158e-07
2.02977e-07
2.02858e-07
2.02799e-07
2.09363e-07
2.08966e-07
2.08409e-07
2.07724e-07
2.06938e-07
2.06073e-07
2.05152e-07
2.04194e-07
2.03215e-07
2.0223e-07
2.01253e-07
2.00295e-07
1.99366e-07
1.98476e-07
1.97631e-07
1.96837e-07
1.961e-07
1.95424e-07
1.94811e-07
1.94266e-07
1.93789e-07
1.93382e-07
1.93045e-07
1.92777e-07
1.92579e-07
1.92449e-07
1.92384e-07
1.99259e-07
1.9881e-07
1.98181e-07
1.97408e-07
1.96522e-07
1.95548e-07
1.94513e-07
1.93437e-07
1.92339e-07
1.91237e-07
1.90146e-07
1.89077e-07
1.88043e-07
1.87053e-07
1.86114e-07
1.85235e-07
1.84419e-07
1.83672e-07
1.82998e-07
1.82398e-07
1.81874e-07
1.81427e-07
1.81058e-07
1.80765e-07
1.80548e-07
1.80406e-07
1.80336e-07
1.8751e-07
1.87004e-07
1.86297e-07
1.85428e-07
1.84433e-07
1.83342e-07
1.82184e-07
1.80982e-07
1.79759e-07
1.78533e-07
1.77321e-07
1.76138e-07
1.74995e-07
1.73903e-07
1.7287e-07
1.71904e-07
1.7101e-07
1.70193e-07
1.69457e-07
1.68803e-07
1.68233e-07
1.67748e-07
1.67348e-07
1.67031e-07
1.66797e-07
1.66643e-07
1.66567e-07
1.73985e-07
1.73422e-07
1.72635e-07
1.71671e-07
1.70568e-07
1.69361e-07
1.68081e-07
1.66757e-07
1.65412e-07
1.64068e-07
1.62742e-07
1.6145e-07
1.60205e-07
1.59019e-07
1.57899e-07
1.56855e-07
1.55891e-07
1.55011e-07
1.5422e-07
1.53519e-07
1.52909e-07
1.52391e-07
1.51963e-07
1.51626e-07
1.51377e-07
1.51214e-07
1.51134e-07
1.58704e-07
1.58089e-07
1.57232e-07
1.56181e-07
1.54982e-07
1.53673e-07
1.52289e-07
1.5086e-07
1.49412e-07
1.47968e-07
1.46548e-07
1.45168e-07
1.43841e-07
1.4258e-07
1.41393e-07
1.40288e-07
1.3927e-07
1.38344e-07
1.37512e-07
1.36776e-07
1.36138e-07
1.35596e-07
1.3515e-07
1.34799e-07
1.34539e-07
1.3437e-07
1.34287e-07
1.41896e-07
1.41242e-07
1.40332e-07
1.39219e-07
1.37951e-07
1.36569e-07
1.35112e-07
1.3361e-07
1.3209e-07
1.30576e-07
1.29087e-07
1.27636e-07
1.26239e-07
1.24909e-07
1.23657e-07
1.22492e-07
1.21418e-07
1.2044e-07
1.19561e-07
1.18783e-07
1.18108e-07
1.17535e-07
1.17064e-07
1.16692e-07
1.16417e-07
1.16238e-07
1.1615e-07
1.23934e-07
1.23247e-07
1.2229e-07
1.2112e-07
1.19788e-07
1.18337e-07
1.16809e-07
1.1524e-07
1.13659e-07
1.12092e-07
1.10559e-07
1.09078e-07
1.07662e-07
1.06322e-07
1.05067e-07
1.03904e-07
1.02838e-07
1.01871e-07
1.01005e-07
1.00242e-07
9.95811e-08
9.90217e-08
9.85622e-08
9.82007e-08
9.79346e-08
9.77606e-08
9.76754e-08
1.0517e-07
1.04488e-07
1.03542e-07
1.0239e-07
1.01085e-07
9.96708e-08
9.81887e-08
9.66721e-08
9.515e-08
9.36462e-08
9.21806e-08
9.07689e-08
8.94238e-08
8.8155e-08
8.69701e-08
8.58745e-08
8.48719e-08
8.39647e-08
8.31542e-08
8.24407e-08
8.18238e-08
8.13022e-08
8.08743e-08
8.05378e-08
8.02899e-08
8.01279e-08
8.00486e-08
8.70042e-08
8.6367e-08
8.54837e-08
8.44108e-08
8.31977e-08
8.18876e-08
8.0518e-08
7.91205e-08
7.77216e-08
7.63433e-08
7.50032e-08
7.37155e-08
7.24913e-08
7.1339e-08
7.02647e-08
6.92731e-08
6.8367e-08
6.75482e-08
6.68174e-08
6.61747e-08
6.56195e-08
6.51503e-08
6.47654e-08
6.44627e-08
6.42398e-08
6.40942e-08
6.40229e-08
7.0338e-08
6.97669e-08
6.89761e-08
6.80171e-08
6.69346e-08
6.5768e-08
6.45507e-08
6.33111e-08
6.20728e-08
6.08551e-08
5.96734e-08
5.85399e-08
5.7464e-08
5.64527e-08
5.55113e-08
5.46433e-08
5.38509e-08
5.31355e-08
5.24975e-08