/*--------------------------------*- C++ -*----------------------------------*\
| =========                 |                                                 |
| \\      /  F ield         | OpenFOAM: The Open Source CFD Toolbox           |
|  \\    /   O peration     | Version:  2106                                  |
|   \\  /    A nd           | Website:  www.openfoam.com                      |
|    \\/     M anipulation  |                                                 |
\*---------------------------------------------------------------------------*/
FoamFile
{
    version     2.0;
    format      ascii;
    arch        "LSB;label=32;scalar=64";
    class       volScalarField;
    location    "219.99956";
    object      C4H2_0;
}
// * * * * * * * * * * * * * * * * * * * * * * * * * * * * * * * * * * * * * //

dimensions      [0 0 0 0 0 0 0];

internalField   nonuniform List<scalar> 
3360
(
1.61564e-16
1.66763e-16
1.73997e-16
1.82846e-16
1.92941e-16
2.03951e-16
2.15576e-16
2.27547e-16
2.39623e-16
2.51592e-16
2.6327e-16
2.745e-16
2.85155e-16
2.95131e-16
3.0435e-16
3.12757e-16
3.20319e-16
3.27022e-16
3.32867e-16
3.37873e-16
3.4207e-16
3.45498e-16
3.48205e-16
3.50247e-16
3.51684e-16
3.52578e-16
3.52993e-16
7.08752e-16
7.34801e-16
7.7156e-16
8.17336e-16
8.70726e-16
9.3051e-16
9.95592e-16
1.06498e-15
1.13773e-15
1.21297e-15
1.28986e-15
1.36757e-15
1.4453e-15
1.52225e-15
1.59762e-15
1.67066e-15
1.74059e-15
1.80669e-15
1.86825e-15
1.92462e-15
1.97518e-15
2.0194e-15
2.05684e-15
2.08711e-15
2.10996e-15
2.12521e-15
2.13282e-15
2.22375e-15
2.32134e-15
2.46002e-15
2.63427e-15
2.83954e-15
3.07173e-15
3.32692e-15
3.60128e-15
3.89091e-15
4.19185e-15
4.50002e-15
4.81142e-15
5.12202e-15
5.42791e-15
5.72526e-15
6.01046e-15
6.28016e-15
6.53135e-15
6.76142e-15
6.96822e-15
7.15007e-15
7.3058e-15
7.43471e-15
7.5366e-15
7.61172e-15
7.66071e-15
7.68456e-15
6.4761e-15
6.79776e-15
7.2579e-15
7.84006e-15
8.53048e-15
9.31628e-15
1.01846e-14
1.1122e-14
1.21145e-14
1.31474e-14
1.42055e-14
1.52734e-14
1.63355e-14
1.73769e-14
1.83836e-14
1.93423e-14
2.02415e-14
2.10715e-14
2.18243e-14
2.2494e-14
2.30766e-14
2.35703e-14
2.39745e-14
2.42907e-14
2.45215e-14
2.46705e-14
2.47424e-14
1.89203e-14
1.99349e-14
2.13892e-14
2.32335e-14
2.54255e-14
2.79247e-14
3.06896e-14
3.3676e-14
3.68367e-14
4.01223e-14
4.34815e-14
4.68624e-14
5.02144e-14
5.34891e-14
5.66415e-14
5.96315e-14
6.24244e-14
6.49916e-14
6.73109e-14
6.93665e-14
7.11486e-14
7.26534e-14
7.38821e-14
7.48404e-14
7.55379e-14
7.59873e-14
7.62035e-14
5.57875e-14
5.89037e-14
6.33755e-14
6.90512e-14
7.58009e-14
8.34988e-14
9.20148e-14
1.0121e-13
1.10937e-13
1.2104e-13
1.31358e-13
1.41729e-13
1.51997e-13
1.62011e-13
1.71634e-13
1.80746e-13
1.89241e-13
1.97035e-13
2.04064e-13
2.10283e-13
2.15666e-13
2.20204e-13
2.23903e-13
2.26785e-13
2.28879e-13
2.30227e-13
2.30875e-13
1.65715e-13
1.75184e-13
1.88771e-13
2.06017e-13
2.26525e-13
2.4991e-13
2.75768e-13
3.03675e-13
3.33173e-13
3.63785e-13
3.9502e-13
4.26388e-13
4.57411e-13
4.8764e-13
5.16663e-13
5.44117e-13
5.69693e-13
5.93143e-13
6.14276e-13
6.32963e-13
6.49129e-13
6.62752e-13
6.73855e-13
6.825e-13
6.88783e-13
6.92825e-13
6.94768e-13
4.93907e-13
5.22399e-13
5.63305e-13
6.15244e-13
6.77024e-13
7.47479e-13
8.25394e-13
9.09473e-13
9.98335e-13
1.09053e-12
1.18458e-12
1.27899e-12
1.37233e-12
1.46324e-12
1.55049e-12
1.63299e-12
1.70981e-12
1.78021e-12
1.84363e-12
1.89968e-12
1.94815e-12
1.98898e-12
2.02224e-12
2.04813e-12
2.06694e-12
2.07904e-12
2.08485e-12
1.47599e-12
1.56162e-12
1.68454e-12
1.84059e-12
2.02619e-12
2.23782e-12
2.4718e-12
2.72422e-12
2.99091e-12
3.26752e-12
3.54959e-12
3.83265e-12
4.11241e-12
4.38481e-12
4.64616e-12
4.89321e-12
5.12321e-12
5.33395e-12
5.52376e-12
5.69151e-12
5.83656e-12
5.95873e-12
6.05825e-12
6.13572e-12
6.19199e-12
6.22819e-12
6.24558e-12
4.41133e-12
4.66783e-12
5.03609e-12
5.50367e-12
6.05978e-12
6.69387e-12
7.39491e-12
8.15115e-12
8.95008e-12
9.77862e-12
1.06234e-11
1.1471e-11
1.23085e-11
1.31239e-11
1.3906e-11
1.46452e-11
1.53332e-11
1.59635e-11
1.65311e-11
1.70325e-11
1.7466e-11
1.78311e-11
1.81284e-11
1.83597e-11
1.85278e-11
1.86358e-11
1.86878e-11
1.31915e-11
1.39596e-11
1.50621e-11
1.64616e-11
1.81257e-11
2.00228e-11
2.21197e-11
2.4381e-11
2.67693e-11
2.92454e-11
3.17691e-11
3.43006e-11
3.68013e-11
3.92351e-11
4.15691e-11
4.37744e-11
4.58266e-11
4.77061e-11
4.93983e-11
5.08933e-11
5.21854e-11
5.32734e-11
5.41595e-11
5.4849e-11
5.53497e-11
5.56717e-11
5.58264e-11
3.94138e-11
4.17077e-11
4.50004e-11
4.91796e-11
5.41483e-11
5.98111e-11
6.60686e-11
7.28151e-11
7.99382e-11
8.73205e-11
9.48425e-11
1.02385e-10
1.09834e-10
1.1708e-10
1.24027e-10
1.30588e-10
1.36692e-10
1.42281e-10
1.4731e-10
1.51752e-10
1.55591e-10
1.58822e-10
1.61452e-10
1.63498e-10
1.64984e-10
1.6594e-10
1.66398e-10
1.17649e-10
1.2449e-10
1.34305e-10
1.46758e-10
1.61557e-10
1.78414e-10
1.97031e-10
2.17091e-10
2.38257e-10
2.60181e-10
2.82505e-10
3.04876e-10
3.26954e-10
3.48422e-10
3.6899e-10
3.88406e-10
4.0646e-10
4.22981e-10
4.37844e-10
4.50966e-10
4.62299e-10
4.71837e-10
4.79599e-10
4.85637e-10
4.90019e-10
4.92836e-10
4.9419e-10
3.50246e-10
3.70557e-10
3.99689e-10
4.36634e-10
4.80512e-10
5.3046e-10
5.85582e-10
6.4493e-10
7.07499e-10
7.72251e-10
8.38127e-10
9.04084e-10
9.6912e-10
1.0323e-09
1.09278e-09
1.14983e-09
1.20283e-09
1.25129e-09
1.29486e-09
1.3333e-09
1.36648e-09
1.39438e-09
1.41708e-09
1.43473e-09
1.44753e-09
1.45576e-09
1.45971e-09
1.0392e-09
1.09919e-09
1.18517e-09
1.29413e-09
1.42341e-09
1.5704e-09
1.73243e-09
1.90665e-09
2.09008e-09
2.27965e-09
2.47224e-09
2.6648e-09
2.85441e-09
3.03836e-09
3.21423e-09
3.37991e-09
3.53366e-09
3.6741e-09
3.80022e-09
3.91138e-09
4.00726e-09
4.08782e-09
4.15332e-09
4.20419e-09
4.24109e-09
4.26479e-09
4.27616e-09
3.06595e-09
3.24148e-09
3.49286e-09
3.81103e-09
4.18802e-09
4.61603e-09
5.08703e-09
5.59258e-09
6.12389e-09
6.67193e-09
7.22766e-09
7.78224e-09
8.32731e-09
8.85514e-09
9.35888e-09
9.83263e-09
1.02715e-08
1.06718e-08
1.10308e-08
1.13467e-08
1.16189e-08
1.18473e-08
1.20328e-08
1.21767e-08
1.2281e-08
1.2348e-08
1.23801e-08
8.97772e-09
9.48474e-09
1.02099e-08
1.11263e-08
1.22099e-08
1.34375e-08
1.47851e-08
1.6228e-08
1.77405e-08
1.92964e-08
2.087e-08
2.24362e-08
2.39715e-08
2.54546e-08
2.68665e-08
2.81913e-08
2.94159e-08
3.05306e-08
3.15282e-08
3.24046e-08
3.31584e-08
3.37901e-08
3.43023e-08
3.46993e-08
3.49867e-08
3.51709e-08
3.52592e-08
2.60172e-08
2.74549e-08
2.95076e-08
3.20955e-08
3.51477e-08
3.8595e-08
4.23674e-08
4.63926e-08
5.05973e-08
5.49076e-08
5.92515e-08
6.35602e-08
6.77697e-08
7.18227e-08
7.56693e-08
7.92678e-08
8.25852e-08
8.55965e-08
8.82853e-08
9.06422e-08
9.26649e-08
9.43569e-08
9.57266e-08
9.67867e-08
9.75529e-08
9.80434e-08
9.82782e-08
7.43623e-08
7.83379e-08
8.40011e-08
9.11193e-08
9.94851e-08
1.08897e-07
1.19153e-07
1.30049e-07
1.41381e-07
1.52945e-07
1.64549e-07
1.76009e-07
1.87159e-07
1.97852e-07
2.07962e-07
2.17387e-07
2.26046e-07
2.33883e-07
2.4086e-07
2.4696e-07
2.52183e-07
2.56542e-07
2.60065e-07
2.62786e-07
2.64749e-07
2.66005e-07
2.66605e-07
2.08673e-07
2.19309e-07
2.34416e-07
2.53334e-07
2.75471e-07
3.00257e-07
3.2713e-07
3.55529e-07
3.84907e-07
4.14732e-07
4.44503e-07
4.7376e-07
5.0209e-07
5.29136e-07
5.546e-07
5.78243e-07
5.99885e-07
6.19404e-07
6.36727e-07
6.5183e-07
6.64726e-07
6.75465e-07
6.84123e-07
6.908e-07
6.9561e-07
6.9868e-07
7.00146e-07
5.71817e-07
5.99119e-07
6.37768e-07
6.85955e-07
7.42059e-07
8.04532e-07
8.71872e-07
9.42621e-07
1.01537e-06
1.08881e-06
1.1617e-06
1.23294e-06
1.30158e-06
1.36679e-06
1.42791e-06
1.48442e-06
1.53595e-06
1.58226e-06
1.62323e-06
1.65885e-06
1.68918e-06
1.71437e-06
1.73465e-06
1.75025e-06
1.76147e-06
1.76862e-06
1.77203e-06
1.52045e-06
1.58717e-06
1.68129e-06
1.79809e-06
1.93335e-06
2.08309e-06
2.24353e-06
2.41106e-06
2.5823e-06
2.75411e-06
2.9237e-06
3.08856e-06
3.24658e-06
3.396e-06
3.53543e-06
3.66383e-06
3.78048e-06
3.88495e-06
3.97709e-06
4.05696e-06
4.12481e-06
4.18105e-06
4.22621e-06
4.2609e-06
4.28581e-06
4.30167e-06
4.30922e-06
3.89786e-06
4.05232e-06
4.26941e-06
4.5376e-06
4.84657e-06
5.18671e-06
5.54903e-06
5.92517e-06
6.30743e-06
6.68888e-06
7.06339e-06
7.42566e-06
7.77128e-06
8.09668e-06
8.39912e-06
8.6766e-06
8.92784e-06
9.15218e-06
9.34948e-06
9.52008e-06
9.66468e-06
9.7843e-06
9.88017e-06
9.9537e-06
1.00064e-05
1.004e-05
1.00559e-05
9.58089e-06
9.9191e-06
1.03929e-05
1.09759e-05
1.16445e-05
1.2377e-05
1.31533e-05
1.39552e-05
1.47661e-05
1.55715e-05
1.63586e-05
1.71168e-05
1.78373e-05
1.85132e-05
1.91393e-05
1.97119e-05
2.0229e-05
2.06894e-05
2.10935e-05
2.14421e-05
2.17371e-05
2.19806e-05
2.21755e-05
2.23248e-05
2.24318e-05
2.24997e-05
2.25319e-05
2.24966e-05
2.31993e-05
2.41814e-05
2.53861e-05
2.67626e-05
2.82648e-05
2.98506e-05
3.14823e-05
3.31262e-05
3.47529e-05
3.63373e-05
3.78585e-05
3.92998e-05
4.0648e-05
4.18937e-05
4.30304e-05
4.40545e-05
4.49647e-05
4.57621e-05
4.64489e-05
4.70291e-05
4.75077e-05
4.78901e-05
4.81828e-05
4.83922e-05
4.85251e-05
4.85883e-05
5.0379e-05
5.17747e-05
5.37218e-05
5.61051e-05
5.88221e-05
6.17799e-05
6.48946e-05
6.80915e-05
7.13046e-05
7.4477e-05
7.75607e-05
8.05157e-05
8.33105e-05
8.59208e-05
8.8329e-05
9.05237e-05
9.24987e-05
9.42524e-05
9.57871e-05
9.7108e-05
9.82231e-05
9.91421e-05
9.98762e-05
0.000100438
0.000100839
0.000101094
0.000101215
0.000107562
0.000110233
0.000113958
0.000118513
0.000123701
0.000129344
0.000135281
0.000141372
0.00014749
0.000153529
0.000159398
0.000165021
0.000170341
0.00017531
0.000179896
0.000184078
0.000187843
0.000191188
0.000194117
0.00019664
0.000198771
0.000200529
0.000201934
0.000203009
0.000203779
0.000204267
0.0002045
0.000218836
0.000223788
0.000230693
0.00023914
0.000248768
0.000259248
0.000270287
0.000281623
0.000293028
0.000304303
0.000315281
0.000325821
0.000335812
0.000345167
0.00035382
0.000361729
0.000368867
0.000375224
0.000380805
0.000385624
0.000389704
0.000393077
0.00039578
0.000397854
0.000399341
0.000400287
0.000400737
0.000423348
0.000432178
0.000444499
0.000459587
0.000476804
0.000495572
0.000515373
0.000535748
0.000556288
0.000576641
0.000596503
0.000615623
0.000633794
0.000650852
0.000666674
0.000681174
0.000694297
0.000706017
0.000716332
0.000725263
0.000732845
0.00073913
0.000744179
0.000748061
0.000750852
0.000752632
0.000753481
0.000775022
0.00078985
0.000810544
0.000835893
0.000864825
0.000896377
0.000929681
0.000963966
0.00099855
0.00103284
0.00106632
0.00109858
0.00112926
0.00115808
0.00118483
0.00120937
0.0012316
0.00125146
0.00126896
0.00128413
0.00129701
0.0013077
0.0013163
0.00132292
0.00132768
0.00133072
0.00133217
0.00133353
0.00135634
0.00138814
0.00142704
0.00147138
0.00151964
0.00157049
0.00162274
0.00167533
0.00172736
0.00177806
0.0018268
0.00187306
0.00191643
0.00195661
0.00199339
0.00202665
0.00205632
0.00208242
0.002105
0.00212416
0.00214003
0.00215277
0.00216257
0.00216961
0.0021741
0.00217625
0.00214351
0.00217503
0.00221887
0.00227236
0.00233312
0.00239902
0.00246817
0.00253892
0.00260983
0.00267968
0.00274744
0.00281229
0.00287356
0.00293075
0.00298352
0.00303163
0.00307495
0.00311346
0.00314721
0.00317632
0.00320093
0.00322126
0.00323755
0.00325003
0.00325899
0.00326468
0.0032674
0.00321179
0.0032507
0.00330469
0.00337032
0.00344456
0.00352471
0.0036084
0.00369357
0.00377848
0.00386166
0.00394193
0.00401834
0.00409017
0.00415688
0.00421813
0.00427371
0.00432355
0.00436767
0.00440618
0.00443927
0.00446715
0.00449012
0.00450845
0.00452247
0.00453249
0.00453886
0.00454188
0.00449845
0.00454181
0.00460182
0.00467452
0.00475645
0.00484452
0.00493606
0.00502878
0.00512078
0.00521047
0.00529662
0.00537824
0.00545463
0.00552528
0.00558989
0.00564829
0.00570048
0.00574652
0.00578658
0.0058209
0.00584976
0.00587346
0.00589234
0.00590674
0.00591703
0.00592355
0.00592664
0.00593171
0.00597628
0.00603787
0.0061123
0.00619594
0.00628557
0.00637844
0.00647221
0.00656493
0.00665505
0.00674133
0.00682285
0.00689893
0.00696911
0.00703314
0.0070909
0.0071424
0.00718776
0.00722716
0.00726087
0.00728917
0.00731239
0.00733087
0.00734496
0.00735501
0.00736137
0.00736439
0.00743567
0.00747914
0.00753913
0.00761155
0.00769281
0.00777977
0.00786973
0.00796042
0.00804997
0.00813689
0.00822001
0.00829845
0.00837159
0.008439
0.00850045
0.00855585
0.00860522
0.00864869
0.00868645
0.00871873
0.00874584
0.00876807
0.00878577
0.00879927
0.0088089
0.00881499
0.00881789
0.00895208
0.00899336
0.0090503
0.00911904
0.00919614
0.00927864
0.00936396
0.00944997
0.0095349
0.00961734
0.00969618
0.0097706
0.00984
0.00990399
0.00996235
0.010015
0.0100619
0.0101033
0.0101392
0.0101699
0.0101957
0.0102169
0.0102338
0.0102467
0.0102559
0.0102617
0.0102645
0.0104463
0.0104852
0.0105389
0.0106037
0.0106765
0.0107544
0.010835
0.0109163
0.0109966
0.0110747
0.0111494
0.01122
0.0112858
0.0113466
0.0114021
0.0114522
0.0114969
0.0115364
0.0115706
0.0116
0.0116247
0.0116449
0.0116611
0.0116734
0.0116822
0.0116878
0.0116905
0.0119021
0.0119389
0.0119897
0.0120511
0.0121201
0.0121939
0.0122705
0.0123477
0.0124241
0.0124984
0.0125696
0.012637
0.0126999
0.012758
0.0128111
0.012859
0.0129019
0.0129397
0.0129726
0.0130008
0.0130245
0.013044
0.0130595
0.0130714
0.0130799
0.0130853
0.0130878
0.0133142
0.0133493
0.0133978
0.0134564
0.0135222
0.0135928
0.013666
0.01374
0.0138132
0.0138845
0.0139528
0.0140175
0.014078
0.0141339
0.014185
0.0142312
0.0142725
0.014309
0.0143408
0.014368
0.0143909
0.0144098
0.0144248
0.0144363
0.0144445
0.0144497
0.0144522
0.0146827
0.0147164
0.014763
0.0148194
0.0148828
0.0149508
0.0150213
0.0150926
0.0151632
0.015232
0.0152981
0.0153606
0.0154191
0.0154731
0.0155226
0.0155674
0.0156074
0.0156428
0.0156736
0.0157
0.0157222
0.0157405
0.0157551
0.0157663
0.0157743
0.0157794
0.0157818
0.0160097
0.0160423
0.0160874
0.016142
0.0162033
0.0162692
0.0163375
0.0164066
0.0164751
0.0165419
0.0166059
0.0166666
0.0167234
0.016776
0.0168241
0.0168676
0.0169065
0.0169409
0.0169708
0.0169966
0.0170182
0.017036
0.0170502
0.0170611
0.0170689
0.0170738
0.0170761
0.0172979
0.0173296
0.0173734
0.0174264
0.0174861
0.0175501
0.0176166
0.0176838
0.0177505
0.0178154
0.0178778
0.0179369
0.0179922
0.0180434
0.0180902
0.0181326
0.0181706
0.0182041
0.0182333
0.0182583
0.0182794
0.0182968
0.0183107
0.0183213
0.0183289
0.0183337
0.018336
0.0185498
0.0185807
0.0186234
0.018675
0.0187332
0.0187956
0.0188604
0.018926
0.018991
0.0190543
0.0191151
0.0191728
0.0192267
0.0192767
0.0193224
0.0193638
0.0194008
0.0194335
0.019462
0.0194865
0.0195071
0.019524
0.0195375
0.0195479
0.0195553
0.01956
0.0195622
0.0197675
0.0197977
0.0198394
0.0198898
0.0199466
0.0200075
0.0200708
0.0201348
0.0201983
0.0202601
0.0203195
0.0203758
0.0204285
0.0204773
0.020522
0.0205624
0.0205985
0.0206305
0.0206583
0.0206822
0.0207023
0.0207189
0.0207321
0.0207422
0.0207494
0.020754
0.0207562
0.020953
0.0209825
0.0210232
0.0210725
0.0211279
0.0211875
0.0212493
0.0213119
0.0213739
0.0214343
0.0214924
0.0215474
0.0215989
0.0216465
0.0216902
0.0217297
0.021765
0.0217962
0.0218234
0.0218467
0.0218664
0.0218826
0.0218955
0.0219053
0.0219124
0.0219169
0.021919
0.0221077
0.0221365
0.0221763
0.0222245
0.0222787
0.0223369
0.0223974
0.0224585
0.0225191
0.0225782
0.022635
0.0226887
0.0227391
0.0227856
0.0228283
0.0228669
0.0229014
0.0229319
0.0229585
0.0229813
0.0230005
0.0230163
0.0230289
0.0230385
0.0230454
0.0230498
0.0230519
0.023233
0.0232612
0.0233001
0.0233472
0.0234002
0.0234571
0.0235162
0.023576
0.0236352
0.023693
0.0237484
0.023801
0.0238502
0.0238957
0.0239374
0.0239751
0.0240088
0.0240386
0.0240646
0.0240869
0.0241057
0.0241211
0.0241334
0.0241429
0.0241496
0.0241539
0.0241559
0.02433
0.0243575
0.0243955
0.0244416
0.0244934
0.024549
0.0246068
0.0246652
0.0247231
0.0247796
0.0248338
0.0248851
0.0249332
0.0249777
0.0250185
0.0250553
0.0250883
0.0251174
0.0251428
0.0251646
0.0251829
0.025198
0.02521
0.0252192
0.0252258
0.02523
0.025232
0.0253994
0.0254263
0.0254635
0.0255085
0.0255592
0.0256136
0.02567
0.0257271
0.0257838
0.0258389
0.0258919
0.0259421
0.0259891
0.0260326
0.0260724
0.0261084
0.0261406
0.026169
0.0261938
0.0262151
0.026233
0.0262478
0.0262595
0.0262685
0.026275
0.026279
0.026281
0.0264423
0.0264686
0.026505
0.0265489
0.0265984
0.0266516
0.0267067
0.0267626
0.0268179
0.0268718
0.0269236
0.0269726
0.0270185
0.027061
0.0270999
0.0271351
0.0271665
0.0271943
0.0272185
0.0272393
0.0272568
0.0272712
0.0272827
0.0272915
0.0272978
0.0273018
0.0273037
0.0274593
0.0274849
0.0275205
0.0275635
0.0276118
0.0276637
0.0277176
0.0277722
0.0278262
0.0278789
0.0279295
0.0279774
0.0280222
0.0280637
0.0281017
0.028136
0.0281668
0.0281939
0.0282176
0.0282379
0.028255
0.0282691
0.0282803
0.0282889
0.028295
0.0282989
0.0283007
0.0284509
0.028476
0.0285107
0.0285527
0.0286
0.0286507
0.0287033
0.0287566
0.0288094
0.0288608
0.0289102
0.028957
0.0290008
0.0290413
0.0290784
0.029112
0.029142
0.0291685
0.0291916
0.0292114
0.0292281
0.0292418
0.0292528
0.0292612
0.0292672
0.029271
0.0292728
0.0294179
0.0294424
0.0294763
0.0295173
0.0295634
0.0296129
0.0296643
0.0297163
0.0297679
0.0298181
0.0298664
0.029912
0.0299548
0.0299944
0.0300306
0.0300633
0.0300926
0.0301185
0.0301411
0.0301604
0.0301767
0.0301901
0.0302008
0.030209
0.0302148
0.0302186
0.0302203
0.0303606
0.0303845
0.0304176
0.0304576
0.0305027
0.030551
0.0306012
0.030652
0.0307023
0.0307513
0.0307984
0.030843
0.0308847
0.0309234
0.0309587
0.0309907
0.0310193
0.0310445
0.0310666
0.0310854
0.0311013
0.0311144
0.0311249
0.0311328
0.0311385
0.0311422
0.0311439
0.0312795
0.0313029
0.0313352
0.0313742
0.0314182
0.0314654
0.0315144
0.0315639
0.031613
0.0316609
0.0317068
0.0317503
0.0317911
0.0318287
0.0318632
0.0318944
0.0319223
0.031947
0.0319685
0.0319869
0.0320024
0.0320152
0.0320253
0.0320331
0.0320387
0.0320422
0.0320439
0.0321751
0.0321979
0.0322294
0.0322675
0.0323104
0.0323564
0.0324042
0.0324526
0.0325005
0.0325471
0.032592
0.0326344
0.0326741
0.0327109
0.0327445
0.032775
0.0328022
0.0328262
0.0328472
0.0328651
0.0328803
0.0328927
0.0329026
0.0329102
0.0329157
0.0329191
0.0329208
0.0330477
0.0330699
0.0331006
0.0331378
0.0331796
0.0332245
0.0332711
0.0333183
0.033365
0.0334105
0.0334542
0.0334956
0.0335343
0.0335702
0.033603
0.0336326
0.0336592
0.0336826
0.033703
0.0337206
0.0337353
0.0337474
0.0337571
0.0337645
0.0337698
0.0337732
0.0337748
0.0338975
0.0339192
0.0339492
0.0339854
0.0340262
0.0340699
0.0341154
0.0341613
0.0342069
0.0342512
0.0342938
0.0343342
0.0343719
0.0344069
0.0344388
0.0344677
0.0344936
0.0345164
0.0345363
0.0345534
0.0345678
0.0345796
0.0345891
0.0345963
0.0346014
0.0346047
0.0346063
0.034725
0.0347461
0.0347753
0.0348106
0.0348503
0.034893
0.0349372
0.034982
0.0350264
0.0350696
0.0351111
0.0351504
0.0351872
0.0352212
0.0352523
0.0352805
0.0353057
0.035328
0.0353473
0.035364
0.035378
0.0353895
0.0353987
0.0354057
0.0354107
0.0354139
0.0354154
0.0355302
0.0355508
0.0355792
0.0356136
0.0356523
0.0356938
0.0357369
0.0357805
0.0358237
0.0358658
0.0359062
0.0359445
0.0359803
0.0360134
0.0360437
0.0360712
0.0360957
0.0361174
0.0361362
0.0361524
0.036166
0.0361773
0.0361862
0.036193
0.0361979
0.036201
0.0362025
0.0363134
0.0363334
0.0363611
0.0363946
0.0364322
0.0364726
0.0365146
0.036557
0.036599
0.03664
0.0366793
0.0367166
0.0367514
0.0367836
0.0368131
0.0368398
0.0368637
0.0368847
0.0369031
0.0369189
0.0369321
0.036943
0.0369517
0.0369584
0.0369631
0.0369662
0.0369676
0.0370747
0.0370941
0.0371211
0.0371536
0.0371902
0.0372295
0.0372703
0.0373116
0.0373524
0.0373923
0.0374305
0.0374667
0.0375006
0.0375319
0.0375606
0.0375865
0.0376097
0.0376302
0.0376481
0.0376634
0.0376763
0.0376869
0.0376953
0.0377018
0.0377064
0.0377094
0.0377108
0.0378141
0.037833
0.0378591
0.0378907
0.0379263
0.0379645
0.0380041
0.0380442
0.0380839
0.0381226
0.0381598
0.0381949
0.0382278
0.0382583
0.0382861
0.0383113
0.0383339
0.0383538
0.0383711
0.038386
0.0383985
0.0384088
0.038417
0.0384233
0.0384278
0.0384306
0.038432
0.0385315
0.0385499
0.0385753
0.038606
0.0386405
0.0386776
0.038716
0.0387549
0.0387935
0.038831
0.038867
0.0389012
0.0389331
0.0389627
0.0389897
0.0390141
0.039036
0.0390553
0.0390721
0.0390865
0.0390987
0.0391087
0.0391166
0.0391227
0.0391271
0.0391299
0.0391312
0.0392269
0.0392447
0.0392693
0.0392991
0.0393326
0.0393685
0.0394058
0.0394435
0.0394809
0.0395173
0.0395522
0.0395853
0.0396162
0.0396449
0.0396711
0.0396948
0.0397159
0.0397346
0.0397509
0.0397649
0.0397767
0.0397864
0.0397941
0.0398
0.0398042
0.0398069
0.0398082
0.0399001
0.0399174
0.0399412
0.03997
0.0400024
0.0400372
0.0400733
0.0401098
0.040146
0.0401812
0.040215
0.040247
0.040277
0.0403047
0.04033
0.040353
0.0403735
0.0403916
0.0404073
0.0404209
0.0404322
0.0404416
0.0404491
0.0404548
0.0404589
0.0404615
0.0404627
0.0405508
0.0405675
0.0405905
0.0406184
0.0406497
0.0406833
0.0407182
0.0407535
0.0407884
0.0408225
0.0408551
0.0408861
0.040915
0.0409418
0.0409663
0.0409884
0.0410082
0.0410257
0.0410409
0.041054
0.041065
0.041074
0.0410812
0.0410867
0.0410907
0.0410932
0.0410944
0.0411786
0.0411947
0.0412169
0.0412438
0.041274
0.0413064
0.0413401
0.0413741
0.0414078
0.0414406
0.0414721
0.0415019
0.0415298
0.0415556
0.0415792
0.0416006
0.0416197
0.0416365
0.0416512
0.0416638
0.0416744
0.0416831
0.04169
0.0416953
0.0416991
0.0417016
0.0417027
0.041783
0.0417985
0.0418198
0.0418457
0.0418748
0.041906
0.0419384
0.0419711
0.0420035
0.0420351
0.0420654
0.0420941
0.0421209
0.0421457
0.0421684
0.0421889
0.0422073
0.0422235
0.0422376
0.0422497
0.0422599
0.0422682
0.0422749
0.04228
0.0422837
0.042286
0.0422871
0.0423633
0.0423782
0.0423987
0.0424235
0.0424514
0.0424814
0.0425124
0.0425438
0.0425749
0.0426052
0.0426343
0.0426618
0.0426875
0.0427113
0.042733
0.0427527
0.0427703
0.0427858
0.0427994
0.042811
0.0428207
0.0428287
0.0428351
0.04284
0.0428435
0.0428458
0.0428468
0.0429188
0.042933
0.0429527
0.0429764
0.0430031
0.0430318
0.0430615
0.0430915
0.0431212
0.0431502
0.043178
0.0432043
0.0432288
0.0432516
0.0432724
0.0432911
0.0433079
0.0433228
0.0433357
0.0433468
0.0433561
0.0433638
0.0433699
0.0433745
0.0433779
0.04338
0.043381
0.0434487
0.0434623
0.043481
0.0435036
0.043529
0.0435563
0.0435846
0.0436132
0.0436415
0.0436691
0.0436955
0.0437206
0.043744
0.0437656
0.0437854
0.0438032
0.0438192
0.0438333
0.0438456
0.0438562
0.043865
0.0438723
0.0438781
0.0438826
0.0438857
0.0438878
0.0438887
0.043952
0.0439648
0.0439826
0.044004
0.0440281
0.044054
0.0440808
0.044108
0.0441348
0.0441609
0.044186
0.0442097
0.0442318
0.0442523
0.044271
0.044288
0.0443031
0.0443164
0.0443281
0.044338
0.0443464
0.0443533
0.0443588
0.044363
0.044366
0.0443679
0.0443688
0.0444275
0.0444396
0.0444564
0.0444766
0.0444994
0.0445238
0.044549
0.0445746
0.0445999
0.0446245
0.0446481
0.0446704
0.0446913
0.0447106
0.0447282
0.0447442
0.0447584
0.044771
0.0447819
0.0447913
0.0447992
0.0448056
0.0448108
0.0448148
0.0448176
0.0448194
0.0448202
0.0448741
0.0448855
0.0449012
0.0449202
0.0449415
0.0449644
0.044988
0.045012
0.0450357
0.0450587
0.0450808
0.0451017
0.0451212
0.0451392
0.0451557
0.0451706
0.0451839
0.0451957
0.0452059
0.0452146
0.045222
0.0452281
0.0452329
0.0452366
0.0452392
0.0452409
0.0452417
0.0452907
0.0453013
0.0453159
0.0453335
0.0453534
0.0453746
0.0453966
0.0454189
0.0454409
0.0454623
0.0454828
0.0455022
0.0455203
0.045537
0.0455523
0.0455661
0.0455785
0.0455893
0.0455988
0.0456069
0.0456138
0.0456194
0.0456239
0.0456273
0.0456297
0.0456313
0.045632
0.045676
0.0456858
0.0456993
0.0457155
0.0457338
0.0457534
0.0457737
0.0457942
0.0458144
0.0458341
0.045853
0.0458708
0.0458874
0.0459028
0.0459169
0.0459296
0.0459409
0.0459509
0.0459596
0.045967
0.0459733
0.0459784
0.0459825
0.0459857
0.0459879
0.0459893
0.04599
0.046029
0.0460379
0.0460502
0.0460651
0.0460817
0.0460996
0.0461181
0.0461367
0.0461552
0.0461731
0.0461903
0.0462065
0.0462216
0.0462356
0.0462484
0.0462599
0.0462702
0.0462792
0.0462871
0.0462939
0.0462996
0.0463042
0.046308
0.0463108
0.0463128
0.0463141
0.0463147
0.0463487
0.0463568
0.0463678
0.0463812
0.0463962
0.0464123
0.0464289
0.0464457
0.0464623
0.0464784
0.0464938
0.0465084
0.046522
0.0465345
0.046546
0.0465563
0.0465655
0.0465737
0.0465807
0.0465868
0.0465919
0.046596
0.0465994
0.0466019
0.0466037
0.0466049
0.0466054
0.0466345
0.0466416
0.0466515
0.0466633
0.0466767
0.0466909
0.0467057
0.0467206
0.0467353
0.0467495
0.0467632
0.0467761
0.0467881
0.0467992
0.0468093
0.0468184
0.0468265
0.0468337
0.0468399
0.0468453
0.0468498
0.0468534
0.0468564
0.0468586
0.0468602
0.0468612
0.0468617
0.046886
0.0468922
0.0469008
0.0469112
0.0469228
0.0469353
0.0469482
0.0469611
0.0469739
0.0469863
0.0469982
0.0470094
0.0470198
0.0470295
0.0470382
0.0470462
0.0470532
0.0470594
0.0470648
0.0470694
0.0470733
0.0470765
0.0470791
0.047081
0.0470824
0.0470833
0.0470837
0.0471034
0.0471088
0.0471162
0.0471251
0.047135
0.0471457
0.0471567
0.0471677
0.0471787
0.0471893
0.0471994
0.0472089
0.0472178
0.047226
0.0472334
0.0472402
0.0472461
0.0472514
0.047256
0.0472599
0.0472632
0.0472659
0.047268
0.0472697
0.0472709
0.0472716
0.047272
0.0472876
0.0472921
0.0472982
0.0473057
0.047314
0.0473229
0.0473321
0.0473413
0.0473504
0.0473593
0.0473677
0.0473756
0.047383
0.0473898
0.047396
0.0474015
0.0474065
0.0474108
0.0474146
0.0474179
0.0474206
0.0474228
0.0474246
0.0474259
0.0474269
0.0474275
0.0474278
0.0474398
0.0474434
0.0474485
0.0474545
0.0474613
0.0474685
0.047476
0.0474835
0.0474909
0.047498
0.0475048
0.0475112
0.0475172
0.0475227
0.0475276
0.0475321
0.0475361
0.0475396
0.0475427
0.0475453
0.0475474
0.0475492
0.0475506
0.0475517
0.0475525
0.047553
0.0475532
0.047562
0.0475649
0.0475689
0.0475737
0.047579
0.0475847
0.0475906
0.0475965
0.0476023
0.0476079
0.0476132
0.0476182
0.0476228
0.0476271
0.047631
0.0476345
0.0476376
0.0476403
0.0476426
0.0476447
0.0476463
0.0476477
0.0476488
0.0476497
0.0476503
0.0476506
0.0476508
0.0476571
0.0476593
0.0476623
0.0476659
0.04767
0.0476743
0.0476787
0.0476832
0.0476875
0.0476917
0.0476958
0.0476995
0.047703
0.0477062
0.0477091
0.0477117
0.047714
0.047716
0.0477178
0.0477193
0.0477205
0.0477215
0.0477224
0.047723
0.0477234
0.0477237
0.0477238
0.0477281
0.0477297
0.0477319
0.0477346
0.0477375
0.0477406
0.0477438
0.047747
0.0477502
0.0477532
0.047756
0.0477587
0.0477612
0.0477635
0.0477656
0.0477674
0.047769
0.0477705
0.0477717
0.0477728
0.0477736
0.0477744
0.0477749
0.0477754
0.0477757
0.0477759
0.047776
0.0477789
0.04778
0.0477815
0.0477833
0.0477853
0.0477874
0.0477896
0.0477918
0.0477939
0.047796
0.0477979
0.0477997
0.0478014
0.0478029
0.0478043
0.0478055
0.0478066
0.0478076
0.0478084
0.0478091
0.0478097
0.0478101
0.0478105
0.0478108
0.047811
0.0478111
0.0478112
0.0478132
0.0478139
0.0478148
0.047816
0.0478173
0.0478186
0.04782
0.0478214
0.0478227
0.047824
0.0478252
0.0478264
0.0478274
0.0478284
0.0478292
0.04783
0.0478306
0.0478312
0.0478317
0.0478322
0.0478325
0.0478328
0.047833
0.0478332
0.0478333
0.0478334
0.0478335
0.0478349
0.0478353
0.0478358
0.0478365
0.0478373
0.047838
0.0478388
0.0478396
0.0478404
0.0478411
0.0478418
0.0478425
0.047843
0.0478436
0.0478441
0.0478445
0.0478449
0.0478452
0.0478455
0.0478457
0.0478459
0.0478461
0.0478462
0.0478463
0.0478463
0.0478464
0.0478464
0.0478475
0.0478477
0.047848
0.0478483
0.0478487
0.0478491
0.0478495
0.0478499
0.0478503
0.0478507
0.047851
0.0478513
0.0478516
0.0478518
0.0478521
0.0478523
0.0478525
0.0478526
0.0478528
0.0478529
0.047853
0.047853
0.0478531
0.0478531
0.0478532
0.0478532
0.0478532
0.0478541
0.0478542
0.0478543
0.0478544
0.0478546
0.0478548
0.0478549
0.0478551
0.0478552
0.0478554
0.0478555
0.0478556
0.0478557
0.0478558
0.0478559
0.047856
0.047856
0.0478561
0.0478562
0.0478562
0.0478562
0.0478563
0.0478563
0.0478563
0.0478563
0.0478563
0.0478563
0.0478571
0.0478571
0.0478571
0.0478571
0.0478572
0.0478572
0.0478572
0.0478573
0.0478573
0.0478573
0.0478573
0.0478574
0.0478574
0.0478574
0.0478574
0.0478574
0.0478574
0.0478575
0.0478575
0.0478575
0.0478575
0.0478575
0.0478575
0.0478575
0.0478575
0.0478575
0.0478575
0.0478581
0.0478581
0.047858
0.047858
0.047858
0.047858
0.047858
0.047858
0.0478579
0.0478579
0.0478579
0.0478579
0.0478579
0.0478579
0.0478579
0.0478579
0.0478579
0.0478578
0.0478578
0.0478578
0.0478578
0.0478578
0.0478578
0.0478578
0.0478578
0.0478578
0.0478578
0.0478582
0.0478582
0.0478582
0.0478582
0.0478581
0.0478581
0.0478581
0.0478581
0.047858
0.047858
0.047858
0.047858
0.0478579
0.0478579
0.0478579
0.0478579
0.0478579
0.0478579
0.0478579
0.0478579
0.0478579
0.0478579
0.0478579
0.0478579
0.0478579
0.0478579
0.0478579
0.0478581
0.0478581
0.0478581
0.0478581
0.047858
0.047858
0.047858
0.047858
0.047858
0.0478579
0.0478579
0.0478579
0.0478579
0.0478579
0.0478579
0.0478579
0.0478579
0.0478579
0.0478578
0.0478578
0.0478578
0.0478578
0.0478578
0.0478578
0.0478578
0.0478578
0.0478578
0.047858
0.047858
0.0478579
0.0478579
0.0478579
0.0478579
0.0478579
0.0478579
0.0478579
0.0478579
0.0478579
0.0478578
0.0478578
0.0478578
0.0478578
0.0478578
0.0478578
0.0478578
0.0478578
0.0478578
0.0478578
0.0478578
0.0478578
0.0478578
0.0478578
0.0478578
0.0478578
0.0478579
0.0478579
0.0478579
0.0478579
0.0478579
0.0478578
0.0478578
0.0478578
0.0478578
0.0478578
0.0478578
0.0478578
0.0478578
0.0478578
0.0478578
0.0478578
0.0478578
0.0478578
0.0478578
0.0478578
0.0478578
0.0478578
0.0478578
0.0478578
0.0478578
0.0478578
0.0478578
0.0478578
0.0478578
0.0478578
0.0478578
0.0478578
0.0478578
0.0478578
0.0478578
0.0478578
0.0478578
0.0478578
0.0478578
0.0478578
0.0478578
0.0478578
0.0478578
0.0478578
0.0478578
0.0478578
0.0478578
0.0478578
0.0478578
0.0478578
0.0478578
0.0478578
0.0478578
0.0478578
0.0478578
0.0478578
0.0478578
0.0478578
0.0478578
0.0478578
0.0478578
0.0478578
0.0478578
0.0478578
0.0478578
0.0478578
0.0478578
0.0478578
0.0478578
0.0478578
0.0478578
0.0478578
0.0478578
0.0478578
0.0478578
0.0478578
0.0478578
0.0478578
0.0478578
0.0478578
0.0478578
0.0478578
0.0478578
0.0478578
0.0478578
0.0478578
0.0478578
0.0478578
0.0478578
0.0478578
0.0478578
0.0478578
0.0478578
0.0478578
0.0478578
0.0478578
0.0478578
0.0478578
0.0478578
0.0478578
0.0478578
0.0478578
0.0478578
0.0478578
0.0478578
0.0478578
0.0478578
0.0478578
0.0478578
0.0478578
0.0478578
0.0478578
0.0478578
0.0478578
0.0478578
0.0478578
0.0478578
0.0478578
0.0478578
0.0478578