/*--------------------------------*- C++ -*----------------------------------*\
| =========                 |                                                 |
| \\      /  F ield         | OpenFOAM: The Open Source CFD Toolbox           |
|  \\    /   O peration     | Version:  2106                                  |
|   \\  /    A nd           | Website:  www.openfoam.com                      |
|    \\/     M anipulation  |                                                 |
\*---------------------------------------------------------------------------*/
FoamFile
{
    version     2.0;
    format      ascii;
    arch        "LSB;label=32;scalar=64";
    class       volScalarField;
    location    "219.99956";
    object      C6H6_0;
}
// * * * * * * * * * * * * * * * * * * * * * * * * * * * * * * * * * * * * * //

dimensions      [0 0 0 0 0 0 0];

internalField   nonuniform List<scalar> 
3360
(
3.04272e-17
3.14062e-17
3.27687e-17
3.44352e-17
3.63363e-17
3.84098e-17
4.05991e-17
4.28536e-17
4.51278e-17
4.73819e-17
4.95812e-17
5.16963e-17
5.37029e-17
5.55817e-17
5.73178e-17
5.89012e-17
6.03253e-17
6.15876e-17
6.26885e-17
6.36313e-17
6.44216e-17
6.50671e-17
6.5577e-17
6.59616e-17
6.62322e-17
6.64005e-17
6.64786e-17
1.33478e-16
1.38384e-16
1.45307e-16
1.53928e-16
1.63983e-16
1.75242e-16
1.87499e-16
2.00565e-16
2.14267e-16
2.28437e-16
2.42917e-16
2.57553e-16
2.72191e-16
2.86683e-16
3.00878e-16
3.14632e-16
3.27803e-16
3.40251e-16
3.51845e-16
3.6246e-16
3.71983e-16
3.80312e-16
3.87361e-16
3.93063e-16
3.97365e-16
4.00238e-16
4.01671e-16
4.18796e-16
4.37175e-16
4.63292e-16
4.96109e-16
5.34768e-16
5.78495e-16
6.26555e-16
6.78224e-16
7.32771e-16
7.89445e-16
8.47484e-16
9.06128e-16
9.64624e-16
1.02223e-15
1.07823e-15
1.13194e-15
1.18274e-15
1.23004e-15
1.27337e-15
1.31232e-15
1.34656e-15
1.37589e-15
1.40017e-15
1.41936e-15
1.43351e-15
1.44273e-15
1.44722e-15
1.21964e-15
1.28021e-15
1.36687e-15
1.47651e-15
1.60654e-15
1.75452e-15
1.91805e-15
2.09459e-15
2.28151e-15
2.47604e-15
2.67531e-15
2.87641e-15
3.07644e-15
3.27258e-15
3.46215e-15
3.6427e-15
3.81206e-15
3.96837e-15
4.11014e-15
4.23626e-15
4.34599e-15
4.43896e-15
4.5151e-15
4.57465e-15
4.6181e-15
4.64616e-15
4.6597e-15
3.56323e-15
3.75432e-15
4.02821e-15
4.37553e-15
4.78834e-15
5.25903e-15
5.77974e-15
6.34215e-15
6.93741e-15
7.55619e-15
8.18881e-15
8.82554e-15
9.45682e-15
1.00735e-14
1.06672e-14
1.12303e-14
1.17563e-14
1.22398e-14
1.26766e-14
1.30637e-14
1.33993e-14
1.36827e-14
1.39141e-14
1.40946e-14
1.4226e-14
1.43106e-14
1.43513e-14
1.05064e-14
1.10933e-14
1.19354e-14
1.30043e-14
1.42755e-14
1.57252e-14
1.7329e-14
1.90608e-14
2.08927e-14
2.27953e-14
2.47384e-14
2.66917e-14
2.86253e-14
3.05113e-14
3.23237e-14
3.40396e-14
3.56395e-14
3.71074e-14
3.84312e-14
3.96024e-14
4.06161e-14
4.14707e-14
4.21674e-14
4.27101e-14
4.31045e-14
4.33584e-14
4.34804e-14
3.1209e-14
3.29921e-14
3.5551e-14
3.87989e-14
4.26612e-14
4.70652e-14
5.19351e-14
5.71907e-14
6.2746e-14
6.85111e-14
7.43936e-14
8.0301e-14
8.61436e-14
9.18366e-14
9.73024e-14
1.02473e-13
1.0729e-13
1.11706e-13
1.15686e-13
1.19205e-13
1.2225e-13
1.24815e-13
1.26906e-13
1.28534e-13
1.29718e-13
1.30479e-13
1.30845e-13
9.30169e-14
9.83827e-14
1.06086e-13
1.15868e-13
1.27503e-13
1.40772e-13
1.55445e-13
1.7128e-13
1.88015e-13
2.05378e-13
2.2309e-13
2.4087e-13
2.58449e-13
2.7557e-13
2.92002e-13
3.07538e-13
3.22006e-13
3.35264e-13
3.47208e-13
3.57764e-13
3.66893e-13
3.74582e-13
3.80846e-13
3.85722e-13
3.89264e-13
3.91542e-13
3.92637e-13
2.77971e-13
2.94098e-13
3.17247e-13
3.46637e-13
3.81591e-13
4.21445e-13
4.6551e-13
5.13048e-13
5.63275e-13
6.15368e-13
6.68489e-13
7.21798e-13
7.74485e-13
8.25785e-13
8.75005e-13
9.21531e-13
9.64847e-13
1.00454e-12
1.04028e-12
1.07187e-12
1.09919e-12
1.1222e-12
1.14094e-12
1.15553e-12
1.16613e-12
1.17295e-12
1.17622e-12
8.30779e-13
8.79086e-13
9.48441e-13
1.0365e-12
1.14123e-12
1.26065e-12
1.39267e-12
1.5351e-12
1.68556e-12
1.8416e-12
2.00068e-12
2.16031e-12
2.31805e-12
2.47161e-12
2.61891e-12
2.75812e-12
2.88769e-12
3.00639e-12
3.11327e-12
3.20771e-12
3.28935e-12
3.3581e-12
3.41409e-12
3.45766e-12
3.48931e-12
3.50966e-12
3.51944e-12
2.48435e-12
2.62899e-12
2.83662e-12
3.10019e-12
3.4136e-12
3.77087e-12
4.16577e-12
4.59165e-12
5.04143e-12
5.50774e-12
5.98303e-12
6.45978e-12
6.93075e-12
7.3891e-12
7.82866e-12
8.24397e-12
8.63046e-12
8.98443e-12
9.30313e-12
9.58466e-12
9.82801e-12
1.00329e-11
1.01998e-11
1.03296e-11
1.04239e-11
1.04846e-11
1.05137e-11
7.42275e-12
7.85477e-12
8.47486e-12
9.26194e-12
1.01977e-11
1.12641e-11
1.24426e-11
1.37132e-11
1.50547e-11
1.6445e-11
1.78616e-11
1.92821e-11
2.06848e-11
2.20495e-11
2.33578e-11
2.45935e-11
2.5743e-11
2.67955e-11
2.77428e-11
2.85793e-11
2.93022e-11
2.99107e-11
3.04061e-11
3.07914e-11
3.10713e-11
3.12512e-11
3.13376e-11
2.21568e-11
2.34451e-11
2.52936e-11
2.76388e-11
3.04258e-11
3.36005e-11
3.71066e-11
4.08844e-11
4.48707e-11
4.89995e-11
5.32037e-11
5.74169e-11
6.15749e-11
6.56178e-11
6.94913e-11
7.3148e-11
7.6548e-11
7.96595e-11
8.24587e-11
8.49298e-11
8.70642e-11
8.88604e-11
9.03223e-11
9.14593e-11
9.22847e-11
9.28153e-11
9.30701e-11
6.59614e-11
6.97865e-11
7.5273e-11
8.22308e-11
9.04942e-11
9.99008e-11
1.10282e-10
1.21459e-10
1.33242e-10
1.45437e-10
1.57843e-10
1.70265e-10
1.82513e-10
1.94412e-10
2.05802e-10
2.16546e-10
2.26527e-10
2.35654e-10
2.4386e-10
2.51098e-10
2.57347e-10
2.62602e-10
2.66877e-10
2.702e-10
2.72611e-10
2.74161e-10
2.74904e-10
1.95711e-10
2.07008e-10
2.23203e-10
2.43722e-10
2.68068e-10
2.95752e-10
3.26266e-10
3.59077e-10
3.93623e-10
4.29324e-10
4.65594e-10
5.01859e-10
5.37568e-10
5.72211e-10
6.05332e-10
6.36534e-10
6.65489e-10
6.91938e-10
7.15691e-10
7.36625e-10
7.54681e-10
7.69854e-10
7.82189e-10
7.91771e-10
7.9872e-10
8.03182e-10
8.05324e-10
5.77407e-10
6.10464e-10
6.57806e-10
7.17726e-10
7.88724e-10
8.69332e-10
9.58035e-10
1.05324e-09
1.15331e-09
1.25652e-09
1.36118e-09
1.46562e-09
1.56827e-09
1.66768e-09
1.76255e-09
1.85177e-09
1.93442e-09
2.00981e-09
2.07741e-09
2.13691e-09
2.18817e-09
2.23119e-09
2.26612e-09
2.29323e-09
2.31287e-09
2.32548e-09
2.33152e-09
1.69077e-09
1.78625e-09
1.92283e-09
2.0954e-09
2.29948e-09
2.53066e-09
2.78447e-09
3.0562e-09
3.34104e-09
3.63407e-09
3.93042e-09
4.22537e-09
4.51452e-09
4.79382e-09
5.05973e-09
5.30923e-09
5.53987e-09
5.74978e-09
5.93766e-09
6.10272e-09
6.24467e-09
6.36364e-09
6.46011e-09
6.53488e-09
6.589e-09
6.62369e-09
6.64031e-09
4.89982e-09
5.17057e-09
5.55715e-09
6.04453e-09
6.61934e-09
7.26858e-09
7.97902e-09
8.73709e-09
9.52894e-09
1.03407e-08
1.11588e-08
1.19702e-08
1.2763e-08
1.35263e-08
1.42507e-08
1.49284e-08
1.55532e-08
1.61203e-08
1.66266e-08
1.70705e-08
1.74515e-08
1.77701e-08
1.80281e-08
1.82277e-08
1.8372e-08
1.84644e-08
1.85086e-08
1.40048e-08
1.47535e-08
1.582e-08
1.71606e-08
1.87361e-08
2.05086e-08
2.24401e-08
2.44922e-08
2.66262e-08
2.88041e-08
3.09893e-08
3.31476e-08
3.52474e-08
3.72612e-08
3.91652e-08
4.09402e-08
4.2571e-08
4.40469e-08
4.53609e-08
4.65097e-08
4.74933e-08
4.83142e-08
4.89775e-08
4.949e-08
4.98598e-08
5.00962e-08
5.02093e-08
3.93005e-08
4.13035e-08
4.41486e-08
4.77113e-08
5.18803e-08
5.65481e-08
6.16089e-08
6.69572e-08
7.24897e-08
7.81065e-08
8.37132e-08
8.9223e-08
9.45583e-08
9.96517e-08
1.04447e-07
1.089e-07
1.12975e-07
1.16651e-07
1.19914e-07
1.22758e-07
1.25187e-07
1.27209e-07
1.2884e-07
1.30097e-07
1.31003e-07
1.31581e-07
1.31857e-07
1.07698e-07
1.1284e-07
1.20118e-07
1.29193e-07
1.39758e-07
1.51523e-07
1.64205e-07
1.77528e-07
1.91229e-07
2.05057e-07
2.18784e-07
2.32201e-07
2.45126e-07
2.57406e-07
2.68916e-07
2.79558e-07
2.89263e-07
2.97984e-07
3.057e-07
3.12406e-07
3.18118e-07
3.22863e-07
3.26681e-07
3.29619e-07
3.31732e-07
3.33079e-07
3.33722e-07
2.86397e-07
2.98962e-07
3.16684e-07
3.38678e-07
3.64149e-07
3.92347e-07
4.22558e-07
4.54104e-07
4.86348e-07
5.18702e-07
5.50634e-07
5.81678e-07
6.11434e-07
6.3957e-07
6.65825e-07
6.90003e-07
7.11968e-07
7.31641e-07
7.48991e-07
7.64031e-07
7.76807e-07
7.87397e-07
7.959e-07
8.02433e-07
8.07123e-07
8.1011e-07
8.11532e-07
7.34389e-07
7.63471e-07
8.04343e-07
8.54835e-07
9.13005e-07
9.77042e-07
1.04525e-06
1.11607e-06
1.18803e-06
1.25984e-06
1.33035e-06
1.39855e-06
1.46361e-06
1.52487e-06
1.58181e-06
1.63404e-06
1.68134e-06
1.72357e-06
1.76072e-06
1.79284e-06
1.82006e-06
1.84258e-06
1.86063e-06
1.87447e-06
1.8844e-06
1.89071e-06
1.89371e-06
1.80608e-06
1.86973e-06
1.95891e-06
2.06862e-06
2.19444e-06
2.33227e-06
2.47835e-06
2.62922e-06
2.7818e-06
2.93332e-06
3.08141e-06
3.22406e-06
3.35961e-06
3.48677e-06
3.60455e-06
3.71227e-06
3.80954e-06
3.89617e-06
3.97218e-06
4.03776e-06
4.09325e-06
4.13907e-06
4.17574e-06
4.20383e-06
4.22395e-06
4.23672e-06
4.2428e-06
4.24582e-06
4.37796e-06
4.56262e-06
4.78909e-06
5.04784e-06
5.33018e-06
5.62821e-06
5.9348e-06
6.24365e-06
6.54922e-06
6.84682e-06
7.13252e-06
7.40318e-06
7.65634e-06
7.89023e-06
8.10363e-06
8.29589e-06
8.46678e-06
8.61645e-06
8.74538e-06
8.8543e-06
8.94412e-06
9.01592e-06
9.07086e-06
9.11017e-06
9.13512e-06
9.14697e-06
9.5323e-06
9.79431e-06
1.01598e-05
1.0607e-05
1.11167e-05
1.16712e-05
1.2255e-05
1.28539e-05
1.34556e-05
1.40494e-05
1.46263e-05
1.5179e-05
1.57014e-05
1.61891e-05
1.66389e-05
1.70486e-05
1.74172e-05
1.77444e-05
1.80306e-05
1.82768e-05
1.84847e-05
1.86559e-05
1.87927e-05
1.88972e-05
1.8972e-05
1.90194e-05
1.90419e-05
2.04579e-05
2.09586e-05
2.16562e-05
2.25088e-05
2.34791e-05
2.45334e-05
2.56416e-05
2.67769e-05
2.7916e-05
2.90388e-05
3.01285e-05
3.11712e-05
3.21561e-05
3.30748e-05
3.39215e-05
3.46923e-05
3.53853e-05
3.60002e-05
3.65378e-05
3.70002e-05
3.73904e-05
3.77117e-05
3.79682e-05
3.81644e-05
3.83046e-05
3.83935e-05
3.84357e-05
4.2033e-05
4.29622e-05
4.42567e-05
4.58384e-05
4.76379e-05
4.95929e-05
5.16477e-05
5.37529e-05
5.58653e-05
5.7948e-05
5.99698e-05
6.19053e-05
6.37342e-05
6.54411e-05
6.70149e-05
6.84485e-05
6.97381e-05
7.08829e-05
7.18845e-05
7.27465e-05
7.3474e-05
7.40736e-05
7.45525e-05
7.49187e-05
7.51807e-05
7.53468e-05
7.54257e-05
8.26994e-05
8.43763e-05
8.67133e-05
8.957e-05
9.28223e-05
9.63587e-05
0.000100079
0.000103894
0.000107728
0.000111512
0.00011519
0.000118717
0.000122053
0.000125172
0.000128052
0.000130679
0.000133046
0.00013515
0.000136993
0.000138581
0.000139924
0.000141031
0.000141917
0.000142595
0.00014308
0.000143388
0.000143534
0.000155376
0.000158285
0.000162341
0.000167302
0.000172954
0.000179104
0.000185581
0.000192231
0.000198921
0.000205532
0.000211968
0.000218147
0.000224002
0.000229483
0.000234552
0.000239182
0.00024336
0.000247079
0.000250343
0.000253158
0.000255541
0.00025751
0.000259087
0.000260295
0.000261161
0.000261712
0.000261974
0.000276957
0.000281693
0.000288294
0.000296366
0.000305561
0.000315566
0.000326101
0.000336916
0.000347793
0.000358546
0.000369013
0.000379063
0.000388589
0.000397508
0.000405759
0.0004133
0.000420106
0.000426169
0.00043149
0.000436085
0.000439976
0.000443192
0.000445769
0.000447745
0.000449163
0.000450064
0.000450493
0.000464425
0.000471457
0.000481247
0.000493201
0.000506791
0.000521547
0.000537049
0.000552926
0.000568856
0.000584563
0.000599815
0.000614423
0.000628236
0.000641137
0.000653043
0.000663901
0.000673681
0.000682374
0.000689991
0.000696556
0.000702107
0.000706689
0.000710355
0.000713164
0.000715177
0.000716456
0.000717064
0.000727536
0.000736861
0.000749814
0.000765579
0.000783437
0.000802745
0.000822938
0.000843523
0.000864077
0.000884244
0.000903731
0.000922305
0.000939784
0.000956036
0.00097097
0.000984531
0.000996698
0.00100747
0.00101688
0.00102496
0.00103178
0.00103739
0.00104186
0.00104529
0.00104773
0.00104929
0.00105002
0.00106178
0.00107277
0.001088
0.00110647
0.00112731
0.00114974
0.00117307
0.00119674
0.00122026
0.00124321
0.00126528
0.00128621
0.00130582
0.00132398
0.00134059
0.00135562
0.00136905
0.00138092
0.00139124
0.00140009
0.00140754
0.00141365
0.00141852
0.00142224
0.0014249
0.00142658
0.00142738
0.00144862
0.00146038
0.00147664
0.00149631
0.00151842
0.00154215
0.00156676
0.00159164
0.00161627
0.00164023
0.00166321
0.00168493
0.00170524
0.00172399
0.00174111
0.00175657
0.00177037
0.00178254
0.00179311
0.00180217
0.00180978
0.00181603
0.001821
0.0018248
0.00182751
0.00182922
0.00183004
0.00186507
0.0018769
0.00189324
0.00191299
0.00193517
0.00195893
0.00198354
0.00200839
0.00203296
0.00205685
0.00207972
0.00210134
0.00212153
0.00214016
0.00215717
0.00217253
0.00218623
0.00219831
0.00220882
0.00221781
0.00222537
0.00223157
0.00223652
0.00224029
0.00224298
0.00224469
0.0022455
0.00229338
0.00230496
0.00232095
0.00234027
0.00236197
0.00238521
0.00240929
0.00243361
0.00245765
0.00248103
0.00250343
0.00252461
0.00254439
0.00256265
0.00257933
0.0025944
0.00260785
0.00261972
0.00263004
0.00263889
0.00264632
0.00265243
0.0026573
0.00266102
0.00266367
0.00266536
0.00266616
0.00272337
0.00273462
0.00275015
0.00276893
0.00279003
0.00281265
0.0028361
0.00285978
0.00288322
0.00290603
0.00292789
0.00294857
0.00296791
0.00298577
0.0030021
0.00301686
0.00303005
0.00304169
0.00305182
0.0030605
0.00306781
0.00307381
0.0030786
0.00308226
0.00308487
0.00308653
0.00308732
0.00315011
0.00316105
0.00317617
0.00319445
0.00321501
0.00323706
0.00325993
0.00328305
0.00330594
0.00332823
0.00334961
0.00336985
0.00338878
0.00340629
0.0034223
0.00343678
0.00344973
0.00346115
0.00347111
0.00347965
0.00348683
0.00349274
0.00349745
0.00350106
0.00350363
0.00350527
0.00350604
0.00357141
0.0035821
0.00359688
0.00361475
0.00363485
0.00365642
0.0036788
0.00370144
0.00372387
0.00374572
0.00376669
0.00378656
0.00380515
0.00382234
0.00383807
0.00385231
0.00386504
0.00387628
0.00388607
0.00389448
0.00390155
0.00390737
0.00391202
0.00391557
0.0039181
0.00391972
0.00392048
0.0039864
0.00399688
0.00401137
0.0040289
0.00404862
0.00406979
0.00409176
0.00411399
0.00413603
0.0041575
0.00417811
0.00419765
0.00421593
0.00423285
0.00424833
0.00426234
0.00427487
0.00428595
0.0042956
0.00430387
0.00431084
0.00431658
0.00432116
0.00432466
0.00432716
0.00432875
0.0043295
0.00439474
0.00440504
0.00441928
0.00443651
0.0044559
0.00447672
0.00449833
0.0045202
0.00454189
0.00456302
0.00458331
0.00460254
0.00462055
0.00463721
0.00465246
0.00466626
0.00467861
0.00468952
0.00469903
0.00470719
0.00471406
0.00471971
0.00472422
0.00472767
0.00473014
0.00473171
0.00473245
0.00479633
0.00480646
0.00482048
0.00483744
0.00485653
0.00487703
0.00489831
0.00491985
0.0049412
0.00496202
0.004982
0.00500095
0.00501868
0.0050351
0.00505013
0.00506373
0.0050759
0.00508665
0.00509602
0.00510406
0.00511083
0.0051164
0.00512085
0.00512425
0.00512668
0.00512823
0.00512896
0.00519114
0.00520113
0.00521493
0.00523164
0.00525044
0.00527063
0.0052916
0.00531281
0.00533385
0.00535436
0.00537405
0.00539272
0.00541019
0.00542637
0.00544117
0.00545457
0.00546656
0.00547716
0.00548639
0.00549431
0.00550098
0.00550647
0.00551086
0.00551421
0.0055166
0.00551812
0.00551885
0.00557922
0.00558906
0.00560266
0.00561911
0.00563764
0.00565753
0.00567818
0.00569908
0.00571981
0.00574001
0.00575941
0.0057778
0.00579501
0.00581095
0.00582553
0.00583873
0.00585054
0.00586098
0.00587007
0.00587788
0.00588445
0.00588985
0.00589417
0.00589747
0.00589983
0.00590133
0.00590204
0.00596061
0.00597029
0.00598369
0.0059999
0.00601815
0.00603774
0.00605808
0.00607867
0.00609908
0.00611898
0.00613809
0.0061562
0.00617315
0.00618884
0.0062032
0.0062162
0.00622783
0.00623811
0.00624706
0.00625475
0.00626122
0.00626654
0.00627079
0.00627404
0.00627636
0.00627784
0.00627854
0.00633536
0.0063449
0.00635809
0.00637406
0.00639202
0.00641132
0.00643135
0.00645162
0.00647172
0.00649131
0.00651012
0.00652795
0.00654464
0.00656009
0.00657423
0.00658702
0.00659847
0.00660859
0.0066174
0.00662496
0.00663133
0.00663657
0.00664076
0.00664395
0.00664624
0.00664769
0.00664838
0.00670354
0.00671293
0.00672592
0.00674164
0.00675933
0.00677832
0.00679804
0.00681799
0.00683778
0.00685706
0.00687557
0.00689312
0.00690955
0.00692475
0.00693867
0.00695126
0.00696253
0.00697248
0.00698115
0.0069886
0.00699486
0.00700002
0.00700414
0.00700728
0.00700953
0.00701096
0.00701164
0.00706523
0.00707447
0.00708726
0.00710273
0.00712013
0.00713882
0.00715823
0.00717787
0.00719733
0.00721631
0.00723453
0.00725179
0.00726796
0.00728292
0.00729661
0.007309
0.00732008
0.00732987
0.00733841
0.00734573
0.00735189
0.00735696
0.00736101
0.00736411
0.00736632
0.00736773
0.00736839
0.00742051
0.00742961
0.00744219
0.00745741
0.00747453
0.00749292
0.00751201
0.00753133
0.00755049
0.00756915
0.00758708
0.00760406
0.00761996
0.00763468
0.00764814
0.00766033
0.00767123
0.00768086
0.00768926
0.00769646
0.00770252
0.00770751
0.00771149
0.00771453
0.00771671
0.00771809
0.00771875
0.00776949
0.00777843
0.00779081
0.00780578
0.00782263
0.00784072
0.00785949
0.0078785
0.00789734
0.0079157
0.00793333
0.00795003
0.00796567
0.00798014
0.00799338
0.00800537
0.00801609
0.00802556
0.00803381
0.00804089
0.00804686
0.00805176
0.00805568
0.00805867
0.00806081
0.00806217
0.00806282
0.00811225
0.00812105
0.00813322
0.00814795
0.00816452
0.00818231
0.00820078
0.00821946
0.00823799
0.00825605
0.00827338
0.00828981
0.00830519
0.00831942
0.00833244
0.00834423
0.00835477
0.00836408
0.0083722
0.00837916
0.00838502
0.00838985
0.00839369
0.00839664
0.00839874
0.00840008
0.00840071
0.00844892
0.00845757
0.00846954
0.00848402
0.00850032
0.00851781
0.00853597
0.00855435
0.00857257
0.00859032
0.00860737
0.00862352
0.00863864
0.00865264
0.00866544
0.00867703
0.00868739
0.00869655
0.00870453
0.00871137
0.00871714
0.00872188
0.00872566
0.00872856
0.00873063
0.00873194
0.00873256
0.0087796
0.00878811
0.00879988
0.00881412
0.00883015
0.00884735
0.00886521
0.00888328
0.00890119
0.00891865
0.00893541
0.00895129
0.00896616
0.00897991
0.0089925
0.0090039
0.00901409
0.00902309
0.00903093
0.00903766
0.00904333
0.00904799
0.00905171
0.00905456
0.00905659
0.00905788
0.0090585
0.00910443
0.0091128
0.00912437
0.00913837
0.00915413
0.00917104
0.0091886
0.00920637
0.00922398
0.00924115
0.00925763
0.00927324
0.00928786
0.00930138
0.00931376
0.00932496
0.00933498
0.00934383
0.00935155
0.00935816
0.00936373
0.00936832
0.00937197
0.00937477
0.00937677
0.00937804
0.00937864
0.00942352
0.00943175
0.00944313
0.0094569
0.00947239
0.00948902
0.00950628
0.00952376
0.00954107
0.00955795
0.00957415
0.00958951
0.00960388
0.00961718
0.00962935
0.00964036
0.00965021
0.00965891
0.00966649
0.009673
0.00967847
0.00968298
0.00968658
0.00968933
0.00969129
0.00969254
0.00969313
0.00973701
0.0097451
0.00975629
0.00976982
0.00978506
0.00980141
0.00981839
0.00983556
0.00985259
0.00986919
0.00988512
0.00990021
0.00991434
0.00992742
0.00993939
0.00995021
0.0099599
0.00996845
0.00997591
0.0099823
0.00998769
0.00999212
0.00999565
0.00999836
0.0100003
0.0100015
0.0100021
0.010045
0.010053
0.010064
0.0100773
0.0100923
0.0101083
0.010125
0.0101419
0.0101587
0.010175
0.0101907
0.0102055
0.0102194
0.0102322
0.010244
0.0102547
0.0102642
0.0102726
0.0102799
0.0102862
0.0102915
0.0102959
0.0102993
0.010302
0.0103039
0.0103051
0.0103057
0.0103477
0.0103555
0.0103663
0.0103794
0.0103941
0.0104099
0.0104264
0.010443
0.0104594
0.0104755
0.0104909
0.0105055
0.0105191
0.0105318
0.0105434
0.0105538
0.0105632
0.0105715
0.0105787
0.0105849
0.0105901
0.0105943
0.0105978
0.0106004
0.0106022
0.0106034
0.010604
0.0106451
0.0106528
0.0106634
0.0106763
0.0106908
0.0107063
0.0107225
0.0107388
0.010755
0.0107708
0.0107859
0.0108003
0.0108137
0.0108262
0.0108375
0.0108478
0.010857
0.0108652
0.0108723
0.0108784
0.0108835
0.0108877
0.010891
0.0108936
0.0108955
0.0108966
0.0108972
0.0109374
0.010945
0.0109555
0.0109681
0.0109824
0.0109977
0.0110135
0.0110296
0.0110455
0.011061
0.0110759
0.0110901
0.0111033
0.0111155
0.0111267
0.0111368
0.0111459
0.0111539
0.0111609
0.0111668
0.0111719
0.011176
0.0111793
0.0111818
0.0111837
0.0111848
0.0111853
0.0112248
0.0112322
0.0112425
0.011255
0.011269
0.011284
0.0112996
0.0113154
0.0113311
0.0113464
0.011361
0.0113749
0.0113879
0.0113999
0.011411
0.0114209
0.0114298
0.0114377
0.0114445
0.0114504
0.0114554
0.0114595
0.0114627
0.0114652
0.011467
0.0114681
0.0114686
0.0115073
0.0115146
0.0115247
0.011537
0.0115508
0.0115656
0.0115809
0.0115965
0.0116119
0.0116269
0.0116413
0.011655
0.0116677
0.0116796
0.0116904
0.0117002
0.011709
0.0117167
0.0117235
0.0117292
0.0117341
0.0117381
0.0117413
0.0117438
0.0117455
0.0117466
0.0117472
0.011785
0.0117922
0.0118022
0.0118142
0.0118278
0.0118424
0.0118575
0.0118728
0.0118879
0.0119027
0.0119169
0.0119303
0.0119429
0.0119545
0.0119652
0.0119748
0.0119834
0.0119911
0.0119977
0.0120034
0.0120082
0.0120121
0.0120153
0.0120177
0.0120194
0.0120205
0.012021
0.0120581
0.0120652
0.012075
0.0120869
0.0121002
0.0121145
0.0121294
0.0121445
0.0121594
0.0121739
0.0121879
0.0122011
0.0122135
0.0122249
0.0122354
0.0122449
0.0122534
0.0122609
0.0122674
0.012273
0.0122777
0.0122816
0.0122847
0.012287
0.0122887
0.0122898
0.0122903
0.0123267
0.0123337
0.0123433
0.012355
0.0123681
0.0123822
0.0123968
0.0124117
0.0124263
0.0124406
0.0124544
0.0124674
0.0124795
0.0124908
0.0125011
0.0125105
0.0125188
0.0125262
0.0125326
0.0125381
0.0125427
0.0125466
0.0125496
0.0125519
0.0125536
0.0125547
0.0125552
0.0125909
0.0125977
0.0126072
0.0126187
0.0126316
0.0126455
0.0126599
0.0126744
0.0126889
0.0127029
0.0127165
0.0127293
0.0127412
0.0127523
0.0127625
0.0127717
0.0127799
0.0127871
0.0127934
0.0127989
0.0128034
0.0128072
0.0128102
0.0128125
0.0128141
0.0128152
0.0128156
0.0128506
0.0128574
0.0128667
0.012878
0.0128907
0.0129044
0.0129186
0.0129329
0.0129471
0.0129609
0.0129742
0.0129868
0.0129986
0.0130095
0.0130195
0.0130285
0.0130366
0.0130438
0.01305
0.0130553
0.0130598
0.0130635
0.0130665
0.0130687
0.0130703
0.0130713
0.0130718
0.0131062
0.0131128
0.013122
0.0131331
0.0131456
0.013159
0.013173
0.0131871
0.0132011
0.0132147
0.0132278
0.0132402
0.0132518
0.0132625
0.0132723
0.0132812
0.0132892
0.0132962
0.0133023
0.0133075
0.013312
0.0133156
0.0133185
0.0133207
0.0133223
0.0133233
0.0133238
0.0133574
0.013364
0.013373
0.0133839
0.0133963
0.0134095
0.0134232
0.0134371
0.0134508
0.0134642
0.0134771
0.0134893
0.0135007
0.0135113
0.0135209
0.0135297
0.0135375
0.0135444
0.0135504
0.0135556
0.0135599
0.0135635
0.0135664
0.0135685
0.0135701
0.0135711
0.0135716
0.0136045
0.013611
0.0136199
0.0136306
0.0136427
0.0136557
0.0136692
0.0136829
0.0136964
0.0137096
0.0137222
0.0137342
0.0137454
0.0137558
0.0137653
0.0137739
0.0137816
0.0137884
0.0137944
0.0137994
0.0138037
0.0138072
0.01381
0.0138122
0.0138137
0.0138147
0.0138152
0.0138475
0.0138538
0.0138625
0.0138731
0.013885
0.0138978
0.013911
0.0139245
0.0139378
0.0139507
0.0139632
0.013975
0.013986
0.0139962
0.0140056
0.014014
0.0140216
0.0140283
0.0140341
0.0140391
0.0140433
0.0140468
0.0140495
0.0140516
0.0140532
0.0140541
0.0140546
0.0140862
0.0140924
0.014101
0.0141114
0.0141231
0.0141356
0.0141487
0.0141619
0.014175
0.0141877
0.0141999
0.0142115
0.0142224
0.0142324
0.0142416
0.0142499
0.0142573
0.0142639
0.0142696
0.0142745
0.0142787
0.0142821
0.0142848
0.0142869
0.0142883
0.0142893
0.0142897
0.0143206
0.0143267
0.0143352
0.0143454
0.0143569
0.0143692
0.014382
0.014395
0.0144078
0.0144203
0.0144323
0.0144437
0.0144544
0.0144642
0.0144733
0.0144814
0.0144887
0.0144952
0.0145008
0.0145056
0.0145097
0.014513
0.0145157
0.0145177
0.0145192
0.0145201
0.0145205
0.0145507
0.0145567
0.0145649
0.014575
0.0145862
0.0145983
0.0146109
0.0146236
0.0146362
0.0146485
0.0146603
0.0146714
0.0146819
0.0146916
0.0147004
0.0147084
0.0147156
0.0147219
0.0147274
0.0147321
0.0147361
0.0147394
0.014742
0.014744
0.0147454
0.0147463
0.0147468
0.0147761
0.014782
0.0147901
0.0147999
0.0148109
0.0148228
0.0148351
0.0148476
0.0148599
0.0148719
0.0148835
0.0148944
0.0149046
0.0149141
0.0149228
0.0149306
0.0149376
0.0149438
0.0149492
0.0149539
0.0149578
0.014961
0.0149635
0.0149655
0.0149669
0.0149678
0.0149682
0.0149966
0.0150023
0.0150103
0.0150199
0.0150307
0.0150423
0.0150543
0.0150665
0.0150785
0.0150903
0.0151016
0.0151123
0.0151223
0.0151315
0.01514
0.0151476
0.0151545
0.0151606
0.0151658
0.0151703
0.0151742
0.0151773
0.0151798
0.0151817
0.0151831
0.0151839
0.0151843
0.0152117
0.0152173
0.0152251
0.0152344
0.0152449
0.0152563
0.015268
0.0152799
0.0152916
0.0153031
0.0153141
0.0153245
0.0153342
0.0153432
0.0153515
0.015359
0.0153656
0.0153715
0.0153767
0.0153811
0.0153848
0.0153878
0.0153903
0.0153921
0.0153935
0.0153943
0.0153947
0.0154209
0.0154264
0.0154339
0.015443
0.0154532
0.0154642
0.0154756
0.0154871
0.0154985
0.0155096
0.0155203
0.0155304
0.0155399
0.0155486
0.0155566
0.0155639
0.0155703
0.0155761
0.015581
0.0155853
0.0155889
0.0155919
0.0155942
0.015596
0.0155973
0.0155981
0.0155985
0.0156234
0.0156287
0.0156359
0.0156447
0.0156546
0.0156652
0.0156762
0.0156874
0.0156984
0.0157091
0.0157194
0.0157292
0.0157383
0.0157468
0.0157545
0.0157615
0.0157677
0.0157732
0.0157781
0.0157822
0.0157856
0.0157885
0.0157908
0.0157925
0.0157938
0.0157945
0.0157949
0.0158182
0.0158233
0.0158303
0.0158387
0.0158482
0.0158584
0.015869
0.0158796
0.0158902
0.0159005
0.0159104
0.0159198
0.0159285
0.0159366
0.015944
0.0159507
0.0159567
0.015962
0.0159666
0.0159705
0.0159738
0.0159766
0.0159787
0.0159804
0.0159816
0.0159824
0.0159827
0.0160043
0.0160091
0.0160157
0.0160238
0.0160328
0.0160425
0.0160526
0.0160627
0.0160728
0.0160826
0.016092
0.0161009
0.0161092
0.0161169
0.0161239
0.0161302
0.0161359
0.0161409
0.0161453
0.016149
0.0161522
0.0161548
0.0161569
0.0161584
0.0161596
0.0161603
0.0161606
0.0161802
0.0161847
0.016191
0.0161986
0.0162071
0.0162162
0.0162257
0.0162352
0.0162447
0.0162539
0.0162627
0.0162711
0.0162789
0.0162861
0.0162927
0.0162987
0.016304
0.0163087
0.0163128
0.0163163
0.0163192
0.0163217
0.0163236
0.0163251
0.0163261
0.0163268
0.0163271
0.0163445
0.0163487
0.0163545
0.0163616
0.0163695
0.016378
0.0163867
0.0163956
0.0164044
0.0164129
0.0164211
0.0164289
0.0164361
0.0164428
0.0164489
0.0164544
0.0164593
0.0164637
0.0164674
0.0164707
0.0164734
0.0164757
0.0164774
0.0164788
0.0164798
0.0164804
0.0164807
0.0164957
0.0164995
0.0165049
0.0165113
0.0165185
0.0165263
0.0165343
0.0165424
0.0165504
0.0165582
0.0165657
0.0165727
0.0165793
0.0165854
0.0165909
0.0165959
0.0166004
0.0166043
0.0166078
0.0166107
0.0166132
0.0166152
0.0166169
0.0166181
0.016619
0.0166195
0.0166198
0.0166323
0.0166358
0.0166406
0.0166463
0.0166528
0.0166598
0.0166669
0.0166742
0.0166813
0.0166883
0.016695
0.0167012
0.0167071
0.0167125
0.0167175
0.0167219
0.0167259
0.0167294
0.0167325
0.0167351
0.0167373
0.0167391
0.0167405
0.0167416
0.0167424
0.0167429
0.0167431
0.0167532
0.0167562
0.0167604
0.0167655
0.0167712
0.0167772
0.0167835
0.0167898
0.0167961
0.0168022
0.016808
0.0168134
0.0168185
0.0168232
0.0168275
0.0168314
0.0168349
0.0168379
0.0168405
0.0168428
0.0168447
0.0168463
0.0168475
0.0168485
0.0168491
0.0168496
0.0168498
0.0168575
0.0168601
0.0168637
0.016868
0.0168728
0.016878
0.0168833
0.0168887
0.016894
0.0168992
0.0169041
0.0169087
0.016913
0.016917
0.0169206
0.0169239
0.0169268
0.0169293
0.0169316
0.0169335
0.0169351
0.0169364
0.0169374
0.0169382
0.0169388
0.0169392
0.0169393
0.016945
0.0169471
0.0169501
0.0169537
0.0169577
0.0169619
0.0169663
0.0169707
0.0169751
0.0169793
0.0169833
0.0169871
0.0169906
0.0169939
0.0169968
0.0169995
0.0170019
0.017004
0.0170058
0.0170073
0.0170086
0.0170097
0.0170105
0.0170112
0.0170116
0.0170119
0.0170121
0.017016
0.0170177
0.0170201
0.0170229
0.0170261
0.0170295
0.017033
0.0170365
0.0170399
0.0170432
0.0170464
0.0170494
0.0170522
0.0170547
0.017057
0.0170591
0.017061
0.0170626
0.017064
0.0170652
0.0170662
0.0170671
0.0170677
0.0170682
0.0170686
0.0170688
0.0170689
0.0170716
0.0170729
0.0170747
0.0170769
0.0170793
0.0170819
0.0170845
0.0170872
0.0170898
0.0170923
0.0170947
0.0170969
0.017099
0.0171009
0.0171027
0.0171042
0.0171056
0.0171068
0.0171079
0.0171088
0.0171095
0.0171102
0.0171106
0.017111
0.0171113
0.0171115
0.0171115
0.0171134
0.0171143
0.0171156
0.0171172
0.017119
0.0171208
0.0171227
0.0171246
0.0171265
0.0171283
0.01713
0.0171316
0.0171331
0.0171345
0.0171357
0.0171368
0.0171378
0.0171387
0.0171394
0.01714
0.0171406
0.017141
0.0171414
0.0171416
0.0171418
0.0171419
0.017142
0.0171433
0.017144
0.0171449
0.017146
0.0171471
0.0171484
0.0171497
0.017151
0.0171523
0.0171535
0.0171546
0.0171557
0.0171567
0.0171576
0.0171584
0.0171592
0.0171598
0.0171604
0.0171609
0.0171613
0.0171617
0.017162
0.0171622
0.0171624
0.0171625
0.0171626
0.0171626
0.0171637
0.0171641
0.0171647
0.0171654
0.0171661
0.0171669
0.0171678
0.0171686
0.0171694
0.0171701
0.0171708
0.0171715
0.0171721
0.0171727
0.0171732
0.0171737
0.0171741
0.0171744
0.0171747
0.017175
0.0171752
0.0171754
0.0171755
0.0171756
0.0171757
0.0171757
0.0171758
0.0171768
0.017177
0.0171774
0.0171778
0.0171782
0.0171786
0.0171791
0.0171796
0.01718
0.0171805
0.0171809
0.0171813
0.0171816
0.0171819
0.0171822
0.0171825
0.0171827
0.0171829
0.0171831
0.0171832
0.0171833
0.0171834
0.0171835
0.0171836
0.0171836
0.0171836
0.0171836
0.0171846
0.0171847
0.0171849
0.0171851
0.0171853
0.0171856
0.0171858
0.017186
0.0171863
0.0171865
0.0171867
0.0171869
0.017187
0.0171872
0.0171873
0.0171875
0.0171876
0.0171877
0.0171878
0.0171878
0.0171879
0.0171879
0.017188
0.017188
0.017188
0.017188
0.0171881
0.017189
0.017189
0.0171891
0.0171892
0.0171893
0.0171893
0.0171894
0.0171895
0.0171896
0.0171897
0.0171898
0.0171899
0.01719
0.01719
0.0171901
0.0171901
0.0171902
0.0171902
0.0171902
0.0171903
0.0171903
0.0171903
0.0171903
0.0171904
0.0171904
0.0171904
0.0171904
0.0171912
0.0171912
0.0171912
0.0171912
0.0171912
0.0171912
0.0171913
0.0171913
0.0171913
0.0171913
0.0171914
0.0171914
0.0171914
0.0171914
0.0171914
0.0171914
0.0171915
0.0171915
0.0171915
0.0171915
0.0171915
0.0171915
0.0171915
0.0171915
0.0171915
0.0171915
0.0171915
0.0171921
0.0171921
0.0171921
0.0171921
0.0171921
0.0171921
0.0171921
0.0171921
0.0171921
0.0171921
0.0171921
0.0171921
0.0171921
0.0171921
0.0171921
0.0171921
0.0171921
0.0171921
0.0171921
0.0171921
0.0171921
0.0171921
0.0171921
0.0171921
0.0171921
0.0171921
0.0171921
0.0171925
0.0171925
0.0171925
0.0171925
0.0171925
0.0171925
0.0171924
0.0171924
0.0171924
0.0171924
0.0171924
0.0171924
0.0171924
0.0171924
0.0171923
0.0171923
0.0171923
0.0171923
0.0171923
0.0171923