/*--------------------------------*- C++ -*----------------------------------*\
| =========                 |                                                 |
| \\      /  F ield         | OpenFOAM: The Open Source CFD Toolbox           |
|  \\    /   O peration     | Version:  2106                                  |
|   \\  /    A nd           | Website:  www.openfoam.com                      |
|    \\/     M anipulation  |                                                 |
\*---------------------------------------------------------------------------*/
FoamFile
{
    version     2.0;
    format      ascii;
    arch        "LSB;label=32;scalar=64";
    class       volScalarField;
    location    "219.99956";
    object      CH2CO;
}
// * * * * * * * * * * * * * * * * * * * * * * * * * * * * * * * * * * * * * //

dimensions      [0 0 0 0 0 0 0];

internalField   nonuniform List<scalar> 
3360
(
1.27467e-16
1.31568e-16
1.37276e-16
1.44257e-16
1.52222e-16
1.60908e-16
1.70079e-16
1.79524e-16
1.89051e-16
1.98494e-16
2.07708e-16
2.16568e-16
2.24974e-16
2.32845e-16
2.40118e-16
2.46751e-16
2.52717e-16
2.58005e-16
2.62617e-16
2.66566e-16
2.69877e-16
2.72582e-16
2.74718e-16
2.76329e-16
2.77462e-16
2.78167e-16
2.78495e-16
5.59172e-16
5.79724e-16
6.08725e-16
6.4484e-16
6.86963e-16
7.34129e-16
7.85476e-16
8.40216e-16
8.97614e-16
9.56976e-16
1.01764e-15
1.07895e-15
1.14027e-15
1.20098e-15
1.26045e-15
1.31807e-15
1.37324e-15
1.42539e-15
1.47396e-15
1.51843e-15
1.55832e-15
1.59322e-15
1.62275e-15
1.64663e-15
1.66466e-15
1.67669e-15
1.6827e-15
1.75444e-15
1.83143e-15
1.94084e-15
2.07832e-15
2.24027e-15
2.42345e-15
2.62479e-15
2.84124e-15
3.06975e-15
3.30717e-15
3.55031e-15
3.79598e-15
4.04104e-15
4.28237e-15
4.51697e-15
4.74198e-15
4.95476e-15
5.15293e-15
5.33445e-15
5.49761e-15
5.64108e-15
5.76394e-15
5.86564e-15
5.94603e-15
6.0053e-15
6.04394e-15
6.06276e-15
5.10934e-15
5.36312e-15
5.72615e-15
6.18545e-15
6.73016e-15
7.35012e-15
8.03515e-15
8.77473e-15
9.55779e-15
1.03727e-14
1.12075e-14
1.205e-14
1.28879e-14
1.37096e-14
1.45038e-14
1.52602e-14
1.59696e-14
1.66244e-14
1.72183e-14
1.77467e-14
1.82064e-14
1.85958e-14
1.89148e-14
1.91643e-14
1.93463e-14
1.94639e-14
1.95206e-14
1.49272e-14
1.57277e-14
1.68751e-14
1.83301e-14
2.00595e-14
2.20313e-14
2.42127e-14
2.65688e-14
2.90625e-14
3.16547e-14
3.43049e-14
3.69723e-14
3.96169e-14
4.22004e-14
4.46875e-14
4.70465e-14
4.925e-14
5.12754e-14
5.31052e-14
5.47269e-14
5.6133e-14
5.73202e-14
5.82895e-14
5.90456e-14
5.95959e-14
5.99504e-14
6.01211e-14
4.40138e-14
4.64723e-14
5.00003e-14
5.44782e-14
5.98034e-14
6.58767e-14
7.25954e-14
7.98503e-14
8.75244e-14
9.5495e-14
1.03635e-13
1.11818e-13
1.19918e-13
1.27819e-13
1.35412e-13
1.426e-13
1.49302e-13
1.55452e-13
1.60997e-13
1.65904e-13
1.7015e-13
1.73731e-13
1.76649e-13
1.78923e-13
1.80575e-13
1.81639e-13
1.8215e-13
1.30742e-13
1.38212e-13
1.48932e-13
1.62538e-13
1.78718e-13
1.97167e-13
2.17569e-13
2.39585e-13
2.62858e-13
2.87009e-13
3.11653e-13
3.364e-13
3.60876e-13
3.84725e-13
4.07623e-13
4.29283e-13
4.49461e-13
4.67962e-13
4.84635e-13
4.99378e-13
5.12133e-13
5.22881e-13
5.3164e-13
5.38461e-13
5.43418e-13
5.46607e-13
5.4814e-13
3.8967e-13
4.12148e-13
4.44421e-13
4.85399e-13
5.34141e-13
5.89727e-13
6.51198e-13
7.17532e-13
7.8764e-13
8.60378e-13
9.34575e-13
1.00906e-12
1.0827e-12
1.15443e-12
1.22326e-12
1.28835e-12
1.34896e-12
1.4045e-12
1.45454e-12
1.49876e-12
1.537e-12
1.56921e-12
1.59546e-12
1.61588e-12
1.63072e-12
1.64026e-12
1.64485e-12
1.16449e-12
1.23205e-12
1.32902e-12
1.45214e-12
1.59857e-12
1.76553e-12
1.95013e-12
2.14928e-12
2.35969e-12
2.57792e-12
2.80046e-12
3.02378e-12
3.2445e-12
3.45941e-12
3.6656e-12
3.86051e-12
4.04197e-12
4.20824e-12
4.35799e-12
4.49034e-12
4.60477e-12
4.70116e-12
4.77968e-12
4.8408e-12
4.8852e-12
4.91375e-12
4.92748e-12
3.48033e-12
3.6827e-12
3.97324e-12
4.34214e-12
4.78089e-12
5.28115e-12
5.83424e-12
6.43088e-12
7.0612e-12
7.71488e-12
8.38134e-12
9.05007e-12
9.71087e-12
1.03542e-11
1.09712e-11
1.15544e-11
1.20972e-11
1.25945e-11
1.30422e-11
1.34379e-11
1.37799e-11
1.40679e-11
1.43024e-11
1.4485e-11
1.46176e-11
1.47028e-11
1.47438e-11
1.04075e-11
1.10135e-11
1.18833e-11
1.29874e-11
1.43004e-11
1.57971e-11
1.74514e-11
1.92355e-11
2.11198e-11
2.30732e-11
2.50643e-11
2.70616e-11
2.90346e-11
3.09547e-11
3.27961e-11
3.4536e-11
3.61551e-11
3.76379e-11
3.8973e-11
4.01524e-11
4.11719e-11
4.20303e-11
4.27293e-11
4.32733e-11
4.36684e-11
4.39224e-11
4.40445e-11
3.10957e-11
3.29055e-11
3.55032e-11
3.88005e-11
4.27205e-11
4.71882e-11
5.21251e-11
5.74477e-11
6.30675e-11
6.88919e-11
7.48264e-11
8.07772e-11
8.66536e-11
9.23707e-11
9.78514e-11
1.03028e-10
1.07844e-10
1.12253e-10
1.16221e-10
1.19726e-10
1.22754e-10
1.25303e-10
1.27378e-10
1.28993e-10
1.30165e-10
1.30919e-10
1.31281e-10
9.282e-11
9.8217e-11
1.05961e-10
1.15786e-10
1.27461e-10
1.4076e-10
1.55448e-10
1.71275e-10
1.87974e-10
2.05271e-10
2.22883e-10
2.40533e-10
2.57952e-10
2.74889e-10
2.91116e-10
3.06435e-10
3.20678e-10
3.33713e-10
3.45439e-10
3.55791e-10
3.64733e-10
3.72257e-10
3.78382e-10
3.83145e-10
3.86603e-10
3.88825e-10
3.89893e-10
2.76328e-10
2.92352e-10
3.15336e-10
3.44484e-10
3.79102e-10
4.18508e-10
4.61997e-10
5.0882e-10
5.58184e-10
6.0927e-10
6.61243e-10
7.1328e-10
7.64591e-10
8.14436e-10
8.62153e-10
9.07161e-10
9.48975e-10
9.87212e-10
1.02159e-09
1.05191e-09
1.07809e-09
1.1001e-09
1.11801e-09
1.13193e-09
1.14203e-09
1.14852e-09
1.15164e-09
8.19877e-10
8.67207e-10
9.35048e-10
1.02101e-09
1.123e-09
1.23897e-09
1.36681e-09
1.50426e-09
1.64898e-09
1.79854e-09
1.95048e-09
2.10241e-09
2.252e-09
2.39713e-09
2.53588e-09
2.66659e-09
2.78789e-09
2.89869e-09
2.9982e-09
3.0859e-09
3.16154e-09
3.2251e-09
3.27677e-09
3.31692e-09
3.34603e-09
3.36472e-09
3.37369e-09
2.41889e-09
2.55737e-09
2.7557e-09
3.00672e-09
3.30415e-09
3.64184e-09
4.01343e-09
4.41229e-09
4.83147e-09
5.26384e-09
5.70229e-09
6.13983e-09
6.56986e-09
6.9863e-09
7.38373e-09
7.75749e-09
8.10377e-09
8.41958e-09
8.70278e-09
8.95204e-09
9.16675e-09
9.34697e-09
9.49331e-09
9.60688e-09
9.68917e-09
9.74197e-09
9.76729e-09
7.08299e-09
7.48301e-09
8.05515e-09
8.7781e-09
9.63302e-09
1.06015e-08
1.16648e-08
1.28031e-08
1.39964e-08
1.5224e-08
1.64654e-08
1.77011e-08
1.89124e-08
2.00825e-08
2.11964e-08
2.22416e-08
2.32078e-08
2.40872e-08
2.48743e-08
2.55658e-08
2.61604e-08
2.66588e-08
2.70629e-08
2.73762e-08
2.76029e-08
2.77482e-08
2.78179e-08
2.05263e-08
2.16605e-08
2.328e-08
2.53218e-08
2.77298e-08
3.04496e-08
3.34259e-08
3.66016e-08
3.99189e-08
4.33195e-08
4.67467e-08
5.0146e-08
5.34671e-08
5.66647e-08
5.96995e-08
6.25387e-08
6.51559e-08
6.75317e-08
6.9653e-08
7.15125e-08
7.31084e-08
7.44433e-08
7.55239e-08
7.63602e-08
7.69647e-08
7.73517e-08
7.7537e-08
5.86678e-08
6.18044e-08
6.62725e-08
7.18885e-08
7.84887e-08
8.59143e-08
9.4006e-08
1.02603e-07
1.11543e-07
1.20667e-07
1.29821e-07
1.38863e-07
1.47659e-07
1.56096e-07
1.64072e-07
1.71508e-07
1.7834e-07
1.84523e-07
1.90028e-07
1.9484e-07
1.98961e-07
2.024e-07
2.05179e-07
2.07326e-07
2.08875e-07
2.09866e-07
2.10339e-07
1.6463e-07
1.73021e-07
1.8494e-07
1.99866e-07
2.17331e-07
2.36886e-07
2.58088e-07
2.80494e-07
3.03672e-07
3.27203e-07
3.50691e-07
3.73774e-07
3.96125e-07
4.17464e-07
4.37553e-07
4.56207e-07
4.73282e-07
4.88681e-07
5.02349e-07
5.14264e-07
5.24439e-07
5.32912e-07
5.39743e-07
5.4501e-07
5.48805e-07
5.51228e-07
5.52384e-07
4.51116e-07
4.72657e-07
5.03149e-07
5.41168e-07
5.85432e-07
6.34722e-07
6.87851e-07
7.4367e-07
8.0107e-07
8.59007e-07
9.16516e-07
9.72727e-07
1.02688e-06
1.07833e-06
1.12655e-06
1.17114e-06
1.2118e-06
1.24833e-06
1.28066e-06
1.30876e-06
1.33269e-06
1.35257e-06
1.36856e-06
1.38087e-06
1.38973e-06
1.39537e-06
1.39806e-06
1.19944e-06
1.25208e-06
1.32634e-06
1.41849e-06
1.52521e-06
1.64336e-06
1.76995e-06
1.90213e-06
2.03724e-06
2.1728e-06
2.30661e-06
2.43668e-06
2.56137e-06
2.67926e-06
2.78928e-06
2.89059e-06
2.98263e-06
3.06506e-06
3.13776e-06
3.20078e-06
3.25432e-06
3.29869e-06
3.33432e-06
3.3617e-06
3.38135e-06
3.39386e-06
3.39982e-06
3.07455e-06
3.19642e-06
3.36771e-06
3.57932e-06
3.82311e-06
4.09149e-06
4.37739e-06
4.67418e-06
4.97582e-06
5.27682e-06
5.57234e-06
5.85822e-06
6.13095e-06
6.38774e-06
6.6264e-06
6.84538e-06
7.04365e-06
7.22069e-06
7.3764e-06
7.51103e-06
7.62515e-06
7.71955e-06
7.79521e-06
7.85324e-06
7.89485e-06
7.92131e-06
7.9339e-06
7.55537e-06
7.82224e-06
8.19612e-06
8.65619e-06
9.1838e-06
9.76181e-06
1.03744e-05
1.10073e-05
1.16472e-05
1.22828e-05
1.29041e-05
1.35025e-05
1.40712e-05
1.46047e-05
1.50989e-05
1.55509e-05
1.5959e-05
1.63225e-05
1.66415e-05
1.69167e-05
1.71495e-05
1.73418e-05
1.74957e-05
1.76135e-05
1.7698e-05
1.77516e-05
1.77771e-05
1.77319e-05
1.82865e-05
1.90616e-05
2.00123e-05
2.10987e-05
2.22843e-05
2.3536e-05
2.48238e-05
2.61213e-05
2.74052e-05
2.86558e-05
2.98566e-05
3.09943e-05
3.20585e-05
3.30418e-05
3.3939e-05
3.47474e-05
3.5466e-05
3.60954e-05
3.66375e-05
3.70956e-05
3.74733e-05
3.77752e-05
3.80063e-05
3.81716e-05
3.82765e-05
3.83263e-05
3.96686e-05
4.07705e-05
4.23079e-05
4.41896e-05
4.63346e-05
4.86695e-05
5.1128e-05
5.36508e-05
5.6186e-05
5.86885e-05
6.11203e-05
6.34499e-05
6.56523e-05
6.77086e-05
6.96049e-05
7.13323e-05
7.28862e-05
7.42653e-05
7.54716e-05
7.65094e-05
7.73851e-05
7.81065e-05
7.86826e-05
7.91229e-05
7.94378e-05
7.96374e-05
7.97322e-05
8.44935e-05
8.66058e-05
8.95504e-05
9.31511e-05
9.72512e-05
0.000101709
0.000106398
0.000111206
0.000116031
0.000120791
0.000125412
0.000129836
0.000134015
0.000137914
0.000141508
0.00014478
0.000147721
0.000150331
0.000152611
0.000154572
0.000156226
0.000157588
0.000158674
0.000159504
0.000160097
0.000160473
0.000160651
0.000170855
0.000174787
0.000180271
0.000186982
0.00019463
0.000202955
0.000211724
0.000220727
0.000229781
0.000238728
0.000247431
0.000255781
0.000263686
0.000271079
0.000277907
0.000284138
0.000289751
0.00029474
0.00029911
0.000302874
0.000306054
0.000308676
0.000310771
0.000312374
0.000313521
0.000314248
0.000314593
0.000325786
0.000332848
0.000342715
0.000354819
0.000368658
0.000383777
0.000399771
0.000416272
0.000432955
0.000449537
0.000465772
0.000481452
0.000496403
0.000510489
0.000523601
0.000535661
0.000546617
0.000556439
0.000565116
0.000572657
0.000579082
0.000584426
0.000588733
0.000592056
0.000594452
0.000595984
0.000596717
0.000579011
0.000590832
0.000607381
0.000627736
0.000651086
0.000676703
0.000703928
0.000732169
0.000760897
0.000789639
0.000817978
0.000845553
0.000872054
0.000897224
0.00092085
0.000942766
0.000962846
0.000981002
0.000997181
0.00101136
0.00102355
0.00103377
0.00104208
0.00104855
0.00105325
0.00105628
0.00105774
0.000946122
0.000963454
0.000987696
0.00101748
0.00105159
0.00108896
0.00112859
0.0011696
0.00121122
0.00125273
0.00129354
0.00133312
0.00137103
0.00140689
0.00144043
0.00147141
0.00149967
0.00152511
0.00154768
0.00156735
0.00158417
0.00159819
0.00160952
0.00161828
0.00162462
0.00162869
0.00163064
0.00140433
0.00142503
0.0014538
0.00148887
0.00152866
0.00157176
0.00161691
0.001663
0.00170909
0.00175435
0.00179812
0.00183985
0.00187911
0.0019156
0.00194913
0.00197961
0.00200698
0.00203126
0.0020525
0.00207079
0.00208625
0.00209902
0.00210925
0.0021171
0.00212274
0.00212634
0.00212805
0.0018767
0.00189576
0.00192202
0.0019536
0.00198887
0.00202643
0.00206508
0.00210382
0.00214183
0.00217846
0.00221323
0.00224578
0.00227589
0.00230342
0.00232832
0.0023506
0.0023703
0.00238753
0.0024024
0.00241505
0.00242561
0.00243424
0.00244108
0.00244628
0.00244998
0.00245232
0.00245343
0.002262
0.00227556
0.00229407
0.00231613
0.00234048
0.00236606
0.00239201
0.00241761
0.00244233
0.00246578
0.00248769
0.0025079
0.00252631
0.0025429
0.0025577
0.00257077
0.00258219
0.00259206
0.00260048
0.00260757
0.00261344
0.00261818
0.00262192
0.00262473
0.00262672
0.00262797
0.00262856
0.00251484
0.00252273
0.00253344
0.00254612
0.00255999
0.00257442
0.00258891
0.00260306
0.00261658
0.00262927
0.002641
0.00265171
0.00266137
0.00267
0.00267762
0.0026843
0.00269008
0.00269504
0.00269925
0.00270276
0.00270565
0.00270797
0.00270979
0.00271115
0.00271211
0.00271271
0.00271299
0.0026544
0.00265843
0.00266389
0.00267031
0.00267732
0.00268457
0.0026918
0.00269883
0.00270551
0.00271174
0.00271747
0.00272267
0.00272734
0.00273148
0.00273512
0.0027383
0.00274104
0.00274338
0.00274535
0.00274699
0.00274834
0.00274941
0.00275025
0.00275088
0.00275132
0.00275159
0.00275172
0.00272343
0.00272536
0.00272797
0.00273105
0.00273439
0.00273784
0.00274128
0.00274461
0.00274776
0.0027507
0.00275339
0.00275583
0.00275801
0.00275995
0.00276164
0.00276311
0.00276438
0.00276546
0.00276637
0.00276712
0.00276774
0.00276823
0.00276862
0.0027689
0.0027691
0.00276923
0.00276929
0.00275587
0.00275678
0.00275801
0.00275946
0.00276103
0.00276266
0.00276427
0.00276584
0.00276732
0.00276869
0.00276995
0.00277109
0.00277211
0.00277301
0.0027738
0.00277448
0.00277507
0.00277557
0.00277599
0.00277634
0.00277663
0.00277685
0.00277703
0.00277716
0.00277726
0.00277731
0.00277734
0.00277096
0.0027714
0.00277198
0.00277267
0.00277341
0.00277418
0.00277495
0.00277569
0.00277639
0.00277704
0.00277764
0.00277818
0.00277866
0.00277908
0.00277945
0.00277978
0.00278006
0.00278029
0.00278049
0.00278066
0.00278079
0.0027809
0.00278098
0.00278104
0.00278109
0.00278111
0.00278113
0.00277807
0.00277828
0.00277856
0.00277889
0.00277925
0.00277962
0.00277999
0.00278034
0.00278068
0.00278099
0.00278128
0.00278154
0.00278177
0.00278198
0.00278216
0.00278231
0.00278245
0.00278256
0.00278266
0.00278274
0.0027828
0.00278285
0.00278289
0.00278292
0.00278295
0.00278296
0.00278296
0.00278148
0.00278159
0.00278172
0.00278189
0.00278206
0.00278224
0.00278242
0.0027826
0.00278276
0.00278292
0.00278306
0.00278319
0.0027833
0.0027834
0.00278349
0.00278357
0.00278363
0.00278369
0.00278374
0.00278378
0.00278381
0.00278383
0.00278385
0.00278387
0.00278388
0.00278388
0.00278389
0.00278317
0.00278322
0.00278328
0.00278337
0.00278345
0.00278354
0.00278363
0.00278372
0.0027838
0.00278388
0.00278395
0.00278401
0.00278407
0.00278412
0.00278417
0.00278421
0.00278424
0.00278427
0.00278429
0.00278431
0.00278433
0.00278434
0.00278435
0.00278436
0.00278436
0.00278437
0.00278437
0.00278401
0.00278404
0.00278407
0.00278411
0.00278416
0.0027842
0.00278425
0.00278429
0.00278434
0.00278437
0.00278441
0.00278444
0.00278447
0.0027845
0.00278452
0.00278454
0.00278456
0.00278457
0.00278458
0.00278459
0.0027846
0.00278461
0.00278461
0.00278462
0.00278462
0.00278462
0.00278462
0.00278445
0.00278446
0.00278448
0.0027845
0.00278452
0.00278455
0.00278457
0.00278459
0.00278461
0.00278463
0.00278465
0.00278467
0.00278468
0.0027847
0.00278471
0.00278472
0.00278473
0.00278473
0.00278474
0.00278475
0.00278475
0.00278475
0.00278476
0.00278476
0.00278476
0.00278476
0.00278476
0.00278468
0.00278468
0.00278469
0.0027847
0.00278471
0.00278473
0.00278474
0.00278475
0.00278476
0.00278477
0.00278478
0.00278479
0.0027848
0.0027848
0.00278481
0.00278482
0.00278482
0.00278482
0.00278483
0.00278483
0.00278483
0.00278484
0.00278484
0.00278484
0.00278484
0.00278484
0.00278484
0.0027848
0.0027848
0.0027848
0.00278481
0.00278482
0.00278482
0.00278483
0.00278483
0.00278484
0.00278485
0.00278485
0.00278486
0.00278486
0.00278486
0.00278487
0.00278487
0.00278487
0.00278487
0.00278488
0.00278488
0.00278488
0.00278488
0.00278488
0.00278488
0.00278488
0.00278488
0.00278488
0.00278486
0.00278486
0.00278487
0.00278487
0.00278487
0.00278487
0.00278488
0.00278488
0.00278488
0.00278489
0.00278489
0.00278489
0.00278489
0.0027849
0.0027849
0.0027849
0.0027849
0.0027849
0.0027849
0.0027849
0.00278491
0.00278491
0.00278491
0.00278491
0.00278491
0.00278491
0.00278491
0.0027849
0.0027849
0.0027849
0.0027849
0.0027849
0.0027849
0.00278491
0.00278491
0.00278491
0.00278491
0.00278491
0.00278491
0.00278491
0.00278492
0.00278492
0.00278492
0.00278492
0.00278492
0.00278492
0.00278492
0.00278492
0.00278492
0.00278492
0.00278492
0.00278492
0.00278492
0.00278492
0.00278492
0.00278492
0.00278492
0.00278492
0.00278492
0.00278492
0.00278492
0.00278492
0.00278492
0.00278492
0.00278492
0.00278492
0.00278493
0.00278493
0.00278493
0.00278493
0.00278493
0.00278493
0.00278493
0.00278493
0.00278493
0.00278493
0.00278493
0.00278493
0.00278493
0.00278493
0.00278493
0.00278493
0.00278493
0.00278493
0.00278493
0.00278493
0.00278493
0.00278493
0.00278493
0.00278493
0.00278493
0.00278493
0.00278493
0.00278493
0.00278493
0.00278493
0.00278493
0.00278493
0.00278493
0.00278493
0.00278493
0.00278493
0.00278493
0.00278493
0.00278493
0.00278493
0.00278493
0.00278493
0.00278493
0.00278493
0.00278493
0.00278493
0.00278493
0.00278493
0.00278493
0.00278493
0.00278493
0.00278493
0.00278493
0.00278493
0.00278493
0.00278494
0.00278494
0.00278494
0.00278494
0.00278494
0.00278494
0.00278494
0.00278494
0.00278494
0.00278494
0.00278494
0.00278494
0.00278494
0.00278494
0.00278494
0.00278494
0.00278494
0.00278494
0.00278494
0.00278494
0.00278494
0.00278494
0.00278494
0.00278494
0.00278494
0.00278494
0.00278494
0.00278494
0.00278494
0.00278494
0.00278494
0.00278494
0.00278494
0.00278494
0.00278494
0.00278494
0.00278494
0.00278494
0.00278494
0.00278494
0.00278494
0.00278494
0.00278494
0.00278494
0.00278494
0.00278494
0.00278494
0.00278494
0.00278494
0.00278494
0.00278494
0.00278494
0.00278494
0.00278494
0.00278494
0.00278494
0.00278494
0.00278494
0.00278494
0.00278494
0.00278494
0.00278494
0.00278494
0.00278494
0.00278494
0.00278494
0.00278494
0.00278494
0.00278494
0.00278494
0.00278494
0.00278494
0.00278494
0.00278494
0.00278494
0.00278494
0.00278494
0.00278494
0.00278494
0.00278494
0.00278494
0.00278494
0.00278494
0.00278494
0.00278494
0.00278494
0.00278494
0.00278494
0.00278494
0.00278494
0.00278494
0.00278494
0.00278494
0.00278494
0.00278494
0.00278494
0.00278494
0.00278494
0.00278494
0.00278494
0.00278494
0.00278494
0.00278494
0.00278494
0.00278494
0.00278494
0.00278494
0.00278494
0.00278494
0.00278494
0.00278494
0.00278494
0.00278494
0.00278494
0.00278494
0.00278494
0.00278494
0.00278494
0.00278494
0.00278494
0.00278494
0.00278494
0.00278494
0.00278494
0.00278494
0.00278494
0.00278494
0.00278494
0.00278494
0.00278494
0.00278494
0.00278494
0.00278494
0.00278494
0.00278494
0.00278494
0.00278494
0.00278494
0.00278494
0.00278494
0.00278494
0.00278494
0.00278494
0.00278494
0.00278494
0.00278494
0.00278494
0.00278494
0.00278494
0.00278494
0.00278494
0.00278494
0.00278494
0.00278494
0.00278494
0.00278494
0.00278494
0.00278494
0.00278494
0.00278494
0.00278494
0.00278494
0.00278494
0.00278494
0.00278494
0.00278494
0.00278494
0.00278494
0.00278494
0.00278494
0.00278494
0.00278494
0.00278494
0.00278494
0.00278494
0.00278494
0.00278494
0.00278494
0.00278494
0.00278494
0.00278494
0.00278494
0.00278494
0.00278494
0.00278494
0.00278494
0.00278494
0.00278494
0.00278494
0.00278494
0.00278494
0.00278494
0.00278494
0.00278494
0.00278494
0.00278494
0.00278494
0.00278494
0.00278494
0.00278494
0.00278494
0.00278494
0.00278494
0.00278494
0.00278494
0.00278494
0.00278494
0.00278494
0.00278494
0.00278494
0.00278494
0.00278494
0.00278494
0.00278494
0.00278494
0.00278494
0.00278494
0.00278494
0.00278494
0.00278494
0.00278494
0.00278494
0.00278494
0.00278494
0.00278494
0.00278494
0.00278494
0.00278494
0.00278494
0.00278494
0.00278494
0.00278494
0.00278494
0.00278494
0.00278494
0.00278494
0.00278494
0.00278494
0.00278494
0.00278494
0.00278494
0.00278494
0.00278494
0.00278494
0.00278494
0.00278494
0.00278494
0.00278494
0.00278494
0.00278494
0.00278494
0.00278494
0.00278494
0.00278494
0.00278494
0.00278494
0.00278494
0.00278494
0.00278494
0.00278494
0.00278494
0.00278494
0.00278494
0.00278494
0.00278494
0.00278494
0.00278494
0.00278494
0.00278494
0.00278494
0.00278494
0.00278494
0.00278494
0.00278494
0.00278494
0.00278494
0.00278494
0.00278494
0.00278494
0.00278494
0.00278494
0.00278494
0.00278494
0.00278494
0.00278494
0.00278494
0.00278494
0.00278494
0.00278494
0.00278494
0.00278494
0.00278494
0.00278494
0.00278494
0.00278494
0.00278494
0.00278494
0.00278494
0.00278494
0.00278494
0.00278494
0.00278494
0.00278494
0.00278494
0.00278494
0.00278494
0.00278494
0.00278494
0.00278494
0.00278494
0.00278494
0.00278494
0.00278494
0.00278494
0.00278494
0.00278494
0.00278494
0.00278494
0.00278494
0.00278494
0.00278494
0.00278494
0.00278494
0.00278494
0.00278494
0.00278494
0.00278494
0.00278494
0.00278494
0.00278494
0.00278494
0.00278494
0.00278494
0.00278494
0.00278494
0.00278494
0.00278494
0.00278494
0.00278494
0.00278494
0.00278494
0.00278494
0.00278494
0.00278494
0.00278494
0.00278494
0.00278494
0.00278494
0.00278494
0.00278494
0.00278494
0.00278494
0.00278494
0.00278494
0.00278494
0.00278494
0.00278494
0.00278494
0.00278494
0.00278494
0.00278494
0.00278494
0.00278494
0.00278494
0.00278494
0.00278494
0.00278494
0.00278494
0.00278494
0.00278494
0.00278494
0.00278494
0.00278494
0.00278494
0.00278494
0.00278494
0.00278494
0.00278494
0.00278494
0.00278494
0.00278494
0.00278494
0.00278494
0.00278494
0.00278494
0.00278494
0.00278494
0.00278494
0.00278494
0.00278494
0.00278494
0.00278494
0.00278494
0.00278494
0.00278494
0.00278494
0.00278494
0.00278494
0.00278494
0.00278494
0.00278494
0.00278494
0.00278494
0.00278494
0.00278494
0.00278494
0.00278494
0.00278494
0.00278494
0.00278494
0.00278494
0.00278494
0.00278494
0.00278494
0.00278494
0.00278494
0.00278494
0.00278494
0.00278494
0.00278494
0.00278494
0.00278494
0.00278494
0.00278494
0.00278494
0.00278494
0.00278494
0.00278494
0.00278494
0.00278494
0.00278494
0.00278494
0.00278494
0.00278494
0.00278494
0.00278494
0.00278494
0.00278494
0.00278494
0.00278494
0.00278494
0.00278494
0.00278494
0.00278494
0.00278494
0.00278494
0.00278494
0.00278494
0.00278494
0.00278494
0.00278494
0.00278494
0.00278494
0.00278494
0.00278494
0.00278494
0.00278494
0.00278494
0.00278494
0.00278494
0.00278494
0.00278494
0.00278494
0.00278494
0.00278494
0.00278494
0.00278494
0.00278494
0.00278494
0.00278494
0.00278494
0.00278494
0.00278494
0.00278494
0.00278494
0.00278494
0.00278494
0.00278494
0.00278494
0.00278494
0.00278494
0.00278494
0.00278494
0.00278494
0.00278494
0.00278494
0.00278494
0.00278494
0.00278494
0.00278494
0.00278494
0.00278494
0.00278494
0.00278494
0.00278494
0.00278494
0.00278494
0.00278494
0.00278494
0.00278494
0.00278494
0.00278494
0.00278494
0.00278494
0.00278494
0.00278494
0.00278494
0.00278494
0.00278494
0.00278494
0.00278494
0.00278494
0.00278494
0.00278494
0.00278494
0.00278494
0.00278494
0.00278494
0.00278494
0.00278494
0.00278494
0.00278494
0.00278494
0.00278494
0.00278494
0.00278494
0.00278494
0.00278494
0.00278494
0.00278494
0.00278494
0.00278494
0.00278494
0.00278494
0.00278494
0.00278494
0.00278494
0.00278494
0.00278494
0.00278494
0.00278494
0.00278494
0.00278494
0.00278494
0.00278494
0.00278494
0.00278494
0.00278494
0.00278494
0.00278494
0.00278494
0.00278494
0.00278494
0.00278494
0.00278494
0.00278494
0.00278494
0.00278494
0.00278494
0.00278494
0.00278494
0.00278494
0.00278494
0.00278494
0.00278494
0.00278494
0.00278494
0.00278494
0.00278494
0.00278494
0.00278494
0.00278494
0.00278494
0.00278494
0.00278494
0.00278494
0.00278494
0.00278494
0.00278494
0.00278494
0.00278494
0.00278494
0.00278494
0.00278494
0.00278494
0.00278494
0.00278494
0.00278494
0.00278494
0.00278494
0.00278494
0.00278494
0.00278494
0.00278494
0.00278494
0.00278494
0.00278494
0.00278494
0.00278494
0.00278494
0.00278494
0.00278494
0.00278494
0.00278494
0.00278494
0.00278494
0.00278494
0.00278494
0.00278494
0.00278494
0.00278494
0.00278494
0.00278494
0.00278494
0.00278494
0.00278494
0.00278494
0.00278494
0.00278494
0.00278494
0.00278494
0.00278494
0.00278494
0.00278494
0.00278494
0.00278494
0.00278494
0.00278494
0.00278494
0.00278494
0.00278494
0.00278494
0.00278494
0.00278494
0.00278494
0.00278494
0.00278494
0.00278494
0.00278494
0.00278494
0.00278494
0.00278494
0.00278494
0.00278494
0.00278494
0.00278494
0.00278494
0.00278494
0.00278494
0.00278494
0.00278494
0.00278494
0.00278494
0.00278494
0.00278494
0.00278494
0.00278494
0.00278494
0.00278494
0.00278494
0.00278494
0.00278494
0.00278494
0.00278494
0.00278494
0.00278494
0.00278494
0.00278494
0.00278494
0.00278494
0.00278494
0.00278494
0.00278494
0.00278494
0.00278494
0.00278494
0.00278494
0.00278494
0.00278494
0.00278494
0.00278494
0.00278494
0.00278494
0.00278494
0.00278494
0.00278494
0.00278494
0.00278494
0.00278494
0.00278494
0.00278494
0.00278494
0.00278494
0.00278494
0.00278494
0.00278494
0.00278494
0.00278494
0.00278494
0.00278494
0.00278494
0.00278494
0.00278494
0.00278494
0.00278494
0.00278494
0.00278494
0.00278494
0.00278494
0.00278494
0.00278494
0.00278494
0.00278494
0.00278494
0.00278494
0.00278494
0.00278494
0.00278494
0.00278494
0.00278494
0.00278494
0.00278494
0.00278494
0.00278494
0.00278494
0.00278494
0.00278494
0.00278494
0.00278494
0.00278494
0.00278494
0.00278494
0.00278494
0.00278494
0.00278494
0.00278494
0.00278494
0.00278494
0.00278494
0.00278494
0.00278494
0.00278494
0.00278494
0.00278494
0.00278494
0.00278494
0.00278494
0.00278494
0.00278494
0.00278494
0.00278494
0.00278494
0.00278494
0.00278494
0.00278494
0.00278494
0.00278494
0.00278494
0.00278494
0.00278494
0.00278494
0.00278494
0.00278494
0.00278494
0.00278494
0.00278494
0.00278494
0.00278494
0.00278494
0.00278494
0.00278494
0.00278494
0.00278494
0.00278494
0.00278494
0.00278494
0.00278494
0.00278494
0.00278494
0.00278494
0.00278494
0.00278494
0.00278494
0.00278494
0.00278494
0.00278494
0.00278494
0.00278494
0.00278494
0.00278494
0.00278494
0.00278494
0.00278494
0.00278494
0.00278494
0.00278494
0.00278494
0.00278494
0.00278494
0.00278494
0.00278494
0.00278494
0.00278494
0.00278494
0.00278494
0.00278494
0.00278494
0.00278494
0.00278494
0.00278494
0.00278494
0.00278494
0.00278494
0.00278494
0.00278494
0.00278494
0.00278494
0.00278494
0.00278494
0.00278494
0.00278494
0.00278494
0.00278494
0.00278494
0.00278494
0.00278494
0.00278494
0.00278494
0.00278494
0.00278494
0.00278494
0.00278494
0.00278494
0.00278494
0.00278494
0.00278494
0.00278494
0.00278494
0.00278494
0.00278494
0.00278494
0.00278494
0.00278494
0.00278494
0.00278494
0.00278494
0.00278494
0.00278494
0.00278494
0.00278494
0.00278494
0.00278494
0.00278494
0.00278494
0.00278494
0.00278494
0.00278494
0.00278494
0.00278494
0.00278494
0.00278494
0.00278494
0.00278494
0.00278494
0.00278494
0.00278494
0.00278494
0.00278494
0.00278494
0.00278494
0.00278494
0.00278494
0.00278494
0.00278494
0.00278494
0.00278494
0.00278494
0.00278494
0.00278494
0.00278494
0.00278494
0.00278494
0.00278494
0.00278494
0.00278494
0.00278494
0.00278494
0.00278494
0.00278494
0.00278494
0.00278494
0.00278494
0.00278494
0.00278494
0.00278494
0.00278494
0.00278494
0.00278494
0.00278494
0.00278494
0.00278494
0.00278494
0.00278494
0.00278494
0.00278494
0.00278494
0.00278494
0.00278494
0.00278494
0.00278494
0.00278494
0.00278494
0.00278494
0.00278494
0.00278494
0.00278494
0.00278494
0.00278494
0.00278494
0.00278494
0.00278494
0.00278494
0.00278494
0.00278494
0.00278494
0.00278494
0.00278494
0.00278494
0.00278494
0.00278494
0.00278494
0.00278494
0.00278494
0.00278494
0.00278494
0.00278494
0.00278494
0.00278494
0.00278494
0.00278494
0.00278494
0.00278494
0.00278494
0.00278494
0.00278494
0.00278494
0.00278494
0.00278494
0.00278494
0.00278494
0.00278494
0.00278494
0.00278494
0.00278494
0.00278494
0.00278494
0.00278494
0.00278494
0.00278494
0.00278494
0.00278494
0.00278494
0.00278494
0.00278494
0.00278494
0.00278494
0.00278494
0.00278495
0.00278495
0.00278495
0.00278495
0.00278495
0.00278495
0.00278495
0.00278495
0.00278495
0.00278495
0.00278495
0.00278495
0.00278495
0.00278495
0.00278495
0.00278495
0.00278495
0.00278495
0.00278495
0.00278495
0.00278495
0.00278495
0.00278495
0.00278495
0.00278495
0.00278495
0.00278495
0.00278495
0.00278495
0.00278495
0.00278495
0.00278495
0.00278495
0.00278495
0.00278495
0.00278495
0.00278495
0.00278495
0.00278495
0.00278495
0.00278495
0.00278495
0.00278495
0.00278495
0.00278495
0.00278495
0.00278495
0.00278495
0.00278495
0.00278495
0.00278495
0.00278495
0.00278495
0.00278495
0.00278495
0.00278495
0.00278495
0.00278495
0.00278495
0.00278495
0.00278495
0.00278495
0.00278495
0.00278495
0.00278495
0.00278495
0.00278495
0.00278495
0.00278495
0.00278495
0.00278495
0.00278495
0.00278495
0.00278495
0.00278495
0.00278495
0.00278495
0.00278495
0.00278495
0.00278495
0.00278495
0.00278495
0.00278495
0.00278495
0.00278495
0.00278495
0.00278495
0.00278495
0.00278495
0.00278495
0.00278495
0.00278495
0.00278495
0.00278495
0.00278495
0.00278495
0.00278495
0.00278495
0.00278495
0.00278495
0.00278495
0.00278495
0.00278495
0.00278495
0.00278495
0.00278495
0.00278495
0.00278495
0.00278495
0.00278495
0.00278495
0.00278495
0.00278495
0.00278495
0.00278495
0.00278495
0.00278495
0.00278495
0.00278495
0.00278495
0.00278495
0.00278495
0.00278495
0.00278495
0.00278495
0.00278495
0.00278495
0.00278495
0.00278495
0.00278495
0.00278495
0.00278495
0.00278495
0.00278495
0.00278495
0.00278495
0.00278495
0.00278495
0.00278495
0.00278495
0.00278495
0.00278495
0.00278495
0.00278495
0.00278495
0.00278495
0.00278495
0.00278495
0.00278495
0.00278495
0.00278495
0.00278495
0.00278495
0.00278495
0.00278495
0.00278495
0.00278495
0.00278495
0.00278495
0.00278495
0.00278495
0.00278495
0.00278496
0.00278496
0.00278496
0.00278496
0.00278496
0.00278496
0.00278496
0.00278496
0.00278496
0.00278496
0.00278496
0.00278496
0.00278496
0.00278496
0.00278496
0.00278496
0.00278496
0.00278496
0.00278496
0.00278496
0.00278496
0.00278496
0.00278496
0.00278496
0.00278496
0.00278496
0.00278496
0.00278496
0.00278496
0.00278496
0.00278496
0.00278496
0.00278496
0.00278496
0.00278496
0.00278496
0.00278496
0.00278496
0.00278496
0.00278496
0.00278496
0.00278496
0.00278496
0.00278496
0.00278496
0.00278496
0.00278496
0.00278496
0.00278496
0.00278496
0.00278496
0.00278496
0.00278496
0.00278496
0.00278496
0.00278496
0.00278496
0.00278496
0.00278496
0.00278496
0.00278496
0.00278496
0.00278496
0.00278496
0.00278496
0.00278496
0.00278496
0.00278496
0.00278496
0.00278496
0.00278496
0.00278496
0.00278496
0.00278496
0.00278496
0.00278496
0.00278496
0.00278496
0.00278496
0.00278496
0.00278496
0.00278496
0.00278496
0.00278496
0.00278496
0.00278496
0.00278496
0.00278496
0.00278497
0.00278497
0.00278497
0.00278497
0.00278497