/*--------------------------------*- C++ -*----------------------------------*\
| =========                 |                                                 |
| \\      /  F ield         | OpenFOAM: The Open Source CFD Toolbox           |
|  \\    /   O peration     | Version:  2106                                  |
|   \\  /    A nd           | Website:  www.openfoam.com                      |
|    \\/     M anipulation  |                                                 |
\*---------------------------------------------------------------------------*/
FoamFile
{
    version     2.0;
    format      ascii;
    arch        "LSB;label=32;scalar=64";
    class       volScalarField;
    location    "219.99956";
    object      CO_0;
}
// * * * * * * * * * * * * * * * * * * * * * * * * * * * * * * * * * * * * * //

dimensions      [0 0 0 0 0 0 0];

internalField   nonuniform List<scalar> 
3360
(
8.56087e-17
8.83633e-17
9.21967e-17
9.68855e-17
1.02235e-16
1.08068e-16
1.14228e-16
1.20571e-16
1.2697e-16
1.33312e-16
1.395e-16
1.45451e-16
1.51097e-16
1.56382e-16
1.61267e-16
1.65722e-16
1.69729e-16
1.7328e-16
1.76378e-16
1.7903e-16
1.81254e-16
1.8307e-16
1.84505e-16
1.85587e-16
1.86348e-16
1.86822e-16
1.87042e-16
3.7555e-16
3.89353e-16
4.0883e-16
4.33085e-16
4.61376e-16
4.93054e-16
5.27539e-16
5.64303e-16
6.02853e-16
6.42721e-16
6.83462e-16
7.24641e-16
7.65828e-16
8.06599e-16
8.46539e-16
8.85238e-16
9.22294e-16
9.57318e-16
9.89939e-16
1.0198e-15
1.0466e-15
1.07003e-15
1.08986e-15
1.10591e-15
1.11801e-15
1.1261e-15
1.13013e-15
1.17831e-15
1.23002e-15
1.3035e-15
1.39583e-15
1.5046e-15
1.62763e-15
1.76285e-15
1.90823e-15
2.0617e-15
2.22115e-15
2.38445e-15
2.54945e-15
2.71403e-15
2.87611e-15
3.03367e-15
3.18479e-15
3.3277e-15
3.4608e-15
3.58271e-15
3.69229e-15
3.78864e-15
3.87116e-15
3.93946e-15
3.99345e-15
4.03326e-15
4.05921e-15
4.07185e-15
3.43152e-15
3.60196e-15
3.84578e-15
4.15425e-15
4.52009e-15
4.93646e-15
5.39654e-15
5.89326e-15
6.41917e-15
6.9665e-15
7.52716e-15
8.09296e-15
8.65575e-15
9.2076e-15
9.74098e-15
1.0249e-14
1.07255e-14
1.11652e-14
1.15641e-14
1.1919e-14
1.22277e-14
1.24893e-14
1.27035e-14
1.28711e-14
1.29933e-14
1.30723e-14
1.31103e-14
1.00254e-14
1.0563e-14
1.13336e-14
1.23108e-14
1.34723e-14
1.47966e-14
1.62616e-14
1.7844e-14
1.95188e-14
2.12598e-14
2.30397e-14
2.48312e-14
2.66074e-14
2.83425e-14
3.00129e-14
3.15972e-14
3.30771e-14
3.44374e-14
3.56663e-14
3.67555e-14
3.76998e-14
3.84972e-14
3.91482e-14
3.9656e-14
4.00256e-14
4.02637e-14
4.03783e-14
2.95604e-14
3.12116e-14
3.35811e-14
3.65885e-14
4.0165e-14
4.42439e-14
4.87563e-14
5.36288e-14
5.87829e-14
6.4136e-14
6.96031e-14
7.50986e-14
8.05391e-14
8.58454e-14
9.09447e-14
9.57726e-14
1.00274e-13
1.04404e-13
1.08129e-13
1.11424e-13
1.14276e-13
1.1668e-13
1.18641e-13
1.20167e-13
1.21277e-13
1.21992e-13
1.22335e-13
8.78083e-14
9.28254e-14
1.00025e-13
1.09163e-13
1.2003e-13
1.32421e-13
1.46123e-13
1.6091e-13
1.7654e-13
1.9276e-13
2.09311e-13
2.25932e-13
2.4237e-13
2.58388e-13
2.73766e-13
2.88314e-13
3.01866e-13
3.14291e-13
3.25489e-13
3.35391e-13
3.43957e-13
3.51175e-13
3.57059e-13
3.61639e-13
3.64968e-13
3.6711e-13
3.6814e-13
2.61709e-13
2.76806e-13
2.98481e-13
3.26002e-13
3.58738e-13
3.9607e-13
4.37356e-13
4.81907e-13
5.28992e-13
5.77845e-13
6.27677e-13
6.77703e-13
7.27162e-13
7.75334e-13
8.21565e-13
8.65278e-13
9.05983e-13
9.43287e-13
9.76891e-13
1.00659e-12
1.03228e-12
1.05391e-12
1.07154e-12
1.08525e-12
1.09522e-12
1.10163e-12
1.10471e-12
7.82089e-13
8.27463e-13
8.92595e-13
9.75285e-13
1.07363e-12
1.18576e-12
1.30974e-12
1.44349e-12
1.58481e-12
1.73138e-12
1.88084e-12
2.03083e-12
2.17906e-12
2.3234e-12
2.46188e-12
2.59279e-12
2.71466e-12
2.82632e-12
2.9269e-12
3.01579e-12
3.09264e-12
3.15738e-12
3.21012e-12
3.25116e-12
3.28098e-12
3.30016e-12
3.30938e-12
2.33745e-12
2.47336e-12
2.6685e-12
2.91626e-12
3.21093e-12
3.54691e-12
3.91838e-12
4.31909e-12
4.74242e-12
5.18144e-12
5.62905e-12
6.07818e-12
6.52198e-12
6.95403e-12
7.36846e-12
7.76013e-12
8.1247e-12
8.45867e-12
8.7594e-12
9.0251e-12
9.2548e-12
9.44823e-12
9.60576e-12
9.72836e-12
9.8174e-12
9.87466e-12
9.90217e-12
6.98986e-12
7.39684e-12
7.981e-12
8.72257e-12
9.60437e-12
1.06096e-11
1.17207e-11
1.29189e-11
1.41844e-11
1.54964e-11
1.68336e-11
1.8175e-11
1.95001e-11
2.07897e-11
2.20264e-11
2.31949e-11
2.42823e-11
2.52783e-11
2.61749e-11
2.69671e-11
2.76517e-11
2.82282e-11
2.86977e-11
2.90631e-11
2.93284e-11
2.9499e-11
2.9581e-11
2.08844e-11
2.20999e-11
2.38446e-11
2.6059e-11
2.86918e-11
3.16924e-11
3.50081e-11
3.85829e-11
4.23572e-11
4.6269e-11
5.02547e-11
5.42513e-11
5.8198e-11
6.20378e-11
6.57187e-11
6.91954e-11
7.24297e-11
7.53909e-11
7.8056e-11
8.04097e-11
8.24436e-11
8.41555e-11
8.55494e-11
8.66337e-11
8.7421e-11
8.79272e-11
8.81704e-11
6.23395e-11
6.59642e-11
7.1165e-11
7.77636e-11
8.56049e-11
9.4537e-11
1.04402e-10
1.15031e-10
1.26247e-10
1.37863e-10
1.49692e-10
1.61546e-10
1.73245e-10
1.8462e-10
1.95518e-10
2.05807e-10
2.15373e-10
2.24127e-10
2.32003e-10
2.38955e-10
2.44961e-10
2.50014e-10
2.54128e-10
2.57327e-10
2.59649e-10
2.61142e-10
2.61859e-10
1.85587e-10
1.96349e-10
2.11785e-10
2.31361e-10
2.54611e-10
2.81077e-10
3.10285e-10
3.41732e-10
3.74886e-10
4.09196e-10
4.44102e-10
4.79051e-10
5.13512e-10
5.46989e-10
5.79037e-10
6.09265e-10
6.37348e-10
6.63028e-10
6.86115e-10
7.06481e-10
7.24062e-10
7.38847e-10
7.50875e-10
7.60225e-10
7.67009e-10
7.71368e-10
7.73461e-10
5.50644e-10
5.82431e-10
6.27995e-10
6.85728e-10
7.54227e-10
8.32117e-10
9.17971e-10
1.01029e-09
1.10748e-09
1.20793e-09
1.30998e-09
1.41201e-09
1.51248e-09
1.60995e-09
1.70314e-09
1.79093e-09
1.8724e-09
1.94681e-09
2.01364e-09
2.07254e-09
2.12334e-09
2.16603e-09
2.20074e-09
2.2277e-09
2.24725e-09
2.2598e-09
2.26583e-09
1.62457e-09
1.71758e-09
1.85078e-09
2.01937e-09
2.21913e-09
2.44592e-09
2.69549e-09
2.96337e-09
3.2449e-09
3.53529e-09
3.82975e-09
4.12361e-09
4.41243e-09
4.69212e-09
4.95904e-09
5.21006e-09
5.44263e-09
5.65473e-09
5.84494e-09
6.01234e-09
6.15655e-09
6.27758e-09
6.37587e-09
6.45214e-09
6.50741e-09
6.54287e-09
6.55988e-09
4.75708e-09
5.02574e-09
5.41e-09
5.89554e-09
6.46973e-09
7.12019e-09
7.83428e-09
8.59882e-09
9.40023e-09
1.02247e-08
1.10585e-08
1.18884e-08
1.27019e-08
1.34877e-08
1.42359e-08
1.49378e-08
1.55868e-08
1.61774e-08
1.6706e-08
1.71704e-08
1.75698e-08
1.79045e-08
1.81759e-08
1.83863e-08
1.85386e-08
1.86362e-08
1.86829e-08
1.3786e-08
1.45478e-08
1.56354e-08
1.70067e-08
1.8624e-08
2.04506e-08
2.24495e-08
2.45824e-08
2.68103e-08
2.90942e-08
3.13959e-08
3.3679e-08
3.59095e-08
3.8057e-08
4.00952e-08
4.2002e-08
4.37598e-08
4.53554e-08
4.67801e-08
4.8029e-08
4.91008e-08
4.99973e-08
5.07231e-08
5.12848e-08
5.16908e-08
5.19507e-08
5.20751e-08
3.94035e-08
4.15101e-08
4.45108e-08
4.82826e-08
5.27153e-08
5.77025e-08
6.31369e-08
6.89104e-08
7.49145e-08
8.10423e-08
8.71906e-08
9.32628e-08
9.91709e-08
1.04837e-07
1.10194e-07
1.15188e-07
1.19776e-07
1.23929e-07
1.27626e-07
1.30858e-07
1.33625e-07
1.35935e-07
1.37801e-07
1.39243e-07
1.40284e-07
1.40949e-07
1.41267e-07
1.10576e-07
1.16211e-07
1.24216e-07
1.3424e-07
1.4597e-07
1.59103e-07
1.73341e-07
1.88389e-07
2.03955e-07
2.19758e-07
2.35533e-07
2.51035e-07
2.66046e-07
2.80377e-07
2.93869e-07
3.06396e-07
3.17864e-07
3.28206e-07
3.37385e-07
3.45387e-07
3.5222e-07
3.5791e-07
3.62498e-07
3.66036e-07
3.68584e-07
3.70211e-07
3.70988e-07
3.03025e-07
3.17491e-07
3.37968e-07
3.635e-07
3.93226e-07
4.26327e-07
4.62006e-07
4.99491e-07
5.38039e-07
5.76946e-07
6.15566e-07
6.53314e-07
6.8968e-07
7.24231e-07
7.56614e-07
7.86556e-07
8.13859e-07
8.38397e-07
8.60105e-07
8.78974e-07
8.95044e-07
9.08395e-07
9.19136e-07
9.27402e-07
9.33348e-07
9.37138e-07
9.38945e-07
8.05848e-07
8.41199e-07
8.9106e-07
9.5294e-07
1.0246e-06
1.10393e-06
1.18893e-06
1.27768e-06
1.3684e-06
1.45943e-06
1.54927e-06
1.6366e-06
1.72032e-06
1.79948e-06
1.87335e-06
1.94137e-06
2.00316e-06
2.05851e-06
2.10733e-06
2.14964e-06
2.18559e-06
2.21538e-06
2.2393e-06
2.25768e-06
2.27088e-06
2.27928e-06
2.28328e-06
2.06655e-06
2.14837e-06
2.26336e-06
2.40541e-06
2.56905e-06
2.74921e-06
2.94111e-06
3.14032e-06
3.34278e-06
3.5448e-06
3.74314e-06
3.935e-06
4.11804e-06
4.29037e-06
4.45053e-06
4.59749e-06
4.73054e-06
4.84935e-06
4.95384e-06
5.0442e-06
5.12078e-06
5.18413e-06
5.2349e-06
5.27385e-06
5.30177e-06
5.31953e-06
5.32798e-06
5.08318e-06
5.26223e-06
5.51307e-06
5.82171e-06
6.17563e-06
6.56332e-06
6.9742e-06
7.39858e-06
7.82773e-06
8.25391e-06
8.67044e-06
9.07164e-06
9.45288e-06
9.8105e-06
1.01417e-05
1.04447e-05
1.07183e-05
1.09619e-05
1.11757e-05
1.13601e-05
1.15162e-05
1.16451e-05
1.17482e-05
1.18272e-05
1.18838e-05
1.19197e-05
1.19368e-05
1.19542e-05
1.23259e-05
1.28452e-05
1.34822e-05
1.42099e-05
1.50038e-05
1.58419e-05
1.67039e-05
1.75723e-05
1.84313e-05
1.92679e-05
2.0071e-05
2.08318e-05
2.15433e-05
2.22007e-05
2.28004e-05
2.33407e-05
2.38209e-05
2.42415e-05
2.46038e-05
2.49098e-05
2.51622e-05
2.5364e-05
2.55183e-05
2.56288e-05
2.56989e-05
2.57322e-05
2.68579e-05
2.7595e-05
2.86229e-05
2.98807e-05
3.13137e-05
3.28729e-05
3.45138e-05
3.61969e-05
3.78875e-05
3.95555e-05
4.11757e-05
4.27273e-05
4.41937e-05
4.55625e-05
4.68245e-05
4.79739e-05
4.90077e-05
4.99251e-05
5.07276e-05
5.14179e-05
5.20005e-05
5.24804e-05
5.28636e-05
5.31566e-05
5.33661e-05
5.34989e-05
5.3562e-05
5.77144e-05
5.91249e-05
6.10899e-05
6.34908e-05
6.62221e-05
6.91889e-05
7.2306e-05
7.5498e-05
7.8699e-05
8.18525e-05
8.49113e-05
8.78366e-05
9.05979e-05
9.31722e-05
9.55432e-05
9.77005e-05
9.96389e-05
0.000101358
0.00010286
0.000104151
0.00010524
0.000106136
0.000106852
0.000107398
0.000107789
0.000108037
0.000108154
0.000118791
0.000121425
0.000125095
0.000129577
0.000134676
0.000140214
0.000146032
0.000151991
0.000157967
0.000163856
0.000169569
0.000175036
0.000180198
0.000185013
0.000189451
0.00019349
0.000197122
0.000200344
0.000203161
0.000205585
0.00020763
0.000209314
0.000210659
0.000211687
0.000212422
0.000212888
0.000213109
0.000234088
0.000238929
0.00024568
0.000253938
0.000263349
0.000273593
0.000284384
0.000295466
0.000306618
0.000317646
0.000328386
0.000338705
0.000348491
0.00035766
0.00036615
0.000373916
0.000380934
0.000387192
0.000392693
0.00039745
0.000401485
0.000404826
0.000407509
0.00040957
0.000411052
0.000411996
0.000412447
0.000439657
0.000448355
0.00046051
0.000475429
0.000492499
0.000511167
0.00053094
0.000551373
0.000572073
0.000592696
0.000612941
0.000632554
0.000651322
0.00066907
0.000685659
0.000700986
0.000714974
0.000727576
0.000738767
0.000748544
0.000756922
0.000763931
0.000769614
0.000774025
0.000777227
0.000779287
0.000780279
0.000779831
0.000794595
0.000815273
0.000840723
0.000869943
0.000902029
0.000936166
0.000971619
0.00100773
0.0010439
0.00107961
0.00111441
0.0011479
0.00117976
0.00120972
0.00123754
0.00126308
0.0012862
0.00130684
0.00132496
0.00134056
0.00135366
0.00136433
0.00137264
0.0013787
0.00138261
0.0013845
0.00129019
0.00131246
0.00134361
0.00138191
0.00142579
0.00147387
0.0015249
0.00157773
0.00163135
0.00168486
0.00173746
0.00178848
0.00183734
0.00188357
0.0019268
0.00196673
0.00200315
0.00203595
0.00206505
0.00209045
0.00211219
0.00213035
0.00214506
0.00215647
0.00216474
0.00217005
0.00217261
0.00196295
0.00199086
0.0020297
0.00207711
0.00213097
0.00218942
0.00225077
0.00231354
0.00237645
0.00243841
0.00249851
0.00255601
0.00261032
0.00266101
0.00270776
0.00275038
0.00278876
0.00282289
0.00285282
0.00287865
0.00290051
0.0029186
0.00293311
0.00294426
0.00295228
0.00295739
0.00295983
0.00271227
0.00274011
0.00277858
0.00282506
0.00287725
0.00293313
0.00299094
0.0030492
0.00310668
0.0031624
0.00321559
0.00326568
0.00331227
0.00335511
0.00339407
0.00342909
0.00346023
0.00348758
0.00351128
0.00353152
0.00354848
0.00356237
0.00357342
0.00358185
0.00358785
0.00359166
0.00359347
0.00339909
0.00342127
0.0034517
0.00348812
0.0035286
0.00357143
0.00361519
0.00365873
0.00370114
0.00374172
0.00377997
0.00381556
0.00384827
0.00387802
0.00390479
0.00392862
0.00394961
0.00396788
0.0039836
0.00399691
0.004008
0.00401702
0.00402416
0.00402957
0.00403341
0.00403583
0.00403697
0.0039223
0.00393704
0.00395717
0.00398113
0.00400756
0.00403533
0.00406348
0.00409126
0.00411811
0.0041436
0.00416745
0.00418949
0.00420962
0.0042278
0.00424407
0.00425848
0.00427111
0.00428206
0.00429143
0.00429934
0.00430591
0.00431124
0.00431544
0.00431862
0.00432087
0.00432229
0.00432295
0.00426776
0.00427645
0.00428829
0.00430235
0.00431781
0.004334
0.00435034
0.00436642
0.00438191
0.00439657
0.00441025
0.00442285
0.00443433
0.00444468
0.00445392
0.00446209
0.00446924
0.00447544
0.00448073
0.0044852
0.0044889
0.00449191
0.00449427
0.00449606
0.00449733
0.00449813
0.00449851
0.00447568
0.00448048
0.00448702
0.00449477
0.0045033
0.00451221
0.00452122
0.00453007
0.0045386
0.00454666
0.00455419
0.00456113
0.00456745
0.00457315
0.00457824
0.00458274
0.00458669
0.00459011
0.00459304
0.00459551
0.00459756
0.00459922
0.00460053
0.00460152
0.00460223
0.00460267
0.00460288
0.00459455
0.00459713
0.00460064
0.00460482
0.00460941
0.00461422
0.00461908
0.00462386
0.00462848
0.00463285
0.00463694
0.00464071
0.00464415
0.00464726
0.00465005
0.00465251
0.00465467
0.00465655
0.00465816
0.00465952
0.00466065
0.00466157
0.0046623
0.00466285
0.00466324
0.00466348
0.0046636
0.00466088
0.00466226
0.00466415
0.00466639
0.00466886
0.00467145
0.00467407
0.00467666
0.00467916
0.00468153
0.00468375
0.00468581
0.00468769
0.00468939
0.00469092
0.00469228
0.00469347
0.0046945
0.00469539
0.00469614
0.00469677
0.00469728
0.00469768
0.00469798
0.0046982
0.00469834
0.0046984
0.00469762
0.00469837
0.00469939
0.0047006
0.00470194
0.00470334
0.00470477
0.00470618
0.00470755
0.00470885
0.00471007
0.0047112
0.00471223
0.00471317
0.00471402
0.00471476
0.00471542
0.004716
0.00471649
0.00471691
0.00471726
0.00471754
0.00471777
0.00471794
0.00471806
0.00471814
0.00471817
0.00471797
0.00471838
0.00471894
0.00471961
0.00472034
0.00472111
0.0047219
0.00472268
0.00472343
0.00472415
0.00472483
0.00472545
0.00472603
0.00472655
0.00472702
0.00472744
0.00472781
0.00472813
0.0047284
0.00472864
0.00472883
0.00472899
0.00472912
0.00472922
0.00472928
0.00472933
0.00472935
0.00472929
0.00472952
0.00472983
0.0047302
0.00473061
0.00473104
0.00473148
0.00473191
0.00473233
0.00473273
0.00473311
0.00473346
0.00473378
0.00473408
0.00473434
0.00473457
0.00473478
0.00473496
0.00473512
0.00473525
0.00473536
0.00473545
0.00473552
0.00473557
0.00473561
0.00473564
0.00473565
0.00473562
0.00473575
0.00473592
0.00473613
0.00473636
0.0047366
0.00473685
0.00473709
0.00473733
0.00473755
0.00473777
0.00473796
0.00473814
0.00473831
0.00473846
0.00473859
0.00473871
0.00473881
0.0047389
0.00473897
0.00473904
0.00473909
0.00473913
0.00473916
0.00473918
0.00473919
0.0047392
0.00473918
0.00473925
0.00473934
0.00473946
0.00473959
0.00473973
0.00473987
0.00474001
0.00474014
0.00474027
0.00474039
0.0047405
0.0047406
0.0047407
0.00474078
0.00474086
0.00474092
0.00474098
0.00474103
0.00474107
0.00474111
0.00474114
0.00474116
0.00474118
0.00474119
0.0047412
0.0047412
0.00474118
0.00474122
0.00474128
0.00474134
0.00474142
0.00474149
0.00474157
0.00474165
0.00474173
0.0047418
0.00474187
0.00474193
0.00474199
0.00474205
0.00474209
0.00474214
0.00474217
0.00474221
0.00474224
0.00474226
0.00474228
0.0047423
0.00474231
0.00474232
0.00474233
0.00474233
0.00474233
0.00474231
0.00474234
0.00474237
0.00474241
0.00474245
0.00474249
0.00474254
0.00474258
0.00474263
0.00474267
0.00474271
0.00474274
0.00474278
0.00474281
0.00474284
0.00474286
0.00474288
0.0047429
0.00474292
0.00474293
0.00474294
0.00474295
0.00474296
0.00474296
0.00474297
0.00474297
0.00474297
0.00474296
0.00474297
0.00474299
0.00474301
0.00474304
0.00474306
0.00474309
0.00474311
0.00474314
0.00474316
0.00474318
0.0047432
0.00474322
0.00474324
0.00474326
0.00474327
0.00474328
0.00474329
0.0047433
0.00474331
0.00474332
0.00474332
0.00474333
0.00474333
0.00474333
0.00474333
0.00474333
0.00474332
0.00474333
0.00474334
0.00474336
0.00474337
0.00474338
0.0047434
0.00474341
0.00474343
0.00474344
0.00474345
0.00474347
0.00474348
0.00474349
0.0047435
0.0047435
0.00474351
0.00474352
0.00474352
0.00474353
0.00474353
0.00474353
0.00474354
0.00474354
0.00474354
0.00474354
0.00474354
0.00474353
0.00474354
0.00474354
0.00474355
0.00474356
0.00474357
0.00474358
0.00474358
0.00474359
0.0047436
0.00474361
0.00474361
0.00474362
0.00474363
0.00474363
0.00474364
0.00474364
0.00474364
0.00474365
0.00474365
0.00474365
0.00474365
0.00474365
0.00474366
0.00474366
0.00474366
0.00474366
0.00474365
0.00474366
0.00474366
0.00474366
0.00474367
0.00474367
0.00474368
0.00474368
0.00474369
0.00474369
0.0047437
0.0047437
0.0047437
0.00474371
0.00474371
0.00474371
0.00474371
0.00474372
0.00474372
0.00474372
0.00474372
0.00474372
0.00474372
0.00474372
0.00474372
0.00474372
0.00474372
0.00474372
0.00474372
0.00474372
0.00474373
0.00474373
0.00474373
0.00474373
0.00474374
0.00474374
0.00474374
0.00474375
0.00474375
0.00474375
0.00474375
0.00474375
0.00474375
0.00474376
0.00474376
0.00474376
0.00474376
0.00474376
0.00474376
0.00474376
0.00474376
0.00474376
0.00474376
0.00474376
0.00474376
0.00474376
0.00474376
0.00474376
0.00474376
0.00474377
0.00474377
0.00474377
0.00474377
0.00474377
0.00474377
0.00474378
0.00474378
0.00474378
0.00474378
0.00474378
0.00474378
0.00474378
0.00474378
0.00474378
0.00474378
0.00474378
0.00474378
0.00474378
0.00474378
0.00474378
0.00474378
0.00474378
0.00474378
0.00474378
0.00474378
0.00474378
0.00474379
0.00474379
0.00474379
0.00474379
0.00474379
0.00474379
0.00474379
0.00474379
0.00474379
0.00474379
0.00474379
0.00474379
0.00474379
0.00474379
0.00474379
0.00474379
0.0047438
0.0047438
0.0047438
0.0047438
0.0047438
0.0047438
0.00474379
0.0047438
0.0047438
0.0047438
0.0047438
0.0047438
0.0047438
0.0047438
0.0047438
0.0047438
0.0047438
0.0047438
0.0047438
0.0047438
0.0047438
0.0047438
0.0047438
0.0047438
0.0047438
0.0047438
0.0047438
0.0047438
0.0047438
0.0047438
0.0047438
0.0047438
0.0047438
0.0047438
0.0047438
0.0047438
0.0047438
0.0047438
0.0047438
0.0047438
0.0047438
0.0047438
0.0047438
0.0047438
0.00474381
0.00474381
0.00474381
0.00474381
0.00474381
0.00474381
0.00474381
0.00474381
0.00474381
0.00474381
0.00474381
0.00474381
0.00474381
0.00474381
0.00474381
0.00474381
0.00474381
0.00474381
0.00474381
0.00474381
0.00474381
0.00474381
0.00474381
0.00474381
0.00474381
0.00474381
0.00474381
0.00474381
0.00474381
0.00474381
0.00474381
0.00474381
0.00474381
0.00474381
0.00474381
0.00474381
0.00474381
0.00474381
0.00474381
0.00474381
0.00474381
0.00474381
0.00474381
0.00474381
0.00474381
0.00474381
0.00474381
0.00474381
0.00474381
0.00474381
0.00474381
0.00474381
0.00474381
0.00474381
0.00474381
0.00474381
0.00474381
0.00474381
0.00474381
0.00474381
0.00474381
0.00474381
0.00474381
0.00474381
0.00474381
0.00474381
0.00474381
0.00474381
0.00474381
0.00474381
0.00474381
0.00474381
0.00474381
0.00474381
0.00474381
0.00474381
0.00474381
0.00474381
0.00474381
0.00474381
0.00474381
0.00474381
0.00474381
0.00474381
0.00474381
0.00474381
0.00474381
0.00474381
0.00474381
0.00474381
0.00474381
0.00474381
0.00474381
0.00474381
0.00474381
0.00474381
0.00474381
0.00474381
0.00474381
0.00474381
0.00474381
0.00474381
0.00474381
0.00474381
0.00474381
0.00474381
0.00474381
0.00474381
0.00474381
0.00474381
0.00474381
0.00474381
0.00474381
0.00474381
0.00474381
0.00474381
0.00474381
0.00474381
0.00474381
0.00474381
0.00474381
0.00474381
0.00474381
0.00474381
0.00474381
0.00474381
0.00474381
0.00474381
0.00474381
0.00474381
0.00474381
0.00474381
0.00474381
0.00474381
0.00474381
0.00474381
0.00474381
0.00474381
0.00474381
0.00474381
0.00474381
0.00474381
0.00474381
0.00474381
0.00474381
0.00474381
0.00474381
0.00474381
0.00474381
0.00474381
0.00474381
0.00474381
0.00474381
0.00474381
0.00474381
0.00474381
0.00474381
0.00474381
0.00474381
0.00474381
0.00474381
0.00474381
0.00474381
0.00474381
0.00474381
0.00474381
0.00474381
0.00474381
0.00474381
0.00474381
0.00474381
0.00474381
0.00474381
0.00474381
0.00474381
0.00474381
0.00474381
0.00474381
0.00474381
0.00474381
0.00474381
0.00474381
0.00474381
0.00474381
0.00474381
0.00474381
0.00474381
0.00474381
0.00474381
0.00474381
0.00474381
0.00474381
0.00474381
0.00474381
0.00474381
0.00474381
0.00474381
0.00474381
0.00474381
0.00474381
0.00474381
0.00474381
0.00474381
0.00474381
0.00474381
0.00474381
0.00474381
0.00474381
0.00474381
0.00474381
0.00474381
0.00474381
0.00474381
0.00474381
0.00474381
0.00474381
0.00474381
0.00474381
0.00474381
0.00474381
0.00474381
0.00474381
0.00474381
0.00474381
0.00474381
0.00474381
0.00474381
0.00474381
0.00474381
0.00474381
0.00474381
0.00474381
0.00474381
0.00474381
0.00474381
0.00474381
0.00474381
0.00474381
0.00474381
0.00474381
0.00474381
0.00474381
0.00474381
0.00474381
0.00474381
0.00474381
0.00474381
0.00474381
0.00474381
0.00474381
0.00474381
0.00474381
0.00474381
0.00474381
0.00474381
0.00474381
0.00474381
0.00474381
0.00474381
0.00474381
0.00474381
0.00474381
0.00474381
0.00474381
0.00474381
0.00474381
0.00474381
0.00474381
0.00474381
0.00474381
0.00474381
0.00474381
0.00474381
0.00474381
0.00474381
0.00474381
0.00474381
0.00474381
0.00474381
0.00474381
0.00474381
0.00474381
0.00474381
0.00474381
0.00474381
0.00474381
0.00474381
0.00474381
0.00474381
0.00474381
0.00474381
0.00474381
0.00474381
0.00474381
0.00474381
0.00474381
0.00474381
0.00474381
0.00474381
0.00474381
0.00474381
0.00474381
0.00474381
0.00474381
0.00474381
0.00474381
0.00474381
0.00474381
0.00474381
0.00474381
0.00474381
0.00474381
0.00474381
0.00474381
0.00474381
0.00474381
0.00474381
0.00474381
0.00474381
0.00474381
0.00474381
0.00474381
0.00474381
0.00474381
0.00474381
0.00474381
0.00474381
0.00474381
0.00474381
0.00474381
0.00474381
0.00474381
0.00474381
0.00474381
0.00474381
0.00474381
0.00474381
0.00474381
0.00474381
0.00474381
0.00474381
0.00474381
0.00474381
0.00474381
0.00474381
0.00474381
0.00474381
0.00474381
0.00474381
0.00474381
0.00474381
0.00474381
0.00474381
0.00474381
0.00474381
0.00474381
0.00474381
0.00474381
0.00474381
0.00474381
0.00474381
0.00474381
0.00474381
0.00474381
0.00474381
0.00474381
0.00474381
0.00474381
0.00474381
0.00474381
0.00474381
0.00474381
0.00474381
0.00474381
0.00474381
0.00474381
0.00474381
0.00474381
0.00474381
0.00474381
0.00474381
0.00474381
0.00474381
0.00474381
0.00474381
0.00474381
0.00474381
0.00474381
0.00474381
0.00474381
0.00474381
0.00474381
0.00474381
0.00474381
0.00474381
0.00474381
0.00474381
0.00474381
0.00474381
0.00474381
0.00474381
0.00474381
0.00474381
0.00474381
0.00474381
0.00474381
0.00474381
0.00474381
0.00474381
0.00474381
0.00474381
0.00474381
0.00474381
0.00474381
0.00474381
0.00474381
0.00474381
0.00474381
0.00474381
0.00474381
0.00474381
0.00474381
0.00474381
0.00474381
0.00474381
0.00474381
0.00474381
0.00474381
0.00474381
0.00474381
0.00474381
0.00474381
0.00474381
0.00474381
0.00474381
0.00474381
0.00474381
0.00474381
0.00474381
0.00474381
0.00474381
0.00474381
0.00474381
0.00474381
0.00474381
0.00474381
0.00474381
0.00474381
0.00474381
0.00474381
0.00474381
0.00474381
0.00474381
0.00474381
0.00474381
0.00474381
0.00474381
0.00474381
0.00474381
0.00474381
0.00474381
0.00474381
0.00474381
0.00474381
0.00474381
0.00474381
0.00474381
0.00474381
0.00474381
0.00474381
0.00474381
0.00474381
0.00474381
0.00474381
0.00474381
0.00474381
0.00474381
0.00474381
0.00474381
0.00474381
0.00474381
0.00474381
0.00474381
0.00474381
0.00474381
0.00474381
0.00474381
0.00474381
0.00474381
0.00474381
0.00474381
0.00474381
0.00474381
0.00474381
0.00474381
0.00474381
0.00474381
0.00474381
0.00474381
0.00474381
0.00474381
0.00474381
0.00474381
0.00474381
0.00474381
0.00474381
0.00474381
0.00474381
0.00474381
0.00474381
0.00474381
0.00474381
0.00474381
0.00474381
0.00474381
0.00474381
0.00474381
0.00474381
0.00474381
0.00474381
0.00474381
0.00474381
0.00474381
0.00474381
0.00474381
0.00474381
0.00474381
0.00474381
0.00474381
0.00474381
0.00474381
0.00474381
0.00474381
0.00474381
0.00474381
0.00474381
0.00474381
0.00474381
0.00474381
0.00474381
0.00474381
0.00474381
0.00474381
0.00474381
0.00474381
0.00474381
0.00474381
0.00474381
0.00474381
0.00474381
0.00474381
0.00474381
0.00474381
0.00474381
0.00474381
0.00474381
0.00474381
0.00474381
0.00474381
0.00474381
0.00474381
0.00474381
0.00474381
0.00474381
0.00474381
0.00474381
0.00474381
0.00474381
0.00474381
0.00474381
0.00474381
0.00474381
0.00474381
0.00474381
0.00474381
0.00474381
0.00474381
0.00474381
0.00474381
0.00474381
0.00474381
0.00474381
0.00474381
0.00474381
0.00474381
0.00474381
0.00474381
0.00474381
0.00474381
0.00474381
0.00474381
0.00474381
0.00474381
0.00474381
0.00474381
0.00474381
0.00474381
0.00474381
0.00474381
0.00474381
0.00474381
0.00474381
0.00474381
0.00474381
0.00474381
0.00474381
0.00474381
0.00474381
0.00474381
0.00474381
0.00474381
0.00474381
0.00474381
0.00474381
0.00474381
0.00474381
0.00474381
0.00474381
0.00474381
0.00474381
0.00474381
0.00474381
0.00474381
0.00474381
0.00474381
0.00474381
0.00474381
0.00474381
0.00474381
0.00474381
0.00474381
0.00474381
0.00474381
0.00474381
0.00474381
0.00474381
0.00474381
0.00474381
0.00474381
0.00474381
0.00474381
0.00474381
0.00474381
0.00474381
0.00474381
0.00474381
0.00474381
0.00474381
0.00474381
0.00474381
0.00474381
0.00474381
0.00474381
0.00474381
0.00474381
0.00474381
0.00474381
0.00474381
0.00474381
0.00474381
0.00474381
0.00474381
0.00474381
0.00474381
0.00474381
0.00474381
0.00474381
0.00474381
0.00474381
0.00474381
0.00474381
0.00474381
0.00474381
0.00474381
0.00474381
0.00474381
0.00474381
0.00474381
0.00474381
0.00474381
0.00474381
0.00474381
0.00474381
0.00474381
0.00474381
0.00474381
0.00474381
0.00474381
0.00474381
0.00474381
0.00474381
0.00474381
0.00474381
0.00474381
0.00474381
0.00474381
0.00474381
0.00474381
0.00474381
0.00474381
0.00474381
0.00474381
0.00474381
0.00474381
0.00474381
0.00474381
0.00474381
0.00474381
0.00474381
0.00474381
0.00474381
0.00474381
0.00474381
0.00474381
0.00474381
0.00474381
0.00474381
0.00474381
0.00474381
0.00474381
0.00474381
0.00474381
0.00474381
0.00474381
0.00474381
0.00474381
0.00474381
0.00474381
0.00474381
0.00474381
0.00474381
0.00474381
0.00474381
0.00474381
0.00474381
0.00474381
0.00474381
0.00474381
0.00474381
0.00474381
0.00474381
0.00474381
0.00474381
0.00474381
0.00474381
0.00474381
0.00474381
0.00474381
0.00474381
0.00474381
0.00474381
0.00474381
0.00474381
0.00474381
0.00474381
0.00474381
0.00474381
0.00474381
0.00474381
0.00474381
0.00474381
0.00474381
0.00474381
0.00474381
0.00474381
0.00474381
0.00474381
0.00474381
0.00474381
0.00474381
0.00474381
0.00474381
0.00474381
0.00474381
0.00474381
0.00474381
0.00474381
0.00474381
0.00474381
0.00474381
0.00474381
0.00474381
0.00474381
0.00474381
0.00474381
0.00474381
0.00474381
0.00474381
0.00474381
0.00474381
0.00474381
0.00474381
0.00474381
0.00474381
0.00474381
0.00474381
0.00474381
0.00474381
0.00474381
0.00474381
0.00474381
0.00474381
0.00474381
0.00474381
0.00474381
0.00474381
0.00474381
0.00474381
0.00474381
0.00474381
0.00474381
0.00474381
0.00474381
0.00474381
0.00474381
0.00474381
0.00474381
0.00474381
0.00474381
0.00474381
0.00474381
0.00474381
0.00474381
0.00474381
0.00474381
0.00474381
0.00474381
0.00474381
0.00474381
0.00474381
0.00474381
0.00474381
0.00474381
0.00474381
0.00474381
0.00474381
0.00474381
0.00474381
0.00474381
0.00474381
0.00474381
0.00474381
0.00474381
0.00474381
0.00474381
0.00474381
0.00474381
0.00474381
0.00474381
0.00474381
0.00474381
0.00474381
0.00474381
0.00474381
0.00474381
0.00474381
0.00474381
0.00474381
0.00474381
0.00474381
0.00474381
0.00474381
0.00474381
0.00474381
0.00474381
0.00474381
0.00474381
0.00474381
0.00474381
0.00474381
0.00474381
0.00474381
0.00474381
0.00474381
0.00474381
0.00474381
0.00474381
0.00474381
0.00474381
0.00474381
0.00474381
0.00474381
0.00474381
0.00474381
0.00474381
0.00474381
0.00474381
0.00474381
0.00474381
0.00474381
0.00474381
0.00474381
0.00474381
0.00474381
0.00474381
0.00474381
0.00474381
0.00474381
0.0047438
0.0047438
0.0047438
0.0047438
0.0047438
0.0047438
0.0047438
0.0047438
0.0047438
0.00474381
0.00474381
0.00474381
0.00474381
0.00474381
0.0047438
0.0047438
0.0047438
0.0047438
0.0047438
0.0047438
0.0047438
0.0047438
0.0047438
0.0047438
0.0047438
0.0047438
0.0047438
0.0047438
0.0047438
0.0047438
0.0047438
0.0047438
0.0047438
0.0047438
0.0047438
0.0047438
0.0047438
0.0047438
0.0047438
0.0047438
0.0047438
0.0047438
0.0047438
0.0047438
0.0047438
0.0047438
0.0047438
0.0047438
0.0047438
0.0047438
0.0047438
0.0047438
0.0047438
0.0047438
0.0047438
0.0047438
0.0047438
0.0047438
0.0047438
0.0047438
0.0047438
0.0047438
0.0047438
0.0047438
0.0047438
0.0047438
0.0047438
0.0047438
0.0047438
0.0047438
0.0047438
0.0047438
0.0047438
0.0047438
0.0047438
0.0047438
0.0047438
0.0047438
0.0047438
0.0047438
0.0047438
0.0047438
0.0047438
0.0047438
0.0047438
0.0047438
0.0047438
0.0047438
0.0047438
0.0047438
0.0047438
0.0047438
0.0047438
0.0047438
0.0047438
0.0047438
0.0047438
0.0047438
0.0047438
0.0047438
0.0047438
0.0047438
0.0047438
0.0047438
0.0047438
0.0047438
0.0047438
0.0047438
0.0047438
0.0047438
0.0047438
0.0047438
0.0047438
0.0047438
0.0047438
0.0047438
0.0047438
0.0047438
0.0047438
0.0047438
0.0047438
0.0047438
0.0047438
0.0047438
0.0047438
0.0047438
0.0047438
0.0047438
0.0047438
0.0047438
0.0047438
0.0047438
0.0047438
0.0047438
0.0047438
0.0047438
0.0047438
0.0047438
0.0047438
0.0047438
0.0047438
0.0047438
0.0047438
0.0047438
0.0047438
0.0047438
0.0047438
0.0047438
0.0047438
0.0047438
0.0047438
0.0047438
0.0047438
0.0047438
0.0047438
0.0047438
0.0047438
0.0047438
0.0047438
0.0047438
0.0047438
0.0047438
0.0047438
0.0047438
0.0047438
0.0047438
0.0047438
0.0047438
0.0047438
0.0047438
0.0047438
0.0047438
0.0047438
0.0047438
0.0047438
0.0047438
0.0047438
0.0047438
0.0047438
0.0047438
0.0047438
0.0047438
0.00474379
0.00474379
0.00474379
0.00474379
0.00474379
0.00474379
0.00474379
0.00474379
0.00474379
0.00474379
0.00474379
0.00474379
0.00474379
0.00474379
0.00474379
0.00474379
0.00474379
0.00474379
0.00474379
0.00474379
0.00474379
0.00474379
0.00474379
0.00474379
0.00474379
0.00474379
0.00474379
0.00474379
0.00474379