/*--------------------------------*- C++ -*----------------------------------*\
| =========                 |                                                 |
| \\      /  F ield         | OpenFOAM: The Open Source CFD Toolbox           |
|  \\    /   O peration     | Version:  2106                                  |
|   \\  /    A nd           | Website:  www.openfoam.com                      |
|    \\/     M anipulation  |                                                 |
\*---------------------------------------------------------------------------*/
FoamFile
{
    version     2.0;
    format      ascii;
    arch        "LSB;label=32;scalar=64";
    class       surfaceScalarField;
    location    "219.99956";
    object      phi;
}
// * * * * * * * * * * * * * * * * * * * * * * * * * * * * * * * * * * * * * //

dimensions      [1 0 -1 0 0 0 0];

oriented        oriented;

internalField   nonuniform List<scalar> 
6572
(
-1.4899e-10
4.14296e-10
3.9009e-11
-3.19709e-10
6.41362e-10
-5.41903e-10
8.33149e-10
-8.06846e-10
9.93218e-10
-1.10593e-09
1.1244e-09
-1.43044e-09
1.229e-09
-1.77144e-09
1.30895e-09
-2.11973e-09
1.36595e-09
-2.46597e-09
1.40156e-09
-2.80082e-09
1.4173e-09
-3.11499e-09
1.41461e-09
-3.39926e-09
1.39476e-09
-3.64503e-09
1.35949e-09
-3.84438e-09
1.31038e-09
-3.98995e-09
1.2489e-09
-4.07512e-09
1.1765e-09
-4.09403e-09
1.09463e-09
-4.04167e-09
1.00475e-09
-3.91398e-09
9.08308e-10
-3.70789e-09
8.06748e-10
-3.42129e-09
7.01453e-10
-3.05302e-09
5.93701e-10
-2.60274e-09
4.84654e-10
-2.0709e-09
3.75358e-10
-1.45867e-09
2.66747e-10
-7.67781e-10
1.5962e-10
5.41719e-11
-1.01066e-10
4.8826e-10
2.71021e-11
-2.11682e-10
7.51978e-10
-3.4855e-10
9.70017e-10
-5.01316e-10
1.14598e-09
-6.60072e-10
1.28316e-09
-8.15634e-10
1.38456e-09
-9.59808e-10
1.45313e-09
-1.0856e-09
1.49174e-09
-1.18736e-09
1.50332e-09
-1.26101e-09
1.49095e-09
-1.30515e-09
1.45875e-09
-1.31951e-09
1.40913e-09
-1.30458e-09
1.34455e-09
-1.26174e-09
1.26754e-09
-1.19338e-09
1.18054e-09
-1.10279e-09
1.08591e-09
-9.94018e-10
9.85865e-10
-8.71706e-10
8.82443e-10
-7.40888e-10
7.7749e-10
-6.06788e-10
6.72647e-10
-4.74668e-10
5.69333e-10
-3.49719e-10
4.68752e-10
-2.36963e-10
3.71898e-10
-1.41256e-10
2.79651e-10
-6.70748e-11
1.92566e-10
-1.8492e-11
1.11037e-10
3.56799e-11
-8.01477e-11
5.4721e-10
2.11971e-11
-1.66958e-10
8.38788e-10
-2.71284e-10
1.07434e-09
-3.83344e-10
1.25804e-09
-4.94432e-10
1.39424e-09
-5.97222e-10
1.48735e-09
-6.86186e-10
1.54209e-09
-7.57478e-10
1.56303e-09
-8.0886e-10
1.5547e-09
-8.39392e-10
1.52148e-09
-8.4827e-10
1.46763e-09
-8.36238e-10
1.3971e-09
-8.04943e-10
1.31326e-09
-7.56743e-10
1.21934e-09
-6.94597e-10
1.11839e-09
-6.21878e-10
1.01319e-09
-5.42173e-10
9.0616e-10
-4.59079e-10
7.99348e-10
-3.76041e-10
6.94453e-10
-2.96188e-10
5.92793e-10
-2.22247e-10
4.95392e-10
-1.56519e-10
4.03024e-10
-1.00864e-10
3.16243e-10
-5.66213e-11
2.35408e-10
-2.47729e-11
1.60717e-10
-5.97182e-12
9.22363e-11
2.97081e-11
-3.77256e-11
5.74521e-10
1.04149e-11
-7.68828e-11
8.77945e-10
-1.22641e-10
1.1201e-09
-1.70031e-10
1.30543e-09
-2.14785e-10
1.439e-09
-2.53648e-10
1.52622e-09
-2.84249e-10
1.57269e-09
-3.05224e-10
1.58401e-09
-3.16072e-10
1.56555e-09
-3.17018e-10
1.52243e-09
-3.08901e-10
1.45951e-09
-2.92952e-10
1.38115e-09
-2.70875e-10
1.29118e-09
-2.44531e-10
1.19299e-09
-2.15682e-10
1.08954e-09
-1.85867e-10
9.83378e-10
-1.56361e-10
8.76654e-10
-1.28159e-10
7.71146e-10
-1.01995e-10
6.68289e-10
-7.8409e-11
5.69207e-10
-5.77694e-11
4.74753e-10
-4.02899e-11
3.85545e-10
-2.60487e-11
3.02001e-10
-1.50129e-11
2.24372e-10
-7.06213e-12
1.52767e-10
-2.00892e-12
8.71831e-11
2.76992e-11
-1.90778e-11
5.88622e-10
4.97657e-12
-3.92048e-11
8.98072e-10
-6.21061e-11
1.143e-09
-8.50052e-11
1.32833e-09
-1.05832e-10
1.45982e-09
-1.23238e-10
1.54362e-09
-1.36387e-10
1.58584e-09
-1.44893e-10
1.59252e-09
-1.48777e-10
1.56943e-09
-1.4835e-10
1.522e-09
-1.44027e-10
1.45519e-09
-1.36346e-10
1.37347e-09
-1.25971e-10
1.28081e-09
-1.13631e-10
1.18065e-09
-1.00058e-10
1.07597e-09
-8.59318e-11
9.69251e-10
-7.18462e-11
8.62568e-10
-5.83009e-11
7.57601e-10
-4.5697e-11
6.55685e-10
-3.43417e-11
5.57852e-10
-2.44566e-11
4.64868e-10
-1.61879e-11
3.77276e-10
-9.61767e-12
2.95431e-10
-4.77446e-12
2.19529e-10
-1.64393e-12
1.49636e-10
-1.77905e-13
8.57171e-11
2.75213e-11
-9.34726e-12
5.95257e-10
2.71198e-12
-1.84125e-11
9.07137e-10
-2.84062e-11
1.153e-09
-3.79971e-11
1.33792e-09
-4.61944e-11
1.46802e-09
-5.23967e-11
1.54983e-09
-5.634e-11
1.58978e-09
-5.8018e-11
1.59419e-09
-5.76162e-11
1.56903e-09
-5.54483e-11
1.51983e-09
-5.18946e-11
1.45163e-09
-4.73535e-11
1.36893e-09
-4.22064e-11
1.27566e-09
-3.67937e-11
1.17524e-09
-3.13996e-11
1.07058e-09
-2.62455e-11
9.64097e-10
-2.14893e-11
8.57812e-10
-1.72305e-11
7.53342e-10
-1.35181e-11
6.51973e-10
-1.03596e-11
5.54693e-10
-7.73089e-12
4.62239e-10
-5.58509e-12
3.75131e-10
-3.86053e-12
2.93707e-10
-2.48748e-12
2.18156e-10
-1.39374e-12
1.48542e-10
-5.08662e-13
8.4832e-11
2.70126e-11
-4.76601e-12
5.98859e-10
1.16434e-12
-1.00737e-11
9.12445e-10
-1.62894e-11
1.15921e-09
-2.2694e-11
1.34433e-09
-2.86515e-11
1.47398e-09
-3.36183e-11
1.55479e-09
-3.72947e-11
1.59346e-09
-3.95692e-11
1.59647e-09
-4.04696e-11
1.56993e-09
-4.01177e-11
1.51948e-09
-3.86905e-11
1.45021e-09
-3.6392e-11
1.36663e-09
-3.34317e-11
1.2727e-09
-3.00112e-11
1.17182e-09
-2.63157e-11
1.06688e-09
-2.25093e-11
9.6029e-10
-1.87339e-11
8.54036e-10
-1.51093e-11
7.49718e-10
-1.17346e-11
6.48598e-10
-8.68963e-12
5.51648e-10
-6.0374e-12
4.59587e-10
-3.82558e-12
3.72919e-10
-2.08841e-12
2.91969e-10
-8.48171e-13
2.16915e-10
-1.1657e-13
1.47811e-10
1.03919e-13
8.46115e-11
2.71165e-11
-1.82516e-12
6.00094e-10
5.90399e-13
-3.45366e-12
9.14074e-10
-5.2304e-12
1.16099e-09
-6.90827e-12
1.34601e-09
-8.28772e-12
1.47536e-09
-9.23787e-12
1.55574e-09
-9.70619e-12
1.59393e-09
-9.7077e-12
1.59647e-09
-9.30605e-12
1.56953e-09
-8.59329e-12
1.51877e-09
-7.67217e-12
1.44929e-09
-6.64253e-12
1.3656e-09
-5.59207e-12
1.27165e-09
-4.59108e-12
1.17082e-09
-3.69019e-12
1.06598e-09
-2.92052e-12
9.59521e-10
-2.2954e-12
8.53411e-10
-1.81292e-12
7.49235e-10
-1.45909e-12
6.48244e-10
-1.21096e-12
5.514e-10
-1.03967e-12
4.59416e-10
-9.13135e-13
3.72792e-10
-7.98383e-13
2.91855e-10
-6.63436e-13
2.1678e-10
-4.78776e-13
1.47626e-10
-2.18314e-13
8.43511e-11
2.68982e-11
-1.79806e-12
6.01476e-10
4.15576e-13
-3.84041e-12
9.16116e-10
-6.20838e-12
1.16336e-09
-8.62063e-12
1.34842e-09
-1.08549e-11
1.47759e-09
-1.27519e-11
1.55764e-09
-1.42136e-11
1.59539e-09
-1.51943e-11
1.59745e-09
-1.56902e-11
1.57002e-09
-1.57276e-11
1.5188e-09
-1.53532e-11
1.44891e-09
-1.4626e-11
1.36487e-09
-1.36109e-11
1.27063e-09
-1.23749e-11
1.16958e-09
-1.0984e-11
1.06459e-09
-9.50122e-12
9.58038e-10
-7.98537e-12
8.51895e-10
-6.49053e-12
7.47741e-10
-5.06538e-12
6.46819e-10
-3.75292e-12
5.50088e-10
-2.59035e-12
4.58253e-10
-1.60893e-12
3.71811e-10
-8.34006e-13
2.9108e-10
-2.85126e-13
2.16232e-10
2.37791e-14
1.47317e-10
8.40822e-14
8.42908e-11
2.69823e-11
-6.41467e-13
6.01888e-10
2.29993e-13
-1.15503e-12
9.1663e-10
-1.69992e-12
1.1639e-09
-2.20012e-12
1.34892e-09
-2.59643e-12
1.47799e-09
-2.85344e-12
1.5579e-09
-2.95948e-12
1.5955e-09
-2.92263e-12
1.59741e-09
-2.76505e-12
1.56987e-09
-2.51716e-12
1.51856e-09
-2.21237e-12
1.44861e-09
-1.88302e-12
1.36454e-09
-1.55742e-12
1.27031e-09
-1.25811e-12
1.16928e-09
-1.00091e-12
1.06433e-09
-7.94805e-13
9.57832e-10
-6.42355e-13
8.51743e-10
-5.40368e-13
7.47639e-10
-4.81041e-13
6.4676e-10
-4.52992e-13
5.5006e-10
-4.42459e-13
4.58242e-10
-4.34322e-13
3.71803e-10
-4.13117e-13
2.91059e-10
-3.63809e-13
2.16182e-10
-2.7253e-13
1.47226e-10
-1.26992e-13
8.41452e-11
2.68553e-11
-9.8858e-13
6.02652e-10
2.24461e-13
-2.12863e-12
9.1777e-10
-3.46604e-12
1.16524e-09
-4.85149e-12
1.35031e-09
-6.1654e-12
1.4793e-09
-7.31896e-12
1.55905e-09
-8.25241e-12
1.59643e-09
-8.93145e-12
1.59809e-09
-9.34288e-12
1.57028e-09
-9.49012e-12
1.5187e-09
-9.38909e-12
1.44851e-09
-9.06467e-12
1.36422e-09
-8.54784e-12
1.26979e-09
-7.87338e-12
1.16861e-09
-7.07806e-12
1.06354e-09
-6.19889e-12
9.56953e-10
-5.27376e-12
8.50818e-10
-4.33941e-12
7.46704e-10
-3.43059e-12
6.45851e-10
-2.57912e-12
5.49208e-10
-1.81316e-12
4.57476e-10
-1.15683e-12
3.71146e-10
-6.29945e-13
2.90532e-10
-2.47968e-13
2.158e-10
-2.20971e-14
1.47e-10
4.05005e-14
8.40826e-11
2.68958e-11
-6.03884e-13
6.03059e-10
1.96565e-13
-1.15215e-12
9.18318e-10
-1.77581e-12
1.16586e-09
-2.40616e-12
1.35094e-09
-2.98479e-12
1.47988e-09
-3.46877e-12
1.55953e-09
-3.83166e-12
1.59679e-09
-4.06207e-12
1.59832e-09
-4.16103e-12
1.57038e-09
-4.13889e-12
1.51868e-09
-4.0122e-12
1.44838e-09
-3.80095e-12
1.36401e-09
-3.52625e-12
1.26952e-09
-3.20856e-12
1.16829e-09
-2.86639e-12
1.06319e-09
-2.51639e-12
9.56603e-10
-2.17037e-12
8.50472e-10
-1.83917e-12
7.46373e-10
-1.53062e-12
6.45543e-10
-1.24945e-12
5.48927e-10
-9.97527e-13
4.57225e-10
-7.74211e-13
3.70923e-10
-5.76854e-13
2.90334e-10
-4.01298e-13
2.15625e-10
-2.42387e-13
1.46841e-10
-9.44305e-14
8.39347e-11
2.68014e-11
-1.55027e-12
6.04218e-10
3.92053e-13
-3.24886e-12
9.20017e-10
-5.24701e-12
1.16786e-09
-7.32852e-12
1.35302e-09
-9.31183e-12
1.48186e-09
-1.10556e-11
1.56128e-09
-1.246e-11
1.5982e-09
-1.34649e-11
1.59933e-09
-1.40454e-11
1.57096e-09
-1.42063e-11
1.51884e-09
-1.39764e-11
1.44815e-09
-1.34019e-11
1.36343e-09
-1.25407e-11
1.26866e-09
-1.14575e-11
1.16721e-09
-1.02192e-11
1.06195e-09
-8.89041e-12
9.55274e-10
-7.53196e-12
8.49113e-10
-6.19493e-12
7.45036e-10
-4.92252e-12
6.4427e-10
-3.75053e-12
5.47755e-10
-2.70781e-12
4.56182e-10
-1.81674e-12
3.70032e-10
-1.09376e-12
2.89611e-10
-5.49975e-13
2.15081e-10
-1.91653e-13
1.46483e-10
-2.08508e-14
8.37639e-11
2.67806e-11
-1.66666e-12
6.05415e-10
4.68836e-13
-3.36949e-12
9.2172e-10
-5.34832e-12
1.16984e-09
-7.38505e-12
1.35505e-09
-9.2951e-12
1.48377e-09
-1.09374e-11
1.56292e-09
-1.22173e-11
1.59948e-09
-1.30841e-11
1.60019e-09
-1.35244e-11
1.5714e-09
-1.35559e-11
1.51887e-09
-1.3219e-11
1.44781e-09
-1.25695e-11
1.36278e-09
-1.16721e-11
1.26776e-09
-1.05945e-11
1.16613e-09
-9.40226e-12
1.06076e-09
-8.15657e-12
9.54028e-10
-6.90976e-12
8.47867e-10
-5.70528e-12
7.43832e-10
-4.57732e-12
6.43142e-10
-3.55142e-12
5.46729e-10
-2.64526e-12
4.55276e-10
-1.86963e-12
3.69256e-10
-1.22944e-12
2.88971e-10
-7.24837e-13
2.14576e-10
-3.52085e-13
1.4611e-10
-1.04574e-13
8.35164e-11
2.6676e-11
-2.82596e-12
6.07496e-10
7.4533e-13
-5.85926e-12
9.24753e-10
-9.44365e-12
1.17342e-09
-1.32098e-11
1.35882e-09
-1.68419e-11
1.48741e-09
-2.00898e-11
1.56617e-09
-2.2772e-11
1.60216e-09
-2.47731e-11
1.6022e-09
-2.60378e-11
1.57266e-09
-2.65619e-11
1.5194e-09
-2.63818e-11
1.44763e-09
-2.5565e-11
1.36197e-09
-2.42005e-11
1.26639e-09
-2.23904e-11
1.16432e-09
-2.02432e-11
1.05862e-09
-1.78676e-11
9.51653e-10
-1.53696e-11
8.45369e-10
-1.28491e-11
7.41311e-10
-1.03963e-11
6.4069e-10
-8.09017e-12
5.44423e-10
-5.99656e-12
4.53182e-10
-4.16838e-12
3.67428e-10
-2.64578e-12
2.87449e-10
-1.45695e-12
2.13387e-10
-6.19186e-13
1.45272e-10
-1.40188e-13
8.30374e-11
2.65358e-11
-3.6459e-12
6.10148e-10
9.93909e-13
-7.46662e-12
9.28573e-10
-1.19495e-11
1.17791e-09
-1.66197e-11
1.36349e-09
-2.10723e-11
1.49186e-09
-2.49901e-11
1.57009e-09
-2.81499e-11
1.60532e-09
-3.04179e-11
1.60446e-09
-3.17413e-11
1.57399e-09
-3.21345e-11
1.51979e-09
-3.16639e-11
1.44716e-09
-3.04337e-11
1.36074e-09
-2.85719e-11
1.26453e-09
-2.62189e-11
1.16197e-09
-2.35175e-11
1.05591e-09
-2.06059e-11
9.48741e-10
-1.76113e-11
8.42374e-10
-1.4647e-11
7.38347e-10
-1.18099e-11
6.37852e-10
-9.17967e-12
5.41793e-10
-6.81895e-12
4.50821e-10
-4.77422e-12
3.65383e-10
-3.07724e-12
2.85752e-10
-1.74674e-12
2.12057e-10
-7.90257e-13
1.44316e-10
-2.06007e-13
8.24531e-11
2.63298e-11
-4.70428e-12
6.13594e-10
1.25845e-12
-9.67385e-12
9.33543e-10
-1.54745e-11
1.18371e-09
-2.14701e-11
1.36949e-09
-2.71283e-11
1.49752e-09
-3.20432e-11
1.575e-09
-3.59394e-11
1.60921e-09
-3.86638e-11
1.60719e-09
-4.01682e-11
1.57549e-09
-4.04895e-11
1.52011e-09
-3.97284e-11
1.4464e-09
-3.80293e-11
1.35904e-09
-3.55625e-11
1.26207e-09
-3.25095e-11
1.15892e-09
-2.90511e-11
1.05246e-09
-2.53589e-11
9.45049e-10
-2.15889e-11
8.38604e-10
-1.78788e-11
7.34637e-10
-1.43451e-11
6.34319e-10
-1.10835e-11
5.38531e-10
-8.16919e-12
4.47907e-10
-5.65821e-12
3.62872e-10
-3.58922e-12
2.83683e-10
-1.98552e-12
2.10453e-10
-8.57097e-13
1.43187e-10
-2.0275e-13
8.17988e-11
2.6127e-11
-5.56032e-12
6.17644e-10
1.51015e-12
-1.13587e-11
9.39342e-10
-1.8085e-11
1.19043e-09
-2.49861e-11
1.37639e-09
-3.14381e-11
1.50397e-09
-3.69741e-11
1.58054e-09
-4.12875e-11
1.61353e-09
-4.42191e-11
1.61012e-09
-4.57339e-11
1.57701e-09
-4.58953e-11
1.52027e-09
-4.48373e-11
1.44534e-09
-4.27402e-11
1.35694e-09
-3.9809e-11
1.25913e-09
-3.62564e-11
1.15536e-09
-3.22898e-11
1.04849e-09
-2.8102e-11
9.40861e-10
-2.38651e-11
8.34367e-10
-1.97275e-11
7.30499e-10
-1.58125e-11
6.30404e-10
-1.22188e-11
5.34937e-10
-9.02142e-12
4.4471e-10
-6.2742e-12
3.60125e-10
-4.01196e-12
2.8142e-10
-2.2532e-12
2.08695e-10
-1.0026e-12
1.41937e-10
-2.53566e-13
8.10498e-11
2.58735e-11
-6.27834e-12
6.22232e-10
1.69053e-12
-1.28339e-11
9.45897e-10
-2.03918e-11
1.19799e-09
-2.80794e-11
1.38407e-09
-3.51872e-11
1.51108e-09
-4.11985e-11
1.58655e-09
-4.57879e-11
1.61812e-09
-4.88019e-11
1.61313e-09
-5.02281e-11
1.57843e-09
-5.01617e-11
1.52021e-09
-4.87723e-11
1.44395e-09
-4.62748e-11
1.35444e-09
-4.29055e-11
1.25576e-09
-3.89034e-11
1.15136e-09
-3.44967e-11
1.04408e-09
-2.98935e-11
9.36258e-10
-2.52769e-11
8.29751e-10
-2.0802e-11
7.26024e-10
-1.65958e-11
6.26198e-10
-1.2758e-11
5.311e-10
-9.36332e-12
4.41315e-10
-6.46398e-12
3.57226e-10
-4.09251e-12
2.79049e-10
-2.26467e-12
2.06867e-10
-9.82339e-13
1.40655e-10
-2.36073e-13
8.03035e-11
2.56374e-11
-6.41773e-12
6.26905e-10
1.74487e-12
-1.30471e-11
9.52527e-10
-2.06317e-11
1.20558e-09
-2.82723e-11
1.39171e-09
-3.52507e-11
1.51806e-09
-4.10587e-11
1.59236e-09
-4.53928e-11
1.62245e-09
-4.81278e-11
1.61587e-09
-4.92806e-11
1.57958e-09
-4.89722e-11
1.5199e-09
-4.73918e-11
1.44237e-09
-4.47667e-11
1.35182e-09
-4.1338e-11
1.25234e-09
-3.73432e-11
1.14737e-09
-3.30039e-11
1.03974e-09
-2.85182e-11
9.31772e-10
-2.4057e-11
8.25289e-10
-1.97623e-11
7.21729e-10
-1.57481e-11
6.22183e-10
-1.2102e-11
5.27454e-10
-8.88816e-12
4.38101e-10
-6.14945e-12
3.54487e-10
-3.91106e-12
2.7681e-10
-2.18315e-12
2.05139e-10
-9.63633e-13
1.39435e-10
-2.40591e-13
7.95805e-11
2.53968e-11
-6.05848e-12
6.31325e-10
1.63856e-12
-1.23113e-11
9.58779e-10
-1.94183e-11
1.21268e-09
-2.65154e-11
1.39881e-09
-3.29267e-11
1.52447e-09
-3.81882e-11
1.59762e-09
-4.2037e-11
1.6263e-09
-4.43806e-11
1.61821e-09
-4.52583e-11
1.58046e-09
-4.48016e-11
1.51944e-09
-4.31997e-11
1.44077e-09
-4.06711e-11
1.34929e-09
-3.74415e-11
1.24911e-09
-3.37289e-11
1.14365e-09
-2.97333e-11
1.03575e-09
-2.56313e-11
9.2767e-10
-2.15735e-11
8.21232e-10
-1.76836e-11
7.17839e-10
-1.40604e-11
6.1856e-10
-1.07791e-11
5.24172e-10
-7.89406e-12
4.35216e-10
-5.44174e-12
3.52035e-10
-3.44312e-12
2.74812e-10
-1.90636e-12
2.03602e-10
-8.29177e-13
1.38358e-10
-2.00922e-13
7.89522e-11
2.51959e-11
-5.07751e-12
6.35019e-10
1.38351e-12
-1.02751e-11
9.63977e-10
-1.61504e-11
1.21856e-09
-2.19793e-11
1.40464e-09
-2.72044e-11
1.52969e-09
-3.14524e-11
1.60187e-09
-3.45211e-11
1.62937e-09
-3.63499e-11
1.62004e-09
-3.69846e-11
1.5811e-09
-3.65428e-11
1.519e-09
-3.51853e-11
1.43941e-09
-3.30925e-11
1.3472e-09
-3.04476e-11
1.24646e-09
-2.74253e-11
1.14063e-09
-2.41845e-11
1.03251e-09
-2.08642e-11
9.2435e-10
-1.75827e-11
8.1795e-10
-1.44372e-11
7.14694e-10
-1.15049e-11
6.15628e-10
-8.84517e-12
5.21513e-10
-6.50139e-12
4.32872e-10
-4.50297e-12
3.50036e-10
-2.8675e-12
2.73176e-10
-1.60273e-12
2.02337e-10
-7.08247e-13
1.37463e-10
-1.77109e-13
7.84211e-11
2.50188e-11
-3.77511e-12
6.37771e-10
1.02232e-12
-7.65116e-12
9.67853e-10
-1.20286e-11
1.22294e-09
-1.63677e-11
1.40898e-09
-2.02575e-11
1.53358e-09
-2.34259e-11
1.60503e-09
-2.57276e-11
1.63167e-09
-2.71202e-11
1.62143e-09
-2.76376e-11
1.58161e-09
-2.73644e-11
1.51873e-09
-2.6415e-11
1.43846e-09
-2.49179e-11
1.3457e-09
-2.30034e-11
1.24455e-09
-2.07963e-11
1.13842e-09
-1.8411e-11
1.03012e-09
-1.59489e-11
9.21888e-10
-1.34974e-11
8.15498e-10
-1.11298e-11
7.12326e-10
-8.90625e-12
6.13404e-10
-6.87441e-12
5.19481e-10
-5.07088e-12
4.31069e-10
-3.52234e-12
3.48488e-10
-2.24694e-12
2.71901e-10
-1.25538e-12
2.01346e-10
-5.52087e-13
1.3676e-10
-1.36204e-13
7.80052e-11
2.48826e-11
-2.27156e-12
6.39424e-10
6.18664e-13
-4.60272e-12
9.70184e-10
-7.25034e-12
1.22558e-09
-9.89909e-12
1.41163e-09
-1.23071e-11
1.53599e-09
-1.43114e-11
1.60704e-09
-1.58209e-11
1.63318e-09
-1.68024e-11
1.62241e-09
-1.72657e-11
1.58208e-09
-1.72505e-11
1.51871e-09
-1.68143e-11
1.43803e-09
-1.60246e-11
1.34491e-09
-1.49524e-11
1.24347e-09
-1.36678e-11
1.13714e-09
-1.22378e-11
1.02869e-09
-1.0724e-11
9.20374e-10
-9.1821e-12
8.13957e-10
-7.66131e-12
7.10806e-10
-6.20431e-12
6.11947e-10
-4.8473e-12
5.18124e-10
-3.62038e-12
4.29842e-10
-2.54781e-12
3.47415e-10
-1.64848e-12
2.71002e-10
-9.36371e-13
2.00634e-10
-4.20966e-13
1.36245e-10
-1.07744e-13
7.7692e-11
2.47748e-11
-7.95959e-13
6.40009e-10
2.1167e-13
-1.64187e-12
9.7103e-10
-2.63523e-12
1.22658e-09
-3.67536e-12
1.41267e-09
-4.68067e-12
1.53699e-09
-5.58969e-12
1.60795e-09
-6.35932e-12
1.63395e-09
-6.96193e-12
1.62302e-09
-7.3826e-12
1.5825e-09
-7.61657e-12
1.51895e-09
-7.66731e-12
1.43808e-09
-7.545e-12
1.34479e-09
-7.26515e-12
1.24319e-09
-6.84756e-12
1.13672e-09
-6.31521e-12
1.02816e-09
-5.69334e-12
9.19752e-10
-5.00846e-12
8.13272e-10
-4.28753e-12
7.10085e-10
-3.55711e-12
6.11217e-10
-2.84274e-12
5.17409e-10
-2.16831e-12
4.29167e-10
-1.55562e-12
3.46803e-10
-1.02405e-12
2.7047e-10
-5.90305e-13
2.002e-10
-2.68327e-13
1.35923e-10
-6.9219e-14
7.74929e-11
2.47056e-11
6.36447e-13
6.39547e-10
-1.74692e-13
1.26008e-12
9.70406e-10
1.91663e-12
1.22592e-09
2.49762e-12
1.41209e-09
2.92711e-12
1.53657e-09
3.1644e-12
1.60771e-09
3.20059e-12
1.63391e-09
3.05169e-12
1.62317e-09
2.75064e-12
1.5828e-09
2.33963e-12
1.51936e-09
1.8636e-12
1.43855e-09
1.36529e-12
1.34529e-09
8.81885e-13
1.24368e-09
4.43019e-13
1.13716e-09
6.99611e-14
1.02853e-09
-2.24367e-13
9.20047e-10
-4.34712e-13
8.13482e-10
-5.62499e-13
7.10212e-10
-6.14604e-13
6.11269e-10
-6.02085e-13
5.17397e-10
-5.38947e-13
4.29104e-10
-4.41015e-13
3.46705e-10
-3.2494e-13
2.70354e-10
-2.07377e-13
2.00082e-10
-1.0431e-13
1.3582e-10
-3.05368e-14
7.74191e-11
2.46751e-11
1.98809e-12
6.38102e-10
-5.43694e-13
3.99916e-12
9.68395e-10
6.23488e-12
1.22368e-09
8.39841e-12
1.40992e-09
1.02664e-11
1.5347e-09
1.16966e-11
1.60628e-09
1.26214e-11
1.63299e-09
1.30344e-11
1.62275e-09
1.2974e-11
1.58286e-09
1.25078e-11
1.51982e-09
1.17187e-11
1.43934e-09
1.06944e-11
1.34631e-09
9.51944e-12
1.24485e-09
8.27024e-12
1.13841e-09
7.01191e-12
1.02979e-09
5.797e-12
9.21261e-10
4.6654e-12
8.14614e-10
3.64502e-12
7.11233e-10
2.75309e-12
6.12161e-10
1.99769e-12
5.18152e-10
1.37931e-12
4.29723e-10
8.92516e-13
3.47191e-10
5.27403e-13
2.70719e-10
2.70946e-13
2.00339e-10
1.08147e-13
1.35982e-10
2.30209e-14
7.75042e-11
2.46981e-11
3.29861e-12
6.357e-10
-8.9569e-13
6.68357e-12
9.6501e-10
1.05103e-11
1.21986e-09
1.43036e-11
1.40613e-09
1.76953e-11
1.53131e-09
2.04368e-11
1.60354e-09
2.23918e-11
1.63103e-09
2.35186e-11
1.62163e-09
2.38476e-11
1.58253e-09
2.34594e-11
1.52021e-09
2.24653e-11
1.44034e-09
2.09912e-11
1.34778e-09
1.91657e-11
1.24668e-09
1.71173e-11
1.14046e-09
1.49496e-11
1.03196e-09
1.27587e-11
9.23452e-10
1.06245e-11
8.16748e-10
8.61045e-12
7.13247e-10
6.76467e-12
6.14007e-10
5.12117e-12
5.19796e-10
3.70165e-12
4.31142e-10
2.5173e-12
3.48376e-10
1.57066e-12
2.71666e-10
8.57312e-13
2.01052e-10
3.67452e-13
1.36472e-10
8.73337e-14
7.77843e-11
2.47854e-11
4.52567e-12
6.32401e-10
-1.22687e-12
9.20608e-12
9.6033e-10
1.45571e-11
1.21451e-09
1.99453e-11
1.40074e-09
2.4868e-11
1.52638e-09
2.89832e-11
1.59942e-09
3.20683e-11
1.62795e-09
3.40357e-11
1.61966e-09
3.48954e-11
1.58167e-09
3.47282e-11
1.52038e-09
3.36623e-11
1.4414e-09
3.18527e-11
1.34959e-09
2.9465e-11
1.24907e-09
2.66638e-11
1.14326e-09
2.36043e-11
1.03502e-09
2.04269e-11
9.2663e-10
1.72537e-11
8.19921e-10
1.41881e-11
7.16312e-10
1.1314e-11
6.16881e-10
8.69681e-12
5.22413e-10
6.38538e-12
4.33454e-10
4.41321e-12
3.50348e-10
2.80067e-12
2.73278e-10
1.5569e-12
2.02296e-10
6.81692e-13
1.37347e-10
1.67237e-13
7.82988e-11
2.49527e-11
5.61187e-12
6.28306e-10
-1.51692e-12
1.1458e-11
9.54484e-10
1.82015e-11
1.20776e-09
2.5074e-11
1.39387e-09
3.14543e-11
1.52e-09
3.68911e-11
1.59399e-09
4.10994e-11
1.62374e-09
4.39406e-11
1.61682e-09
4.53959e-11
1.58022e-09
4.55368e-11
1.52024e-09
4.44983e-11
1.44244e-09
4.24551e-11
1.35164e-09
3.96027e-11
1.25192e-09
3.61358e-11
1.14673e-09
3.22571e-11
1.0389e-09
2.8149e-11
9.30738e-10
2.39757e-11
8.24094e-10
1.98806e-11
7.20408e-10
1.59851e-11
6.20776e-10
1.2389e-11
5.26009e-10
9.17084e-12
4.36672e-10
6.3899e-12
3.53129e-10
4.08786e-12
2.7558e-10
2.29083e-12
2.04093e-10
1.01142e-12
1.38627e-10
2.50743e-13
7.90595e-11
2.52034e-11
6.41548e-12
6.23622e-10
-1.73217e-12
1.313e-11
9.47769e-10
2.09252e-11
1.19997e-09
2.89378e-11
1.38586e-09
3.64596e-11
1.51248e-09
4.29523e-11
1.58749e-09
4.80815e-11
1.61861e-09
5.16636e-11
1.61324e-09
5.36502e-11
1.57823e-09
5.40987e-11
1.51979e-09
5.31431e-11
1.4434e-09
5.09689e-11
1.35381e-09
4.7791e-11
1.2551e-09
4.38369e-11
1.15068e-09
3.93336e-11
1.0434e-09
3.44975e-11
9.35574e-10
2.95278e-11
8.29064e-10
2.46021e-11
7.25333e-10
1.98744e-11
6.25504e-10
1.5474e-11
5.30409e-10
1.1506e-11
4.4064e-10
8.05254e-12
3.56582e-10
5.17441e-12
2.78458e-10
2.91301e-12
2.06354e-10
1.29264e-12
1.40247e-10
3.22709e-13
8.00294e-11
2.55261e-11
6.80502e-12
6.18653e-10
-1.83514e-12
1.39494e-11
9.40625e-10
2.22741e-11
1.19164e-09
3.08713e-11
1.37726e-09
3.89886e-11
1.50436e-09
4.60583e-11
1.58042e-09
5.16993e-11
1.61297e-09
5.57002e-11
1.60923e-09
5.79938e-11
1.57594e-09
5.86268e-11
1.51916e-09
5.77313e-11
1.44429e-09
5.54978e-11
1.35604e-09
5.21522e-11
1.25844e-09
4.79372e-11
1.1549e-09
4.30976e-11
1.04824e-09
3.7869e-11
9.40803e-10
3.24703e-11
8.34463e-10
2.70981e-11
7.30705e-10
2.19244e-11
6.30678e-10
1.70947e-11
5.35239e-10
1.27283e-11
4.45006e-10
8.91936e-12
3.60391e-10
5.7383e-12
2.8164e-10
3.23417e-12
2.08858e-10
1.43679e-12
1.42045e-10
3.59233e-13
8.11069e-11
2.58854e-11
6.6388e-12
6.13804e-10
-1.79026e-12
1.36126e-11
9.33651e-10
2.17448e-11
1.18351e-09
3.01505e-11
1.36885e-09
3.80942e-11
1.49642e-09
4.50187e-11
1.5735e-09
5.05476e-11
1.60744e-09
5.44707e-11
1.60531e-09
5.67195e-11
1.57369e-09
5.73383e-11
1.51854e-09
5.64563e-11
1.44517e-09
5.42608e-11
1.35824e-09
5.09749e-11
1.26173e-09
4.68382e-11
1.15903e-09
4.2092e-11
1.05299e-09
3.69683e-11
9.45926e-10
3.16823e-11
8.39749e-10
2.64269e-11
7.35961e-10
2.137e-11
6.35735e-10
1.66535e-11
5.39956e-10
1.23932e-11
4.49266e-10
8.68009e-12
3.64104e-10
5.58168e-12
2.84738e-10
3.14459e-12
2.11295e-10
1.3966e-12
1.43793e-10
3.49227e-13
8.21543e-11
2.62346e-11
5.86644e-12
6.0952e-10
-1.58229e-12
1.20226e-11
9.27495e-10
1.91905e-11
1.17634e-09
2.6584e-11
1.36146e-09
3.35513e-11
1.48945e-09
3.9601e-11
1.56745e-09
4.44043e-11
1.60264e-09
4.77807e-11
1.60194e-09
4.96759e-11
1.57179e-09
5.01361e-11
1.51808e-09
4.92814e-11
1.44603e-09
4.72827e-11
1.36024e-09
4.43406e-11
1.26467e-09
4.0669e-11
1.1627e-09
3.64816e-11
1.05717e-09
3.19827e-11
9.50425e-10
2.736e-11
8.44372e-10
2.27806e-11
7.4054e-10
1.83889e-11
6.40126e-10
1.43054e-11
5.44039e-10
1.06277e-11
4.52944e-10
7.43108e-12
3.67301e-10
4.77066e-12
2.87398e-10
2.68329e-12
2.13383e-10
1.18975e-12
1.45286e-10
2.96954e-13
8.30471e-11
2.65315e-11
4.66007e-12
6.06118e-10
-1.25784e-12
9.54019e-12
9.22615e-10
1.52071e-11
1.17068e-09
2.1031e-11
1.35564e-09
2.64921e-11
1.48399e-09
3.12026e-11
1.56274e-09
3.49069e-11
1.59893e-09
3.74696e-11
1.59937e-09
3.88568e-11
1.5704e-09
3.9114e-11
1.51782e-09
3.83445e-11
1.4468e-09
3.669e-11
1.36189e-09
3.43138e-11
1.26705e-09
3.13875e-11
1.16563e-09
2.80803e-11
1.06048e-09
2.45524e-11
9.53953e-10
2.09491e-11
8.47975e-10
1.73984e-11
7.44091e-10
1.40095e-11
6.43515e-10
1.08722e-11
5.47176e-10
8.0582e-12
4.55758e-10
5.62166e-12
3.69738e-10
3.60112e-12
2.89419e-10
2.02118e-12
2.14963e-10
8.94318e-13
1.46413e-10
2.22736e-13
8.37187e-11
2.67543e-11
3.32862e-12
6.03688e-10
-8.99239e-13
6.80528e-12
9.19138e-10
1.08285e-11
1.16665e-09
1.49438e-11
1.35152e-09
1.8779e-11
1.48016e-09
2.20593e-11
1.55946e-09
2.46078e-11
1.59639e-09
2.63351e-11
1.59765e-09
2.72248e-11
1.56951e-09
2.73169e-11
1.51773e-09
2.66919e-11
1.44742e-09
2.54557e-11
1.36313e-09
2.37279e-11
1.26877e-09
2.16322e-11
1.16773e-09
1.9289e-11
1.06282e-09
1.68103e-11
9.56432e-10
1.42969e-11
8.50488e-10
1.18359e-11
7.46552e-10
9.50065e-12
6.4585e-10
7.35051e-12
5.49326e-10
5.43168e-12
4.57677e-10
3.7782e-12
3.71391e-10
2.41328e-12
2.90784e-10
1.35064e-12
2.16025e-10
5.95908e-13
1.47168e-10
1.47934e-13
8.41667e-11
2.69022e-11
2.1481e-12
6.02121e-10
-5.8091e-13
4.38477e-12
9.16902e-10
6.96241e-12
1.16408e-09
9.58415e-12
1.3489e-09
1.2009e-11
1.47773e-09
1.40619e-11
1.55741e-09
1.56325e-11
1.59481e-09
1.66688e-11
1.59661e-09
1.71662e-11
1.56902e-09
1.71564e-11
1.51774e-09
1.66959e-11
1.44788e-09
1.5857e-11
1.36397e-09
1.47189e-11
1.26991e-09
1.33625e-11
1.16908e-09
1.18648e-11
1.06432e-09
1.02967e-11
9.58e-10
8.72053e-12
8.52064e-10
7.18954e-12
7.48083e-10
5.74742e-12
6.47293e-10
4.42875e-12
5.50645e-10
3.25961e-12
4.58846e-10
2.25844e-12
3.72392e-10
1.43694e-12
2.91605e-10
8.01091e-13
2.16661e-10
3.5203e-13
1.47617e-10
8.69839e-14
8.44317e-11
2.69892e-11
1.2627e-12
6.012e-10
-3.42034e-13
2.57221e-12
9.15592e-10
4.07366e-12
1.16257e-09
5.58971e-12
1.34738e-09
6.97814e-12
1.47634e-09
8.13754e-12
1.55625e-09
9.00646e-12
1.59395e-09
9.55849e-12
1.59606e-09
9.79548e-12
1.56878e-09
9.7402e-12
1.51779e-09
9.42944e-12
1.4482e-09
8.90808e-12
1.36449e-09
8.22426e-12
1.2706e-09
7.42574e-12
1.16988e-09
6.55738e-12
1.06519e-09
5.65947e-12
9.58898e-10
4.76679e-12
8.52957e-10
3.90835e-12
7.48941e-10
3.10733e-12
6.48094e-10
2.38143e-12
5.51371e-10
1.74338e-12
4.59484e-10
1.20153e-12
3.72934e-10
7.60514e-13
2.92046e-10
4.21823e-13
2.17e-10
1.84433e-13
1.47854e-10
4.53281e-14
8.45708e-11
2.70345e-11
6.20294e-13
6.00749e-10
-1.68487e-13
1.25901e-12
9.14953e-10
1.98483e-12
1.16185e-09
2.70914e-12
1.34666e-09
3.36174e-12
1.47569e-09
3.89377e-12
1.55572e-09
4.27715e-12
1.59356e-09
4.5019e-12
1.59583e-09
4.57233e-12
1.56871e-09
4.50304e-12
1.51786e-09
4.31512e-12
1.44838e-09
4.03298e-12
1.36477e-09
3.68182e-12
1.27095e-09
3.28579e-12
1.17028e-09
2.86679e-12
1.06561e-09
2.44373e-12
9.59321e-10
2.03224e-12
8.53369e-10
1.64469e-12
7.49329e-10
1.29034e-12
6.48448e-10
9.7561e-13
5.51686e-10
7.04456e-13
4.59755e-10
4.78762e-13
3.7316e-10
2.98733e-13
2.92226e-10
1.63261e-13
2.17135e-10
7.02559e-14
1.47947e-10
1.69253e-14
8.46242e-11
2.70515e-11
2.48365e-13
6.00568e-10
-6.76156e-14
5.0057e-13
9.14701e-10
7.80872e-13
1.16157e-09
1.05191e-12
1.34639e-09
1.28528e-12
1.47546e-09
1.4626e-12
1.55554e-09
1.57499e-12
1.59345e-09
1.62151e-12
1.59579e-09
1.60721e-12
1.56872e-09
1.54111e-12
1.51793e-09
1.43435e-12
1.44849e-09
1.29874e-12
1.36491e-09
1.14559e-12
1.2711e-09
9.85038e-13
1.17044e-09
8.25568e-13
1.06577e-09
6.7386e-13
9.59473e-10
5.34776e-13
8.53508e-10
4.11468e-13
7.49452e-10
3.05619e-13
6.48554e-10
2.17714e-13
5.51774e-10
1.47285e-13
4.59826e-10
9.31466e-14
3.73214e-10
5.36181e-14
2.92266e-10
2.6705e-14
2.17162e-10
1.02547e-14
1.47964e-10
2.08304e-15
8.46323e-11
2.70535e-11
6.50525e-14
6.00521e-10
-1.83094e-14
1.26814e-13
9.14639e-10
1.89546e-13
1.16151e-09
2.41356e-13
1.34634e-09
2.7437e-13
1.47542e-09
2.85096e-13
1.55553e-09
2.73815e-13
1.59346e-09
2.43583e-13
1.59582e-09
1.9915e-13
1.56877e-09
1.45985e-13
1.51798e-09
8.95046e-14
1.44855e-09
3.45195e-14
1.36496e-09
-1.50909e-14
1.27115e-09
-5.65349e-14
1.17048e-09
-8.81194e-14
1.0658e-09
-1.09166e-13
9.59494e-10
-1.19873e-13
8.53518e-10
-1.21142e-13
7.49453e-10
-1.14402e-13
6.48547e-10
-1.01436e-13
5.51761e-10
-8.42293e-14
4.59808e-10
-6.48278e-14
3.73195e-10
-4.52458e-14
2.92246e-10
-2.7377e-14
2.17145e-10
-1.29365e-14
1.47949e-10
-3.42473e-15
8.46228e-11
2.70501e-11
-5.84424e-14
6.00564e-10
1.55813e-14
-1.235e-13
9.14705e-10
-2.05587e-13
1.16159e-09
-2.98916e-13
1.34643e-09
-3.97407e-13
1.47552e-09
-4.94938e-13
1.55562e-09
-5.85715e-13
1.59355e-09
-6.64655e-13
1.59589e-09
-7.27683e-13
1.56883e-09
-7.71927e-13
1.51803e-09
-7.95794e-13
1.44857e-09
-7.9894e-13
1.36497e-09
-7.82151e-13
1.27113e-09
-7.47168e-13
1.17044e-09
-6.96484e-13
1.06575e-09
-6.33128e-13
9.5943e-10
-5.60448e-13
8.53446e-10
-4.81936e-13
7.49375e-10
-4.0106e-13
6.48466e-10
-3.21129e-13
5.51681e-10
-2.45203e-13
4.59733e-10
-1.76012e-13
3.73125e-10
-1.15916e-13
2.92186e-10
-6.68798e-14
2.17095e-10
-3.0473e-14
1.47913e-10
-7.87485e-15
8.46002e-11
2.70422e-11
-1.09259e-13
6.00644e-10
2.90667e-14
-2.27133e-13
9.14822e-10
-3.68657e-13
1.16173e-09
-5.20466e-13
1.34658e-09
-6.70606e-13
1.47567e-09
-8.09037e-13
1.55576e-09
-9.27898e-13
1.59367e-09
-1.0216e-12
1.59599e-09
-1.08674e-12
1.5689e-09
-1.12196e-12
1.51806e-09
-1.12763e-12
1.44858e-09
-1.10558e-12
1.36494e-09
-1.05876e-12
1.27109e-09
-9.90924e-13
1.17038e-09
-9.06329e-13
1.06566e-09
-8.09473e-13
9.59333e-10
-7.04879e-13
8.53341e-10
-5.96912e-13
7.49267e-10
-4.89643e-13
6.48359e-10
-3.8676e-13
5.51578e-10
-2.91495e-13
4.59637e-10
-2.06595e-13
3.7304e-10
-1.34317e-13
2.92114e-10
-7.64291e-14
2.17038e-10
-3.42398e-14
1.47871e-10
-8.62844e-15
8.45746e-11
2.70336e-11
-1.27271e-13
6.00737e-10
3.42584e-14
-2.62454e-13
9.14958e-10
-4.22867e-13
1.16189e-09
-5.92376e-13
1.34675e-09
-7.57023e-13
1.47584e-09
-9.05563e-13
1.55591e-09
-1.02967e-12
1.5938e-09
-1.1239e-12
1.59608e-09
-1.18544e-12
1.56896e-09
-1.21373e-12
1.51809e-09
-1.21012e-12
1.44857e-09
-1.17736e-12
1.36491e-09
-1.11927e-12
1.27103e-09
-1.04032e-12
1.1703e-09
-9.453e-13
1.06557e-09
-8.39122e-13
9.59227e-10
-7.26538e-13
8.53229e-10
-6.12016e-13
7.49152e-10
-4.99617e-13
6.48247e-10
-3.9293e-13
5.51471e-10
-2.95025e-13
4.59539e-10
-2.08446e-13
3.72954e-10
-1.35221e-13
2.92041e-10
-7.68816e-14
2.16979e-10
-3.45068e-14
1.47828e-10
-8.75842e-15
8.45489e-11
2.70249e-11
-1.27241e-13
6.0083e-10
3.40824e-14