/*--------------------------------*- C++ -*----------------------------------*\
| =========                 |                                                 |
| \\      /  F ield         | OpenFOAM: The Open Source CFD Toolbox           |
|  \\    /   O peration     | Version:  2106                                  |
|   \\  /    A nd           | Website:  www.openfoam.com                      |
|    \\/     M anipulation  |                                                 |
\*---------------------------------------------------------------------------*/
FoamFile
{
    version     2.0;
    format      ascii;
    arch        "LSB;label=32;scalar=64";
    class       volScalarField;
    location    "219.99956";
    object      SC3H5_0;
}
// * * * * * * * * * * * * * * * * * * * * * * * * * * * * * * * * * * * * * //

dimensions      [0 0 0 0 0 0 0];

internalField   nonuniform List<scalar> 
3360
(
7.3572e-20
7.59412e-20
7.92384e-20
8.32714e-20
8.78723e-20
9.28902e-20
9.81886e-20
1.03645e-19
1.09149e-19
1.14604e-19
1.19927e-19
1.25046e-19
1.29903e-19
1.3445e-19
1.38652e-19
1.42485e-19
1.45932e-19
1.48987e-19
1.51652e-19
1.53934e-19
1.55847e-19
1.57409e-19
1.58643e-19
1.59574e-19
1.60229e-19
1.60637e-19
1.60826e-19
3.22919e-19
3.34798e-19
3.51559e-19
3.72433e-19
3.9678e-19
4.24042e-19
4.53721e-19
4.8536e-19
5.18536e-19
5.52848e-19
5.8791e-19
6.23349e-19
6.58794e-19
6.93883e-19
7.28255e-19
7.61559e-19
7.93448e-19
8.2359e-19
8.51662e-19
8.77363e-19
9.00419e-19
9.20585e-19
9.37653e-19
9.51457e-19
9.61875e-19
9.68831e-19
9.723e-19
1.01406e-18
1.0586e-18
1.1219e-18
1.20143e-18
1.29512e-18
1.4011e-18
1.51758e-18
1.64281e-18
1.77502e-18
1.91239e-18
2.05306e-18
2.19521e-18
2.337e-18
2.47663e-18
2.61237e-18
2.74256e-18
2.86568e-18
2.98035e-18
3.08538e-18
3.17979e-18
3.2628e-18
3.33389e-18
3.39274e-18
3.43926e-18
3.47355e-18
3.49592e-18
3.5068e-18
2.95659e-18
3.10358e-18
3.31384e-18
3.57987e-18
3.89537e-18
4.25447e-18
4.65128e-18
5.0797e-18
5.53331e-18
6.00541e-18
6.48902e-18
6.97708e-18
7.46255e-18
7.9386e-18
8.39872e-18
8.83695e-18
9.24801e-18
9.62741e-18
9.97153e-18
1.02777e-17
1.0544e-17
1.07697e-17
1.09545e-17
1.10991e-17
1.12045e-17
1.12727e-17
1.13055e-17
8.64949e-18
9.11376e-18
9.7792e-18
1.06231e-17
1.16262e-17
1.27699e-17
1.40352e-17
1.54019e-17
1.68485e-17
1.83522e-17
1.98897e-17
2.14372e-17
2.29716e-17
2.44705e-17
2.59136e-17
2.72823e-17
2.85608e-17
2.97361e-17
3.07978e-17
3.17389e-17
3.25548e-17
3.32437e-17
3.38062e-17
3.42449e-17
3.45643e-17
3.477e-17
3.4869e-17
2.55406e-17
2.69685e-17
2.90176e-17
3.16185e-17
3.47117e-17
3.82395e-17
4.21425e-17
4.6357e-17
5.08153e-17
5.5446e-17
6.01755e-17
6.49297e-17
6.96364e-17
7.42272e-17
7.86391e-17
8.28163e-17
8.6711e-17
9.02846e-17
9.35073e-17
9.63587e-17
9.88267e-17
1.00907e-16
1.02604e-16
1.03925e-16
1.04885e-16
1.05503e-16
1.058e-16
7.5982e-17
8.03272e-17
8.65626e-17
9.44775e-17
1.0389e-16
1.14623e-16
1.26492e-16
1.39301e-16
1.52842e-16
1.66895e-16
1.81234e-16
1.95635e-16
2.09878e-16
2.23757e-16
2.37083e-16
2.49688e-16
2.61432e-16
2.722e-16
2.81904e-16
2.90485e-16
2.97908e-16
3.04164e-16
3.09263e-16
3.13233e-16
3.16118e-16
3.17974e-16
3.18867e-16
2.26809e-16
2.39903e-16
2.58705e-16
2.82578e-16
3.10976e-16
3.43362e-16
3.7918e-16
4.17832e-16
4.58686e-16
5.01074e-16
5.44314e-16
5.87724e-16
6.30644e-16
6.72448e-16
7.1257e-16
7.50507e-16
7.85834e-16
8.18211e-16
8.47377e-16
8.73156e-16
8.95449e-16
9.14227e-16
9.29525e-16
9.41432e-16
9.50082e-16
9.55646e-16
9.5832e-16
6.78846e-16
7.18263e-16
7.74846e-16
8.46685e-16
9.32128e-16
1.02956e-15
1.13728e-15
1.2535e-15
1.3763e-15
1.50367e-15
1.63356e-15
1.76392e-15
1.89275e-15
2.0182e-15
2.13857e-15
2.25235e-15
2.35829e-15
2.45535e-15
2.54278e-15
2.62005e-15
2.68686e-15
2.74314e-15
2.78898e-15
2.82466e-15
2.85059e-15
2.86726e-15
2.87527e-15
2.03207e-15
2.15032e-15
2.32011e-15
2.53569e-15
2.7921e-15
3.08448e-15
3.40774e-15
3.75648e-15
4.12492e-15
4.50703e-15
4.89662e-15
5.28756e-15
5.67388e-15
6.04997e-15
6.41075e-15
6.75172e-15
7.0691e-15
7.35985e-15
7.62167e-15
7.85301e-15
8.05299e-15
8.2214e-15
8.35857e-15
8.46531e-15
8.54284e-15
8.59269e-15
8.61665e-15
6.08637e-15
6.44102e-15
6.9501e-15
7.59637e-15
8.36489e-15
9.241e-15
1.02094e-14
1.12539e-14
1.2357e-14
1.35007e-14
1.46664e-14
1.58358e-14
1.69911e-14
1.81155e-14
1.91937e-14
2.02126e-14
2.11607e-14
2.20291e-14
2.2811e-14
2.35017e-14
2.40988e-14
2.46015e-14
2.50109e-14
2.53295e-14
2.55609e-14
2.57097e-14
2.57812e-14
1.82147e-14
1.92757e-14
2.07985e-14
2.27315e-14
2.50297e-14
2.76491e-14
3.05437e-14
3.36646e-14
3.69599e-14
4.03753e-14
4.38554e-14
4.73452e-14
5.07915e-14
5.41445e-14
5.73589e-14
6.03951e-14
6.32196e-14
6.58057e-14
6.81334e-14
7.0189e-14
7.19653e-14
7.34606e-14
7.4678e-14
7.5625e-14
7.63127e-14
7.67548e-14
7.69672e-14
5.44637e-14
5.76327e-14
6.21798e-14
6.79491e-14
7.48053e-14
8.26155e-14
9.12414e-14
1.00536e-13
1.10344e-13
1.20504e-13
1.30849e-13
1.41216e-13
1.51448e-13
1.61398e-13
1.7093e-13
1.79929e-13
1.88297e-13
1.95955e-13
2.02844e-13
2.08926e-13
2.1418e-13
2.18601e-13
2.22199e-13
2.24998e-13
2.2703e-13
2.28336e-13
2.28963e-13
1.62436e-13
1.71861e-13
1.85381e-13
2.02527e-13
2.22891e-13
2.46073e-13
2.71657e-13
2.99204e-13
3.28247e-13
3.58303e-13
3.88883e-13
4.19502e-13
4.49693e-13
4.79024e-13
5.07103e-13
5.33588e-13
5.58195e-13
5.80697e-13
6.00926e-13
6.18773e-13
6.34178e-13
6.47135e-13
6.57675e-13
6.65868e-13
6.71813e-13
6.75633e-13
6.77467e-13
4.82917e-13
5.1081e-13
5.50792e-13
6.01453e-13
6.61564e-13
7.29917e-13
8.05261e-13
8.86278e-13
9.71581e-13
1.05974e-12
1.1493e-12
1.23886e-12
1.32704e-12
1.4126e-12
1.49439e-12
1.57145e-12
1.64296e-12
1.70829e-12
1.76695e-12
1.81866e-12
1.86325e-12
1.90073e-12
1.9312e-12
1.95486e-12
1.97203e-12
1.98305e-12
1.98834e-12
1.42796e-12
1.50975e-12
1.62689e-12
1.77515e-12
1.95083e-12
2.15028e-12
2.36977e-12
2.60536e-12
2.85296e-12
3.10836e-12
3.36735e-12
3.6258e-12
3.87983e-12
4.12582e-12
4.36059e-12
4.58139e-12
4.78595e-12
4.97251e-12
5.13982e-12
5.28707e-12
5.41392e-12
5.52038e-12
5.60684e-12
5.67393e-12
5.72255e-12
5.75375e-12
5.76871e-12
4.1922e-12
4.42909e-12
4.76792e-12
5.19605e-12
5.70234e-12
6.27589e-12
6.90555e-12
7.57969e-12
8.28634e-12
9.0133e-12
9.74849e-12
1.04802e-11
1.11976e-11
1.18905e-11
1.25501e-11
1.31691e-11
1.37413e-11
1.4262e-11
1.47281e-11
1.51376e-11
1.54897e-11
1.57849e-11
1.60242e-11
1.62097e-11
1.6344e-11
1.643e-11
1.64713e-11
1.21851e-11
1.28592e-11
1.38216e-11
1.5035e-11
1.6466e-11
1.80823e-11
1.98509e-11
2.17382e-11
2.37094e-11
2.57302e-11
2.77667e-11
2.97866e-11
3.176e-11
3.36599e-11
3.54631e-11
3.71499e-11
3.87049e-11
4.01165e-11
4.13767e-11
4.24815e-11
4.34295e-11
4.42226e-11
4.48646e-11
4.53614e-11
4.57205e-11
4.59504e-11
4.60605e-11
3.49416e-11
3.68145e-11
3.94826e-11
4.28364e-11
4.67781e-11
5.1213e-11
5.6046e-11
6.11807e-11
6.65206e-11
7.19706e-11
7.74389e-11
8.28395e-11
8.80941e-11
9.31331e-11
9.78974e-11
1.02339e-10
1.06419e-10
1.10112e-10
1.13399e-10
1.16273e-10
1.18734e-10
1.20787e-10
1.22446e-10
1.23728e-10
1.24653e-10
1.25244e-10
1.25527e-10
9.83582e-11
1.03402e-10
1.10567e-10
1.19542e-10
1.30048e-10
1.41815e-10
1.54577e-10
1.68069e-10
1.8203e-10
1.96208e-10
2.10365e-10
2.2428e-10
2.37758e-10
2.50628e-10
2.62746e-10
2.74e-10
2.84302e-10
2.93595e-10
3.01843e-10
3.09033e-10
3.15173e-10
3.20286e-10
3.24408e-10
3.27586e-10
3.29875e-10
3.31337e-10
3.32034e-10
2.70065e-10
2.83114e-10
3.01598e-10
3.24666e-10
3.51553e-10
3.81529e-10
4.13883e-10
4.47922e-10
4.82976e-10
5.1841e-10
5.53635e-10
5.88116e-10
6.21383e-10
6.53037e-10
6.82748e-10
7.10259e-10
7.35381e-10
7.57988e-10
7.78013e-10
7.9544e-10
8.10298e-10
8.22653e-10
8.326e-10
8.40261e-10
8.45774e-10
8.49289e-10
8.50965e-10
7.17952e-10
7.50019e-10
7.95318e-10
8.51654e-10
9.17067e-10
9.89715e-10
1.06783e-09
1.14973e-09
1.23381e-09
1.31857e-09
1.40262e-09
1.48474e-09
1.56387e-09
1.6391e-09
1.70972e-09
1.77519e-09
1.83512e-09
1.88923e-09
1.93737e-09
1.97949e-09
2.01561e-09
2.04586e-09
2.07039e-09
2.08943e-09
2.10324e-09
2.11213e-09
2.1164e-09
1.83847e-09
1.91234e-09
2.01627e-09
2.1449e-09
2.29352e-09
2.45786e-09
2.63404e-09
2.81839e-09
3.00739e-09
3.19763e-09
3.3857e-09
3.56822e-09
3.74173e-09
3.90271e-09
4.04943e-09
4.18193e-09
4.30028e-09
4.40467e-09
4.49546e-09
4.57313e-09
4.63831e-09
4.69171e-09
4.73412e-09
4.76639e-09
4.78934e-09
4.80384e-09
4.81069e-09
4.54192e-09
4.70168e-09
4.92318e-09
5.19014e-09
5.48436e-09
5.7927e-09
6.10663e-09
6.41723e-09
6.71602e-09
6.99551e-09
7.24943e-09
7.473e-09
7.66299e-09
7.81778e-09
7.93729e-09
8.02285e-09
8.07699e-09
8.10324e-09
8.10585e-09
8.08959e-09
8.05949e-09
8.02063e-09
7.97798e-09
7.93622e-09
7.89964e-09
7.87209e-09
7.8569e-09
1.00873e-08
1.02965e-08
1.05691e-08
1.08691e-08
1.11612e-08
1.14121e-08
1.15919e-08
1.16764e-08
1.16485e-08
1.15001e-08
1.12332e-08
1.08589e-08
1.03964e-08
9.86986e-09
9.30559e-09
8.72873e-09
8.16132e-09
7.62101e-09
7.1208e-09
6.66948e-09
6.27245e-09
5.93253e-09
5.65081e-09
5.42727e-09
5.26126e-09
5.15176e-09
5.09762e-09
1.54633e-08
1.52767e-08
1.49535e-08
1.44664e-08
1.38051e-08
1.29834e-08
1.2038e-08
1.10207e-08
9.98638e-09
8.98241e-09
8.04237e-09
7.18545e-09
6.41912e-09
5.743e-09
5.15222e-09
4.63984e-09
4.19828e-09
3.82013e-09
3.49856e-09
3.22751e-09
3.00197e-09
2.81756e-09
2.67052e-09
2.55763e-09
2.47616e-09
2.42376e-09
2.39843e-09
9.29888e-09
8.95144e-09
8.47873e-09
7.92127e-09
7.31609e-09
6.69507e-09
6.08351e-09
5.49955e-09
4.95448e-09
4.45637e-09
4.0089e-09
3.61198e-09
3.26318e-09
2.95885e-09
2.69483e-09
2.46692e-09
2.27116e-09
2.10395e-09
1.9621e-09
1.84285e-09
1.74383e-09
1.66303e-09
1.59872e-09
1.54945e-09
1.51397e-09
1.4912e-09
1.48023e-09
4.15993e-09
4.04038e-09
3.87839e-09
3.68811e-09
3.4822e-09
3.27137e-09
3.06414e-09
2.86675e-09
2.68341e-09
2.51665e-09
2.36762e-09
2.23648e-09
2.12264e-09
2.02508e-09
1.94247e-09
1.8738e-09
1.8175e-09
1.77203e-09
1.73595e-09
1.70787e-09
1.68653e-09
1.67079e-09
1.6596e-09
1.65206e-09
1.64729e-09
1.64463e-09
1.64353e-09
2.1518e-09
2.13527e-09
2.11328e-09
2.08843e-09
2.06504e-09
2.04563e-09
2.03266e-09
2.02825e-09
2.03403e-09
2.05109e-09
2.07989e-09
2.12038e-09
2.172e-09
2.23372e-09
2.30418e-09
2.38169e-09
2.46432e-09
2.55e-09
2.63624e-09
2.72055e-09
2.80054e-09
2.87398e-09
2.93885e-09
2.99334e-09
3.03589e-09
3.0652e-09
3.08023e-09
1.69262e-09
1.7293e-09
1.78291e-09
1.85295e-09
1.93966e-09
2.04356e-09
2.16537e-09
2.30564e-09
2.46467e-09
2.64168e-09
2.83495e-09
3.04229e-09
3.26107e-09
3.48825e-09
3.72038e-09
3.95377e-09
4.18461e-09
4.40906e-09
4.62332e-09
4.82383e-09
5.00724e-09
5.17051e-09
5.31094e-09
5.42624e-09
5.51457e-09
5.57444e-09
5.60473e-09
2.29972e-09
2.38147e-09
2.49907e-09
2.649e-09
2.82876e-09
3.0358e-09
3.26762e-09
3.5215e-09
3.79441e-09
4.08292e-09
4.38335e-09
4.69174e-09
5.00402e-09
5.3161e-09
5.62375e-09
5.92306e-09
6.21028e-09
6.48195e-09
6.73472e-09
6.96552e-09
7.17172e-09
7.35105e-09
7.50226e-09
7.62439e-09
7.71663e-09
7.77838e-09
7.8093e-09
3.68255e-09
3.78353e-09
3.92613e-09
4.10359e-09
4.30996e-09
4.53977e-09
4.78785e-09
5.04931e-09
5.31949e-09
5.59395e-09
5.86856e-09
6.13943e-09
6.40305e-09
6.65727e-09
6.90067e-09
7.13172e-09
7.34885e-09
7.55062e-09
7.73574e-09
7.90302e-09
8.05144e-09
8.18011e-09
8.28829e-09
8.37539e-09
8.44099e-09
8.48481e-09
8.5067e-09
5.07209e-09
5.14698e-09
5.24988e-09
5.37339e-09
5.51073e-09
5.65756e-09
5.81002e-09
5.96471e-09
6.11877e-09
6.26991e-09
6.41635e-09
6.5568e-09
6.69035e-09
6.81639e-09
6.93456e-09
7.0446e-09
7.14636e-09
7.23961e-09
7.3243e-09
7.40027e-09
7.46734e-09
7.52534e-09
7.57408e-09
7.61336e-09
7.64301e-09
7.66288e-09
7.67285e-09
5.62816e-09
5.65102e-09
5.68107e-09
5.71502e-09
5.75009e-09
5.78425e-09
5.81592e-09
5.8441e-09
5.86832e-09
5.88851e-09
5.90494e-09
5.91807e-09
5.92851e-09
5.93687e-09
5.94375e-09
5.9497e-09
5.95512e-09
5.96027e-09
5.9654e-09
5.97059e-09
5.97582e-09
5.98098e-09
5.9859e-09
5.99037e-09
5.99411e-09
5.99688e-09
5.99839e-09
5.19692e-09
5.17767e-09
5.14979e-09
5.11412e-09
5.07151e-09
5.02296e-09
4.96961e-09
4.9127e-09
4.85353e-09
4.79342e-09
4.73358e-09
4.67515e-09
4.61909e-09
4.56621e-09
4.51711e-09
4.47226e-09
4.43193e-09
4.39626e-09
4.36526e-09
4.33884e-09
4.31682e-09
4.29888e-09
4.28475e-09
4.27413e-09
4.26669e-09
4.26208e-09
4.25994e-09
4.14191e-09
4.10488e-09
4.05328e-09
3.99025e-09
3.91862e-09
3.84097e-09
3.75962e-09
3.67666e-09
3.59389e-09
3.51281e-09
3.43469e-09
3.36049e-09
3.29096e-09
3.2266e-09
3.16776e-09
3.11461e-09
3.06718e-09
3.02538e-09
2.98907e-09
2.95801e-09
2.93195e-09
2.91058e-09
2.89358e-09
2.88062e-09
2.87139e-09
2.86554e-09
2.86277e-09
2.97734e-09
2.9419e-09
2.89305e-09
2.83418e-09
2.76828e-09
2.69797e-09
2.62549e-09
2.55272e-09
2.4812e-09
2.41211e-09
2.34638e-09
2.28467e-09
2.22741e-09
2.17487e-09
2.12717e-09
2.08432e-09
2.04625e-09
2.01281e-09
1.98381e-09
1.95902e-09
1.93822e-09
1.92113e-09
1.90751e-09
1.89711e-09
1.88966e-09
1.88492e-09
1.88267e-09
2.01947e-09
1.9931e-09
1.95692e-09
1.91359e-09
1.86542e-09
1.81441e-09
1.76221e-09
1.71019e-09
1.65941e-09
1.61068e-09
1.56459e-09
1.52154e-09
1.48177e-09
1.44543e-09
1.41255e-09
1.38309e-09
1.35696e-09
1.33404e-09
1.31419e-09
1.29722e-09
1.28298e-09
1.27128e-09
1.26195e-09
1.2548e-09
1.24968e-09
1.24642e-09
1.24486e-09
1.34544e-09
1.32809e-09
1.30434e-09
1.27597e-09
1.24452e-09
1.21132e-09
1.17746e-09
1.14381e-09
1.11106e-09
1.07971e-09
1.05012e-09
1.02254e-09
9.97108e-10
9.73894e-10
9.52909e-10
9.34121e-10
9.17466e-10
9.02859e-10
8.90202e-10
8.79387e-10
8.70303e-10
8.62835e-10
8.56872e-10
8.52305e-10
8.49028e-10
8.46939e-10
8.45941e-10
9.09748e-10
8.9897e-10
8.84226e-10
8.66625e-10
8.47133e-10
8.26569e-10
8.05611e-10
7.84797e-10
7.64547e-10
7.45168e-10
7.26883e-10
7.09836e-10
6.94115e-10
6.7976e-10
6.66778e-10
6.5515e-10
6.44838e-10
6.35789e-10
6.27942e-10
6.21233e-10
6.15592e-10
6.10951e-10
6.07243e-10
6.044e-10
6.02358e-10
6.01056e-10
6.00433e-10
6.38824e-10
6.32263e-10
6.23286e-10
6.12566e-10
6.00687e-10
5.88149e-10
5.7536e-10
5.6265e-10
5.50272e-10
5.38415e-10
5.27214e-10
5.1676e-10
5.07108e-10
4.98284e-10
4.90293e-10
4.83127e-10
4.76762e-10
4.71171e-10
4.66316e-10
4.6216e-10
4.58662e-10
4.55781e-10
4.53476e-10
4.51707e-10
4.50435e-10
4.49623e-10
4.49235e-10
4.72354e-10
4.68341e-10
4.62845e-10
4.56277e-10
4.48989e-10
4.41286e-10
4.33417e-10
4.25583e-10
4.17941e-10
4.10607e-10
4.03666e-10
3.97176e-10
3.91172e-10
3.85673e-10
3.80684e-10
3.76201e-10
3.72213e-10
3.68703e-10
3.65651e-10
3.63035e-10
3.6083e-10
3.59012e-10
3.57555e-10
3.56436e-10
3.55631e-10
3.55115e-10
3.54869e-10
3.69235e-10
3.66728e-10
3.63291e-10
3.59177e-10
3.54606e-10
3.49765e-10
3.4481e-10
3.39866e-10
3.35033e-10
3.30383e-10
3.25973e-10
3.21839e-10
3.18007e-10
3.14488e-10
3.11289e-10
3.08408e-10
3.05839e-10
3.03574e-10
3.016e-10
2.99905e-10
2.98473e-10
2.97291e-10
2.96344e-10
2.95615e-10
2.95091e-10
2.94754e-10
2.94593e-10
3.03961e-10
3.02344e-10
3.00125e-10
2.97465e-10
2.94504e-10
2.91361e-10
2.88137e-10
2.84913e-10
2.81752e-10
2.78704e-10
2.75805e-10
2.73081e-10
2.70549e-10
2.68218e-10
2.66094e-10
2.64176e-10
2.62463e-10
2.60948e-10
2.59625e-10
2.58486e-10
2.57522e-10
2.56725e-10
2.56085e-10
2.55591e-10
2.55235e-10
2.55008e-10
2.54899e-10
2.6135e-10
2.60267e-10
2.58779e-10
2.56992e-10
2.54999e-10
2.52879e-10
2.50698e-10
2.48512e-10
2.46364e-10
2.44286e-10
2.42305e-10
2.40438e-10
2.38698e-10
2.37091e-10
2.35624e-10
2.34295e-10
2.33105e-10
2.3205e-10
2.31127e-10
2.3033e-10
2.29655e-10
2.29094e-10
2.28643e-10
2.28294e-10
2.28042e-10
2.2788e-10
2.27802e-10
2.32498e-10
2.31742e-10
2.30702e-10
2.29451e-10
2.28052e-10
2.26562e-10
2.25025e-10
2.2348e-10
2.21957e-10
2.20481e-10
2.1907e-10
2.17736e-10
2.16489e-10
2.15335e-10
2.14278e-10
2.13319e-10
2.12458e-10
2.11692e-10
2.11021e-10
2.1044e-10
2.09946e-10
2.09536e-10
2.09205e-10
2.08949e-10
2.08763e-10
2.08644e-10
2.08586e-10
2.12173e-10
2.11623e-10
2.10865e-10
2.09951e-10
2.08928e-10
2.07835e-10
2.06705e-10
2.05567e-10
2.04443e-10
2.03349e-10
2.02301e-10
2.01308e-10
2.00377e-10
1.99514e-10
1.98721e-10
1.97999e-10
1.97349e-10
1.96771e-10
1.96262e-10
1.95821e-10
1.95446e-10
1.95133e-10
1.9488e-10
1.94684e-10
1.94542e-10
1.9445e-10
1.94406e-10
1.97269e-10
1.96852e-10
1.96276e-10
1.95582e-10
1.94803e-10
1.93969e-10
1.93105e-10
1.92232e-10
1.91368e-10
1.90526e-10
1.89716e-10
1.88947e-10
1.88225e-10
1.87553e-10
1.86935e-10
1.8637e-10
1.85861e-10
1.85407e-10
1.85007e-10
1.84659e-10
1.84363e-10
1.84115e-10
1.83915e-10
1.83759e-10
1.83646e-10
1.83573e-10
1.83538e-10
1.85912e-10
1.85583e-10
1.8513e-10
1.84582e-10
1.83966e-10
1.83306e-10
1.8262e-10
1.81927e-10
1.81238e-10
1.80566e-10
1.79918e-10
1.79302e-10
1.78721e-10
1.7818e-10
1.77681e-10
1.77224e-10
1.76812e-10
1.76443e-10
1.76117e-10
1.75834e-10
1.75591e-10
1.75389e-10
1.75225e-10
1.75097e-10
1.75004e-10
1.74944e-10
1.74915e-10
1.76945e-10
1.76678e-10
1.76309e-10
1.75863e-10
1.7536e-10
1.7482e-10
1.74259e-10
1.7369e-10
1.73124e-10
1.7257e-10
1.72035e-10
1.71525e-10
1.71044e-10
1.70595e-10
1.7018e-10
1.698e-10
1.69455e-10
1.69147e-10
1.68874e-10
1.68636e-10
1.68433e-10
1.68262e-10
1.68124e-10
1.68016e-10
1.67938e-10
1.67887e-10
1.67862e-10
1.69644e-10
1.6942e-10
1.69111e-10
1.68737e-10
1.68315e-10
1.67861e-10
1.67389e-10
1.66909e-10
1.66431e-10
1.65963e-10
1.6551e-10
1.65077e-10
1.64668e-10
1.64286e-10
1.63931e-10
1.63607e-10
1.63312e-10
1.63048e-10
1.62814e-10
1.6261e-10
1.62434e-10
1.62288e-10
1.62168e-10
1.62075e-10
1.62008e-10
1.61964e-10
1.61942e-10
1.63537e-10
1.63345e-10
1.6308e-10
1.62759e-10
1.62396e-10
1.62006e-10
1.616e-10
1.61186e-10
1.60773e-10
1.60368e-10
1.59976e-10
1.59601e-10
1.59246e-10
1.58914e-10
1.58605e-10
1.58322e-10
1.58065e-10
1.57834e-10
1.57629e-10
1.5745e-10
1.57297e-10
1.57168e-10
1.57063e-10
1.56981e-10
1.56921e-10
1.56883e-10
1.56864e-10
1.58314e-10
1.58147e-10
1.57915e-10
1.57634e-10
1.57317e-10
1.56975e-10
1.56618e-10
1.56255e-10
1.55892e-10
1.55535e-10
1.5519e-10
1.54859e-10
1.54545e-10
1.54251e-10
1.53978e-10
1.53727e-10
1.53499e-10
1.53294e-10
1.53111e-10
1.52952e-10
1.52815e-10
1.527e-10
1.52607e-10
1.52534e-10
1.5248e-10
1.52446e-10
1.52429e-10
1.53764e-10
1.53616e-10
1.5341e-10
1.5316e-10
1.52878e-10
1.52574e-10
1.52256e-10
1.51932e-10
1.51608e-10
1.5129e-10
1.50981e-10
1.50685e-10
1.50404e-10
1.5014e-10
1.49895e-10
1.49669e-10
1.49464e-10
1.49279e-10
1.49115e-10
1.48971e-10
1.48848e-10
1.48744e-10
1.48659e-10
1.48593e-10
1.48545e-10
1.48513e-10
1.48498e-10
1.4974e-10
1.49607e-10
1.49422e-10
1.49197e-10
1.48943e-10
1.48669e-10
1.48382e-10
1.4809e-10
1.47797e-10
1.47509e-10
1.47229e-10
1.46961e-10
1.46706e-10
1.46467e-10
1.46244e-10
1.46039e-10
1.45852e-10
1.45684e-10
1.45535e-10
1.45404e-10
1.45291e-10
1.45196e-10
1.45119e-10
1.45058e-10
1.45014e-10
1.44985e-10
1.44971e-10
1.46137e-10
1.46015e-10
1.45847e-10
1.45642e-10
1.45411e-10
1.45161e-10
1.449e-10
1.44633e-10
1.44367e-10
1.44104e-10
1.43848e-10
1.43602e-10
1.43369e-10
1.4315e-10
1.42946e-10
1.42758e-10
1.42586e-10
1.42432e-10
1.42294e-10
1.42174e-10
1.4207e-10
1.41983e-10
1.41911e-10
1.41856e-10
1.41815e-10
1.41788e-10
1.41775e-10
1.42875e-10
1.42764e-10
1.42609e-10
1.42422e-10
1.42209e-10
1.4198e-10
1.4174e-10
1.41494e-10
1.41249e-10
1.41007e-10
1.40771e-10
1.40545e-10
1.40329e-10
1.40127e-10
1.39938e-10
1.39764e-10
1.39606e-10
1.39463e-10
1.39335e-10
1.39224e-10
1.39127e-10
1.39046e-10
1.3898e-10
1.38928e-10
1.3889e-10
1.38866e-10
1.38854e-10
1.39898e-10
1.39795e-10
1.39652e-10
1.39478e-10
1.39282e-10
1.39069e-10
1.38847e-10
1.3862e-10
1.38392e-10
1.38167e-10
1.37949e-10
1.37738e-10
1.37538e-10
1.3735e-10
1.37175e-10
1.37013e-10
1.36865e-10
1.36732e-10
1.36613e-10
1.36509e-10
1.36419e-10
1.36343e-10
1.36281e-10
1.36233e-10
1.36197e-10
1.36174e-10
1.36163e-10
1.37158e-10
1.37063e-10
1.3693e-10
1.36768e-10
1.36585e-10
1.36387e-10
1.3618e-10
1.35968e-10
1.35756e-10
1.35546e-10
1.35342e-10
1.35145e-10
1.34958e-10
1.34782e-10
1.34618e-10
1.34466e-10
1.34328e-10
1.34203e-10
1.34092e-10
1.33994e-10
1.33909e-10
1.33838e-10
1.3378e-10
1.33735e-10
1.33701e-10
1.3368e-10
1.33669e-10
1.34622e-10
1.34532e-10
1.34408e-10
1.34257e-10
1.34085e-10
1.339e-10
1.33706e-10
1.33507e-10
1.33308e-10
1.33111e-10
1.32919e-10
1.32734e-10
1.32559e-10
1.32393e-10
1.32238e-10
1.32096e-10
1.31965e-10
1.31848e-10
1.31743e-10
1.3165e-10
1.31571e-10
1.31504e-10
1.31449e-10
1.31406e-10
1.31374e-10
1.31354e-10
1.31344e-10
1.32259e-10
1.32175e-10
1.32058e-10
1.31915e-10
1.31754e-10
1.31579e-10
1.31396e-10
1.31209e-10
1.31021e-10
1.30835e-10
1.30654e-10
1.3048e-10
1.30314e-10
1.30158e-10
1.30011e-10
1.29876e-10
1.29753e-10
1.29642e-10
1.29542e-10
1.29455e-10
1.29379e-10
1.29316e-10
1.29263e-10
1.29223e-10
1.29193e-10
1.29173e-10
1.29164e-10
1.30045e-10
1.29966e-10
1.29855e-10
1.2972e-10
1.29568e-10
1.29403e-10
1.29229e-10
1.29052e-10
1.28874e-10
1.28698e-10
1.28526e-10
1.28361e-10
1.28203e-10
1.28055e-10
1.27916e-10
1.27788e-10
1.2767e-10
1.27564e-10
1.2747e-10
1.27386e-10
1.27314e-10
1.27254e-10
1.27204e-10
1.27165e-10
1.27137e-10
1.27118e-10
1.27109e-10
1.27961e-10
1.27885e-10
1.2778e-10
1.27652e-10
1.27507e-10
1.2735e-10
1.27185e-10
1.27017e-10
1.26847e-10
1.2668e-10
1.26516e-10
1.26358e-10
1.26208e-10
1.26066e-10
1.25934e-10
1.25811e-10
1.25699e-10
1.25598e-10
1.25508e-10
1.25428e-10
1.25359e-10
1.25301e-10
1.25254e-10
1.25216e-10
1.25189e-10
1.25171e-10
1.25162e-10
1.25987e-10
1.25915e-10
1.25815e-10
1.25693e-10
1.25554e-10
1.25404e-10
1.25247e-10
1.25086e-10
1.24924e-10
1.24763e-10
1.24607e-10
1.24456e-10
1.24312e-10
1.24176e-10
1.24049e-10
1.23932e-10
1.23824e-10
1.23727e-10
1.2364e-10
1.23564e-10
1.23497e-10
1.23442e-10
1.23396e-10
1.2336e-10
1.23334e-10
1.23317e-10
1.23308e-10
1.24109e-10
1.2404e-10
1.23944e-10
1.23827e-10
1.23694e-10
1.2355e-10
1.23399e-10
1.23244e-10
1.23088e-10
1.22934e-10
1.22784e-10
1.22639e-10
1.225e-10
1.22369e-10
1.22247e-10
1.22134e-10
1.2203e-10
1.21936e-10
1.21852e-10
1.21779e-10
1.21715e-10
1.21661e-10
1.21617e-10
1.21582e-10
1.21557e-10
1.2154e-10
1.21532e-10
1.22311e-10
1.22245e-10
1.22152e-10
1.22039e-10
1.21911e-10
1.21772e-10
1.21627e-10
1.21477e-10
1.21327e-10
1.21178e-10
1.21033e-10
1.20892e-10
1.20758e-10
1.20632e-10
1.20513e-10
1.20404e-10
1.20303e-10
1.20212e-10
1.20131e-10
1.2006e-10
1.19998e-10
1.19945e-10
1.19902e-10
1.19869e-10
1.19844e-10
1.19828e-10
1.1982e-10
1.2058e-10
1.20516e-10
1.20426e-10
1.20317e-10
1.20193e-10
1.20058e-10
1.19917e-10
1.19772e-10
1.19626e-10
1.19481e-10
1.1934e-10
1.19204e-10
1.19073e-10
1.1895e-10
1.18835e-10
1.18728e-10
1.18631e-10
1.18542e-10
1.18463e-10
1.18393e-10
1.18332e-10
1.18281e-10
1.1824e-10
1.18207e-10
1.18182e-10
1.18167e-10
1.18159e-10
1.18902e-10
1.1884e-10
1.18752e-10
1.18646e-10
1.18525e-10
1.18393e-10
1.18255e-10
1.18114e-10
1.17972e-10
1.1783e-10
1.17692e-10
1.17559e-10
1.17432e-10
1.17311e-10
1.17199e-10
1.17094e-10
1.16998e-10
1.16912e-10
1.16834e-10
1.16765e-10
1.16706e-10
1.16656e-10
1.16615e-10
1.16583e-10
1.16559e-10
1.16543e-10
1.16536e-10
1.17264e-10
1.17203e-10
1.17117e-10
1.17013e-10
1.16894e-10
1.16765e-10
1.1663e-10
1.16491e-10
1.16351e-10
1.16212e-10
1.16077e-10
1.15946e-10
1.1582e-10
1.15702e-10
1.15591e-10
1.15488e-10
1.15393e-10
1.15308e-10
1.15231e-10
1.15164e-10
1.15105e-10
1.15056e-10
1.15015e-10
1.14983e-10
1.1496e-10
1.14944e-10
1.14937e-10
1.15653e-10
1.15592e-10
1.15508e-10
1.15405e-10
1.15287e-10
1.1516e-10
1.15027e-10
1.14889e-10
1.14751e-10
1.14614e-10
1.1448e-10
1.1435e-10
1.14226e-10
1.14108e-10
1.13998e-10
1.13896e-10
1.13802e-10
1.13717e-10
1.13641e-10
1.13574e-10
1.13516e-10
1.13467e-10
1.13427e-10
1.13395e-10
1.13372e-10
1.13356e-10
1.13349e-10
1.14054e-10
1.13994e-10
1.1391e-10
1.13808e-10
1.13691e-10
1.13565e-10
1.13431e-10
1.13295e-10
1.13157e-10
1.1302e-10
1.12887e-10
1.12757e-10
1.12633e-10
1.12516e-10
1.12406e-10
1.12304e-10
1.12211e-10
1.12126e-10
1.1205e-10
1.11983e-10
1.11925e-10
1.11876e-10
1.11835e-10
1.11803e-10
1.1178e-10
1.11765e-10
1.11757e-10
1.12454e-10
1.12394e-10
1.1231e-10
1.12207e-10
1.12091e-10
1.11964e-10
1.1183e-10
1.11693e-10
1.11555e-10
1.11418e-10
1.11284e-10
1.11154e-10
1.11029e-10
1.10911e-10
1.10801e-10
1.10698e-10
1.10604e-10
1.10519e-10
1.10442e-10
1.10375e-10
1.10316e-10
1.10267e-10
1.10226e-10
1.10194e-10
1.10171e-10
1.10155e-10
1.10148e-10
1.10839e-10
1.10778e-10
1.10693e-10
1.10589e-10
1.10471e-10
1.10343e-10
1.10209e-10
1.1007e-10
1.0993e-10
1.09792e-10
1.09656e-10
1.09524e-10
1.09398e-10
1.09279e-10
1.09167e-10
1.09063e-10
1.08968e-10
1.08881e-10
1.08804e-10
1.08735e-10
1.08676e-10
1.08626e-10
1.08584e-10
1.08552e-10
1.08528e-10
1.08513e-10
1.08505e-10
1.09192e-10
1.0913e-10
1.09043e-10
1.08938e-10
1.08818e-10
1.08688e-10
1.08551e-10
1.0841e-10
1.08267e-10
1.08126e-10
1.07987e-10
1.07853e-10
1.07725e-10
1.07603e-10
1.07489e-10
1.07383e-10
1.07286e-10
1.07198e-10
1.07118e-10
1.07049e-10
1.06988e-10
1.06937e-10
1.06895e-10
1.06862e-10
1.06838e-10
1.06822e-10
1.06814e-10
1.07498e-10
1.07435e-10
1.07346e-10
1.07238e-10
1.07116e-10
1.06982e-10
1.06841e-10
1.06697e-10
1.06551e-10
1.06406e-10
1.06264e-10
1.06126e-10
1.05994e-10
1.05869e-10
1.05752e-10
1.05644e-10
1.05544e-10
1.05453e-10
1.05372e-10
1.053e-10
1.05238e-10
1.05186e-10
1.05143e-10
1.05109e-10
1.05084e-10
1.05067e-10
1.05059e-10
1.05744e-10
1.05678e-10
1.05587e-10
1.05476e-10
1.05349e-10
1.05211e-10
1.05066e-10
1.04917e-10
1.04766e-10
1.04616e-10
1.0447e-10
1.04328e-10
1.04192e-10
1.04063e-10
1.03942e-10
1.0383e-10
1.03727e-10
1.03633e-10
1.03549e-10
1.03476e-10
1.03412e-10
1.03358e-10
1.03313e-10
1.03278e-10
1.03253e-10
1.03236e-10
1.03228e-10
1.03913e-10
1.03845e-10
1.0375e-10
1.03635e-10
1.03504e-10
1.03361e-10
1.0321e-10
1.03055e-10
1.02899e-10
1.02743e-10
1.02591e-10
1.02444e-10
1.02303e-10
1.0217e-10
1.02044e-10
1.01928e-10
1.01822e-10
1.01725e-10
1.01638e-10
1.01562e-10
1.01496e-10
1.0144e-10
1.01394e-10
1.01358e-10
1.01332e-10
1.01315e-10
1.01306e-10
1.01993e-10
1.01923e-10
1.01824e-10
1.01704e-10
1.01567e-10
1.01418e-10
1.01261e-10
1.011e-10
1.00937e-10
1.00776e-10
1.00617e-10
1.00464e-10
1.00318e-10
1.00179e-10
1.00049e-10
9.99286e-11
9.98181e-11
9.9718e-11
9.96284e-11
9.95496e-11
9.94814e-11
9.94238e-11
9.93765e-11
9.93395e-11
9.93122e-11
9.92945e-11
9.92858e-11
9.99743e-11
9.99004e-11
9.97976e-11
9.9672e-11
9.95291e-11
9.93737e-11
9.92101e-11
9.9042e-11
9.88724e-11
9.87041e-11
9.85394e-11
9.83802e-11
9.82279e-11
9.80839e-11
9.79491e-11
9.78242e-11
9.77098e-11
9.76063e-11
9.75138e-11
9.74325e-11
9.73623e-11
9.7303e-11
9.72545e-11
9.72165e-11
9.71886e-11
9.71704e-11
9.71616e-11
9.78488e-11
9.77716e-11
9.76642e-11
9.75331e-11
9.73841e-11
9.72221e-11
9.70515e-11
9.68764e-11
9.66999e-11
9.65249e-11
9.63538e-11
9.61886e-11
9.60308e-11
9.58817e-11
9.57424e-11
9.56135e-11
9.54957e-11
9.53892e-11
9.52943e-11
9.52109e-11
9.51391e-11
9.50786e-11
9.50291e-11
9.49904e-11
9.49621e-11
9.49437e-11
9.49348e-11
9.56152e-11
9.55348e-11
9.5423e-11
9.52866e-11
9.51315e-11
9.49631e-11
9.47861e-11
9.46044e-11
9.44215e-11
9.42405e-11
9.40637e-11
9.38933e-11
9.37308e-11
9.35777e-11
9.34348e-11
9.33029e-11
9.31826e-11
9.30742e-11
9.29778e-11
9.28933e-11
9.28207e-11
9.27597e-11
9.271e-11
9.26712e-11
9.26429e-11
9.26245e-11
9.26157e-11
9.32789e-11
9.31957e-11
9.30801e-11
9.2939e-11
9.27789e-11
9.26052e-11
9.24228e-11
9.2236e-11
9.20484e-11
9.18631e-11
9.16827e-11
9.15094e-11
9.13448e-11
9.11902e-11
9.10465e-11
9.09143e-11
9.07942e-11
9.06863e-11
9.05908e-11
9.05075e-11
9.04361e-11
9.03764e-11
9.0328e-11
9.02904e-11
9.02631e-11
9.02454e-11
9.02369e-11
9.08585e-11
9.07738e-11
9.0656e-11
9.05126e-11
9.035e-11
9.01738e-11
8.99892e-11
8.98004e-11
8.96113e-11
8.94248e-11
8.92437e-11
8.90701e-11
8.89056e-11
8.87516e-11
8.8609e-11
8.84784e-11
8.83602e-11
8.82546e-11
8.81615e-11
8.80807e-11
8.80119e-11
8.79548e-11
8.79087e-11
8.78731e-11
8.78473e-11
8.78308e-11
8.78229e-11
8.83876e-11
8.83021e-11
8.81833e-11
8.80388e-11
8.78753e-11
8.76985e-11
8.75137e-11
8.73253e-11
8.7137e-11
8.69521e-11
8.67733e-11
8.66026e-11
8.64417e-11
8.62918e-11
8.61539e-11
8.60284e-11
8.59156e-11
8.58156e-11
8.57281e-11
8.56529e-11
8.55894e-11
8.55371e-11
8.54953e-11
8.54634e-11
8.54406e-11
8.54261e-11
8.54193e-11
8.58952e-11
8.58106e-11
8.56932e-11
8.55508e-11
8.53899e-11
8.52166e-11
8.5036e-11
8.48526e-11
8.46703e-11
8.44923e-11
8.43212e-11
8.41589e-11
8.40072e-11
8.38671e-11
8.37394e-11
8.36244e-11
8.35222e-11
8.34327e-11
8.33555e-11
8.329e-11
8.32357e-11
8.31917e-11
8.31572e-11
8.31314e-11
8.31133e-11
8.31021e-11
8.30969e-11
8.34371e-11
8.33561e-11
8.3244e-11
8.31084e-11
8.29558e-11
8.27922e-11
8.26227e-11
8.24517e-11
8.22829e-11
8.21195e-11
8.19639e-11
8.1818e-11
8.16832e-11
8.15605e-11
8.14503e-11
8.1353e-11
8.12682e-11
8.11957e-11
8.11348e-11
8.10847e-11
8.10446e-11
8.10133e-11
8.09899e-11
8.09733e-11
8.09623e-11
8.0956e-11
8.09533e-11
8.10964e-11
8.10227e-11
8.09212e-11
8.07989e-11
8.06621e-11
8.05163e-11
8.03664e-11
8.02161e-11
8.00685e-11
7.99257e-11
7.9789e-11
7.96587e-11
7.95365e-11
7.94245e-11
7.93239e-11
7.92351e-11
7.91579e-11
7.90918e-11
7.90365e-11
7.89913e-11
7.89555e-11
7.89281e-11
7.89081e-11
7.88943e-11
7.88856e-11
7.88808e-11
7.8879e-11
7.89189e-11
7.88475e-11
7.87488e-11
7.86295e-11
7.84953e-11
7.83514e-11
7.8204e-11
7.8058e-11
7.79173e-11
7.77851e-11
7.76634e-11
7.7554e-11
7.74578e-11
7.73753e-11
7.73064e-11
7.72507e-11
7.72074e-11
7.71754e-11
7.71534e-11
7.714e-11
7.71336e-11
7.71326e-11
7.71354e-11
7.71403e-11
7.71459e-11
7.71509e-11
7.7154e-11
7.67971e-11
7.67417e-11
7.66667e-11
7.65786e-11
7.64834e-11
7.63865e-11
7.62924e-11
7.62049e-11
7.61272e-11
7.60613e-11
7.60088e-11
7.59705e-11
7.59464e-11
7.59361e-11
7.59387e-11
7.5953e-11
7.59772e-11
7.60096e-11
7.60479e-11
7.609e-11
7.61338e-11
7.61769e-11
7.62171e-11
7.62528e-11
7.62821e-11
7.6303e-11
7.63142e-11
7.52645e-11
7.5244e-11
7.52187e-11
7.51933e-11
7.51722e-11
7.51591e-11
7.51573e-11
7.5169e-11
7.5196e-11
7.52392e-11
7.52988e-11
7.53742e-11
7.54643e-11
7.55675e-11
7.56817e-11
7.58043e-11
7.59327e-11
7.60637e-11
7.61943e-11
7.63212e-11
7.64414e-11
7.65516e-11
7.66494e-11
7.67322e-11
7.67973e-11
7.68425e-11
7.6866e-11
7.47473e-11
7.47811e-11
7.4833e-11
7.49044e-11
7.49971e-11
7.51123e-11
7.52511e-11
7.54139e-11
7.56003e-11
7.58093e-11
7.60393e-11
7.62879e-11
7.65522e-11
7.68288e-11
7.71138e-11
7.74029e-11
7.76916e-11