/*--------------------------------*- C++ -*----------------------------------*\
| =========                 |                                                 |
| \\      /  F ield         | OpenFOAM: The Open Source CFD Toolbox           |
|  \\    /   O peration     | Version:  2106                                  |
|   \\  /    A nd           | Website:  www.openfoam.com                      |
|    \\/     M anipulation  |                                                 |
\*---------------------------------------------------------------------------*/
FoamFile
{
    version     2.0;
    format      ascii;
    arch        "LSB;label=32;scalar=64";
    class       volVectorField;
    location    "219.99956";
    object      U;
}
// * * * * * * * * * * * * * * * * * * * * * * * * * * * * * * * * * * * * * //

dimensions      [0 1 -1 0 0 0 0];

internalField   nonuniform List<vector> 
3360
(
(0.0807221 -0.00345895 -1.58751e-11)
(0.0809401 -0.00539471 -2.26173e-11)
(0.0812293 -0.00737068 -2.41547e-11)
(0.0815637 -0.00924013 -1.88699e-11)
(0.0819081 -0.0110153 -5.24619e-12)
(0.0822263 -0.0126827 1.40533e-11)
(0.0824792 -0.0142283 3.78132e-11)
(0.0826263 -0.0156379 6.43931e-11)
(0.0826265 -0.0169039 9.31748e-11)
(0.0824107 -0.0179723 1.20376e-10)
(0.0817694 -0.0188822 5.34611e-11)
(0.08072 -0.019581 -3.24955e-12)
(0.0792604 -0.0200645 -5.00219e-11)
(0.077379 -0.0203213 -2.50168e-11)
(0.0750574 -0.0203421 -4.3917e-12)
(0.0722744 -0.0201195 1.18357e-11)
(0.0690075 -0.0196479 2.45692e-11)
(0.0652343 -0.0189238 3.47249e-11)
(0.0609329 -0.0179461 4.28278e-11)
(0.0560821 -0.0167158 4.95795e-11)
(0.0506618 -0.0152362 5.53466e-11)
(0.0446525 -0.0135113 4.45435e-11)
(0.0380355 -0.0115544 3.46966e-11)
(0.0307801 -0.00936465 2.58899e-11)
(0.0228752 -0.00696165 1.77419e-11)
(0.0143086 -0.00434613 1.0242e-11)
(0.00506473 -0.00146081 3.28874e-12)
(0.101548 -0.00238303 2.86642e-10)
(0.101482 -0.00362379 4.76838e-10)
(0.101323 -0.00482402 6.77723e-10)
(0.101014 -0.00585786 8.4819e-10)
(0.100493 -0.00672623 7.85609e-10)
(0.0997019 -0.00741798 7.51608e-10)
(0.0985886 -0.00792888 5.9302e-10)
(0.0971072 -0.00825758 4.88742e-10)
(0.0952209 -0.00839938 4.11528e-10)
(0.0929309 -0.00839757 3.57072e-10)
(0.0903757 -0.00821633 3.22047e-10)
(0.0874696 -0.00790811 3.04357e-10)
(0.0841986 -0.00748986 3.00774e-10)
(0.0805493 -0.00697493 3.08573e-10)
(0.0765067 -0.00638209 3.22933e-10)
(0.0720637 -0.00573103 2.85869e-10)
(0.0672239 -0.0050417 2.56907e-10)
(0.0620012 -0.00433423 2.35048e-10)
(0.0564188 -0.00362816 2.19083e-10)
(0.0505126 -0.00294246 2.07453e-10)
(0.0443232 -0.0022948 1.99897e-10)
(0.0378925 -0.00170275 1.70307e-10)
(0.0312621 -0.00117454 1.45252e-10)
(0.0244867 -0.000733307 1.23142e-10)
(0.0176002 -0.000383566 1.03449e-10)
(0.0106345 -0.000139555 6.71355e-11)
(0.00361864 -1.19741e-05 2.16508e-11)
(0.114458 -0.00188229 1.56016e-10)
(0.113654 -0.00287535 2.19691e-10)
(0.112452 -0.00378717 2.35094e-10)
(0.110845 -0.00452594 2.09101e-10)
(0.10882 -0.00509653 3.59827e-10)
(0.106371 -0.00549835 4.51005e-10)
(0.103496 -0.00573937 4.95984e-10)
(0.100206 -0.00583345 5.15535e-10)
(0.0965213 -0.00579783 5.14569e-10)
(0.0924626 -0.00564938 4.01394e-10)
(0.0880524 -0.00540271 4.06867e-10)
(0.0833309 -0.00507814 4.163e-10)
(0.0783101 -0.00468433 4.32459e-10)
(0.073027 -0.00424278 4.55321e-10)
(0.0675374 -0.00377003 4.83739e-10)
(0.0619008 -0.00328194 4.39925e-10)
(0.0561745 -0.00279446 3.54739e-10)
(0.0504118 -0.00232094 2.77816e-10)
(0.0446599 -0.00187372 2.06627e-10)
(0.0389542 -0.00146254 1.69256e-10)
(0.0333246 -0.00109507 1.30123e-10)
(0.0277972 -0.000776907 1.18541e-10)
(0.0223945 -0.000511798 1.04163e-10)
(0.0171346 -0.000301547 8.9384e-11)
(0.0120319 -0.000146547 6.20613e-11)
(0.00709757 -4.76072e-05 3.5986e-11)
(0.00234013 -1.35092e-06 1.15832e-11)
(0.126364 -0.00090596 -6.22545e-10)
(0.125 -0.00133739 -1.01075e-09)
(0.123027 -0.00172939 -1.37191e-09)
(0.12049 -0.00202824 -1.13184e-09)
(0.117427 -0.00224196 -9.68515e-10)
(0.113875 -0.00236136 -7.41479e-10)
(0.109894 -0.00240978 -6.16578e-10)
(0.105528 -0.00238516 -5.71709e-10)
(0.100824 -0.00230112 -4.49415e-10)
(0.0958308 -0.00217153 -2.56565e-10)
(0.0906097 -0.00200515 -1.20099e-10)
(0.0852061 -0.00181358 -2.49182e-11)
(0.0796559 -0.00160762 4.11966e-11)
(0.0739925 -0.00139773 8.64731e-11)
(0.0682496 -0.00119246 1.16348e-10)
(0.0624602 -0.000998241 1.34494e-10)
(0.0566557 -0.000818748 1.44921e-10)
(0.050864 -0.000657059 9.38923e-11)
(0.0451101 -0.000514305 3.86216e-11)
(0.0394154 -0.00039082 2.00643e-11)
(0.0337984 -0.000286371 1.18764e-11)
(0.0282747 -0.000200265 3.08491e-11)
(0.0228574 -0.000131443 2.64213e-11)
(0.0175571 -7.8586e-05 2.00662e-11)
(0.0123824 -4.01574e-05 1.39211e-11)
(0.00734024 -1.46657e-05 8.06061e-12)
(0.00243595 -1.83729e-06 2.58508e-12)
(0.127636 -0.00044737 3.12363e-10)
(0.126 -0.00068323 4.20463e-11)
(0.123657 -0.000880941 -7.51019e-11)
(0.120686 -0.00102246 -7.66139e-11)
(0.117157 -0.00110873 -1.22451e-11)
(0.113135 -0.0011588 9.48396e-11)
(0.108681 -0.00116266 2.21632e-10)
(0.103861 -0.00113778 2.93024e-10)
(0.0987354 -0.00108749 2.45891e-10)
(0.0933626 -0.00101842 2.49785e-10)
(0.0877977 -0.000935926 2.87877e-10)
(0.0820925 -0.000844357 2.32843e-10)
(0.0762946 -0.000747739 2.00906e-10)
(0.0704473 -0.000649816 1.7752e-10)
(0.0645897 -0.000553843 1.59776e-10)
(0.0587561 -0.000462444 1.45822e-10)
(0.0529772 -0.000377578 1.34641e-10)
(0.0472788 -0.0003006 1.25312e-10)
(0.0416832 -0.000232355 1.18073e-10)
(0.0362085 -0.000173268 1.13018e-10)
(0.0308694 -0.000123434 1.10249e-10)
(0.0256776 -8.26914e-05 1.10965e-10)
(0.0206417 -5.06905e-05 7.16646e-11)
(0.0157679 -2.69424e-05 5.26165e-11)
(0.0110601 -1.09172e-05 3.61515e-11)
(0.00652059 -2.21776e-06 2.09329e-11)
(0.00214976 7.58053e-07 6.73496e-12)
(0.131649 -0.000230674 5.23584e-11)
(0.129768 -0.000325819 5.23977e-11)
(0.12711 -0.000407939 5.6354e-11)
(0.123801 -0.00046214 7.34169e-11)
(0.119947 -0.000491702 1.02181e-10)
(0.115642 -0.000498573 1.37287e-10)
(0.110947 -0.000487641 1.70978e-10)
(0.105926 -0.000462929 1.96067e-10)
(0.100638 -0.000428322 2.16147e-10)
(0.0951415 -0.000387419 2.37121e-10)
(0.0894871 -0.000343286 2.64123e-10)
(0.0837218 -0.000298415 1.81823e-10)
(0.0778872 -0.000254745 1.13772e-10)
(0.0720197 -0.000213691 5.2214e-11)
(0.0661511 -0.000176204 -4.74841e-12)
(0.0603087 -0.000142835 -5.96029e-11)
(0.0545157 -0.000113807 -5.01987e-11)
(0.0487916 -8.90848e-05 -4.44353e-11)
(0.0431528 -6.84461e-05 -3.47241e-11)
(0.0376128 -5.15396e-05 -1.11121e-11)
(0.0321826 -3.79376e-05 1.34551e-11)
(0.0268712 -2.71757e-05 1.90303e-11)
(0.0216859 -1.87866e-05 2.19297e-11)
(0.0166321 -1.23203e-05 2.44349e-11)
(0.0117143 -7.32362e-06 2.92566e-11)
(0.00693578 -3.34619e-06 1.55864e-11)
(0.0022987 -8.36786e-07 4.98552e-12)
(0.131306 -0.000108381 6.48414e-11)
(0.129357 -0.000173485 9.83169e-11)
(0.126605 -0.00022874 1.21742e-10)
(0.123176 -0.000270523 1.46234e-10)
(0.119179 -0.000299249 1.69101e-10)
(0.114708 -0.000314714 1.64652e-10)
(0.109846 -0.000317975 6.42589e-11)
(0.104665 -0.000311176 -5.2687e-11)
(0.0992322 -0.000296572 -1.74885e-10)
(0.0936081 -0.000276307 -1.7415e-10)
(0.087846 -0.000252274 -1.92421e-10)
(0.0819938 -0.000226064 -2.25104e-10)
(0.076094 -0.000198971 -2.6725e-10)
(0.0701837 -0.000172012 -3.23643e-10)
(0.0642955 -0.000145961 -2.97023e-10)
(0.0584572 -0.000121389 -2.86029e-10)
(0.0526929 -9.8704e-05 -2.79077e-10)
(0.0470228 -7.81787e-05 -2.79207e-10)
(0.0414638 -5.99845e-05 -2.50652e-10)
(0.0360297 -4.42132e-05 -2.20441e-10)
(0.0307316 -3.08962e-05 -1.83805e-10)
(0.0255783 -2.00191e-05 -1.35168e-10)
(0.0205763 -1.15306e-05 -1.05661e-10)
(0.0157302 -5.35023e-06 -7.96678e-11)
(0.0110432 -1.40332e-06 -5.49285e-11)
(0.00651666 3.23321e-07 -3.18306e-11)
(0.00215103 5.22884e-07 -1.02453e-11)
(0.132701 -4.75005e-05 4.79397e-10)
(0.130724 -6.18794e-05 8.29506e-10)
(0.127933 -7.5726e-05 3.38241e-10)
(0.124462 -8.45993e-05 1.13529e-11)
(0.120423 -8.88742e-05 -2.71827e-10)
(0.115913 -8.88203e-05 -5.93661e-10)
(0.111018 -8.51322e-05 -6.65666e-10)
(0.105814 -7.87122e-05 -6.82122e-10)
(0.100368 -7.04956e-05 -7.37104e-10)
(0.0947389 -6.13436e-05 -6.98656e-10)
(0.0889792 -5.19796e-05 -5.89641e-10)
(0.0831344 -4.29648e-05 -5.07458e-10)
(0.0772439 -3.46971e-05 -4.43706e-10)
(0.0713419 -2.74257e-05 -3.90481e-10)
(0.0654576 -2.12728e-05 -3.41806e-10)
(0.0596159 -1.62587e-05 -2.94134e-10)
(0.053838 -1.2326e-05 -3.201e-10)
(0.0481414 -9.36217e-06 -3.43964e-10)
(0.042541 -7.21933e-06 -3.23334e-10)
(0.0370488 -5.73023e-06 -2.98745e-10)
(0.0316746 -4.72132e-06 -2.68356e-10)
(0.0264266 -4.02286e-06 -2.22888e-10)
(0.021311 -3.47742e-06 -1.77764e-10)
(0.0163326 -2.94464e-06 -1.22775e-10)
(0.0114951 -2.28084e-06 -8.42539e-11)
(0.00680108 -1.32459e-06 -4.90629e-11)
(0.00225211 -4.90621e-07 -1.57962e-11)
(0.132327 -3.99759e-05 1.15353e-10)
(0.130317 -6.60742e-05 1.47155e-10)
(0.127482 -8.7307e-05 1.06593e-10)
(0.123957 -0.000102985 6.46613e-11)
(0.119859 -0.000113486 2.58428e-11)
(0.115287 -0.00011924 -1.90495e-10)
(0.11033 -0.000120863 -3.54155e-10)
(0.105067 -0.000119039 -4.66429e-10)
(0.0995644 -0.000114459 -5.47915e-10)
(0.0938843 -0.000107776 -6.06705e-10)
(0.0880794 -9.95745e-05 -6.53438e-10)
(0.0821962 -9.03642e-05 -6.94503e-10)
(0.0762753 -8.05769e-05 -6.59554e-10)
(0.0703518 -7.05722e-05 -6.32011e-10)
(0.0644561 -6.06461e-05 -6.13603e-10)
(0.0586141 -5.10396e-05 -6.03191e-10)
(0.0528481 -4.19469e-05 -5.99665e-10)
(0.0471767 -3.3523e-05 -5.961e-10)
(0.0416155 -2.58894e-05 -5.86677e-10)
(0.0361772 -1.91389e-05 -5.21253e-10)
(0.030872 -1.33391e-05 -4.67075e-10)
(0.0257082 -8.53587e-06 -3.76593e-10)
(0.0206918 -4.75453e-06 -2.9446e-10)
(0.0158273 -2.00131e-06 -2.19501e-10)
(0.0111176 -2.80381e-07 -1.50798e-10)
(0.00656451 3.76387e-07 -8.72095e-11)
(0.00216843 2.75111e-07 -2.80349e-11)
(0.133084 -1.76325e-05 -1.73547e-11)
(0.131068 -2.10723e-05 -5.31224e-11)
(0.128226 -2.49386e-05 -1.23082e-10)
(0.124696 -2.72182e-05 -2.12926e-10)
(0.120594 -2.80838e-05 -3.17297e-10)
(0.116021 -2.76465e-05 -4.3777e-10)
(0.111066 -2.61476e-05 -5.55944e-10)
(0.105807 -2.38724e-05 -6.6859e-10)
(0.100312 -2.11092e-05 -7.82453e-10)
(0.0946413 -1.81203e-05 -7.63785e-10)
(0.0888466 -1.51262e-05 -7.58255e-10)
(0.0829733 -1.22979e-05 -7.57505e-10)
(0.0770606 -9.75668e-06 -7.58729e-10)
(0.0711421 -7.57727e-06 -7.6255e-10)
(0.0652466 -5.79367e-06 -7.09947e-10)
(0.0593987 -4.406e-06 -6.63841e-10)
(0.0536192 -3.3876e-06 -6.22389e-10)
(0.0479255 -2.69156e-06 -5.84849e-10)
(0.0423322 -2.25732e-06 -5.26856e-10)
(0.0368512 -2.01638e-06 -4.49058e-10)
(0.0314922 -1.89702e-06 -3.75411e-10)
(0.0262631 -1.82837e-06 -2.93467e-10)
(0.02117 -1.74442e-06 -2.30301e-10)
(0.0162176 -1.58584e-06 -1.72561e-10)
(0.0114093 -1.28397e-06 -1.18968e-10)
(0.00674732 -7.52152e-07 -6.89587e-11)
(0.00223312 -3.69689e-07 -2.21952e-11)
(0.132952 -2.18232e-05 4.14948e-10)
(0.130922 -3.65336e-05 7.37369e-10)
(0.12806 -4.86166e-05 1.40464e-10)
(0.124505 -5.77886e-05 -2.58206e-10)
(0.120375 -6.42416e-05 -5.99622e-10)
(0.115773 -6.81815e-05 -9.13054e-10)
(0.110787 -6.98914e-05 -1.03841e-09)
(0.105498 -6.9683e-05 -1.05436e-09)
(0.0999729 -6.7874e-05 -1.10074e-09)
(0.0942729 -6.47714e-05 -1.06438e-09)
(0.0884508 -6.06619e-05 -9.319e-10)
(0.0825523 -5.58071e-05 -8.27504e-10)
(0.0766175 -5.04413e-05 -7.40426e-10)
(0.0706808 -4.47725e-05 -6.63721e-10)
(0.064772 -3.8983e-05 -5.93391e-10)
(0.0589164 -3.32303e-05 -5.30423e-10)
(0.0531356 -2.7653e-05 -5.22275e-10)
(0.0474478 -2.23748e-05 -5.13767e-10)
(0.0418682 -1.75007e-05 -4.8402e-10)
(0.0364093 -1.31176e-05 -4.26073e-10)
(0.0310812 -9.29427e-06 -3.75038e-10)
(0.0258919 -6.08175e-06 -3.07602e-10)
(0.0208474 -3.51445e-06 -2.44323e-10)
(0.0159524 -1.61019e-06 -1.70984e-10)
(0.0112098 -3.74934e-07 -1.16805e-10)
(0.00662156 1.78876e-07 -6.73014e-11)
(0.00218833 2.33979e-08 -2.15911e-11)
(0.133571 -1.57862e-05 8.63809e-11)
(0.131543 -2.05593e-05 9.19919e-11)
(0.128684 -2.54998e-05 2.29611e-11)
(0.125135 -2.91246e-05 -4.56156e-11)
(0.121011 -3.1523e-05 -6.85351e-11)
(0.116417 -3.27283e-05 -3.31656e-10)
(0.11144 -3.28666e-05 -4.94378e-10)
(0.106159 -3.21052e-05 -5.94656e-10)
(0.100643 -3.06288e-05 -6.53387e-10)
(0.0949503 -2.86217e-05 -6.82938e-10)
(0.0891342 -2.62552e-05 -6.93812e-10)
(0.0832393 -2.36811e-05 -6.9674e-10)
(0.0773048 -2.10278e-05 -6.97595e-10)
(0.0713642 -1.83975e-05 -6.99759e-10)
(0.0654466 -1.58494e-05 -7.0474e-10)
(0.0595765 -1.35138e-05 -7.2045e-10)
(0.053775 -1.13166e-05 -6.60958e-10)
(0.0480599 -9.3531e-06 -6.12053e-10)
(0.042446 -7.61452e-06 -5.51282e-10)
(0.0369456 -6.09954e-06 -4.54082e-10)
(0.0315685 -4.7973e-06 -3.6274e-10)
(0.0263229 -3.68843e-06 -2.77141e-10)
(0.0212149 -2.74905e-06 -1.98619e-10)
(0.0162493 -1.95147e-06 -1.40566e-10)
(0.0114296 -1.24608e-06 -8.78246e-11)
(0.00675816 -5.60511e-07 -5.07686e-11)
(0.00223621 -4.41469e-07 -1.62993e-11)
(0.133882 -3.59629e-05 -8.89836e-11)
(0.131846 -5.64059e-05 -1.56512e-10)
(0.128976 -7.41195e-05 -2.36673e-10)
(0.125413 -8.77765e-05 -3.26639e-10)
(0.121273 -9.75479e-05 -4.25279e-10)
(0.11666 -0.000103597 -5.33966e-10)
(0.111662 -0.000106238 -6.42361e-10)
(0.106359 -0.000105873 -7.46411e-10)
(0.100818 -0.000102951 -8.43642e-10)
(0.0950998 -9.79432e-05 -8.30757e-10)
(0.0892567 -9.13172e-05 -8.23786e-10)
(0.0833341 -8.35212e-05 -8.22573e-10)
(0.0773717 -7.49702e-05 -8.26289e-10)
(0.0714038 -6.60386e-05 -8.34513e-10)
(0.0654599 -5.70718e-05 -7.72023e-10)
(0.0595655 -4.8274e-05 -7.18207e-10)
(0.0537421 -3.99789e-05 -6.711e-10)
(0.0480084 -3.22801e-05 -6.31914e-10)
(0.0423795 -2.53116e-05 -5.63701e-10)
(0.0368684 -1.91501e-05 -4.73707e-10)
(0.0314853 -1.38414e-05 -3.94604e-10)
(0.0262386 -9.40715e-06 -3.07572e-10)
(0.0211345 -5.85058e-06 -2.40808e-10)
(0.0161781 -3.157e-06 -1.80093e-10)
(0.0113726 -1.28358e-06 -1.23922e-10)
(0.00672013 -1.75042e-07 -7.17014e-11)
(0.00222188 -3.42978e-07 -2.30457e-11)
(0.134968 -4.08225e-05 -1.63066e-10)
(0.132927 -5.94577e-05 -2.54939e-10)
(0.13005 -7.64773e-05 -3.64174e-10)
(0.126477 -8.93908e-05 -4.77595e-10)
(0.122327 -9.83769e-05 -5.88712e-10)
(0.117701 -0.000103568 -6.9409e-10)
(0.112689 -0.000105306 -7.95176e-10)
(0.10737 -0.000104046 -8.92317e-10)
(0.101812 -0.000100299 -9.952e-10)
(0.0960744 -9.45924e-05 -9.55579e-10)
(0.0902101 -8.74383e-05 -9.34997e-10)
(0.084264 -7.93153e-05 -9.20785e-10)
(0.0782754 -7.06516e-05 -9.10522e-10)
(0.0722781 -6.18166e-05 -9.01653e-10)
(0.0663013 -5.3117e-05 -8.32417e-10)
(0.0603699 -4.47978e-05 -7.6975e-10)
(0.054505 -3.70418e-05 -7.12717e-10)
(0.0487244 -2.99726e-05 -6.57313e-10)
(0.0430431 -2.36658e-05 -5.88635e-10)
(0.0374735 -1.81575e-05 -5.01558e-10)
(0.0320262 -1.34523e-05 -4.23281e-10)
(0.0267094 -9.53123e-06 -3.26023e-10)
(0.02153 -6.35957e-06 -2.56928e-10)
(0.0164932 -3.88829e-06 -1.91517e-10)
(0.0116027 -2.02425e-06 -1.31458e-10)
(0.00686128 -6.38478e-07 -7.5962e-11)
(0.0022706 -7.75102e-07 -2.43999e-11)
(0.136118 -6.75903e-05 3.46198e-10)
(0.13407 -0.000103223 -6.83112e-10)
(0.131183 -0.000135121 -3.8158e-10)
(0.127596 -0.000160161 -2.34542e-10)
(0.123428 -0.000178604 -1.44881e-10)
(0.118781 -0.000190636 -2.41494e-10)
(0.113745 -0.00019672 -3.31369e-10)
(0.108397 -0.000197474 -3.98479e-10)
(0.102805 -0.00019361 -4.41657e-10)
(0.0970303 -0.000185892 -4.64206e-10)
(0.0911236 -0.000175088 -4.71754e-10)
(0.0851307 -0.000161942 -4.68219e-10)
(0.079091 -0.00014715 -4.56338e-10)
(0.0730388 -0.000131349 -4.38175e-10)
(0.0670039 -0.000115108 -4.15492e-10)
(0.0610119 -9.8918e-05 -3.9052e-10)
(0.0550845 -8.32014e-05 -3.64852e-10)
(0.0492407 -6.83138e-05 -3.32253e-10)
(0.0434963 -5.45451e-05 -2.77493e-10)
(0.0378645 -4.21189e-05 -2.47046e-10)
(0.0323564 -3.11962e-05 -1.90379e-10)
(0.026981 -2.18811e-05 -1.59794e-10)
(0.0217454 -1.42308e-05 -1.12498e-10)
(0.0166551 -8.25538e-06 -8.52102e-11)
(0.0117143 -3.88513e-06 -5.91098e-11)
(0.00692581 -1.00641e-06 -3.43593e-11)
(0.00229133 -9.8928e-07 -1.10664e-11)
(0.138391 -8.96024e-05 2.22136e-10)
(0.136332 -0.000133672 3.64317e-10)
(0.133428 -0.000173631 -5.47096e-10)
(0.12982 -0.000204681 -4.07011e-10)
(0.125623 -0.000227147 -4.12466e-10)
(0.120941 -0.000241266 -4.58309e-10)
(0.115861 -0.000247667 -5.26396e-10)
(0.110462 -0.000247211 -6.0705e-10)
(0.104811 -0.000240896 -7.02654e-10)
(0.0989693 -0.000229784 -6.64129e-10)
(0.092988 -0.000214936 -6.47677e-10)
(0.0869132 -0.000197368 -6.41567e-10)
(0.0807849 -0.000178018 -6.4318e-10)
(0.0746379 -0.000157726 -6.49346e-10)
(0.0685024 -0.000137218 -6.01533e-10)
(0.0624047 -0.000117107 -5.60611e-10)
(0.0563673 -9.78922e-05 -5.24895e-10)
(0.0504097 -7.99634e-05 -4.97842e-10)
(0.0445482 -6.36108e-05 -4.46024e-10)
(0.0387968 -4.90346e-05 -3.83137e-10)
(0.033167 -3.63565e-05 -3.20486e-10)
(0.0276682 -2.56326e-05 -2.4485e-10)
(0.0223081 -1.68683e-05 -1.92518e-10)
(0.0170928 -1.002e-05 -1.4396e-10)
(0.0120267 -4.94053e-06 -9.90037e-11)
(0.0071132 -1.41766e-06 -5.72376e-11)
(0.00235438 -1.53461e-06 -1.83811e-11)
(0.141321 -0.000116621 -8.10499e-10)
(0.139245 -0.000176192 -1.37214e-09)
(0.136316 -0.000229181 -1.07935e-09)
(0.132673 -0.00026992 -9.68272e-10)
(0.128433 -0.000298904 -9.59631e-10)
(0.123698 -0.000316597 -1.00942e-09)
(0.118556 -0.000323983 -1.09614e-09)
(0.113085 -0.000322334 -1.20762e-09)
(0.107352 -0.000313077 -1.19207e-09)
(0.101418 -0.000297681 -1.0946e-09)
(0.0953352 -0.000277584 -1.02386e-09)
(0.0891494 -0.000254138 -9.73525e-10)
(0.0829016 -0.00022857 -9.38159e-10)
(0.0766273 -0.000201959 -9.07005e-10)
(0.0703577 -0.000175228 -8.25324e-10)
(0.06412 -0.000149144 -7.49157e-10)
(0.0579379 -0.00012432 -6.83965e-10)
(0.0518317 -0.000101235 -6.29837e-10)
(0.0458189 -8.02365e-05 -5.51746e-10)
(0.0399145 -6.15667e-05 -4.6904e-10)
(0.0341309 -4.53708e-05 -3.85656e-10)
(0.0284785 -3.17155e-05 -3.02449e-10)
(0.0229659 -2.06078e-05 -2.37995e-10)
(0.0175997 -1.19947e-05 -1.78195e-10)
(0.0123852 -5.68971e-06 -1.22267e-10)
(0.00732614 -1.42504e-06 -7.05454e-11)
(0.00242518 -2.00032e-06 -2.26276e-11)
(0.14592 -0.000142397 -6.90173e-10)
(0.143819 -0.000212836 -1.13176e-09)
(0.140853 -0.000275671 -1.58438e-09)
(0.13716 -0.000323619 -1.26605e-09)
(0.132856 -0.0003573 -1.10385e-09)
(0.128042 -0.000377341 -1.01164e-09)
(0.122805 -0.000385005 -9.51817e-10)
(0.117223 -0.000381904 -9.05674e-10)
(0.111364 -0.000369824 -8.62655e-10)
(0.105287 -0.000350589 -8.20861e-10)
(0.0990466 -0.000325965 -7.81061e-10)
(0.0926887 -0.00029759 -7.43419e-10)
(0.0862553 -0.000266931 -7.0713e-10)
(0.0797832 -0.000235264 -6.77516e-10)
(0.073305 -0.000203662 -5.68555e-10)
(0.0668495 -0.000173004 -4.69518e-10)
(0.0604416 -0.000143981 -4.36505e-10)
(0.0541034 -0.000117117 -3.95911e-10)
(0.0478538 -9.27857e-05 -3.46462e-10)
(0.0417091 -7.12307e-05 -2.93798e-10)
(0.0356832 -5.25858e-05 -2.42791e-10)
(0.0297877 -3.68951e-05 -1.94682e-10)
(0.0240322 -2.4138e-05 -1.49692e-10)
(0.0184245 -1.42266e-05 -1.07579e-10)
(0.0129707 -6.90081e-06 -6.83391e-11)
(0.00767537 -1.79399e-06 -3.22387e-11)
(0.00254189 -2.76629e-06 -1.01707e-11)
(0.152192 -0.000166037 -9.61064e-10)
(0.150056 -0.000249601 -1.53993e-09)
(0.147034 -0.00032321 -1.3089e-09)
(0.143266 -0.000378856 -1.16688e-09)
(0.138868 -0.000417328 -1.08836e-09)
(0.133937 -0.00043955 -1.05019e-09)
(0.128561 -0.000447164 -1.03842e-09)
(0.122818 -0.000442207 -1.04507e-09)
(0.116775 -0.000426886 -1.0657e-09)
(0.110493 -0.00040342 -9.84836e-10)
(0.104026 -0.000373923 -9.24168e-10)
(0.0974232 -0.000340328 -8.7825e-10)
(0.0907277 -0.000304345 -8.42997e-10)
(0.0839785 -0.00026744 -8.14894e-10)
(0.0772102 -0.000230831 -7.40693e-10)
(0.0704538 -0.000195499 -6.7634e-10)
(0.0637367 -0.000162206 -6.21753e-10)
(0.0570829 -0.00013152 -5.75581e-10)
(0.0505135 -0.000103835 -5.12011e-10)
(0.0440468 -7.94019e-05 -4.33535e-10)
(0.0376983 -5.83467e-05 -3.65173e-10)
(0.0314814 -4.06985e-05 -2.79495e-10)
(0.0254071 -2.64183e-05 -2.1618e-10)
(0.0194844 -1.53914e-05 -1.60615e-10)
(0.0137206 -7.29293e-06 -1.09904e-10)
(0.00812116 -1.67527e-06 -6.33554e-11)
(0.00269026 -3.52556e-06 -2.03077e-11)
(0.161193 -0.000179202 -1.04337e-09)
(0.159001 -0.000267551 -1.68648e-09)
(0.155896 -0.000345164 -1.40723e-09)
(0.152015 -0.000403286 -1.27087e-09)
(0.147472 -0.00044279 -1.20282e-09)
(0.142365 -0.000464819 -1.17251e-09)
(0.136781 -0.000471281 -1.16477e-09)
(0.130797 -0.000464492 -1.16928e-09)
(0.124481 -0.000446919 -1.17812e-09)
(0.117896 -0.000421003 -1.09636e-09)
(0.111098 -0.000389034 -1.027e-09)
(0.104138 -0.000353072 -9.70174e-10)
(0.097062 -0.000314913 -9.23805e-10)
(0.0899128 -0.000276072 -8.85059e-10)
(0.082728 -0.000237786 -8.04198e-10)
(0.0755415 -0.000201037 -7.32845e-10)
(0.0683839 -0.000166572 -6.69471e-10)
(0.0612821 -0.000134932 -6.10595e-10)
(0.05426 -0.000106484 -5.37659e-10)
(0.0473383 -8.14441e-05 -4.58082e-10)
(0.0405349 -5.99107e-05 -3.80597e-10)
(0.0338653 -4.18838e-05 -2.96014e-10)
(0.0273423 -2.73024e-05 -2.30565e-10)
(0.0209765 -1.60293e-05 -1.7139e-10)
(0.0147765 -7.6726e-06 -1.17494e-10)
(0.00874911 -1.69543e-06 -6.78245e-11)
(0.0028994 -4.51298e-06 -2.17589e-11)
(0.173344 -0.000180284 -2.99112e-10)
(0.171065 -0.00027017 -4.45825e-10)
(0.167831 -0.000348285 -5.27816e-10)
(0.163777 -0.00040629 -5.68609e-10)
(0.159016 -0.000445132 -5.77336e-10)
(0.153646 -0.000466167 -5.5612e-10)
(0.147754 -0.000471487 -5.32556e-10)
(0.141417 -0.000463563 -6.39637e-10)
(0.134708 -0.000444978 -7.42808e-10)
(0.12769 -0.000418247 -6.92952e-10)
(0.120424 -0.000385693 -6.50058e-10)
(0.112965 -0.000349383 -6.05524e-10)
(0.105364 -0.000311092 -5.60173e-10)
(0.097667 -0.000272303 -5.14486e-10)
(0.0899162 -0.000234214 -4.68798e-10)
(0.0821501 -0.000197764 -4.24184e-10)
(0.0744032 -0.000163662 -3.81884e-10)
(0.0667063 -0.000132416 -3.44194e-10)
(0.0590866 -0.000104365 -2.81322e-10)
(0.051568 -7.97058e-05 -2.4479e-10)
(0.0441713 -5.8523e-05 -1.86909e-10)
(0.0369142 -4.08095e-05 -1.56355e-10)
(0.0298117 -2.65053e-05 -1.14908e-10)
(0.0228764 -1.54732e-05 -8.57454e-11)
(0.0161183 -7.27618e-06 -5.94063e-11)
(0.00954543 -1.31583e-06 -3.44359e-11)
(0.00316396 -5.4959e-06 -1.1069e-11)
(0.189741 -0.000164842 -7.35026e-10)
(0.187324 -0.000245868 -1.17194e-09)
(0.183886 -0.000316117 -9.01674e-10)
(0.179564 -0.000368049 -7.4346e-10)
(0.174472 -0.000402504 -6.61795e-10)
(0.168709 -0.000420831 -6.20345e-10)
(0.162363 -0.000425015 -5.99977e-10)
(0.155516 -0.000417363 -5.92905e-10)
(0.148243 -0.000400252 -5.89822e-10)
(0.140615 -0.000375968 -5.86663e-10)
(0.132697 -0.000346598 -5.84204e-10)
(0.12455 -0.000313978 -5.8292e-10)
(0.116231 -0.000279675 -5.82811e-10)
(0.107792 -0.000244983 -5.90363e-10)
(0.099281 -0.000210946 -5.37129e-10)
(0.0907419 -0.000178376 -4.9591e-10)
(0.0822139 -0.000147888 -4.58655e-10)
(0.0737325 -0.00011992 -4.29973e-10)
(0.0653289 -9.47676e-05 -3.88649e-10)
(0.0570307 -7.26071e-05 -3.33764e-10)
(0.0488618 -5.35153e-05 -2.88727e-10)
(0.0408426 -3.74942e-05 -2.27887e-10)
(0.0329905 -2.45059e-05 -1.85821e-10)
(0.02532 -1.44371e-05 -1.38139e-10)
(0.0178427 -6.8263e-06 -9.46141e-11)
(0.0105682 -1.02874e-06 -5.4546e-11)
(0.00350355 -6.58496e-06 -1.74799e-11)
(0.21087 -0.000135085 -7.00462e-10)
(0.20824 -0.000202588 -1.1082e-09)
(0.204491 -0.000260794 -8.81938e-10)
(0.199767 -0.000303932 -7.49024e-10)
(0.194186 -0.000332689 -6.68265e-10)
(0.187853 -0.000348238 -6.17389e-10)
(0.180862 -0.000352229 -5.83507e-10)
(0.173303 -0.000346549 -5.59493e-10)
(0.165256 -0.000333122 -5.41296e-10)
(0.156802 -0.000313779 -5.26723e-10)
(0.148013 -0.00029019 -5.14784e-10)
(0.138957 -0.000263817 -5.0498e-10)
(0.129701 -0.000235912 -4.96782e-10)
(0.120303 -0.000207515 -4.8926e-10)
(0.110819 -0.000179473 -4.41322e-10)
(0.101297 -0.000152459 -3.98054e-10)
(0.0917843 -0.000126993 -3.59155e-10)
(0.0823201 -0.000103462 -3.24571e-10)
(0.0729406 -8.21415e-05 -2.7328e-10)
(0.063677 -6.32151e-05 -2.12145e-10)
(0.0545567 -4.67861e-05 -1.53754e-10)
(0.0456029 -3.28975e-05 -1.16823e-10)
(0.0368354 -2.15651e-05 -9.22359e-11)
(0.0282705 -1.27286e-05 -6.94294e-11)
(0.0199216 -5.9332e-06 -4.79979e-11)
(0.0117992 -5.21895e-07 -2.78085e-11)
(0.00391151 -7.56919e-06 -8.93497e-12)
(0.23731 -9.12043e-05 -4.60964e-10)
(0.234366 -0.000136665 -7.36681e-10)
(0.230166 -0.000176171 -9.88638e-10)
(0.224866 -0.00020598 -7.45659e-10)
(0.218598 -0.000226477 -5.84224e-10)
(0.211478 -0.00023838 -4.64488e-10)
(0.203612 -0.000242695 -3.6681e-10)
(0.195099 -0.000240571 -2.81624e-10)
(0.186033 -0.000233179 -2.06245e-10)
(0.176504 -0.000221639 -1.98947e-10)
(0.166595 -0.000206979 -1.89089e-10)
(0.156386 -0.000190113 -1.7503e-10)
(0.14595 -0.00017184 -1.57287e-10)
(0.135356 -0.000152844 -1.36358e-10)
(0.124667 -0.000133706 -1.1338e-10)
(0.113938 -0.000114908 -8.53537e-11)
(0.103222 -9.68485e-05 -1.00182e-10)
(0.092564 -7.98487e-05 -1.09143e-10)
(0.0820046 -6.41629e-05 -9.9707e-11)
(0.0715791 -4.99861e-05 -9.04317e-11)
(0.0613179 -3.74598e-05 -8.07865e-11)
(0.0512472 -2.66834e-05 -7.11282e-11)
(0.0413889 -1.77434e-05 -6.14329e-11)
(0.0317611 -1.06525e-05 -4.32577e-11)
(0.0223786 -4.98725e-06 -2.58434e-11)
(0.0132529 -1.00766e-07 -1.02006e-11)
(0.00439279 -8.44718e-06 -3.05183e-12)
(0.268719 -3.53889e-05 -5.99939e-10)
(0.265348 -5.46257e-05 -9.48584e-10)
(0.260538 -7.16977e-05 -7.36275e-10)
(0.254472 -8.55032e-05 -5.83002e-10)
(0.247303 -9.61574e-05 -4.83604e-10)
(0.239164 -0.000103802 -4.11709e-10)
(0.23018 -0.000108642 -3.57511e-10)
(0.220467 -0.000110917 -3.16149e-10)
(0.210134 -0.00011088 -2.84818e-10)
(0.199283 -0.00010879 -2.6171e-10)
(0.188013 -0.000104909 -2.4405e-10)
(0.176414 -9.95004e-05 -2.30115e-10)
(0.16457 -9.28297e-05 -2.18894e-10)
(0.15256 -8.51644e-05 -2.09776e-10)
(0.140453 -7.67714e-05 -2.02396e-10)
(0.128315 -6.79132e-05 -1.96627e-10)
(0.116201 -5.8845e-05 -1.92363e-10)
(0.104165 -4.98096e-05 -1.8601e-10)
(0.0922496 -4.1034e-05 -1.73457e-10)
(0.0804946 -3.27255e-05 -1.45132e-10)
(0.0689335 -2.50673e-05 -1.2001e-10)
(0.0575948 -1.82212e-05 -9.73635e-11)
(0.0465022 -1.23525e-05 -7.66219e-11)
(0.0356755 -7.55705e-06 -5.74047e-11)
(0.0251302 -3.46963e-06 -3.95209e-11)
(0.0148788 5.16753e-07 -2.28598e-11)
(0.0049303 -9.00909e-06 -7.34127e-12)
(0.30433 3.35517e-05 -5.55461e-10)
(0.300421 4.85621e-05 -9.01319e-10)
(0.294852 6.06762e-05 -7.1461e-10)
(0.287841 6.80848e-05 -6.17948e-10)
(0.279569 7.09649e-05 -5.65322e-10)
(0.270199 6.98742e-05 -5.39515e-10)
(0.259878 6.55566e-05 -5.30827e-10)
(0.248744 5.88443e-05 -5.34373e-10)
(0.236923 5.05712e-05 -5.48089e-10)
(0.224537 4.15073e-05 -5.65602e-10)
(0.211698 3.23176e-05 -5.40151e-10)
(0.198509 2.35398e-05 -4.75958e-10)
(0.185066 1.55774e-05 -4.22936e-10)
(0.171456 8.70387e-06 -3.80292e-10)
(0.15776 3.07399e-06 -3.45009e-10)
(0.144047 -1.26015e-06 -3.15606e-10)
(0.130381 -4.33056e-06 -2.91591e-10)
(0.116819 -6.23498e-06 -2.67984e-10)
(0.103408 -7.11916e-06 -2.38625e-10)
(0.0901928 -7.16044e-06 -2.00829e-10)
(0.0772077 -6.55245e-06 -1.6565e-10)
(0.0644837 -5.49814e-06 -1.33732e-10)
(0.0520461 -4.22687e-06 -1.0479e-10)
(0.0399155 -2.91359e-06 -7.82811e-11)
(0.0281083 -1.27344e-06 -5.38032e-11)
(0.016637 1.24415e-06 -3.10989e-11)
(0.00551105 -9.196e-06 -9.98334e-12)
(0.342431 0.000116431 -5.14701e-10)
(0.337901 0.000171907 -8.75326e-10)
(0.331457 0.000219182 -6.52422e-10)
(0.323365 0.000252934 -5.53589e-10)
(0.313843 0.000273473 -4.89531e-10)
(0.303087 0.000282017 -4.46721e-10)
(0.291272 0.00028025 -4.16157e-10)
(0.278561 0.000270108 -3.92246e-10)
(0.265105 0.000253579 -3.71629e-10)
(0.251041 0.000232553 -3.52279e-10)
(0.236498 0.000208732 -3.3287e-10)
(0.221594 0.000183578 -3.13532e-10)
(0.206436 0.000158294 -2.95037e-10)
(0.19112 0.000133822 -2.77744e-10)
(0.175735 0.000110863 -2.61836e-10)
(0.160359 8.99026e-05 -2.47355e-10)
(0.14506 7.12385e-05 -2.34222e-10)
(0.129898 5.50133e-05 -2.25055e-10)
(0.114926 4.12448e-05 -1.99948e-10)
(0.100189 2.98546e-05 -1.69778e-10)
(0.0857256 2.06945e-05 -1.40009e-10)
(0.0715672 1.35641e-05 -1.13281e-10)
(0.0577403 8.20321e-06 -8.8949e-11)
(0.0442659 4.37825e-06 -6.65405e-11)
(0.0311609 2.28604e-06 -4.5779e-11)
(0.0184377 2.38368e-06 -2.64781e-11)
(0.00610514 -8.85502e-06 -8.50329e-12)
(0.381019 0.000214233 -4.58695e-10)
(0.375823 0.000319145 -7.65e-10)
(0.368447 0.000409792 -5.71578e-10)
(0.359205 0.000476891 -4.72149e-10)
(0.348361 0.000520793 -4.10833e-10)
(0.336147 0.000543334 -3.66448e-10)
(0.32277 0.000547126 -3.32753e-10)
(0.30842 0.000535236 -3.05836e-10)
(0.293272 0.00051087 -2.83428e-10)
(0.277483 0.000477138 -2.64193e-10)
(0.261197 0.000436907 -2.47371e-10)
(0.244546 0.000392709 -2.32539e-10)
(0.227649 0.000346702 -2.19466e-10)
(0.210611 0.000300738 -2.08016e-10)
(0.193529 0.00025621 -1.98092e-10)
(0.176485 0.000214125 -1.89549e-10)
(0.159553 0.000175271 -1.82289e-10)
(0.142798 0.000140175 -1.7632e-10)
(0.126274 0.00010914 -1.57245e-10)
(0.11003 8.22947e-05 -1.34349e-10)
(0.0941037 5.96269e-05 -1.11688e-10)
(0.078529 4.10122e-05 -9.03346e-11)
(0.0633327 2.62187e-05 -7.07295e-11)
(0.0485359 1.49947e-05 -5.27453e-11)
(0.0341553 7.45416e-06 -3.61963e-11)
(0.020203 3.95033e-06 -2.09005e-11)
(0.00668723 -7.99e-06 -6.70503e-12)
(0.417769 0.000322959 4.5188e-10)
(0.41191 0.000482681 1.81258e-10)
(0.403607 0.000622166 4.83708e-11)
(0.393229 0.000727709 -5.17917e-11)
(0.381081 0.000799507 5.11755e-11)
(0.367435 0.000840125 -1.72553e-11)
(0.352531 0.000852904 -4.8817e-11)
(0.336586 0.000841728 -6.27065e-11)
(0.319798 0.000811015 -6.62001e-11)
(0.302344 0.000765112 -6.32083e-11)
(0.284384 0.000708092 -5.58857e-11)
(0.266061 0.000643634 -4.55542e-11)
(0.247506 0.000574956 -3.33775e-11)
(0.228832 0.000504796 -2.05561e-11)
(0.210141 0.000435403 -3.27135e-11)
(0.191523 0.000368584 -4.12705e-11)
(0.173055 0.000305734 -7.60988e-11)
(0.154803 0.000247883 -8.38007e-11)
(0.136826 0.000195743 -7.63093e-11)
(0.119172 0.000149758 -6.3941e-11)
(0.101881 0.000110148 -6.03097e-11)
(0.084987 7.69507e-05 -5.51883e-11)
(0.068517 5.00339e-05 -4.33879e-11)
(0.052492 2.91827e-05 -3.25325e-11)
(0.0369281 1.44429e-05 -2.24352e-11)
(0.0218368 6.07994e-06 -1.29985e-11)
(0.00722566 -6.61963e-06 -4.1782e-12)
(0.450779 0.00043357 -3.09221e-10)
(0.444304 0.000650152 -5.67168e-10)
(0.435143 0.000840716 -3.55963e-10)
(0.423713 0.000987176 -2.60547e-10)
(0.410364 0.00108952 -2.03384e-10)
(0.395403 0.00115042 -1.70929e-10)