/*--------------------------------*- C++ -*----------------------------------*\
| =========                 |                                                 |
| \\      /  F ield         | OpenFOAM: The Open Source CFD Toolbox           |
|  \\    /   O peration     | Version:  2106                                  |
|   \\  /    A nd           | Website:  www.openfoam.com                      |
|    \\/     M anipulation  |                                                 |
\*---------------------------------------------------------------------------*/
FoamFile
{
    version     2.0;
    format      ascii;
    arch        "LSB;label=32;scalar=64";
    class       volVectorField;
    location    "219.99956";
    object      U_0;
}
// * * * * * * * * * * * * * * * * * * * * * * * * * * * * * * * * * * * * * //

dimensions      [0 1 -1 0 0 0 0];

internalField   nonuniform List<vector> 
3360
(
(0.0807221 -0.00345895 -1.58577e-11)
(0.0809401 -0.00539471 -2.25827e-11)
(0.0812293 -0.00737068 -2.41057e-11)
(0.0815637 -0.00924013 -1.88054e-11)
(0.0819081 -0.0110153 -5.17978e-12)
(0.0822263 -0.0126827 1.41181e-11)
(0.0824792 -0.0142283 3.79031e-11)
(0.0826263 -0.0156379 6.44476e-11)
(0.0826265 -0.0169039 9.36836e-11)
(0.0824107 -0.0179723 1.21225e-10)
(0.0817694 -0.0188822 5.36421e-11)
(0.08072 -0.019581 -3.8995e-12)
(0.0792604 -0.0200645 -5.10839e-11)
(0.077379 -0.0203213 -2.55474e-11)
(0.0750574 -0.0203421 -4.56471e-12)
(0.0722744 -0.0201195 1.18177e-11)
(0.0690075 -0.0196479 2.46123e-11)
(0.0652343 -0.0189238 3.48196e-11)
(0.0609329 -0.0179461 4.30781e-11)
(0.0560821 -0.0167158 4.96535e-11)
(0.0506618 -0.0152362 5.16668e-11)
(0.0446525 -0.0135113 4.459e-11)
(0.0380355 -0.0115544 3.48936e-11)
(0.0307801 -0.00936465 2.59423e-11)
(0.0228752 -0.00696165 1.77574e-11)
(0.0143086 -0.00434613 1.02448e-11)
(0.00506473 -0.00146081 3.288e-12)
(0.101548 -0.00238303 2.86308e-10)
(0.101482 -0.00362379 4.76343e-10)
(0.101323 -0.00482402 6.7705e-10)
(0.101014 -0.00585786 8.80375e-10)
(0.100493 -0.00672622 7.88995e-10)
(0.0997019 -0.00741798 7.34093e-10)
(0.0985886 -0.00792887 5.96653e-10)
(0.0971072 -0.00825758 4.898e-10)
(0.0952209 -0.00839938 4.11945e-10)
(0.0929309 -0.00839757 3.57223e-10)
(0.0903757 -0.00821633 3.22053e-10)
(0.0874696 -0.00790811 3.04339e-10)
(0.0841986 -0.00748985 3.00875e-10)
(0.0805493 -0.00697493 3.09025e-10)
(0.0765067 -0.00638209 3.23871e-10)
(0.0720637 -0.00573103 2.8629e-10)
(0.0672239 -0.0050417 2.56981e-10)
(0.0620012 -0.00433423 2.34967e-10)
(0.0564188 -0.00362816 2.19088e-10)
(0.0505126 -0.00294246 2.07218e-10)
(0.0443233 -0.0022948 1.98066e-10)
(0.0378925 -0.00170275 1.70032e-10)
(0.0312621 -0.00117454 1.45277e-10)
(0.0244867 -0.000733307 1.23026e-10)
(0.0176002 -0.000383566 1.01879e-10)
(0.0106345 -0.000139555 6.71915e-11)
(0.00361865 -1.19741e-05 2.17517e-11)
(0.114458 -0.00188228 1.56391e-10)
(0.113654 -0.00287535 2.19528e-10)
(0.112452 -0.00378717 2.32509e-10)
(0.110845 -0.00452594 2.32692e-10)
(0.10882 -0.00509653 3.57847e-10)
(0.106371 -0.00549835 4.5099e-10)
(0.103496 -0.00573937 4.96325e-10)
(0.100206 -0.00583345 5.14989e-10)
(0.0965213 -0.00579783 5.1614e-10)
(0.0924626 -0.00564938 3.98668e-10)
(0.0880524 -0.00540271 4.07124e-10)
(0.0833309 -0.00507814 4.16225e-10)
(0.0783101 -0.00468433 4.32136e-10)
(0.073027 -0.00424278 4.55059e-10)
(0.0675374 -0.00377003 4.8752e-10)
(0.0619008 -0.00328194 4.40126e-10)
(0.0561745 -0.00279446 3.55036e-10)
(0.0504118 -0.00232094 2.7837e-10)
(0.0446599 -0.00187372 2.0916e-10)
(0.0389542 -0.00146254 1.70464e-10)
(0.0333246 -0.00109507 1.32094e-10)
(0.0277972 -0.000776907 1.19445e-10)
(0.0223945 -0.000511798 1.04474e-10)
(0.0171346 -0.000301547 8.94635e-11)
(0.0120319 -0.000146547 6.22138e-11)
(0.00709757 -4.76072e-05 3.6003e-11)
(0.00234013 -1.35092e-06 1.15842e-11)
(0.126364 -0.000905955 -6.24991e-10)
(0.125 -0.00133739 -1.01171e-09)
(0.123027 -0.00172939 -1.38089e-09)
(0.12049 -0.00202824 -1.13564e-09)
(0.117427 -0.00224196 -9.45385e-10)
(0.113875 -0.00236136 -7.44389e-10)
(0.109894 -0.00240978 -6.1794e-10)
(0.105528 -0.00238516 -5.75544e-10)
(0.100824 -0.00230112 -4.53208e-10)
(0.0958308 -0.00217153 -2.56287e-10)
(0.0906097 -0.00200515 -1.19837e-10)
(0.0852061 -0.00181358 -2.4819e-11)
(0.0796559 -0.00160762 4.12714e-11)
(0.0739925 -0.00139773 8.65495e-11)
(0.0682496 -0.00119246 1.16331e-10)
(0.0624602 -0.000998241 1.34455e-10)
(0.0566557 -0.000818747 1.47109e-10)
(0.0508641 -0.000657059 9.37164e-11)
(0.0451101 -0.000514305 4.13126e-11)
(0.0394154 -0.00039082 1.48282e-11)
(0.0337984 -0.000286371 1.43191e-11)
(0.0282747 -0.000200265 3.11454e-11)
(0.0228574 -0.000131443 2.6331e-11)
(0.0175571 -7.85859e-05 2.00961e-11)
(0.0123824 -4.01573e-05 1.38885e-11)
(0.00734024 -1.46657e-05 8.03338e-12)
(0.00243595 -1.83727e-06 2.57622e-12)
(0.127636 -0.000447377 3.07052e-10)
(0.126 -0.000683228 4.33692e-11)
(0.123657 -0.000880935 -7.48884e-11)
(0.120686 -0.00102246 -7.70867e-11)
(0.117157 -0.00110872 -1.2421e-11)
(0.113135 -0.00115879 9.57543e-11)
(0.108681 -0.00116265 2.37247e-10)
(0.103861 -0.00113778 2.96131e-10)
(0.0987354 -0.00108748 2.45633e-10)
(0.0933626 -0.00101842 2.50166e-10)
(0.0877977 -0.000935924 2.79074e-10)
(0.0820925 -0.000844356 2.3333e-10)
(0.0762946 -0.000747738 2.01083e-10)
(0.0704474 -0.000649816 1.77598e-10)
(0.0645897 -0.000553843 1.59825e-10)
(0.0587562 -0.000462444 1.45849e-10)
(0.0529772 -0.000377578 1.34663e-10)
(0.0472788 -0.0003006 1.25335e-10)
(0.0416832 -0.000232355 1.18105e-10)
(0.0362085 -0.000173269 1.12994e-10)
(0.0308694 -0.000123434 1.09765e-10)
(0.0256776 -8.26916e-05 1.09688e-10)
(0.0206417 -5.06907e-05 7.09755e-11)
(0.0157679 -2.69425e-05 5.23986e-11)
(0.0110601 -1.09173e-05 3.61662e-11)
(0.00652059 -2.21779e-06 2.09523e-11)
(0.00214976 7.58049e-07 6.73841e-12)
(0.131649 -0.000230681 5.26482e-11)
(0.129768 -0.000325819 5.25e-11)
(0.12711 -0.000407936 5.63803e-11)
(0.123801 -0.000462138 7.34529e-11)
(0.119947 -0.0004917 1.02237e-10)
(0.115642 -0.00049857 1.37362e-10)
(0.110947 -0.000487639 1.71108e-10)
(0.105926 -0.000462927 1.96075e-10)
(0.100638 -0.00042832 2.16258e-10)
(0.0951415 -0.000387418 2.38209e-10)
(0.0894871 -0.000343284 2.55818e-10)
(0.0837218 -0.000298414 1.82825e-10)
(0.0778872 -0.000254744 1.13876e-10)
(0.0720197 -0.000213691 5.23605e-11)
(0.0661511 -0.000176204 -4.53115e-12)
(0.0603087 -0.000142835 -6.17551e-11)
(0.0545157 -0.000113807 -5.00659e-11)
(0.0487916 -8.90853e-05 -4.42623e-11)
(0.0431528 -6.84465e-05 -3.88439e-11)
(0.0376128 -5.154e-05 -1.04796e-11)
(0.0321826 -3.79378e-05 1.7246e-11)
(0.0268712 -2.71759e-05 1.95977e-11)
(0.0216859 -1.87867e-05 2.18495e-11)
(0.0166321 -1.23204e-05 2.44143e-11)
(0.0117144 -7.32367e-06 2.74896e-11)
(0.00693578 -3.34619e-06 1.55932e-11)
(0.0022987 -8.36783e-07 4.96035e-12)
(0.131306 -0.000108378 6.47526e-11)
(0.129357 -0.000173483 9.82434e-11)
(0.126605 -0.000228739 1.22025e-10)
(0.123176 -0.000270522 1.47842e-10)
(0.119179 -0.000299248 1.70453e-10)
(0.114708 -0.000314713 1.80577e-10)
(0.109846 -0.000317974 6.55289e-11)
(0.104665 -0.000311175 -5.06312e-11)
(0.0992323 -0.000296571 -1.78341e-10)
(0.0936081 -0.000276307 -1.73668e-10)
(0.087846 -0.000252273 -1.92362e-10)
(0.0819938 -0.000226064 -2.2519e-10)
(0.076094 -0.000198971 -2.67525e-10)
(0.0701837 -0.000172012 -3.17773e-10)
(0.0642955 -0.000145961 -2.97299e-10)
(0.0584572 -0.00012139 -2.8621e-10)
(0.0526929 -9.87046e-05 -2.7987e-10)
(0.0470228 -7.81793e-05 -2.76917e-10)
(0.0414638 -5.9985e-05 -2.53522e-10)
(0.0360297 -4.42136e-05 -2.21452e-10)
(0.0307316 -3.08965e-05 -1.88371e-10)
(0.0255783 -2.00192e-05 -1.3392e-10)
(0.0205763 -1.15307e-05 -1.06102e-10)
(0.0157302 -5.35032e-06 -7.9843e-11)
(0.0110432 -1.40337e-06 -5.49937e-11)
(0.00651666 3.23298e-07 -3.18603e-11)
(0.00215103 5.22884e-07 -1.02542e-11)
(0.132701 -4.74986e-05 4.7963e-10)
(0.130724 -6.18803e-05 8.45076e-10)
(0.127933 -7.57282e-05 3.38796e-10)
(0.124462 -8.46005e-05 1.27547e-11)
(0.120423 -8.88748e-05 -2.70925e-10)
(0.115913 -8.88204e-05 -5.87937e-10)
(0.111018 -8.51318e-05 -6.82722e-10)
(0.105814 -7.87116e-05 -6.832e-10)
(0.100368 -7.04949e-05 -7.40675e-10)
(0.0947389 -6.13428e-05 -7.01163e-10)
(0.0889792 -5.19789e-05 -5.9028e-10)
(0.0831344 -4.29642e-05 -5.07507e-10)
(0.0772439 -3.46968e-05 -4.43795e-10)
(0.0713419 -2.74256e-05 -3.9087e-10)
(0.0654576 -2.12728e-05 -3.42421e-10)
(0.0596159 -1.62589e-05 -2.90209e-10)
(0.053838 -1.23262e-05 -3.2009e-10)
(0.0481415 -9.36239e-06 -3.42848e-10)
(0.042541 -7.21953e-06 -3.25028e-10)
(0.0370488 -5.73038e-06 -2.97945e-10)
(0.0316747 -4.72141e-06 -2.72809e-10)
(0.0264266 -4.02289e-06 -2.22299e-10)
(0.021311 -3.47737e-06 -1.78122e-10)
(0.0163326 -2.94457e-06 -1.22747e-10)
(0.0114951 -2.28076e-06 -8.46398e-11)
(0.00680108 -1.32453e-06 -4.90745e-11)
(0.00225211 -4.906e-07 -1.58047e-11)
(0.132327 -3.99754e-05 1.1502e-10)
(0.130317 -6.60754e-05 1.46673e-10)
(0.127482 -8.73094e-05 1.06025e-10)
(0.123957 -0.000102986 6.26239e-11)
(0.119859 -0.000113487 5.12151e-11)
(0.115287 -0.000119241 -1.92275e-10)
(0.11033 -0.000120863 -3.54533e-10)
(0.105067 -0.000119038 -4.66697e-10)
(0.0995644 -0.000114459 -5.48186e-10)
(0.0938843 -0.000107775 -6.06941e-10)
(0.0880794 -9.95741e-05 -6.54236e-10)
(0.0821962 -9.03639e-05 -6.95877e-10)
(0.0762753 -8.05767e-05 -6.60252e-10)
(0.0703518 -7.05722e-05 -6.32057e-10)
(0.0644561 -6.06462e-05 -6.13669e-10)
(0.0586141 -5.10397e-05 -6.03422e-10)
(0.0528481 -4.19471e-05 -5.9962e-10)
(0.0471767 -3.35232e-05 -5.98838e-10)
(0.0416155 -2.58896e-05 -5.81689e-10)
(0.0361772 -1.9139e-05 -5.20568e-10)
(0.030872 -1.33392e-05 -4.69486e-10)
(0.0257082 -8.53591e-06 -3.76553e-10)
(0.0206918 -4.75454e-06 -2.94258e-10)
(0.0158273 -2.0013e-06 -2.19412e-10)
(0.0111176 -2.80343e-07 -1.50781e-10)
(0.00656451 3.76416e-07 -8.7213e-11)
(0.00216843 2.75122e-07 -2.80377e-11)
(0.133084 -1.76351e-05 -1.73955e-11)
(0.131068 -2.10739e-05 -5.32063e-11)
(0.128226 -2.4939e-05 -1.23335e-10)
(0.124696 -2.72181e-05 -2.13263e-10)
(0.120594 -2.80835e-05 -3.1779e-10)
(0.116021 -2.7646e-05 -4.38078e-10)
(0.111066 -2.61468e-05 -5.56458e-10)
(0.105807 -2.38714e-05 -6.68288e-10)
(0.100312 -2.1108e-05 -7.72136e-10)
(0.0946413 -1.81192e-05 -7.63389e-10)
(0.0888466 -1.51251e-05 -7.58677e-10)
(0.0829733 -1.22969e-05 -7.57871e-10)
(0.0770606 -9.75582e-06 -7.5919e-10)
(0.0711421 -7.57659e-06 -7.63008e-10)
(0.0652466 -5.79316e-06 -7.10457e-10)
(0.0593987 -4.40568e-06 -6.64134e-10)
(0.0536192 -3.38739e-06 -6.22781e-10)
(0.0479255 -2.69141e-06 -5.89841e-10)
(0.0423322 -2.25726e-06 -5.23692e-10)
(0.0368512 -2.01637e-06 -4.47924e-10)
(0.0314922 -1.89703e-06 -3.78873e-10)
(0.0262631 -1.82836e-06 -2.92701e-10)
(0.02117 -1.7444e-06 -2.3006e-10)
(0.0162176 -1.58582e-06 -1.72503e-10)
(0.0114093 -1.28398e-06 -1.18972e-10)
(0.00674732 -7.52158e-07 -6.89772e-11)
(0.00223312 -3.69694e-07 -2.22047e-11)
(0.132952 -2.18254e-05 4.22276e-10)
(0.130922 -3.65344e-05 6.77068e-10)
(0.12806 -4.8617e-05 1.45677e-10)
(0.124505 -5.77888e-05 -2.57217e-10)
(0.120375 -6.42415e-05 -5.97744e-10)
(0.115773 -6.81812e-05 -9.38004e-10)
(0.110787 -6.98908e-05 -1.01997e-09)
(0.105498 -6.96824e-05 -1.05578e-09)
(0.0999729 -6.78733e-05 -1.1018e-09)
(0.0942729 -6.47707e-05 -1.06907e-09)
(0.0884508 -6.06614e-05 -9.31862e-10)
(0.0825523 -5.58067e-05 -8.27396e-10)
(0.0766175 -5.0441e-05 -7.40406e-10)
(0.0706808 -4.47723e-05 -6.63569e-10)
(0.064772 -3.8983e-05 -5.92698e-10)
(0.0589164 -3.32304e-05 -5.29636e-10)
(0.0531356 -2.76532e-05 -5.22007e-10)
(0.0474478 -2.23751e-05 -5.19427e-10)
(0.0418682 -1.7501e-05 -4.81831e-10)
(0.0364093 -1.31179e-05 -4.26624e-10)
(0.0310812 -9.29452e-06 -3.72193e-10)
(0.0258919 -6.08192e-06 -3.07844e-10)
(0.0208474 -3.51455e-06 -2.44612e-10)
(0.0159524 -1.61025e-06 -1.70776e-10)
(0.0112098 -3.7497e-07 -1.16565e-10)
(0.00662156 1.78866e-07 -6.71927e-11)
(0.00218833 2.3398e-08 -2.15701e-11)
(0.133571 -1.57901e-05 8.65694e-11)
(0.131543 -2.05594e-05 9.22276e-11)
(0.128684 -2.54983e-05 2.22355e-11)
(0.125135 -2.91231e-05 -4.33462e-11)
(0.121011 -3.15214e-05 -8.09436e-11)
(0.116417 -3.27267e-05 -3.29384e-10)
(0.11144 -3.28651e-05 -4.95257e-10)
(0.106159 -3.21039e-05 -5.95269e-10)
(0.100643 -3.06276e-05 -6.5362e-10)
(0.0949503 -2.86207e-05 -6.82992e-10)
(0.0891342 -2.62544e-05 -6.9377e-10)
(0.0832393 -2.36805e-05 -6.9667e-10)
(0.0773048 -2.10275e-05 -6.975e-10)
(0.0713642 -1.83973e-05 -6.99614e-10)
(0.0654466 -1.58493e-05 -7.04754e-10)
(0.0595765 -1.35138e-05 -7.1617e-10)
(0.053775 -1.13167e-05 -6.61853e-10)
(0.0480599 -9.35328e-06 -6.15903e-10)
(0.042446 -7.61473e-06 -5.52242e-10)
(0.0369456 -6.09975e-06 -4.5444e-10)
(0.0315685 -4.79749e-06 -3.62894e-10)
(0.0263229 -3.68858e-06 -2.77496e-10)
(0.0212149 -2.74918e-06 -1.98152e-10)
(0.0162493 -1.95155e-06 -1.40789e-10)
(0.0114296 -1.24613e-06 -8.77458e-11)
(0.00675816 -5.60545e-07 -5.07218e-11)
(0.00223621 -4.41476e-07 -1.62816e-11)
(0.133882 -3.5962e-05 -8.90676e-11)
(0.131846 -5.64049e-05 -1.56647e-10)
(0.128976 -7.41185e-05 -2.36883e-10)
(0.125413 -8.77752e-05 -3.26876e-10)
(0.121273 -9.75466e-05 -4.25269e-10)
(0.11666 -0.000103595 -5.34126e-10)
(0.111662 -0.000106237 -6.42608e-10)
(0.106359 -0.000105872 -7.47082e-10)
(0.100818 -0.00010295 -8.44827e-10)
(0.0950998 -9.79424e-05 -8.31334e-10)
(0.0892567 -9.13165e-05 -8.23951e-10)
(0.0833341 -8.35208e-05 -8.22527e-10)
(0.0773717 -7.497e-05 -8.26145e-10)
(0.0714038 -6.60385e-05 -8.36801e-10)
(0.0654599 -5.70719e-05 -7.71814e-10)
(0.0595655 -4.82742e-05 -7.17922e-10)
(0.0537421 -3.99791e-05 -6.70273e-10)
(0.0480084 -3.22803e-05 -6.31461e-10)
(0.0423795 -2.53117e-05 -5.60947e-10)
(0.0368684 -1.91502e-05 -4.72961e-10)
(0.0314853 -1.38414e-05 -3.98061e-10)
(0.0262386 -9.40715e-06 -3.06702e-10)
(0.0211345 -5.85053e-06 -2.40618e-10)
(0.0161781 -3.15694e-06 -1.80086e-10)
(0.0113726 -1.2835e-06 -1.23935e-10)
(0.00672013 -1.74979e-07 -7.17019e-11)
(0.00222188 -3.42965e-07 -2.30437e-11)
(0.134968 -4.08187e-05 -1.6311e-10)
(0.132927 -5.94566e-05 -2.54914e-10)
(0.13005 -7.64778e-05 -3.64204e-10)
(0.126477 -8.9391e-05 -4.7766e-10)
(0.122327 -9.83768e-05 -5.88835e-10)
(0.117701 -0.000103568 -6.94115e-10)
(0.112689 -0.000105306 -7.95143e-10)
(0.10737 -0.000104045 -8.9263e-10)
(0.101812 -0.000100299 -9.85462e-10)
(0.0960744 -9.45923e-05 -9.55941e-10)
(0.0902101 -8.74383e-05 -9.3511e-10)
(0.084264 -7.93154e-05 -9.2106e-10)
(0.0782754 -7.06518e-05 -9.11076e-10)
(0.0722781 -6.18169e-05 -9.02726e-10)
(0.0663013 -5.31174e-05 -8.32804e-10)
(0.0603699 -4.47982e-05 -7.69937e-10)
(0.054505 -3.70423e-05 -7.13877e-10)
(0.0487244 -2.99731e-05 -6.616e-10)
(0.043043 -2.36662e-05 -5.86085e-10)
(0.0374735 -1.81579e-05 -5.01105e-10)
(0.0320262 -1.34526e-05 -4.21433e-10)
(0.0267094 -9.53138e-06 -3.28431e-10)
(0.02153 -6.35967e-06 -2.5683e-10)
(0.0164932 -3.88835e-06 -1.91394e-10)
(0.0116027 -2.02426e-06 -1.31401e-10)
(0.00686127 -6.38488e-07 -7.59419e-11)
(0.0022706 -7.75105e-07 -2.43955e-11)
(0.136118 -6.75973e-05 3.58611e-10)
(0.13407 -0.000103224 -6.2638e-10)
(0.131183 -0.000135121 -3.81779e-10)
(0.127596 -0.00016016 -2.30911e-10)
(0.123428 -0.000178603 -1.1999e-10)
(0.118781 -0.000190635 -2.38177e-10)
(0.113745 -0.000196719 -3.30907e-10)
(0.108397 -0.000197473 -3.98624e-10)
(0.102805 -0.000193609 -4.4189e-10)
(0.0970303 -0.000185891 -4.64387e-10)
(0.0911236 -0.000175088 -4.71881e-10)
(0.0851307 -0.000161941 -4.68296e-10)
(0.079091 -0.000147149 -4.56347e-10)
(0.0730388 -0.000131349 -4.38076e-10)
(0.0670039 -0.000115108 -4.15266e-10)
(0.0610119 -9.8918e-05 -3.90291e-10)
(0.0550845 -8.32015e-05 -3.6475e-10)
(0.0492407 -6.83139e-05 -3.36072e-10)
(0.0434963 -5.45452e-05 -2.80031e-10)
(0.0378645 -4.2119e-05 -2.42931e-10)
(0.0323564 -3.11963e-05 -1.92708e-10)
(0.026981 -2.18812e-05 -1.59463e-10)
(0.0217454 -1.42309e-05 -1.11752e-10)
(0.0166551 -8.25543e-06 -8.52604e-11)
(0.0117143 -3.88516e-06 -5.91844e-11)
(0.00692581 -1.00643e-06 -3.43708e-11)
(0.00229133 -9.89284e-07 -1.10697e-11)
(0.138391 -8.9606e-05 2.25474e-10)
(0.136332 -0.000133673 3.05986e-10)
(0.133428 -0.000173631 -5.05308e-10)
(0.12982 -0.00020468 -4.02561e-10)
(0.125623 -0.000227147 -4.11694e-10)
(0.120941 -0.000241265 -4.58121e-10)
(0.115861 -0.000247667 -5.26395e-10)
(0.110462 -0.00024721 -6.08067e-10)
(0.104811 -0.000240895 -6.93838e-10)
(0.0989693 -0.000229783 -6.65092e-10)
(0.092988 -0.000214935 -6.47771e-10)
(0.0869132 -0.000197367 -6.41612e-10)
(0.0807849 -0.000178018 -6.43479e-10)
(0.0746378 -0.000157725 -6.49812e-10)
(0.0685024 -0.000137217 -6.01846e-10)
(0.0624047 -0.000117107 -5.60828e-10)
(0.0563673 -9.78921e-05 -5.25636e-10)
(0.0504097 -7.99634e-05 -4.93947e-10)
(0.0445482 -6.36108e-05 -4.51337e-10)
(0.0387968 -4.90346e-05 -3.83176e-10)
(0.033167 -3.63565e-05 -3.24867e-10)
(0.0276682 -2.56326e-05 -2.44272e-10)
(0.0223081 -1.68682e-05 -1.92417e-10)
(0.0170928 -1.002e-05 -1.4402e-10)
(0.0120267 -4.94047e-06 -9.90059e-11)
(0.0071132 -1.41762e-06 -5.72272e-11)
(0.00235438 -1.5346e-06 -1.83755e-11)
(0.141321 -0.000116617 -8.11224e-10)
(0.139245 -0.000176193 -1.39431e-09)
(0.136316 -0.000229185 -1.07954e-09)
(0.132673 -0.000269923 -9.67522e-10)
(0.128433 -0.000298906 -9.5939e-10)
(0.123698 -0.000316598 -1.00908e-09)
(0.118556 -0.000323983 -1.09571e-09)
(0.113085 -0.000322335 -1.2114e-09)
(0.107352 -0.000313077 -1.19356e-09)
(0.101418 -0.000297681 -1.09475e-09)
(0.0953351 -0.000277584 -1.02383e-09)
(0.0891494 -0.000254138 -9.73728e-10)
(0.0829016 -0.000228569 -9.37919e-10)
(0.0766273 -0.000201959 -9.08354e-10)
(0.0703577 -0.000175228 -8.25152e-10)
(0.06412 -0.000149144 -7.49281e-10)
(0.0579379 -0.000124321 -6.83197e-10)
(0.0518317 -0.000101235 -6.28001e-10)
(0.0458189 -8.02366e-05 -5.54589e-10)
(0.0399145 -6.15668e-05 -4.69812e-10)
(0.0341309 -4.53709e-05 -3.88355e-10)
(0.0284785 -3.17155e-05 -3.01566e-10)
(0.0229659 -2.06078e-05 -2.38851e-10)
(0.0175997 -1.19946e-05 -1.78306e-10)
(0.0123852 -5.68964e-06 -1.2222e-10)
(0.00732614 -1.42499e-06 -7.05033e-11)
(0.00242518 -2.00031e-06 -2.26146e-11)
(0.14592 -0.0001424 -6.87907e-10)
(0.143819 -0.000212836 -1.12623e-09)
(0.140853 -0.00027567 -1.6073e-09)
(0.13716 -0.000323618 -1.26182e-09)
(0.132856 -0.000357299 -1.1026e-09)
(0.128041 -0.00037734 -1.01159e-09)
(0.122805 -0.000385004 -9.51951e-10)
(0.117223 -0.000381902 -9.05799e-10)
(0.111364 -0.000369822 -8.62742e-10)
(0.105287 -0.000350588 -8.20905e-10)
(0.0990466 -0.000325964 -7.81058e-10)
(0.0926887 -0.000297589 -7.43441e-10)
(0.0862553 -0.00026693 -7.07678e-10)
(0.0797832 -0.000235263 -6.72044e-10)
(0.073305 -0.000203662 -5.69588e-10)
(0.0668495 -0.000173004 -4.66155e-10)
(0.0604416 -0.000143981 -4.38359e-10)
(0.0541034 -0.000117117 -3.98533e-10)
(0.0478538 -9.27858e-05 -3.47806e-10)
(0.0417091 -7.12308e-05 -2.94058e-10)
(0.0356832 -5.25859e-05 -2.4278e-10)
(0.0297877 -3.68952e-05 -1.94659e-10)
(0.0240322 -2.41381e-05 -1.49691e-10)
(0.0184245 -1.42266e-05 -1.07556e-10)
(0.0129707 -6.90082e-06 -6.81696e-11)
(0.00767537 -1.79401e-06 -3.17463e-11)
(0.00254189 -2.7663e-06 -1.0053e-11)
(0.152192 -0.000166034 -9.65629e-10)
(0.150056 -0.000249599 -1.55403e-09)
(0.147034 -0.000323209 -1.31208e-09)
(0.143266 -0.000378855 -1.16702e-09)
(0.138867 -0.000417327 -1.0883e-09)
(0.133937 -0.000439549 -1.05019e-09)
(0.128561 -0.000447163 -1.03842e-09)
(0.122818 -0.000442205 -1.04512e-09)
(0.116775 -0.000426884 -1.06895e-09)
(0.110493 -0.000403418 -9.84827e-10)
(0.104026 -0.000373921 -9.24093e-10)
(0.0974232 -0.000340327 -8.78317e-10)
(0.0907277 -0.000304345 -8.43292e-10)
(0.0839785 -0.00026744 -8.15404e-10)
(0.0772102 -0.000230831 -7.40885e-10)
(0.0704538 -0.000195499 -6.76294e-10)
(0.0637367 -0.000162207 -6.21574e-10)
(0.0570829 -0.00013152 -5.73028e-10)
(0.0505135 -0.000103836 -5.09649e-10)
(0.0440468 -7.94021e-05 -4.32844e-10)
(0.0376983 -5.83468e-05 -3.64877e-10)
(0.0314814 -4.06986e-05 -2.78573e-10)
(0.0254071 -2.64183e-05 -2.1605e-10)
(0.0194844 -1.53914e-05 -1.60376e-10)
(0.0137206 -7.29293e-06 -1.09795e-10)
(0.00812116 -1.67526e-06 -6.33042e-11)
(0.00269026 -3.52556e-06 -2.02928e-11)
(0.161193 -0.000179197 -1.04101e-09)
(0.159001 -0.000267548 -1.71327e-09)
(0.155896 -0.000345162 -1.40545e-09)
(0.152015 -0.000403285 -1.26998e-09)
(0.147472 -0.000442788 -1.20245e-09)
(0.142365 -0.000464817 -1.17217e-09)
(0.136781 -0.000471279 -1.16472e-09)
(0.130797 -0.00046449 -1.17016e-09)
(0.124481 -0.000446918 -1.18049e-09)
(0.117896 -0.000421002 -1.09724e-09)
(0.111098 -0.000389033 -1.02716e-09)
(0.104138 -0.000353071 -9.70204e-10)
(0.097062 -0.000314912 -9.23996e-10)
(0.0899128 -0.000276071 -8.85341e-10)
(0.082728 -0.000237786 -8.04374e-10)
(0.0755415 -0.000201037 -7.32854e-10)
(0.0683839 -0.000166572 -6.70313e-10)
(0.0612821 -0.000134932 -6.14206e-10)
(0.05426 -0.000106484 -5.41324e-10)
(0.0473383 -8.14442e-05 -4.58071e-10)
(0.0405349 -5.99107e-05 -3.84241e-10)
(0.0338653 -4.18838e-05 -2.95987e-10)
(0.0273423 -2.73024e-05 -2.30127e-10)
(0.0209765 -1.60293e-05 -1.71222e-10)
(0.0147765 -7.67257e-06 -1.17446e-10)
(0.00874911 -1.69538e-06 -6.7813e-11)
(0.0028994 -4.51297e-06 -2.17568e-11)
(0.173344 -0.00018029 -2.99064e-10)
(0.171065 -0.000270166 -4.45689e-10)
(0.167831 -0.000348277 -5.28103e-10)
(0.163777 -0.000406284 -5.69472e-10)
(0.159016 -0.000445127 -5.79073e-10)
(0.153646 -0.000466163 -5.58977e-10)
(0.147754 -0.000471484 -5.06604e-10)
(0.141417 -0.00046356 -6.41809e-10)
(0.134708 -0.000444975 -7.36146e-10)
(0.12769 -0.000418245 -6.93316e-10)
(0.120424 -0.000385691 -6.50091e-10)
(0.112965 -0.000349381 -6.05663e-10)
(0.105364 -0.000311091 -5.60285e-10)
(0.097667 -0.000272303 -5.14556e-10)
(0.0899162 -0.000234214 -4.68784e-10)
(0.0821501 -0.000197764 -4.24012e-10)
(0.0744032 -0.000163662 -3.81185e-10)
(0.0667063 -0.000132416 -3.41881e-10)
(0.0590866 -0.000104365 -2.83122e-10)
(0.051568 -7.97059e-05 -2.41849e-10)
(0.0441713 -5.8523e-05 -1.86713e-10)
(0.0369142 -4.08094e-05 -1.56435e-10)
(0.0298117 -2.65053e-05 -1.14464e-10)
(0.0228764 -1.54731e-05 -8.60438e-11)
(0.0161183 -7.2761e-06 -5.94047e-11)
(0.00954543 -1.31576e-06 -3.44432e-11)
(0.00316396 -5.49588e-06 -1.10718e-11)
(0.189741 -0.000164844 -7.42029e-10)
(0.187324 -0.000245865 -1.19398e-09)
(0.183886 -0.000316112 -9.06135e-10)
(0.179564 -0.000368045 -7.41866e-10)
(0.174472 -0.000402501 -6.6076e-10)
(0.168709 -0.000420828 -6.20109e-10)
(0.162363 -0.000425013 -6.00064e-10)
(0.155516 -0.000417361 -5.93003e-10)
(0.148243 -0.000400251 -5.89868e-10)
(0.140615 -0.000375967 -5.86662e-10)
(0.132697 -0.000346597 -5.8423e-10)
(0.12455 -0.000313977 -5.82975e-10)
(0.116231 -0.000279674 -5.83184e-10)
(0.107792 -0.000244983 -5.85221e-10)
(0.099281 -0.000210946 -5.37534e-10)
(0.0907419 -0.000178376 -4.96162e-10)
(0.0822139 -0.000147888 -4.59119e-10)
(0.0737325 -0.00011992 -4.26588e-10)
(0.0653289 -9.47678e-05 -3.87753e-10)
(0.0570307 -7.26072e-05 -3.3369e-10)
(0.0488618 -5.35154e-05 -2.8796e-10)
(0.0408426 -3.74942e-05 -2.28106e-10)
(0.0329905 -2.45059e-05 -1.85656e-10)
(0.02532 -1.4437e-05 -1.38074e-10)
(0.0178427 -6.82622e-06 -9.45839e-11)
(0.0105682 -1.02866e-06 -5.45232e-11)
(0.00350355 -6.58494e-06 -1.74715e-11)
(0.21087 -0.000135074 -7.03559e-10)
(0.20824 -0.000202584 -1.11767e-09)
(0.204491 -0.000260792 -8.84205e-10)
(0.199767 -0.000303931 -7.49384e-10)
(0.194186 -0.000332688 -6.68289e-10)
(0.187853 -0.000348237 -6.17447e-10)
(0.180862 -0.000352229 -5.83594e-10)
(0.173303 -0.000346548 -5.59583e-10)
(0.165256 -0.000333121 -5.41373e-10)
(0.156802 -0.000313779 -5.26768e-10)
(0.148013 -0.000290189 -5.1478e-10)
(0.138957 -0.000263817 -5.04948e-10)
(0.129701 -0.000235911 -4.96969e-10)
(0.120303 -0.000207514 -4.90265e-10)
(0.110819 -0.000179473 -4.41428e-10)
(0.101297 -0.000152459 -3.98078e-10)
(0.0917843 -0.000126993 -3.59114e-10)
(0.0823201 -0.000103462 -3.23038e-10)
(0.0729406 -8.21416e-05 -2.70869e-10)
(0.063677 -6.32151e-05 -2.11661e-10)
(0.0545567 -4.67861e-05 -1.55025e-10)
(0.0456029 -3.28975e-05 -1.15606e-10)
(0.0368354 -2.1565e-05 -9.22939e-11)
(0.0282705 -1.27285e-05 -6.95206e-11)
(0.0199216 -5.93315e-06 -4.80554e-11)
(0.0117992 -5.21863e-07 -2.78311e-11)
(0.00391151 -7.56919e-06 -8.93902e-12)
(0.23731 -9.11979e-05 -4.60024e-10)
(0.234366 -0.000136665 -7.3552e-10)
(0.230166 -0.000176172 -1.00637e-09)
(0.224866 -0.000205981 -7.44602e-10)
(0.218598 -0.000226477 -5.83514e-10)
(0.211478 -0.00023838 -4.64517e-10)
(0.203612 -0.000242695 -3.6675e-10)
(0.195099 -0.00024057 -2.80871e-10)
(0.186033 -0.000233178 -2.0555e-10)
(0.176504 -0.000221639 -1.98253e-10)
(0.166595 -0.000206978 -1.8902e-10)
(0.156386 -0.000190112 -1.75079e-10)
(0.14595 -0.000171839 -1.57382e-10)
(0.135356 -0.000152844 -1.36346e-10)
(0.124667 -0.000133706 -1.12904e-10)
(0.113938 -0.000114908 -8.94251e-11)
(0.103222 -9.68485e-05 -9.94313e-11)
(0.092564 -7.98487e-05 -1.07144e-10)
(0.0820046 -6.41629e-05 -9.95254e-11)
(0.0715791 -4.9986e-05 -9.06286e-11)
(0.0613179 -3.74597e-05 -8.08669e-11)
(0.0512472 -2.66832e-05 -7.12881e-11)
(0.0413889 -1.77432e-05 -6.17906e-11)
(0.0317611 -1.06523e-05 -4.33508e-11)
(0.0223786 -4.98717e-06 -2.60283e-11)
(0.0132529 -1.00721e-07 -9.73131e-12)
(0.00439279 -8.44716e-06 -3.16301e-12)
(0.268719 -3.5393e-05 -5.91611e-10)
(0.265348 -5.46271e-05 -9.73126e-10)
(0.260538 -7.16991e-05 -7.29698e-10)
(0.254472 -8.5505e-05 -5.82113e-10)
(0.247303 -9.6159e-05 -4.83374e-10)
(0.239164 -0.000103804 -4.11669e-10)
(0.23018 -0.000108643 -3.57492e-10)
(0.220467 -0.000110917 -3.16127e-10)
(0.210134 -0.00011088 -2.84784e-10)
(0.199283 -0.00010879 -2.61696e-10)
(0.188013 -0.000104909 -2.44046e-10)
(0.176414 -9.95002e-05 -2.30125e-10)
(0.16457 -9.28296e-05 -2.1892e-10)
(0.15256 -8.51645e-05 -2.09806e-10)
(0.140453 -7.67715e-05 -2.02409e-10)
(0.128315 -6.79135e-05 -1.967e-10)
(0.116201 -5.88453e-05 -1.92144e-10)
(0.104165 -4.98099e-05 -1.88452e-10)
(0.0922496 -4.10344e-05 -1.71648e-10)
(0.0804946 -3.27258e-05 -1.44982e-10)
(0.0689335 -2.50675e-05 -1.19979e-10)
(0.0575948 -1.82213e-05 -9.73226e-11)
(0.0465022 -1.23525e-05 -7.66349e-11)
(0.0356755 -7.55706e-06 -5.74302e-11)
(0.0251302 -3.46964e-06 -3.95401e-11)
(0.0148788 5.16757e-07 -2.28708e-11)
(0.0049303 -9.00909e-06 -7.34443e-12)
(0.30433 3.3543e-05 -5.54074e-10)
(0.300421 4.85577e-05 -9.21319e-10)
(0.294852 6.0673e-05 -7.13492e-10)
(0.287841 6.80821e-05 -6.17275e-10)
(0.279569 7.0963e-05 -5.65178e-10)
(0.270199 6.98729e-05 -5.39556e-10)
(0.259878 6.55558e-05 -5.30959e-10)
(0.248744 5.88439e-05 -5.34732e-10)
(0.236923 5.05711e-05 -5.47295e-10)
(0.224537 4.15074e-05 -5.65495e-10)
(0.211698 3.23177e-05 -5.41189e-10)
(0.198509 2.35399e-05 -4.74895e-10)
(0.185066 1.55774e-05 -4.23024e-10)
(0.171456 8.70379e-06 -3.80357e-10)
(0.15776 3.07382e-06 -3.44988e-10)
(0.144047 -1.26035e-06 -3.15442e-10)
(0.130381 -4.3308e-06 -2.91187e-10)
(0.116819 -6.23522e-06 -2.709e-10)
(0.103408 -7.11937e-06 -2.40875e-10)
(0.0901928 -7.16061e-06 -2.01228e-10)
(0.0772077 -6.55258e-06 -1.65493e-10)
(0.0644837 -5.49823e-06 -1.33654e-10)
(0.0520461 -4.22692e-06 -1.0477e-10)
(0.0399155 -2.9136e-06 -7.82889e-11)
(0.0281083 -1.27343e-06 -5.38163e-11)
(0.016637 1.24415e-06 -3.11077e-11)
(0.00551105 -9.196e-06 -9.9861e-12)
(0.342431 0.000116429 -5.19957e-10)
(0.337901 0.000171905 -8.17379e-10)
(0.331457 0.00021918 -6.56175e-10)
(0.323365 0.000252932 -5.53989e-10)
(0.313843 0.000273472 -4.89199e-10)
(0.303087 0.000282016 -4.46442e-10)
(0.291272 0.000280249 -4.16032e-10)
(0.278561 0.000270108 -3.9222e-10)
(0.265105 0.000253579 -3.71657e-10)
(0.251041 0.000232553 -3.52294e-10)
(0.236498 0.000208732 -3.32886e-10)
(0.221594 0.000183579 -3.13562e-10)
(0.206436 0.000158294 -2.95056e-10)
(0.19112 0.000133822 -2.7775e-10)
(0.175735 0.000110863 -2.61822e-10)
(0.160359 8.99027e-05 -2.47242e-10)
(0.14506 7.12385e-05 -2.34534e-10)
(0.129898 5.50133e-05 -2.23166e-10)
(0.114926 4.12448e-05 -2.03401e-10)
(0.100189 2.98546e-05 -1.69381e-10)
(0.0857256 2.06945e-05 -1.3982e-10)
(0.0715672 1.35641e-05 -1.13202e-10)
(0.0577403 8.20323e-06 -8.89291e-11)
(0.0442659 4.37826e-06 -6.65438e-11)
(0.0311609 2.28605e-06 -4.5788e-11)
(0.0184377 2.38369e-06 -2.64853e-11)
(0.00610514 -8.85502e-06 -8.50588e-12)
(0.381019 0.000214227 -4.52399e-10)
(0.375823 0.000319145 -7.01731e-10)
(0.368447 0.000409792 -5.66728e-10)
(0.359205 0.000476891 -4.7263e-10)
(0.348361 0.000520794 -4.10943e-10)
(0.336147 0.000543334 -3.66482e-10)
(0.32277 0.000547127 -3.3279e-10)
(0.30842 0.000535237 -3.05887e-10)
(0.293272 0.000510871 -2.83481e-10)
(0.277483 0.000477139 -2.64238e-10)
(0.261197 0.000436908 -2.47401e-10)
(0.244546 0.00039271 -2.32554e-10)
(0.227649 0.000346702 -2.19466e-10)
(0.210611 0.000300738 -2.08001e-10)
(0.193529 0.00025621 -1.98059e-10)
(0.176485 0.000214125 -1.89575e-10)
(0.159553 0.000175271 -1.82031e-10)
(0.142798 0.000140174 -1.75289e-10)
(0.126274 0.00010914 -1.58846e-10)
(0.11003 8.22947e-05 -1.34963e-10)
(0.0941037 5.96269e-05 -1.11766e-10)
(0.078529 4.10123e-05 -9.03009e-11)
(0.0633327 2.62188e-05 -7.0689e-11)
(0.0485359 1.49948e-05 -5.2715e-11)
(0.0341553 7.45424e-06 -3.61783e-11)
(0.020203 3.95038e-06 -2.08921e-11)
(0.00668723 -7.98998e-06 -6.70295e-12)
(0.417769 0.000322969 4.79249e-10)
(0.41191 0.000482684 1.8211e-10)
(0.403607 0.000622168 4.552e-11)
(0.393229 0.000727712 -3.97826e-11)
(0.381081 0.00079951 4.50619e-11)
(0.367435 0.000840128 -2.03669e-11)
(0.352531 0.000852906 -5.02019e-11)
(0.336586 0.00084173 -6.3375e-11)
(0.319798 0.000811017 -6.65938e-11)
(0.302344 0.000765114 -6.34607e-11)
(0.284384 0.000708093 -5.60571e-11)
(0.266061 0.000643635 -4.56103e-11)
(0.247506 0.000574957 -3.31727e-11)
(0.228832 0.000504796 -1.97944e-11)
(0.210141 0.000435404 -3.28687e-11)
(0.191523 0.000368584 -4.46544e-11)
(0.173055 0.000305734 -7.75712e-11)
(0.154803 0.000247883 -8.29546e-11)
(0.136826 0.000195743 -7.68669e-11)
(0.119172 0.000149758 -6.60464e-11)
(0.101881 0.000110148 -5.99383e-11)
(0.084987 7.69506e-05 -5.54909e-11)
(0.068517 5.00338e-05 -4.33615e-11)
(0.052492 2.91827e-05 -3.25019e-11)
(0.0369281 1.4443e-05 -2.24452e-11)
(0.0218368 6.07996e-06 -1.3005e-11)
(0.00722566 -6.61962e-06 -4.17947e-12)
(0.450779 0.000433577 -3.16482e-10)
(0.444304 0.000650156 -5.17414e-10)
(0.435143 0.000840718 -3.61075e-10)
(0.423713 0.000987179 -2.60276e-10)
(0.410364 0.00108952 -2.02889e-10)
(0.395403 0.00115042 -1.70901e-10)
(0.3791 0.00117396 -1.51178e-10)