/*--------------------------------*- C++ -*----------------------------------*\
| =========                 |                                                 |
| \\      /  F ield         | OpenFOAM: The Open Source CFD Toolbox           |
|  \\    /   O peration     | Version:  2106                                  |
|   \\  /    A nd           | Website:  www.openfoam.com                      |
|    \\/     M anipulation  |                                                 |
\*---------------------------------------------------------------------------*/
FoamFile
{
    version     2.0;
    format      ascii;
    arch        "LSB;label=32;scalar=64";
    class       volScalarField;
    location    "110.00057";
    object      AC3H4;
}
// * * * * * * * * * * * * * * * * * * * * * * * * * * * * * * * * * * * * * //

dimensions      [0 0 0 0 0 0 0];

internalField   nonuniform List<scalar> 
3360
(
2.77366e-24
2.9472e-24
3.19156e-24
3.49521e-24
3.84808e-24
4.24077e-24
4.66421e-24
5.10964e-24
5.56856e-24
6.03286e-24
6.49496e-24
6.94788e-24
7.3854e-24
7.80213e-24
8.19352e-24
8.55595e-24
8.88665e-24
9.18372e-24
9.44609e-24
9.6734e-24
9.86602e-24
1.00249e-23
1.01515e-23
1.02477e-23
1.03159e-23
1.03585e-23
1.03784e-23
1.40242e-23
1.49946e-23
1.6382e-23
1.81403e-23
2.02347e-23
2.26358e-23
2.53169e-23
2.82524e-23
3.14161e-23
3.47809e-23
3.83174e-23
4.19938e-23
4.57748e-23
4.9622e-23
5.3494e-23
5.73462e-23
6.11317e-23
6.48007e-23
6.8302e-23
7.15835e-23
7.45937e-23
7.72829e-23
7.96044e-23
8.15168e-23
8.29846e-23
8.39799e-23
8.44831e-23
5.35929e-23
5.80001e-23
6.43783e-23
7.2592e-23
8.2555e-23
9.41994e-23
1.07457e-22
1.22245e-22
1.38457e-22
1.55957e-22
1.74569e-22
1.94084e-22
2.14267e-22
2.34851e-22
2.55549e-22
2.76055e-22
2.96054e-22
3.1523e-22
3.33282e-22
3.49924e-22
3.64906e-22
3.78013e-22
3.89074e-22
3.97969e-22
4.04627e-22
4.09027e-22
4.11193e-22
1.93596e-22
2.11775e-22
2.38416e-22
2.73209e-22
3.16037e-22
3.66825e-22
4.2544e-22
4.91622e-22
5.64933e-22
6.44729e-22
7.30149e-22
8.20119e-22
9.13374e-22
1.00849e-21
1.10391e-21
1.19803e-21
1.28924e-21
1.37598e-21
1.45684e-21
1.53058e-21
1.59618e-21
1.65288e-21
1.70013e-21
1.73767e-21
1.76543e-21
1.78356e-21
1.79239e-21
7.19376e-22
7.93584e-22
9.0303e-22
1.04704e-21
1.22569e-21
1.43908e-21
1.68693e-21
1.96825e-21
2.28107e-21
2.62234e-21
2.98795e-21
3.37276e-21
3.77083e-21
4.17555e-21
4.57999e-21
4.97709e-21
5.36002e-21
5.72242e-21
6.0586e-21
6.36377e-21
6.63407e-21
6.8667e-21
7.05988e-21
7.21278e-21
7.32551e-21
7.39893e-21
7.43459e-21
2.74275e-21
3.04276e-21
3.48703e-21
4.07401e-21
4.80493e-21
5.68086e-21
6.70088e-21
7.86076e-21
9.152e-21
1.05614e-20
1.20713e-20
1.36594e-20
1.53003e-20
1.69659e-20
1.8627e-20
2.02543e-20
2.18197e-20
2.32975e-20
2.4665e-20
2.59032e-20
2.69975e-20
2.79372e-20
2.87158e-20
2.93309e-20
2.97835e-20
3.00779e-20
3.02206e-20
1.06347e-20
1.18419e-20
1.36334e-20
1.60059e-20
1.89664e-20
2.25203e-20
2.66638e-20
3.13783e-20
3.66274e-20
4.2355e-20
4.84864e-20
5.49295e-20
6.15787e-20
6.83193e-20
7.50324e-20
8.15999e-20
8.79093e-20
9.3858e-20
9.93563e-20
1.0433e-19
1.0872e-19
1.12487e-19
1.15606e-19
1.18068e-19
1.19879e-19
1.21056e-19
1.21627e-19
4.16305e-20
4.64537e-20
5.36216e-20
6.31272e-20
7.50041e-20
8.9278e-20
1.05935e-19
1.249e-19
1.46023e-19
1.69075e-19
1.93749e-19
2.1967e-19
2.46407e-19
2.73496e-19
3.00456e-19
3.26813e-19
3.52114e-19
3.75951e-19
3.97964e-19
4.1786e-19
4.3541e-19
4.50456e-19
4.62904e-19
4.72724e-19
4.79942e-19
4.8463e-19
4.86902e-19
1.63994e-19
1.83258e-19
2.11905e-19
2.4992e-19
2.97449e-19
3.54596e-19
4.21303e-19
4.97258e-19
5.81849e-19
6.7414e-19
7.72885e-19
8.76568e-19
9.83459e-19
1.0917e-18
1.19936e-18
1.30455e-18
1.40547e-18
1.50051e-18
1.58824e-18
1.6675e-18
1.73739e-18
1.79729e-18
1.84684e-18
1.88593e-18
1.91465e-18
1.9333e-18
1.94234e-18
6.4726e-19
7.23879e-19
8.37885e-19
9.89265e-19
1.17863e-18
1.40643e-18
1.67242e-18
1.97538e-18
2.31281e-18
2.68096e-18
3.07483e-18
3.48832e-18
3.91451e-18
4.34594e-18
4.77494e-18
5.19395e-18
5.59582e-18
5.97408e-18
6.32313e-18
6.63834e-18
6.91619e-18
7.15422e-18
7.35103e-18
7.50621e-18
7.6202e-18
7.69421e-18
7.73005e-18
2.55959e-18
2.86439e-18
3.31797e-18
3.92038e-18
4.67406e-18
5.58077e-18
6.63955e-18
7.8453e-18
9.18804e-18
1.06526e-17
1.2219e-17
1.38629e-17
1.55565e-17
1.72703e-17
1.89738e-17
2.06369e-17
2.22314e-17
2.37317e-17
2.51157e-17
2.63652e-17
2.74663e-17
2.84094e-17
2.9189e-17
2.98036e-17
3.02551e-17
3.05481e-17
3.069e-17
1.01159e-17
1.1325e-17
1.31247e-17
1.55152e-17
1.85065e-17
2.21052e-17
2.63074e-17
3.10926e-17
3.64207e-17
4.22312e-17
4.8444e-17
5.49621e-17
6.16756e-17
6.84665e-17
7.52137e-17
8.17986e-17
8.81091e-17
9.40444e-17
9.95171e-17
1.04456e-16
1.08806e-16
1.12531e-16
1.15609e-16
1.18035e-16
1.19815e-16
1.20971e-16
1.21531e-16
3.99594e-17
4.47527e-17
5.18867e-17
6.13614e-17
7.32142e-17
8.74705e-17
1.04111e-16
1.23053e-16
1.44134e-16
1.67111e-16
1.91666e-16
2.17413e-16
2.43915e-16
2.70707e-16
2.97311e-16
3.2326e-16
3.48113e-16
3.71476e-16
3.93007e-16
4.12428e-16
4.29528e-16
4.44162e-16
4.56251e-16
4.65774e-16
4.72764e-16
4.77299e-16
4.79494e-16
1.57371e-16
1.76301e-16
2.04474e-16
2.41885e-16
2.88675e-16
3.44936e-16
4.1058e-16
4.85262e-16
5.68327e-16
6.58805e-16
7.55422e-16
8.5665e-16
9.60765e-16
1.06593e-15
1.17027e-15
1.27195e-15
1.36926e-15
1.46066e-15
1.54483e-15
1.62069e-15
1.68744e-15
1.74452e-15
1.79164e-15
1.82874e-15
1.85596e-15
1.87361e-15
1.88215e-15
6.17618e-16
6.92132e-16
8.02993e-16
9.50146e-16
1.1341e-15
1.35513e-15
1.61281e-15
1.90569e-15
2.23112e-15
2.58517e-15
2.96279e-15
3.35793e-15
3.76381e-15
4.17325e-15
4.57896e-15
4.97384e-15
5.35128e-15
5.70539e-15
6.03111e-15
6.32439e-15
6.58218e-15
6.80246e-15
6.98415e-15
7.1271e-15
7.23189e-15
7.2998e-15
7.33265e-15
2.40922e-15
2.70052e-15
3.13371e-15
3.70834e-15
4.42607e-15
5.28764e-15
6.29093e-15
7.4298e-15
8.6934e-15
1.00661e-14
1.15278e-14
1.30548e-14
1.46206e-14
1.61974e-14
1.77571e-14
1.92726e-14
2.07188e-14
2.20732e-14
2.33172e-14
2.44356e-14
2.54172e-14
2.62549e-14
2.69449e-14
2.74872e-14
2.78843e-14
2.81415e-14
2.82657e-14
9.32564e-15
1.04547e-14
1.21324e-14
1.43556e-14
1.7129e-14
2.0453e-14
2.43172e-14
2.86949e-14
3.3542e-14
3.87956e-14
4.43769e-14
5.01932e-14
5.61429e-14
6.21195e-14
6.8017e-14
7.37335e-14
7.91757e-14
8.42617e-14
8.89227e-14
9.31047e-14
9.67685e-14
9.98894e-14
1.02456e-13
1.04471e-13
1.05944e-13
1.06896e-13
1.07356e-13
3.57324e-14
4.00554e-14
4.64718e-14
5.49614e-14
6.55318e-14
7.81732e-14
9.28317e-14
1.09393e-13
1.27675e-13
1.47429e-13
1.68347e-13
1.90074e-13
2.12226e-13
2.34404e-13
2.56217e-13
2.77295e-13
2.973e-13
3.15941e-13
3.32978e-13
3.48224e-13
3.61549e-13
3.72874e-13
3.82169e-13
3.89449e-13
3.94765e-13
3.98197e-13
3.99851e-13
1.35194e-13
1.51483e-13
1.75619e-13
2.07482e-13
2.47046e-13
2.94213e-13
3.48713e-13
4.10053e-13
4.77491e-13
5.5005e-13
6.26553e-13
7.05668e-13
7.85979e-13
8.66045e-13
9.44467e-13
1.01994e-12
1.0913e-12
1.15756e-12
1.2179e-12
1.27173e-12
1.31865e-12
1.35841e-12
1.39097e-12
1.41641e-12
1.43495e-12
1.4469e-12
1.45265e-12
5.03628e-13
5.63723e-13
6.52555e-13
7.69465e-13
9.1409e-13
1.08577e-12
1.2832e-12
1.50429e-12
1.74607e-12
2.00481e-12
2.27611e-12
2.55513e-12
2.83686e-12
3.11625e-12
3.38854e-12
3.64932e-12
3.89478e-12
4.1217e-12
4.32757e-12
4.51054e-12
4.66944e-12
4.80372e-12
4.91336e-12
4.99882e-12
5.06094e-12
5.10091e-12
5.12011e-12
1.84202e-12
2.05794e-12
2.37609e-12
2.79306e-12
3.30632e-12
3.91218e-12
4.60474e-12
5.37531e-12
6.21247e-12
7.10236e-12
8.02927e-12
8.97639e-12
9.92662e-12
1.08633e-11
1.17709e-11
1.26354e-11
1.34449e-11
1.41898e-11
1.48626e-11
1.54582e-11
1.59736e-11
1.64077e-11
1.6761e-11
1.70357e-11
1.72349e-11
1.73628e-11
1.74241e-11
6.59355e-12
7.34439e-12
8.44624e-12
9.88276e-12
1.16401e-11
1.37003e-11
1.6038e-11
1.86193e-11
2.1402e-11
2.43374e-11
2.73718e-11
3.04499e-11
3.35166e-11
3.65196e-11
3.94112e-11
4.21498e-11
4.47005e-11
4.70359e-11
4.91358e-11
5.09871e-11
5.2583e-11
5.39226e-11
5.50098e-11
5.58528e-11
5.64627e-11
5.68534e-11
5.70403e-11
2.30196e-11
2.55314e-11
2.91997e-11
3.39521e-11
3.97236e-11
4.64362e-11
5.39895e-11
6.22592e-11
7.10989e-11
8.03462e-11
8.98296e-11
9.93761e-11
1.08819e-10
1.18004e-10
1.26793e-10
1.35068e-10
1.42736e-10
1.49722e-10
1.55977e-10
1.61468e-10
1.66186e-10
1.70133e-10
1.73328e-10
1.75798e-10
1.77582e-10
1.78722e-10
1.79267e-10
7.80642e-11
8.61028e-11
9.77781e-11
1.128e-10
1.30899e-10
1.5177e-10
1.7505e-10
2.00314e-10
2.27089e-10
2.54866e-10
2.83128e-10
3.11369e-10
3.39111e-10
3.65923e-10
3.91429e-10
4.15317e-10
4.37342e-10
4.57321e-10
4.75136e-10
4.90723e-10
5.04069e-10
5.15204e-10
5.24193e-10
5.31128e-10
5.36125e-10
5.39314e-10
5.40836e-10
2.55962e-10
2.80469e-10
3.15866e-10
3.61091e-10
4.15151e-10
4.76974e-10
5.45351e-10
6.1894e-10
6.96304e-10
7.75956e-10
8.56424e-10
9.363e-10
1.01429e-09
1.08924e-09
1.16019e-09
1.22633e-09
1.28706e-09
1.34194e-09
1.39072e-09
1.43326e-09
1.4696e-09
1.49984e-09
1.5242e-09
1.54296e-09
1.55645e-09
1.56505e-09
1.56915e-09
8.07213e-10
8.78241e-10
9.80308e-10
1.10989e-09
1.26369e-09
1.43829e-09
1.63e-09
1.83488e-09
2.04882e-09
2.26774e-09
2.48763e-09
2.70478e-09
2.9158e-09
3.11776e-09
3.30819e-09
3.48513e-09
3.64711e-09
3.79311e-09
3.92256e-09
4.03525e-09
4.13131e-09
4.21114e-09
4.27536e-09
4.32475e-09
4.36024e-09
4.38284e-09
4.3936e-09
2.43467e-09
2.63035e-09
2.91038e-09
3.26408e-09
3.6816e-09
4.15295e-09
4.66768e-09
5.21498e-09
5.7839e-09
6.36363e-09
6.94387e-09
7.51506e-09
8.06866e-09
8.5973e-09
9.09484e-09
9.55642e-09
9.97843e-09
1.03584e-08
1.06951e-08
1.09879e-08
1.12374e-08
1.14447e-08
1.16113e-08
1.17395e-08
1.18315e-08
1.18901e-08
1.1918e-08
6.97867e-09
7.49118e-09
8.22246e-09
9.14302e-09
1.02259e-08
1.14443e-08
1.27709e-08
1.41778e-08
1.56373e-08
1.71221e-08
1.86065e-08
2.00667e-08
2.14812e-08
2.28318e-08
2.41029e-08
2.52824e-08
2.6361e-08
2.73327e-08
2.81938e-08
2.89432e-08
2.9582e-08
3.01129e-08
3.054e-08
3.08686e-08
3.11047e-08
3.12551e-08
3.13267e-08
1.88654e-08
2.01386e-08
2.19527e-08
2.42327e-08
2.69109e-08
2.9921e-08
3.31961e-08
3.66687e-08
4.02717e-08
4.39393e-08
4.7609e-08
5.12228e-08
5.47286e-08
5.80808e-08
6.12411e-08
6.41785e-08
6.68696e-08
6.9298e-08
7.14541e-08
7.33338e-08
7.49387e-08
7.62745e-08
7.73509e-08
7.81801e-08
7.87769e-08
7.91574e-08
7.93388e-08
4.7666e-08
5.0641e-08
5.48774e-08
6.01998e-08
6.64509e-08
7.34781e-08
8.1129e-08
8.92501e-08
9.76886e-08
1.06295e-07
1.14926e-07
1.23447e-07
1.31737e-07
1.39687e-07
1.47205e-07
1.54217e-07
1.60662e-07
1.66497e-07
1.71695e-07
1.76243e-07
1.80138e-07
1.83391e-07
1.86021e-07
1.88053e-07
1.8952e-07
1.90457e-07
1.90906e-07
1.11321e-07
1.17738e-07
1.26871e-07
1.3834e-07
1.51807e-07
1.66948e-07
1.83441e-07
2.00964e-07
2.19197e-07
2.37826e-07
2.5655e-07
2.75082e-07
2.93163e-07
3.10559e-07
3.27066e-07
3.42515e-07
3.5677e-07
3.69727e-07
3.81316e-07
3.91495e-07
4.0025e-07
4.0759e-07
4.13547e-07
4.18168e-07
4.21516e-07
4.23664e-07
4.24695e-07
2.3751e-07
2.49985e-07
2.67716e-07
2.89943e-07
3.15996e-07
3.45236e-07
3.77038e-07
4.10784e-07
4.45864e-07
4.81684e-07
5.17674e-07
5.53298e-07
5.88066e-07
6.21536e-07
6.53324e-07
6.83106e-07
7.10618e-07
7.35661e-07
7.5809e-07
7.7782e-07
7.94815e-07
8.09085e-07
8.20681e-07
8.29689e-07
8.36224e-07
8.40422e-07
8.42438e-07
4.59639e-07
4.81149e-07
5.1163e-07
5.49702e-07
5.94142e-07
6.438e-07
6.97566e-07
7.5436e-07
8.13139e-07
8.72899e-07
9.32695e-07
9.91652e-07
1.04897e-06
1.10396e-06
1.15601e-06
1.20461e-06
1.24937e-06
1.28999e-06
1.32626e-06
1.35808e-06
1.38542e-06
1.40832e-06
1.42688e-06
1.44126e-06
1.45167e-06
1.45834e-06
1.46154e-06
8.08014e-07
8.40902e-07
8.87321e-07
9.45004e-07
1.01194e-06
1.08624e-06
1.16615e-06
1.24995e-06
1.33606e-06
1.42298e-06
1.50932e-06
1.59384e-06
1.67544e-06
1.75318e-06
1.82626e-06
1.89406e-06
1.9561e-06
2.01206e-06
2.06173e-06
2.10506e-06
2.14209e-06
2.17293e-06
2.19782e-06
2.21701e-06
2.23085e-06
2.23968e-06
2.2439e-06
1.30249e-06
1.34771e-06
1.41124e-06
1.48975e-06
1.58023e-06
1.67993e-06
1.78629e-06
1.89693e-06
2.00965e-06
2.12244e-06
2.23353e-06
2.34135e-06
2.44457e-06
2.54209e-06
2.63305e-06
2.71677e-06
2.79281e-06
2.86091e-06
2.92096e-06
2.97299e-06
3.01719e-06
3.0538e-06
3.08319e-06
3.10575e-06
3.12194e-06
3.13223e-06
3.13713e-06
1.9511e-06
2.00807e-06
2.08778e-06
2.18571e-06
2.29784e-06
2.42048e-06
2.55029e-06
2.68421e-06
2.8195e-06
2.95374e-06
3.08484e-06
3.21104e-06
3.33087e-06
3.44321e-06
3.54719e-06
3.64222e-06
3.72794e-06
3.80422e-06
3.87107e-06
3.92869e-06
3.97737e-06
4.01752e-06
4.04959e-06
4.07413e-06
4.09167e-06
4.10279e-06
4.10806e-06
2.75225e-06
2.81924e-06
2.91259e-06
3.02669e-06
3.15655e-06
3.29767e-06
3.44597e-06
3.59787e-06
3.75019e-06
3.90023e-06
4.0457e-06
4.18475e-06
4.31591e-06
4.43806e-06
4.55045e-06
4.65258e-06
4.74422e-06
4.82536e-06
4.89616e-06
4.95693e-06
5.00809e-06
5.05013e-06
5.08363e-06
5.10918e-06
5.1274e-06
5.13894e-06
5.1444e-06
3.69672e-06
3.77132e-06
3.87494e-06
4.00105e-06
4.14388e-06
4.29824e-06
4.45955e-06
4.6238e-06
4.78756e-06
4.94793e-06
5.10256e-06
5.24958e-06
5.38756e-06
5.51547e-06
5.63264e-06
5.73869e-06
5.8335e-06
5.91717e-06
5.98996e-06
6.05228e-06
6.10462e-06
6.14755e-06
6.18169e-06
6.2077e-06
6.22623e-06
6.23795e-06
6.24349e-06
4.769e-06
4.84867e-06
4.95907e-06
5.09299e-06
5.2441e-06
5.40675e-06
5.576e-06
5.7476e-06
5.91796e-06
6.08413e-06
6.24373e-06
6.39491e-06
6.53632e-06
6.66701e-06
6.78638e-06
6.89416e-06
6.9903e-06
7.07499e-06
7.14854e-06
7.21141e-06
7.26416e-06
7.30738e-06
7.34173e-06
7.36788e-06
7.38651e-06
7.39828e-06
7.40385e-06
5.94932e-06
6.03182e-06
6.14592e-06
6.28403e-06
6.43946e-06
6.60629e-06
6.7794e-06
6.95441e-06
7.12768e-06
7.29624e-06
7.45774e-06
7.61038e-06
7.75287e-06
7.88432e-06
8.0042e-06
8.11229e-06
8.20861e-06
8.29336e-06
8.36692e-06
8.42977e-06
8.48247e-06
8.52564e-06
8.55995e-06
8.58607e-06
8.60467e-06
8.61643e-06
8.62199e-06
7.21649e-06
7.30006e-06
7.41551e-06
7.55506e-06
7.71184e-06
7.87984e-06
8.05386e-06
8.2295e-06
8.40311e-06
8.57175e-06
8.73312e-06
8.88547e-06
9.02754e-06
9.15849e-06
9.27784e-06
9.3854e-06
9.4812e-06
9.56548e-06
9.63863e-06
9.70112e-06
9.75352e-06
9.79646e-06
9.83059e-06
9.85658e-06
9.8751e-06
9.88681e-06
9.89235e-06
8.55044e-06
8.63387e-06
8.74906e-06
8.88819e-06
9.04436e-06
9.21156e-06
9.3846e-06
9.55911e-06
9.73148e-06
9.89881e-06
1.00588e-05
1.02099e-05
1.03507e-05
1.04804e-05
1.05987e-05
1.07052e-05
1.08002e-05
1.08837e-05
1.09562e-05
1.10182e-05
1.10702e-05
1.11128e-05
1.11467e-05
1.11725e-05
1.11909e-05
1.12026e-05
1.12081e-05
9.93384e-06
1.00164e-05
1.01304e-05
1.0268e-05
1.04224e-05
1.05877e-05
1.07587e-05
1.09311e-05
1.11014e-05
1.12667e-05
1.14248e-05
1.1574e-05
1.17131e-05
1.18414e-05
1.19583e-05
1.20637e-05
1.21576e-05
1.22403e-05
1.23121e-05
1.23735e-05
1.2425e-05
1.24673e-05
1.25009e-05
1.25265e-05
1.25448e-05
1.25564e-05
1.25619e-05
1.13527e-05
1.14341e-05
1.15464e-05
1.16819e-05
1.18341e-05
1.19969e-05
1.21654e-05
1.23354e-05
1.25032e-05
1.26662e-05
1.28222e-05
1.29694e-05
1.31068e-05
1.32334e-05
1.33489e-05
1.34531e-05
1.3546e-05
1.36278e-05
1.36989e-05
1.37598e-05
1.38108e-05
1.38528e-05
1.38861e-05
1.39116e-05
1.39297e-05
1.39412e-05
1.39467e-05
1.27963e-05
1.28763e-05
1.29868e-05
1.31201e-05
1.32699e-05
1.34302e-05
1.35961e-05
1.37635e-05
1.3929e-05
1.40897e-05
1.42435e-05
1.43888e-05
1.45244e-05
1.46496e-05
1.47637e-05
1.48668e-05
1.49587e-05
1.50397e-05
1.51102e-05
1.51705e-05
1.52211e-05
1.52627e-05
1.52958e-05
1.53211e-05
1.53391e-05
1.53506e-05
1.5356e-05
1.42565e-05
1.43352e-05
1.44439e-05
1.45752e-05
1.47226e-05
1.48804e-05
1.50439e-05
1.52089e-05
1.53721e-05
1.55307e-05
1.56825e-05
1.58261e-05
1.59601e-05
1.60838e-05
1.61968e-05
1.62988e-05
1.63899e-05
1.64701e-05
1.654e-05
1.65998e-05
1.665e-05
1.66913e-05
1.67242e-05
1.67493e-05
1.67672e-05
1.67786e-05
1.6784e-05
1.57274e-05
1.58049e-05
1.5912e-05
1.60413e-05
1.61866e-05
1.63422e-05
1.65035e-05
1.66664e-05
1.68275e-05
1.69841e-05
1.71342e-05
1.72762e-05
1.74088e-05
1.75313e-05
1.76431e-05
1.77442e-05
1.78345e-05
1.79141e-05
1.79834e-05
1.80427e-05
1.80926e-05
1.81336e-05
1.81663e-05
1.81913e-05
1.82091e-05
1.82204e-05
1.82258e-05
1.72047e-05
1.72811e-05
1.73867e-05
1.75143e-05
1.76577e-05
1.78114e-05
1.79707e-05
1.81317e-05
1.82909e-05
1.84459e-05
1.85944e-05
1.8735e-05
1.88663e-05
1.89877e-05
1.90986e-05
1.91988e-05
1.92884e-05
1.93674e-05
1.94362e-05
1.94951e-05
1.95447e-05
1.95855e-05
1.9618e-05
1.96428e-05
1.96605e-05
1.96718e-05
1.96771e-05
1.86851e-05
1.87606e-05
1.88649e-05
1.8991e-05
1.91327e-05
1.92847e-05
1.94423e-05
1.96015e-05
1.97592e-05
1.99127e-05
2.00599e-05
2.01991e-05
2.03294e-05
2.04498e-05
2.05598e-05
2.06593e-05
2.07482e-05
2.08267e-05
2.0895e-05
2.09536e-05
2.10029e-05
2.10434e-05
2.10757e-05
2.11004e-05
2.1118e-05
2.11292e-05
2.11345e-05
2.01661e-05
2.02408e-05
2.0344e-05
2.04688e-05
2.06091e-05
2.07596e-05
2.09156e-05
2.10734e-05
2.12297e-05
2.13818e-05
2.15278e-05
2.16659e-05
2.17952e-05
2.19146e-05
2.20239e-05
2.21227e-05
2.2211e-05
2.2289e-05
2.23569e-05
2.24151e-05
2.24641e-05
2.25044e-05
2.25366e-05
2.25611e-05
2.25787e-05
2.25898e-05
2.25951e-05
2.1646e-05
2.172e-05
2.18222e-05
2.19458e-05
2.20848e-05
2.2234e-05
2.23887e-05
2.25452e-05
2.27002e-05
2.28511e-05
2.2996e-05
2.31331e-05
2.32614e-05
2.33801e-05
2.34886e-05
2.35868e-05
2.36746e-05
2.37521e-05
2.38196e-05
2.38775e-05
2.39262e-05
2.39663e-05
2.39983e-05
2.40227e-05
2.40402e-05
2.40513e-05
2.40565e-05
2.31232e-05
2.31966e-05
2.32979e-05
2.34205e-05
2.35584e-05
2.37063e-05
2.38599e-05
2.40151e-05
2.4169e-05
2.43188e-05
2.44627e-05
2.45989e-05
2.47263e-05
2.48442e-05
2.49521e-05
2.50496e-05
2.51369e-05
2.52139e-05
2.5281e-05
2.53386e-05
2.53871e-05
2.54269e-05
2.54587e-05
2.5483e-05
2.55004e-05
2.55115e-05
2.55167e-05
2.45967e-05
2.46694e-05
2.47699e-05
2.48916e-05
2.50284e-05
2.51753e-05
2.53277e-05
2.54819e-05
2.56346e-05
2.57835e-05
2.59263e-05
2.60616e-05
2.61883e-05
2.63054e-05
2.64126e-05
2.65096e-05
2.65963e-05
2.66729e-05
2.67396e-05
2.67969e-05
2.68451e-05
2.68847e-05
2.69164e-05
2.69405e-05
2.69578e-05
2.69688e-05
2.6974e-05
2.60652e-05
2.61374e-05
2.62372e-05
2.6358e-05
2.64939e-05
2.66397e-05
2.6791e-05
2.69441e-05
2.70959e-05
2.72437e-05
2.73856e-05
2.75201e-05
2.76459e-05
2.77624e-05
2.78689e-05
2.79653e-05
2.80515e-05
2.81276e-05
2.8194e-05
2.82509e-05
2.82988e-05
2.83382e-05
2.83697e-05
2.83937e-05
2.84109e-05
2.84218e-05
2.8427e-05
2.75281e-05
2.75997e-05
2.76988e-05
2.78188e-05
2.79537e-05
2.80985e-05
2.82488e-05
2.84009e-05
2.85516e-05
2.86985e-05
2.88395e-05
2.89731e-05
2.90981e-05
2.92138e-05
2.93197e-05
2.94155e-05
2.95011e-05
2.95768e-05
2.96428e-05
2.96993e-05
2.9747e-05
2.97862e-05
2.98174e-05
2.98413e-05
2.98584e-05
2.98693e-05
2.98744e-05
2.89843e-05
2.90555e-05
2.91539e-05
2.9273e-05
2.9407e-05
2.95508e-05
2.97001e-05
2.98511e-05
3.00008e-05
3.01467e-05
3.02868e-05
3.04195e-05
3.05437e-05
3.06587e-05
3.07638e-05
3.0859e-05
3.09441e-05
3.10193e-05
3.10849e-05
3.11411e-05
3.11884e-05
3.12274e-05
3.12585e-05
3.12822e-05
3.12992e-05
3.131e-05
3.13151e-05
3.04332e-05
3.05038e-05
3.06016e-05
3.07198e-05
3.08528e-05
3.09956e-05
3.11439e-05
3.12939e-05
3.14426e-05
3.15874e-05
3.17265e-05
3.18583e-05
3.19817e-05
3.20959e-05
3.22003e-05
3.22949e-05
3.23794e-05
3.24541e-05
3.25192e-05
3.2575e-05
3.26221e-05
3.26607e-05
3.26916e-05
3.27152e-05
3.27321e-05
3.27428e-05
3.27479e-05
3.18738e-05
3.19439e-05
3.20409e-05
3.21583e-05
3.22904e-05
3.24321e-05
3.25793e-05
3.27282e-05
3.28758e-05
3.30196e-05
3.31577e-05
3.32885e-05
3.3411e-05
3.35243e-05
3.3628e-05
3.37219e-05
3.38058e-05
3.388e-05
3.39446e-05
3.4e-05
3.40467e-05
3.40851e-05
3.41157e-05
3.41392e-05
3.41559e-05
3.41666e-05
3.41716e-05
3.33053e-05
3.33749e-05
3.34711e-05
3.35876e-05
3.37186e-05
3.38593e-05
3.40053e-05
3.4153e-05
3.42995e-05
3.44422e-05
3.45792e-05
3.4709e-05
3.48305e-05
3.49429e-05
3.50458e-05
3.51389e-05
3.52222e-05
3.52957e-05
3.53598e-05
3.54148e-05
3.54611e-05
3.54992e-05
3.55296e-05
3.55529e-05
3.55695e-05
3.55801e-05
3.55851e-05
3.47266e-05
3.47956e-05
3.4891e-05
3.50065e-05
3.51365e-05
3.52759e-05
3.54207e-05
3.55672e-05
3.57124e-05
3.58539e-05
3.59898e-05
3.61185e-05
3.62389e-05
3.63504e-05
3.64524e-05
3.65447e-05
3.66272e-05
3.67001e-05
3.67637e-05
3.68182e-05
3.68641e-05
3.69018e-05
3.6932e-05
3.6955e-05
3.69715e-05
3.69819e-05
3.69869e-05
3.61366e-05
3.6205e-05
3.62996e-05
3.6414e-05
3.65428e-05
3.6681e-05
3.68244e-05
3.69696e-05
3.71134e-05
3.72536e-05
3.73881e-05
3.75156e-05
3.76349e-05
3.77453e-05
3.78463e-05
3.79377e-05
3.80195e-05
3.80917e-05
3.81546e-05
3.82086e-05
3.8254e-05
3.82914e-05
3.83213e-05
3.83441e-05
3.83604e-05
3.83707e-05
3.83757e-05
3.75341e-05
3.76019e-05
3.76955e-05
3.78087e-05
3.79362e-05
3.8073e-05
3.82149e-05
3.83586e-05
3.85009e-05
3.86396e-05
3.87727e-05
3.88989e-05
3.90169e-05
3.91261e-05
3.9226e-05
3.93165e-05
3.93973e-05
3.94687e-05
3.9531e-05
3.95844e-05
3.96293e-05
3.96663e-05
3.96958e-05
3.97183e-05
3.97345e-05
3.97447e-05
3.97496e-05
3.89176e-05
3.89845e-05
3.90771e-05
3.91891e-05
3.9315e-05
3.94503e-05
3.95906e-05
3.97325e-05
3.98732e-05
4.00103e-05
4.01418e-05
4.02664e-05
4.03831e-05
4.0491e-05
4.05897e-05
4.0679e-05
4.07588e-05
4.08293e-05
4.08908e-05
4.09435e-05
4.09879e-05
4.10244e-05
4.10535e-05
4.10758e-05
4.10917e-05
4.11018e-05
4.11067e-05
4.02851e-05
4.03512e-05
4.04426e-05
4.05532e-05
4.06775e-05
4.0811e-05
4.09494e-05
4.10895e-05
4.12283e-05
4.13635e-05
4.14933e-05
4.16162e-05
4.17312e-05
4.18376e-05
4.1935e-05
4.2023e-05
4.21017e-05
4.21713e-05
4.22319e-05
4.22838e-05
4.23276e-05
4.23635e-05
4.23923e-05
4.24142e-05
4.24299e-05
4.24399e-05
4.24446e-05
4.16348e-05
4.16999e-05
4.17899e-05
4.18989e-05
4.20214e-05
4.21528e-05
4.22893e-05
4.24272e-05
4.25639e-05
4.2697e-05
4.28248e-05
4.29458e-05
4.3059e-05
4.31637e-05
4.32594e-05
4.33461e-05
4.34235e-05
4.34919e-05
4.35515e-05
4.36026e-05
4.36456e-05
4.3681e-05
4.37092e-05
4.37308e-05
4.37462e-05
4.3756e-05
4.37607e-05
4.2964e-05
4.30281e-05
4.31166e-05
4.32237e-05
4.33441e-05
4.34733e-05
4.36074e-05
4.37429e-05
4.38772e-05
4.4008e-05
4.41334e-05
4.42522e-05
4.43633e-05
4.44661e-05
4.45601e-05
4.46451e-05
4.47211e-05
4.47882e-05
4.48466e-05
4.48968e-05
4.4939e-05
4.49737e-05
4.50013e-05
4.50225e-05
4.50376e-05
4.50472e-05
4.50518e-05
4.42701e-05
4.43329e-05
4.44197e-05
4.45247e-05
4.46427e-05
4.47694e-05
4.49007e-05
4.50335e-05
4.51651e-05
4.52931e-05
4.54159e-05
4.55322e-05
4.5641e-05
4.57416e-05
4.58335e-05
4.59167e-05
4.5991e-05
4.60566e-05
4.61138e-05
4.61628e-05
4.6204e-05
4.62379e-05
4.6265e-05
4.62857e-05
4.63005e-05
4.63099e-05
4.63143e-05
4.55496e-05
4.5611e-05
4.56959e-05
4.57985e-05
4.59138e-05
4.60375e-05
4.61658e-05
4.62954e-05
4.64238e-05
4.65488e-05
4.66686e-05
4.6782e-05
4.68881e-05
4.69861e-05
4.70758e-05
4.71568e-05
4.72292e-05
4.72932e-05
4.73488e-05
4.73966e-05
4.74367e-05
4.74698e-05
4.74961e-05
4.75162e-05
4.75306e-05
4.75398e-05
4.75441e-05
4.67989e-05
4.68587e-05
4.69413e-05
4.70411e-05
4.71534e-05
4.72737e-05
4.73984e-05
4.75245e-05
4.76493e-05
4.77707e-05
4.78871e-05
4.79973e-05
4.81003e-05
4.81954e-05
4.82824e-05
4.8361e-05
4.84313e-05
4.84932e-05
4.85472e-05
4.85935e-05
4.86324e-05
4.86644e-05
4.86899e-05
4.87094e-05
4.87234e-05
4.87322e-05
4.87364e-05
4.80135e-05
4.80715e-05
4.81515e-05
4.82482e-05
4.83569e-05
4.84734e-05
4.85941e-05
4.87161e-05
4.88368e-05
4.89541e-05
4.90666e-05
4.91731e-05
4.92725e-05
4.93644e-05
4.94483e-05
4.95242e-05
4.95919e-05
4.96517e-05
4.97037e-05
4.97483e-05
4.97859e-05
4.98167e-05
4.98413e-05
4.98601e-05
4.98735e-05
4.9882e-05
4.98861e-05
4.91887e-05
4.92445e-05
4.93216e-05
4.94147e-05
4.95194e-05
4.96315e-05
4.97476e-05
4.98649e-05
4.99809e-05
5.00937e-05
5.02018e-05
5.03039e-05
5.03993e-05
5.04875e-05
5.0568e-05
5.06407e-05
5.07056e-05
5.07628e-05
5.08127e-05
5.08554e-05
5.08913e-05
5.09208e-05
5.09443e-05
5.09623e-05
5.09751e-05
5.09833e-05
5.09871e-05
5.03188e-05
5.03723e-05
5.0446e-05
5.05351e-05
5.06352e-05
5.07423e-05
5.08533e-05
5.09653e-05
5.10759e-05
5.11835e-05
5.12865e-05
5.13838e-05
5.14747e-05
5.15586e-05
5.16352e-05
5.17043e-05
5.1766e-05
5.18204e-05
5.18678e-05
5.19083e-05
5.19424e-05
5.19704e-05
5.19927e-05
5.20098e-05
5.2022e-05
5.20297e-05
5.20334e-05
5.13981e-05
5.14488e-05
5.15189e-05
5.16034e-05
5.16982e-05
5.17998e-05
5.19049e-05
5.20108e-05
5.21155e-05
5.22172e-05
5.23145e-05
5.24064e-05
5.24921e-05
5.25712e-05
5.26434e-05
5.27085e-05
5.27666e-05
5.28178e-05
5.28624e-05
5.29005e-05
5.29325e-05
5.29589e-05
5.29798e-05
5.29958e-05
5.30073e-05
5.30145e-05
5.3018e-05
5.24201e-05
5.24678e-05
5.25336e-05
5.2613e-05
5.2702e-05
5.27973e-05
5.28957e-05
5.2995e-05
5.3093e-05
5.31881e-05
5.3279e-05
5.33648e-05
5.34448e-05
5.35186e-05
5.35858e-05
5.36465e-05
5.37006e-05
5.37482e-05
5.37896e-05
5.3825e-05
5.38548e-05
5.38792e-05
5.38987e-05
5.39135e-05
5.39241e-05
5.39309e-05
5.39341e-05
5.33781e-05
5.34224e-05
5.34835e-05
5.35572e-05
5.36397e-05
5.3728e-05
5.38192e-05
5.3911e-05
5.40015e-05
5.40893e-05
5.41731e-05
5.42522e-05
5.43259e-05
5.43937e-05
5.44555e-05
5.45112e-05
5.45608e-05
5.46045e-05
5.46425e-05
5.46749e-05
5.47022e-05
5.47245e-05
5.47423e-05
5.47559e-05
5.47656e-05
5.47718e-05
5.47747e-05
5.42653e-05
5.43059e-05
5.43618e-05
5.44291e-05
5.45046e-05
5.45851e-05
5.46683e-05
5.47519e-05
5.48342e-05
5.4914e-05
5.49901e-05
5.50618e-05
5.51285e-05
5.51899e-05
5.52457e-05
5.5296e-05
5.53408e-05
5.53802e-05
5.54143e-05
5.54435e-05
5.5468e-05
5.54881e-05
5.55041e-05
5.55163e-05
5.5525e-05
5.55306e-05
5.55332e-05
5.5075e-05
5.51115e-05
5.51617e-05
5.52222e-05
5.52899e-05
5.53621e-05
5.54365e-05
5.55113e-05
5.55848e-05
5.56559e-05
5.57236e-05
5.57873e-05
5.58465e-05
5.59009e-05
5.59504e-05
5.59948e-05
5.60344e-05
5.60691e-05
5.60992e-05
5.61249e-05
5.61465e-05
5.61642e-05
5.61782e-05
5.61889e-05
5.61966e-05
5.62014e-05
5.62037e-05
5.5801e-05
5.58331e-05
5.58773e-05
5.59305e-05
5.59899e-05
5.60531e-05
5.61182e-05
5.61834e-05
5.62475e-05
5.63094e-05
5.63682e-05
5.64234e-05
5.64747e-05
5.65216e-05
5.65643e-05
5.66026e-05
5.66366e-05
5.66664e-05
5.66922e-05
5.67142e-05
5.67327e-05
5.67478e-05
5.67598e-05
5.67689e-05
5.67754e-05
5.67796e-05
5.67815e-05
5.64379e-05
5.64654e-05
5.65032e-05
5.65486e-05
5.65993e-05
5.66531e-05
5.67084e-05
5.67637e-05
5.68179e-05
5.68701e-05
5.69196e-05
5.69659e-05
5.70088e-05
5.70481e-05
5.70837e-05
5.71155e-05
5.71438e-05
5.71685e-05
5.71899e-05
5.72081e-05
5.72233e-05
5.72357e-05
5.72456e-05
5.72531e-05
5.72585e-05
5.72619e-05
5.72635e-05
5.69817e-05
5.70044e-05
5.70357e-05
5.70731e-05
5.71147e-05
5.71589e-05
5.72041e-05
5.72491e-05
5.72932e-05
5.73354e-05
5.73754e-05
5.74127e-05
5.74471e-05
5.74785e-05
5.75069e-05
5.75322e-05
5.75546e-05
5.75742e-05
5.7591e-05
5.76054e-05
5.76173e-05
5.76271e-05
5.76348e-05
5.76407e-05
5.76449e-05
5.76475e-05
5.76488e-05
5.74302e-05
5.74481e-05
5.74727e-05
5.7502e-05
5.75346e-05
5.7569e-05
5.7604e-05
5.76389e-05
5.76727e-05
5.77051e-05
5.77356e-05
5.77639e-05
5.77898e-05
5.78135e-05
5.78347e-05
5.78535e-05
5.78702e-05
5.78846e-05
5.7897e-05
5.79076e-05
5.79163e-05
5.79234e-05
5.79291e-05
5.79333e-05
5.79364e-05
5.79383e-05
5.79392e-05
5.77835e-05
5.77967e-05
5.78147e-05
5.78361e-05
5.78598e-05
5.78846e-05
5.79098e-05
5.79346e-05
5.79586e-05
5.79813e-05
5.80026e-05
5.80221e-05
5.804e-05
5.80561e-05
5.80704e-05
5.80831e-05
5.80942e-05
5.81037e-05
5.81119e-05
5.81188e-05
5.81245e-05
5.81291e-05
5.81327e-05
5.81354e-05
5.81374e-05
5.81386e-05
5.81392e-05
5.80442e-05
5.80529e-05
5.80646e-05
5.80785e-05
5.80937e-05
5.81095e-05
5.81253e-05
5.81407e-05
5.81553e-05
5.8169e-05
5.81816e-05
5.81931e-05
5.82033e-05
5.82124e-05
5.82204e-05
5.82273e-05
5.82333e-05
5.82383e-05
5.82426e-05
5.82461e-05
5.8249e-05
5.82512e-05
5.8253e-05
5.82544e-05
5.82553e-05
5.82559e-05
5.82561e-05
5.82177e-05
5.82222e-05
5.82282e-05
5.82352e-05
5.82426e-05
5.82501e-05
5.82574e-05
5.82642e-05
5.82704e-05
5.82759e-05
5.82808e-05
5.82849e-05
5.82883e-05
5.82912e-05
5.82935e-05
5.82953e-05
5.82967e-05
5.82977e-05
5.82985e-05
5.82991e-05
5.82995e-05
5.82998e-05
5.82999e-05
5.83e-05
5.83001e-05
5.83001e-05
5.83001e-05
5.8312e-05
5.83128e-05
5.83137e-05
5.83146e-05
5.83152e-05
5.83155e-05
5.83153e-05
5.83147e-05
5.83136e-05
5.83121e-05
5.83103e-05
5.83082e-05
5.83058e-05
5.83033e-05
5.83008e-05
5.82983e-05
5.82959e-05
5.82936e-05
5.82915e-05
5.82896e-05
5.8288e-05
5.82865e-05
5.82854e-05
5.82844e-05
5.82838e-05
5.82833e-05
5.82831e-05
5.83374e-05
5.83351e-05
5.83318e-05
5.83275e-05
5.83225e-05
5.83168e-05
5.83106e-05
5.83038e-05
5.82968e-05
5.82896e-05
5.82823e-05
5.82752e-05
5.82682e-05
5.82615e-05
5.82551e-05
5.82492e-05
5.82438e-05
5.82389e-05
5.82345e-05
5.82307e-05
5.82274e-05
5.82247e-05
5.82225e-05
5.82208e-05
5.82195e-05
5.82188e-05
5.82184e-05
5.83058e-05
5.83011e-05
5.82945e-05
5.82863e-05
5.82769e-05
5.82666e-05
5.82557e-05
5.82443e-05
5.82328e-05
5.82213e-05
5.821e-05
5.81991e-05
5.81886e-05
5.81788e-05
5.81697e-05
5.81613e-05
5.81537e-05
5.81469e-05
5.81409e-05
5.81358e-05
5.81313e-05
5.81277e-05
5.81247e-05
5.81225e-05
5.81209e-05
5.81198e-05
5.81193e-05
5.82303e-05
5.82239e-05
5.82149e-05
5.82039e-05
5.81915e-05
5.8178e-05
5.81638e-05
5.81492e-05
5.81346e-05
5.81202e-05
5.81062e-05
5.80928e-05
5.80802e-05
5.80683e-05
5.80574e-05
5.80475e-05
5.80385e-05
5.80305e-05
5.80235e-05
5.80175e-05
5.80124e-05
5.80082e-05
5.80048e-05
5.80022e-05
5.80004e-05
5.79992e-05
5.79986e-05
5.81237e-05
5.81162e-05
5.81058e-05
5.80932e-05
5.80789e-05
5.80634e-05
5.80473e-05
5.80309e-05
5.80146e-05
5.79986e-05
5.79831e-05
5.79684e-05
5.79546e-05
5.79417e-05
5.79299e-05
5.79192e-05
5.79096e-05
5.79011e-05
5.78936e-05
5.78872e-05
5.78818e-05
5.78773e-05
5.78738e-05
5.7871e-05
5.78691e-05
5.78678e-05
5.78672e-05
5.79981e-05
5.79901e-05
5.79791e-05
5.79657e-05
5.79506e-05
5.79344e-05
5.79175e-05
5.79005e-05
5.78835e-05
5.7867e-05
5.78511e-05
5.78361e-05
5.7822e-05
5.78089e-05
5.77969e-05
5.77861e-05
5.77764e-05
5.77678e-05
5.77603e-05
5.77539e-05
5.77485e-05
5.7744e-05
5.77405e-05
5.77378e-05
5.77358e-05
5.77346e-05
5.7734e-05
5.78637e-05
5.78557e-05
5.78447e-05
5.78313e-05
5.78163e-05
5.78002e-05
5.77836e-05
5.77668e-05
5.77501e-05
5.77339e-05
5.77184e-05
5.77037e-05
5.769e-05
5.76774e-05
5.76658e-05
5.76553e-05