/*--------------------------------*- C++ -*----------------------------------*\
| =========                 |                                                 |
| \\      /  F ield         | OpenFOAM: The Open Source CFD Toolbox           |
|  \\    /   O peration     | Version:  2106                                  |
|   \\  /    A nd           | Website:  www.openfoam.com                      |
|    \\/     M anipulation  |                                                 |
\*---------------------------------------------------------------------------*/
FoamFile
{
    version     2.0;
    format      ascii;
    arch        "LSB;label=32;scalar=64";
    class       volScalarField;
    location    "110.00057";
    object      C3H6_0;
}
// * * * * * * * * * * * * * * * * * * * * * * * * * * * * * * * * * * * * * //

dimensions      [0 0 0 0 0 0 0];

internalField   nonuniform List<scalar> 
3360
(
9.5658e-25
1.01635e-24
1.1005e-24
1.20507e-24
1.32658e-24
1.46179e-24
1.60758e-24
1.76093e-24
1.91892e-24
2.07875e-24
2.23782e-24
2.39372e-24
2.54431e-24
2.68773e-24
2.82244e-24
2.94717e-24
3.06097e-24
3.1632e-24
3.25349e-24
3.33171e-24
3.39799e-24
3.45266e-24
3.49622e-24
3.52933e-24
3.55279e-24
3.56746e-24
3.57429e-24
4.83125e-24
5.16509e-24
5.64231e-24
6.24712e-24
6.96749e-24
7.79331e-24
8.71541e-24
9.72494e-24
1.08129e-23
1.19701e-23
1.31862e-23
1.44504e-23
1.57506e-23
1.70735e-23
1.84049e-23
1.97296e-23
2.10313e-23
2.2293e-23
2.3497e-23
2.46254e-23
2.56606e-23
2.65853e-23
2.73837e-23
2.80413e-23
2.85461e-23
2.88884e-23
2.90614e-23
1.843e-23
1.99434e-23
2.21336e-23
2.49539e-23
2.83746e-23
3.23724e-23
3.69236e-23
4.20001e-23
4.75654e-23
5.35721e-23
5.99603e-23
6.66584e-23
7.35852e-23
8.06497e-23
8.77531e-23
9.47903e-23
1.01653e-22
1.08234e-22
1.14429e-22
1.2014e-22
1.25281e-22
1.29779e-22
1.33574e-22
1.36627e-22
1.38911e-22
1.40421e-22
1.41164e-22
6.64259e-23
7.26549e-23
8.17829e-23
9.37031e-23
1.08375e-22
1.25773e-22
1.4585e-22
1.68518e-22
1.93626e-22
2.20953e-22
2.50204e-22
2.81011e-22
3.12941e-22
3.45507e-22
3.78178e-22
4.10401e-22
4.41624e-22
4.71318e-22
4.98998e-22
5.24241e-22
5.46698e-22
5.66105e-22
5.82281e-22
5.9513e-22
6.04631e-22
6.10838e-22
6.13861e-22
2.46197e-22
2.71561e-22
3.08968e-22
3.58185e-22
4.19232e-22
4.92147e-22
5.76832e-22
6.72942e-22
7.79803e-22
8.96377e-22
1.02125e-21
1.15268e-21
1.28863e-21
1.42684e-21
1.56495e-21
1.70054e-21
1.83129e-21
1.95503e-21
2.06981e-21
2.174e-21
2.26628e-21
2.3457e-21
2.41164e-21
2.46384e-21
2.50232e-21
2.52739e-21
2.53956e-21
9.36125e-22
1.0384e-21
1.18984e-21
1.38991e-21
1.63902e-21
1.93753e-21
2.28511e-21
2.68031e-21
3.12023e-21
3.60039e-21
4.1147e-21
4.65565e-21
5.21452e-21
5.78178e-21
6.34746e-21
6.9016e-21
7.43465e-21
7.93784e-21
8.40346e-21
8.82506e-21
9.19762e-21
9.51753e-21
9.78261e-21
9.99201e-21
1.01461e-20
1.02463e-20
1.02949e-20
3.6196e-21
4.03003e-21
4.63906e-21
5.4455e-21
6.45173e-21
7.65956e-21
9.06761e-21
1.06695e-20
1.24529e-20
1.43988e-20
1.64816e-20
1.86702e-20
2.09285e-20
2.32178e-20
2.54976e-20
2.77278e-20
2.98703e-20
3.18902e-20
3.37571e-20
3.54457e-20
3.69364e-20
3.82152e-20
3.92741e-20
4.01101e-20
4.07248e-20
4.11244e-20
4.13181e-20
1.41292e-20
1.57644e-20
1.81943e-20
2.14164e-20
2.5442e-20
3.02794e-20
3.5924e-20
4.235e-20
4.95067e-20
5.73161e-20
6.56743e-20
7.4454e-20
8.35097e-20
9.26839e-20
1.01814e-19
1.10739e-19
1.19307e-19
1.27377e-19
1.34831e-19
1.41567e-19
1.47509e-19
1.52602e-19
1.56817e-19
1.60141e-19
1.62584e-19
1.64171e-19
1.6494e-19
5.54991e-20
6.20116e-20
7.16953e-20
8.45449e-20
1.00608e-19
1.19921e-19
1.42462e-19
1.68125e-19
1.96703e-19
2.2788e-19
2.61234e-19
2.96254e-19
3.32354e-19
3.68906e-19
4.05262e-19
4.40781e-19
4.74859e-19
5.06946e-19
5.36565e-19
5.63323e-19
5.86919e-19
6.07141e-19
6.23868e-19
6.37061e-19
6.46756e-19
6.53052e-19
6.56102e-19
2.18408e-19
2.44235e-19
2.82663e-19
3.33683e-19
3.975e-19
4.74261e-19
5.63885e-19
6.65949e-19
7.79621e-19
9.03629e-19
1.03629e-18
1.17554e-18
1.31907e-18
1.46435e-18
1.6088e-18
1.74988e-18
1.88518e-18
2.01253e-18
2.13003e-18
2.23614e-18
2.32967e-18
2.4098e-18
2.47605e-18
2.52828e-18
2.56665e-18
2.59156e-18
2.60362e-18
8.61117e-19
9.63558e-19
1.116e-18
1.31843e-18
1.57168e-18
1.87633e-18
2.23202e-18
2.63705e-18
3.08806e-18
3.57996e-18
4.106e-18
4.658e-18
5.2267e-18
5.80212e-18
6.37403e-18
6.93237e-18
7.46765e-18
7.97128e-18
8.43584e-18
8.85524e-18
9.22482e-18
9.54136e-18
9.80304e-18
1.00093e-17
1.01608e-17
1.02592e-17
1.03068e-17
3.39276e-18
3.79791e-18
4.40092e-18
5.20185e-18
6.20392e-18
7.40943e-18
8.81694e-18
1.04196e-17
1.22039e-17
1.41496e-17
1.62298e-17
1.84122e-17
2.06597e-17
2.29331e-17
2.51917e-17
2.73958e-17
2.9508e-17
3.14945e-17
3.33261e-17
3.4979e-17
3.64349e-17
3.76814e-17
3.87114e-17
3.95231e-17
4.0119e-17
4.05057e-17
4.0693e-17
1.33583e-17
1.49595e-17
1.73423e-17
2.05068e-17
2.44652e-17
2.9226e-17
3.47826e-17
4.11069e-17
4.81448e-17
5.58155e-17
6.40121e-17
7.26059e-17
8.14516e-17
9.03934e-17
9.92719e-17
1.07931e-16
1.16225e-16
1.24021e-16
1.31205e-16
1.37685e-16
1.4339e-16
1.48273e-16
1.52306e-16
1.55483e-16
1.57815e-16
1.59328e-16
1.6006e-16
5.24241e-17
5.87264e-17
6.81052e-17
8.05589e-17
9.6134e-17
1.1486e-16
1.36708e-16
1.61562e-16
1.89205e-16
2.19313e-16
2.51461e-16
2.85142e-16
3.19782e-16
3.54769e-16
3.8948e-16
4.23306e-16
4.55677e-16
4.8608e-16
5.14076e-16
5.39309e-16
5.6151e-16
5.80496e-16
5.96169e-16
6.08508e-16
6.1756e-16
6.2343e-16
6.2627e-16
2.04934e-16
2.29651e-16
2.66424e-16
3.15234e-16
3.76247e-16
4.49555e-16
5.35018e-16
6.3215e-16
7.4007e-16
8.5748e-16
9.82701e-16
1.11373e-15
1.24831e-15
1.38407e-15
1.51859e-15
1.64951e-15
1.77465e-15
1.89205e-15
2.00004e-15
2.09727e-15
2.18273e-15
2.25575e-15
2.31599e-15
2.36337e-15
2.39811e-15
2.42062e-15
2.43151e-15
7.95727e-16
8.91956e-16
1.03506e-15
1.22488e-15
1.46198e-15
1.7466e-15
2.07804e-15
2.45426e-15
2.8717e-15
3.32517e-15
3.80805e-15
4.3125e-15
4.82977e-15
5.35068e-15
5.86594e-15
6.36659e-15
6.84432e-15
7.29178e-15
7.70271e-15
8.07216e-15
8.39643e-15
8.67313e-15
8.90109e-15
9.08021e-15
9.21139e-15
9.29632e-15
9.33736e-15
3.06256e-15
3.43369e-15
3.98519e-15
4.71607e-15
5.62786e-15
6.72079e-15
7.9914e-15
9.43102e-15
1.10251e-14
1.2753e-14
1.45888e-14
1.6502e-14
1.84592e-14
2.04253e-14
2.23655e-14
2.42463e-14
2.60368e-14
2.77102e-14
2.92438e-14
3.06198e-14
3.18253e-14
3.28522e-14
3.36969e-14
3.43596e-14
3.48443e-14
3.51577e-14
3.5309e-14
1.16472e-14
1.30593e-14
1.51553e-14
1.79292e-14
2.13836e-14
2.55156e-14
3.03079e-14
3.57233e-14
4.17027e-14
4.81647e-14
5.50086e-14
6.21185e-14
6.93683e-14
7.6628e-14
8.37691e-14
9.06701e-14
9.72206e-14
1.03325e-13
1.08904e-13
1.13898e-13
1.18262e-13
1.21971e-13
1.25016e-13
1.274e-13
1.29141e-13
1.30266e-13
1.30807e-13
4.36166e-14
4.88918e-14
5.67102e-14
6.70353e-14
7.98607e-14
9.51567e-14
1.12838e-13
1.32747e-13
1.54644e-13
1.78212e-13
2.03071e-13
2.28787e-13
2.54901e-13
2.80943e-13
3.06456e-13
3.31017e-13
3.54244e-13
3.75813e-13
3.95462e-13
4.12992e-13
4.2827e-13
4.41222e-13
4.51827e-13
4.60114e-13
4.66154e-13
4.70046e-13
4.71919e-13
1.60107e-13
1.79332e-13
2.07762e-13
2.45202e-13
2.91548e-13
3.46602e-13
4.09963e-13
4.80967e-13
5.58676e-13
6.4189e-13
7.29204e-13
8.19065e-13
9.09847e-13
9.9993e-13
1.08776e-12
1.17193e-12
1.25118e-12
1.32447e-12
1.39099e-12
1.45012e-12
1.50149e-12
1.5449e-12
1.58035e-12
1.60799e-12
1.62809e-12
1.64101e-12
1.64722e-12
5.731e-13
6.40916e-13
7.40916e-13
8.72103e-13
1.03376e-12
1.22482e-12
1.44347e-12
1.68707e-12
1.95203e-12
2.23403e-12
2.52809e-12
2.8289e-12
3.13102e-12
3.42911e-12
3.7182e-12
3.9938e-12
4.25207e-12
4.48987e-12
4.70478e-12
4.89513e-12
5.05991e-12
5.19874e-12
5.31179e-12
5.39969e-12
5.46346e-12
5.5044e-12
5.52403e-12
1.98731e-12
2.21657e-12
2.55338e-12
2.99312e-12
3.53195e-12
4.16476e-12
4.88415e-12
5.68002e-12
6.53964e-12
7.4481e-12
8.38895e-12
9.345e-12
1.02991e-11
1.12348e-11
1.21372e-11
1.29929e-11
1.37909e-11
1.45223e-11
1.51806e-11
1.57615e-11
1.62626e-11
1.66835e-11
1.70252e-11
1.72903e-11
1.74822e-11
1.76051e-11
1.7664e-11
6.62589e-12
7.35998e-12
8.43353e-12
9.8269e-12
1.15227e-11
1.34995e-11
1.57294e-11
1.8177e-11
2.08001e-11
2.35512e-11
2.63796e-11
2.92338e-11
3.20636e-11
3.48222e-11
3.74673e-11
3.99627e-11
4.22788e-11
4.43925e-11
4.62875e-11
4.79537e-11
4.93865e-11
5.05866e-11
5.15586e-11
5.23109e-11
5.28543e-11
5.32018e-11
5.3368e-11
2.10699e-11
2.32663e-11
2.64605e-11
3.05769e-11
3.55462e-11
4.12891e-11
4.77098e-11
5.46947e-11
6.21155e-11
6.98334e-11
7.77055e-11
8.55905e-11
9.33541e-11
1.00874e-10
1.08042e-10
1.14769e-10
1.20982e-10
1.26627e-10
1.31667e-10
1.36083e-10
1.39868e-10
1.43029e-10
1.45584e-10
1.47556e-10
1.48978e-10
1.49886e-10
1.50319e-10
6.35028e-11
6.95653e-11
7.83206e-11
8.95051e-11
1.02873e-10
1.18156e-10
1.35055e-10
1.53237e-10
1.72342e-10
1.92001e-10
2.11846e-10
2.31525e-10
2.50717e-10
2.69139e-10
2.8655e-10
3.02759e-10
3.1762e-10
3.31031e-10
3.42932e-10
3.533e-10
3.62143e-10
3.69496e-10
3.75412e-10
3.79966e-10
3.83239e-10
3.85325e-10
3.86318e-10
1.81099e-10
1.96421e-10
2.18357e-10
2.46068e-10
2.78762e-10
3.15616e-10
3.55751e-10
3.98249e-10
4.42183e-10
4.86649e-10
5.30796e-10
5.73855e-10
6.15158e-10
6.54154e-10
6.90413e-10
7.23627e-10
7.53596e-10
7.80226e-10
8.03507e-10
8.235e-10
8.40323e-10
8.54135e-10
8.65123e-10
8.73491e-10
8.79452e-10
8.83218e-10
8.84999e-10
4.90096e-10
5.2561e-10
5.7591e-10
6.38585e-10
7.11349e-10
7.91915e-10
8.77983e-10
9.67292e-10
1.05769e-09
1.14721e-09
1.23414e-09
1.31707e-09
1.39492e-09
1.46695e-09
1.53268e-09
1.59194e-09
1.6447e-09
1.69111e-09
1.7314e-09
1.76586e-09
1.7948e-09
1.81857e-09
1.8375e-09
1.85195e-09
1.86227e-09
1.86881e-09
1.87192e-09
1.25528e-09
1.33108e-09
1.4373e-09
1.56787e-09
1.71709e-09
1.87951e-09
2.05001e-09
2.22396e-09
2.39738e-09
2.56706e-09
2.73056e-09
2.88616e-09
3.03268e-09
3.16929e-09
3.29544e-09
3.41072e-09
3.51488e-09
3.60782e-09
3.68956e-09
3.76028e-09
3.82027e-09
3.86994e-09
3.90977e-09
3.94035e-09
3.96229e-09
3.97624e-09
3.98288e-09
3.00308e-09
3.15384e-09
3.36401e-09
3.62096e-09
3.9135e-09
4.23176e-09
4.56723e-09
4.91276e-09
5.26228e-09
5.61057e-09
5.95294e-09
6.28517e-09
6.60347e-09
6.90458e-09
7.1858e-09
7.44502e-09
7.68073e-09
7.89201e-09
8.07845e-09
8.2401e-09
8.37744e-09
8.49124e-09
8.58258e-09
8.6527e-09
8.70301e-09
8.73501e-09
8.75023e-09
6.65637e-09
6.96069e-09
7.38887e-09
7.91923e-09
8.53293e-09
9.21283e-09
9.94285e-09
1.07077e-08
1.14925e-08
1.22836e-08
1.30678e-08
1.38335e-08
1.45703e-08
1.52694e-08
1.59237e-08
1.65278e-08
1.70776e-08
1.75708e-08
1.80061e-08
1.83837e-08
1.87045e-08
1.89703e-08
1.91835e-08
1.93472e-08
1.94645e-08
1.95391e-08
1.95746e-08
1.40925e-08
1.47442e-08
1.5667e-08
1.68181e-08
1.81595e-08
1.9655e-08
2.12695e-08
2.29689e-08
2.47199e-08
2.64909e-08
2.82525e-08
2.99779e-08
3.16435e-08
3.32289e-08
3.47173e-08
3.60955e-08
3.73538e-08
3.84856e-08
3.94875e-08
4.03585e-08
4.11002e-08
4.17161e-08
4.2211e-08
4.25914e-08
4.28645e-08
4.30382e-08
4.31208e-08
2.86278e-08
2.99444e-08
3.181e-08
3.41397e-08
3.68579e-08
3.9893e-08
4.31755e-08
4.66378e-08
5.02143e-08
5.38422e-08
5.74628e-08
6.10218e-08
6.44708e-08
6.77673e-08
7.08753e-08
7.37657e-08
7.6416e-08
7.88099e-08
8.09375e-08
8.27944e-08
8.43811e-08
8.57028e-08
8.67679e-08
8.75885e-08
8.81788e-08
8.85547e-08
8.87337e-08
5.42506e-08
5.66114e-08
5.99532e-08
6.41212e-08
6.89783e-08
7.43958e-08
8.02498e-08
8.64208e-08
9.27935e-08
9.92582e-08
1.05712e-07
1.12059e-07
1.18216e-07
1.24105e-07
1.29663e-07
1.34837e-07
1.39587e-07
1.43881e-07
1.477e-07
1.51036e-07
1.53889e-07
1.56265e-07
1.58181e-07
1.59656e-07
1.60717e-07
1.61393e-07
1.61714e-07
9.43082e-08
9.80239e-08
1.0327e-07
1.09791e-07
1.17362e-07
1.25772e-07
1.34822e-07
1.4432e-07
1.54087e-07
1.63953e-07
1.73761e-07
1.83369e-07
1.92648e-07
2.0149e-07
2.09802e-07
2.17511e-07
2.24559e-07
2.30908e-07
2.36535e-07
2.41432e-07
2.45604e-07
2.49069e-07
2.51853e-07
2.53991e-07
2.55525e-07
2.56498e-07
2.5696e-07
1.50531e-07
1.55721e-07
1.63023e-07
1.72056e-07
1.82482e-07
1.93992e-07
2.06294e-07
2.19115e-07
2.32204e-07
2.45327e-07
2.58277e-07
2.70868e-07
2.82939e-07
2.94358e-07
3.05017e-07
3.14833e-07
3.23748e-07
3.31727e-07
3.38755e-07
3.44837e-07
3.49991e-07
3.54249e-07
3.57655e-07
3.6026e-07
3.62121e-07
3.63299e-07
3.63856e-07
2.22926e-07
2.29491e-07
2.38686e-07
2.49998e-07
2.62972e-07
2.77189e-07
2.92266e-07
3.07851e-07
3.23625e-07
3.39307e-07
3.54647e-07
3.69435e-07
3.83493e-07
3.96683e-07
4.08896e-07
4.20058e-07
4.30124e-07
4.39071e-07
4.46903e-07
4.5364e-07
4.59319e-07
4.63988e-07
4.67707e-07
4.70541e-07
4.72558e-07
4.73832e-07
4.74433e-07
3.10235e-07
3.17902e-07
3.28595e-07
3.41678e-07
3.56585e-07
3.72804e-07
3.8987e-07
4.07369e-07
4.24935e-07
4.42253e-07
4.59054e-07
4.75119e-07
4.90272e-07
5.04383e-07
5.17356e-07
5.29133e-07
5.39686e-07
5.49014e-07
5.57136e-07
5.64089e-07
5.69925e-07
5.74707e-07
5.78503e-07
5.81387e-07
5.83436e-07
5.84727e-07
5.85336e-07
4.10378e-07
4.18783e-07
4.3046e-07
4.44676e-07
4.60781e-07
4.78189e-07
4.96381e-07
5.14903e-07
5.33363e-07
5.51433e-07
5.68842e-07
5.85376e-07
6.00873e-07
6.15216e-07
6.2833e-07
6.40173e-07
6.50735e-07
6.60032e-07
6.68096e-07
6.74977e-07
6.80737e-07
6.85444e-07
6.89174e-07
6.92004e-07
6.94012e-07
6.95276e-07
6.95872e-07
5.20707e-07
5.2947e-07
5.41607e-07
5.56322e-07
5.7291e-07
5.90747e-07
6.09285e-07
6.28052e-07
6.46651e-07
6.64756e-07
6.82106e-07
6.98502e-07
7.13797e-07
7.27892e-07
7.40728e-07
7.52279e-07
7.62549e-07
7.71563e-07
7.79365e-07
7.86009e-07
7.91561e-07
7.96093e-07
7.99681e-07
8.02402e-07
8.04331e-07
8.05546e-07
8.06118e-07
6.38237e-07
6.47025e-07
6.59166e-07
6.73839e-07
6.90321e-07
7.07974e-07
7.26245e-07
7.44665e-07
7.62847e-07
7.80477e-07
7.9731e-07
8.13164e-07
8.27908e-07
8.41457e-07
8.53765e-07
8.64819e-07
8.74629e-07
8.83227e-07
8.90659e-07
8.96983e-07
9.02264e-07
9.06574e-07
9.09986e-07
9.12572e-07
9.14408e-07
9.15564e-07
9.16109e-07
7.59979e-07
7.68539e-07
7.80344e-07
7.94581e-07
8.10533e-07
8.27572e-07
8.45161e-07
8.62845e-07
8.80256e-07
8.97098e-07
9.13144e-07
9.28225e-07
9.42227e-07
9.55075e-07
9.66732e-07
9.77191e-07
9.86467e-07
9.94592e-07
1.00161e-06
1.00759e-06
1.01258e-06
1.01665e-06
1.01987e-06
1.02232e-06
1.02406e-06
1.02515e-06
1.02567e-06
8.83277e-07
8.91448e-07
9.02706e-07
9.16264e-07
9.31432e-07
9.4761e-07
9.64283e-07
9.81023e-07
9.97482e-07
1.01338e-06
1.02852e-06
1.04273e-06
1.05592e-06
1.06801e-06
1.07898e-06
1.08882e-06
1.09755e-06
1.1052e-06
1.11181e-06
1.11743e-06
1.12213e-06
1.12597e-06
1.12902e-06
1.13133e-06
1.13297e-06
1.13401e-06
1.13449e-06
1.00605e-06
1.01375e-06
1.02436e-06
1.03713e-06
1.0514e-06
1.06661e-06
1.08228e-06
1.09801e-06
1.11346e-06
1.12839e-06
1.14259e-06
1.15593e-06
1.1683e-06
1.17966e-06
1.18996e-06
1.1992e-06
1.20741e-06
1.2146e-06
1.22082e-06
1.22612e-06
1.23055e-06
1.23418e-06
1.23705e-06
1.23923e-06
1.24079e-06
1.24177e-06
1.24223e-06
1.12685e-06
1.13406e-06
1.144e-06
1.15595e-06
1.16932e-06
1.18357e-06
1.19825e-06
1.21298e-06
1.22745e-06
1.24144e-06
1.25476e-06
1.26728e-06
1.27889e-06
1.28956e-06
1.29924e-06
1.30794e-06
1.31566e-06
1.32244e-06
1.32831e-06
1.33331e-06
1.3375e-06
1.34093e-06
1.34365e-06
1.34571e-06
1.34719e-06
1.34812e-06
1.34856e-06
1.24478e-06
1.25152e-06
1.26082e-06
1.27201e-06
1.28452e-06
1.29787e-06
1.31162e-06
1.32542e-06
1.33901e-06
1.35214e-06
1.36465e-06
1.37642e-06
1.38735e-06
1.3974e-06
1.40653e-06
1.41473e-06
1.42203e-06
1.42844e-06
1.43399e-06
1.43873e-06
1.4427e-06
1.44595e-06
1.44854e-06
1.4505e-06
1.45191e-06
1.45279e-06
1.45321e-06
1.35938e-06
1.36571e-06
1.37442e-06
1.38492e-06
1.39666e-06
1.40919e-06
1.42211e-06
1.43509e-06
1.44788e-06
1.46025e-06
1.47205e-06
1.48315e-06
1.49348e-06
1.50298e-06
1.51163e-06
1.5194e-06
1.52633e-06
1.53241e-06
1.53769e-06
1.54219e-06
1.54597e-06
1.54907e-06
1.55154e-06
1.55342e-06
1.55475e-06
1.5556e-06
1.556e-06
1.47052e-06
1.47647e-06
1.48467e-06
1.49455e-06
1.50562e-06
1.51743e-06
1.52963e-06
1.54189e-06
1.55398e-06
1.56569e-06
1.57687e-06
1.5874e-06
1.5972e-06
1.60623e-06
1.61445e-06
1.62186e-06
1.62845e-06
1.63425e-06
1.63929e-06
1.64359e-06
1.64721e-06
1.65017e-06
1.65253e-06
1.65433e-06
1.65561e-06
1.65643e-06
1.65681e-06
1.57823e-06
1.58386e-06
1.59161e-06
1.60096e-06
1.61144e-06
1.62264e-06
1.6342e-06
1.64585e-06
1.65734e-06
1.66847e-06
1.67912e-06
1.68915e-06
1.6985e-06
1.70712e-06
1.71497e-06
1.72205e-06
1.72837e-06
1.73392e-06
1.73875e-06
1.74288e-06
1.74635e-06
1.7492e-06
1.75146e-06
1.75319e-06
1.75443e-06
1.75521e-06
1.75558e-06
1.68267e-06
1.68801e-06
1.69539e-06
1.70428e-06
1.71425e-06
1.72492e-06
1.73595e-06
1.74706e-06
1.75803e-06
1.76868e-06
1.77886e-06
1.78847e-06
1.79743e-06
1.80569e-06
1.81323e-06
1.82003e-06
1.82609e-06
1.83143e-06
1.83608e-06
1.84006e-06
1.8434e-06
1.84614e-06
1.84833e-06
1.85e-06
1.85119e-06
1.85194e-06
1.8523e-06
1.78403e-06
1.78913e-06
1.79618e-06
1.80469e-06
1.81423e-06
1.82444e-06
1.83501e-06
1.84566e-06
1.85619e-06
1.86641e-06
1.87619e-06
1.88543e-06
1.89405e-06
1.90201e-06
1.90927e-06
1.91583e-06
1.92168e-06
1.92683e-06
1.93132e-06
1.93516e-06
1.93839e-06
1.94104e-06
1.94316e-06
1.94477e-06
1.94593e-06
1.94666e-06
1.94701e-06
1.88254e-06
1.88744e-06
1.8942e-06
1.90238e-06
1.91155e-06
1.92137e-06
1.93154e-06
1.9418e-06
1.95194e-06
1.96179e-06
1.97123e-06
1.98015e-06
1.98848e-06
1.99617e-06
2.00319e-06
2.00953e-06
2.01519e-06
2.02018e-06
2.02453e-06
2.02825e-06
2.03138e-06
2.03396e-06
2.03601e-06
2.03758e-06
2.0387e-06
2.03941e-06
2.03974e-06
1.97841e-06
1.98314e-06
1.98966e-06
1.99755e-06
2.0064e-06
2.01588e-06
2.02571e-06
2.03562e-06
2.04543e-06
2.05497e-06
2.0641e-06
2.07274e-06
2.08081e-06
2.08826e-06
2.09507e-06
2.10123e-06
2.10672e-06
2.11157e-06
2.11579e-06
2.11941e-06
2.12245e-06
2.12495e-06
2.12695e-06
2.12847e-06
2.12956e-06
2.13025e-06
2.13058e-06
2.07186e-06
2.07644e-06
2.08275e-06
2.09039e-06
2.09896e-06
2.10815e-06
2.11767e-06
2.12729e-06
2.1368e-06
2.14606e-06
2.15492e-06
2.16331e-06
2.17116e-06
2.1784e-06
2.18502e-06
2.19101e-06
2.19635e-06
2.20107e-06
2.20518e-06
2.2087e-06
2.21167e-06
2.2141e-06
2.21605e-06
2.21753e-06
2.2186e-06
2.21927e-06
2.21959e-06
2.16308e-06
2.16752e-06
2.17365e-06
2.18106e-06
2.18939e-06
2.19832e-06
2.20757e-06
2.21692e-06
2.22618e-06
2.23518e-06
2.24381e-06
2.25198e-06
2.25962e-06
2.26668e-06
2.27313e-06
2.27896e-06
2.28417e-06
2.28878e-06
2.29278e-06
2.29622e-06
2.29911e-06
2.30149e-06
2.30339e-06
2.30484e-06
2.30587e-06
2.30653e-06
2.30684e-06
2.25221e-06
2.25653e-06
2.2625e-06
2.26972e-06
2.27783e-06
2.28652e-06
2.29554e-06
2.30465e-06
2.31367e-06
2.32245e-06
2.33087e-06
2.33884e-06
2.34629e-06
2.35318e-06
2.35947e-06
2.36517e-06
2.37026e-06
2.37475e-06
2.37867e-06
2.38202e-06
2.38485e-06
2.38717e-06
2.38903e-06
2.39045e-06
2.39146e-06
2.3921e-06
2.39241e-06
2.33941e-06
2.34362e-06
2.34945e-06
2.35648e-06
2.3644e-06
2.37288e-06
2.38168e-06
2.39058e-06
2.39938e-06
2.40796e-06
2.41618e-06
2.42396e-06
2.43124e-06
2.43798e-06
2.44413e-06
2.4497e-06
2.45468e-06
2.45907e-06
2.4629e-06
2.46618e-06
2.46895e-06
2.47122e-06
2.47304e-06
2.47442e-06
2.47541e-06
2.47604e-06
2.47634e-06
2.42479e-06
2.4289e-06
2.43459e-06
2.44146e-06
2.4492e-06
2.45749e-06
2.46609e-06
2.47478e-06
2.48339e-06
2.49178e-06
2.49982e-06
2.50743e-06
2.51456e-06
2.52114e-06
2.52717e-06
2.53261e-06
2.53748e-06
2.54179e-06
2.54553e-06
2.54875e-06
2.55145e-06
2.55368e-06
2.55546e-06
2.55681e-06
2.55779e-06
2.5584e-06
2.5587e-06
2.50843e-06
2.51246e-06
2.51802e-06
2.52474e-06
2.53231e-06
2.54042e-06
2.54883e-06
2.55734e-06
2.56577e-06
2.57397e-06
2.58184e-06
2.5893e-06
2.59627e-06
2.60272e-06
2.60861e-06
2.61395e-06
2.61872e-06
2.62293e-06
2.6266e-06
2.62975e-06
2.6324e-06
2.63458e-06
2.63632e-06
2.63765e-06
2.6386e-06
2.63921e-06
2.6395e-06
2.59042e-06
2.59436e-06
2.5998e-06
2.60638e-06
2.61379e-06
2.62173e-06
2.62996e-06
2.63829e-06
2.64654e-06
2.65458e-06
2.66229e-06
2.66958e-06
2.67641e-06
2.68273e-06
2.68851e-06
2.69373e-06
2.6984e-06
2.70253e-06
2.70613e-06
2.70921e-06
2.71181e-06
2.71395e-06
2.71565e-06
2.71695e-06
2.71789e-06
2.71848e-06
2.71876e-06
2.67079e-06
2.67465e-06
2.67998e-06
2.68642e-06
2.69367e-06
2.70145e-06
2.70951e-06
2.71767e-06
2.72575e-06
2.73362e-06
2.74117e-06
2.74831e-06
2.755e-06
2.76119e-06
2.76685e-06
2.77197e-06
2.77654e-06
2.78059e-06
2.78411e-06
2.78713e-06
2.78967e-06
2.79177e-06
2.79344e-06
2.79471e-06
2.79563e-06
2.79621e-06
2.79648e-06
2.74958e-06
2.75335e-06
2.75857e-06
2.76488e-06
2.77197e-06
2.77959e-06
2.78749e-06
2.79547e-06
2.80338e-06
2.81109e-06
2.81848e-06
2.82548e-06
2.83203e-06
2.83808e-06
2.84363e-06
2.84864e-06
2.85312e-06
2.85708e-06
2.86053e-06
2.86348e-06
2.86598e-06
2.86802e-06
2.86966e-06
2.87091e-06
2.87181e-06
2.87237e-06
2.87264e-06
2.82677e-06
2.83046e-06
2.83557e-06
2.84174e-06
2.84869e-06
2.85614e-06
2.86387e-06
2.87168e-06
2.87943e-06
2.88696e-06
2.8942e-06
2.90105e-06
2.90745e-06
2.91338e-06
2.9188e-06
2.9237e-06
2.92809e-06
2.93196e-06
2.93534e-06
2.93823e-06
2.94067e-06
2.94267e-06
2.94427e-06
2.9455e-06
2.94637e-06
2.94693e-06
2.94719e-06
2.90234e-06
2.90596e-06
2.91095e-06
2.91699e-06
2.92378e-06
2.93106e-06
2.93862e-06
2.94626e-06
2.95383e-06
2.9612e-06
2.96827e-06
2.97496e-06
2.98122e-06
2.98702e-06
2.99231e-06
2.99711e-06
3.00139e-06
3.00517e-06
3.00847e-06
3.0113e-06
3.01368e-06
3.01564e-06
3.0172e-06
3.0184e-06
3.01925e-06
3.01979e-06
3.02005e-06
2.97625e-06
2.97978e-06
2.98466e-06
2.99056e-06
2.99719e-06
3.0043e-06
3.01168e-06
3.01913e-06
3.02652e-06
3.03371e-06
3.04061e-06
3.04715e-06
3.05326e-06
3.05891e-06
3.06408e-06
3.06875e-06
3.07293e-06
3.07662e-06
3.07984e-06
3.08259e-06
3.08492e-06
3.08683e-06
3.08835e-06
3.08952e-06
3.09035e-06
3.09088e-06
3.09113e-06
3.04842e-06
3.05186e-06
3.05661e-06
3.06236e-06
3.06882e-06
3.07575e-06
3.08294e-06
3.09021e-06
3.0974e-06
3.10441e-06
3.11113e-06
3.11749e-06
3.12344e-06
3.12894e-06
3.13397e-06
3.13852e-06
3.14259e-06
3.14618e-06
3.14931e-06
3.15199e-06
3.15425e-06
3.15611e-06
3.15759e-06
3.15872e-06
3.15953e-06
3.16005e-06
3.16029e-06
3.11873e-06
3.12207e-06
3.12669e-06
3.13228e-06
3.13856e-06
3.1453e-06
3.15229e-06
3.15935e-06
3.16634e-06
3.17314e-06
3.17967e-06
3.18585e-06
3.19162e-06
3.19696e-06
3.20185e-06
3.20626e-06
3.21021e-06
3.21369e-06
3.21673e-06
3.21933e-06
3.22152e-06
3.22332e-06
3.22476e-06
3.22586e-06
3.22665e-06
3.22715e-06
3.22738e-06
3.18704e-06
3.19029e-06
3.19477e-06
3.20018e-06
3.20627e-06
3.2128e-06
3.21957e-06
3.2264e-06
3.23317e-06
3.23976e-06
3.24608e-06
3.25205e-06
3.25764e-06
3.26281e-06
3.26753e-06
3.2718e-06
3.27561e-06
3.27898e-06
3.28191e-06
3.28443e-06
3.28654e-06
3.28829e-06
3.28967e-06
3.29074e-06
3.2915e-06
3.29198e-06
3.29221e-06
3.2532e-06
3.25633e-06
3.26066e-06
3.26588e-06
3.27176e-06
3.27806e-06
3.28459e-06
3.29118e-06
3.29771e-06
3.30406e-06
3.31014e-06
3.3159e-06
3.32128e-06
3.32626e-06
3.3308e-06
3.33491e-06
3.33858e-06
3.34182e-06
3.34464e-06
3.34706e-06
3.3491e-06
3.35077e-06
3.35211e-06
3.35313e-06
3.35386e-06
3.35432e-06
3.35454e-06
3.31699e-06
3.32e-06
3.32415e-06
3.32918e-06
3.33482e-06
3.34087e-06
3.34713e-06
3.35346e-06
3.35972e-06
3.36581e-06
3.37164e-06
3.37716e-06
3.38231e-06
3.38707e-06
3.39142e-06
3.39536e-06
3.39887e-06
3.40197e-06
3.40467e-06
3.40698e-06
3.40892e-06
3.41052e-06
3.4118e-06
3.41278e-06
3.41348e-06
3.41392e-06
3.41413e-06
3.37817e-06
3.38105e-06
3.38502e-06
3.38982e-06
3.39521e-06
3.40098e-06
3.40695e-06
3.41299e-06
3.41895e-06
3.42475e-06
3.4303e-06
3.43556e-06
3.44046e-06
3.44499e-06
3.44912e-06
3.45286e-06
3.4562e-06
3.45914e-06
3.46171e-06
3.4639e-06
3.46575e-06
3.46727e-06
3.46848e-06
3.4694e-06
3.47007e-06
3.47049e-06
3.47069e-06
3.4365e-06
3.43923e-06
3.443e-06
3.44754e-06
3.45265e-06
3.45811e-06
3.46377e-06
3.46948e-06
3.47512e-06
3.4806e-06
3.48585e-06
3.49081e-06
3.49543e-06
3.49971e-06
3.50361e-06
3.50713e-06
3.51027e-06
3.51305e-06
3.51546e-06
3.51753e-06
3.51927e-06
3.52069e-06
3.52183e-06
3.5227e-06
3.52333e-06
3.52372e-06
3.52391e-06
3.49168e-06
3.49424e-06
3.49778e-06
3.50206e-06
3.50685e-06
3.51198e-06
3.51729e-06
3.52264e-06
3.52792e-06
3.53305e-06
3.53796e-06
3.5426e-06
3.54693e-06
3.55092e-06
3.55456e-06
3.55784e-06
3.56078e-06
3.56336e-06
3.56561e-06
3.56754e-06
3.56916e-06
3.57049e-06
3.57155e-06
3.57236e-06
3.57294e-06
3.57331e-06
3.57348e-06
3.5434e-06
3.54578e-06
3.54908e-06
3.55305e-06
3.5575e-06
3.56227e-06
3.56719e-06
3.57215e-06
3.57705e-06
3.5818e-06
3.58634e-06
3.59062e-06
3.59462e-06
3.5983e-06
3.60166e-06
3.60469e-06
3.60739e-06
3.60977e-06
3.61184e-06
3.61361e-06
3.6151e-06
3.61633e-06
3.6173e-06
3.61805e-06
3.61858e-06
3.61892e-06
3.61908e-06
3.59135e-06
3.59354e-06
3.59656e-06
3.60021e-06
3.60429e-06
3.60866e-06
3.61317e-06
3.6177e-06
3.62218e-06
3.62651e-06
3.63066e-06
3.63456e-06
3.6382e-06
3.64155e-06
3.6446e-06
3.64736e-06
3.64981e-06
3.65197e-06
3.65385e-06
3.65545e-06
3.6568e-06
3.65791e-06
3.6588e-06
3.65947e-06
3.65995e-06
3.66026e-06
3.6604e-06
3.63522e-06
3.63721e-06
3.63994e-06
3.64323e-06
3.64692e-06
3.65086e-06
3.65492e-06
3.659e-06
3.66303e-06
3.66692e-06
3.67064e-06
3.67413e-06
3.67739e-06
3.68039e-06
3.68312e-06
3.68557e-06
3.68776e-06
3.68969e-06
3.69136e-06
3.69279e-06
3.69399e-06
3.69497e-06
3.69576e-06
3.69636e-06
3.69679e-06
3.69706e-06
3.69719e-06
3.67474e-06
3.6765e-06
3.67893e-06
3.68185e-06
3.68512e-06
3.6886e-06
3.69219e-06
3.69579e-06
3.69934e-06
3.70277e-06
3.70603e-06
3.7091e-06
3.71196e-06
3.71458e-06
3.71697e-06
3.71911e-06
3.72102e-06
3.7227e-06
3.72416e-06
3.7254e-06
3.72645e-06
3.7273e-06
3.72799e-06
3.72851e-06
3.72888e-06
3.72912e-06
3.72923e-06
3.70967e-06
3.7112e-06
3.7133e-06
3.71584e-06
3.71866e-06
3.72167e-06
3.72477e-06
3.72788e-06
3.73093e-06
3.73387e-06
3.73667e-06
3.7393e-06
3.74174e-06
3.74398e-06
3.74601e-06
3.74784e-06
3.74946e-06
3.75088e-06
3.75212e-06
3.75317e-06
3.75406e-06
3.75478e-06
3.75536e-06
3.7558e-06
3.75611e-06
3.75631e-06
3.75641e-06
3.73984e-06
3.74113e-06
3.74291e-06
3.74504e-06
3.74742e-06
3.74995e-06
3.75255e-06
3.75515e-06
3.75769e-06
3.76014e-06
3.76247e-06
3.76465e-06
3.76667e-06
3.76852e-06
3.77019e-06
3.7717e-06
3.77303e-06
3.7742e-06
3.77522e-06
3.77608e-06
3.7768e-06
3.7774e-06
3.77787e-06
3.77823e-06
3.77848e-06
3.77864e-06
3.77872e-06
3.76519e-06
3.76624e-06
3.76769e-06
3.76943e-06
3.77136e-06
3.7734e-06
3.7755e-06
3.77759e-06
3.77964e-06
3.7816e-06
3.78346e-06
3.7852e-06
3.7868e-06
3.78827e-06
3.78959e-06
3.79078e-06
3.79183e-06
3.79275e-06
3.79355e-06
3.79422e-06
3.79479e-06
3.79525e-06
3.79562e-06
3.7959e-06
3.7961e-06
3.79623e-06
3.79629e-06
3.78576e-06
3.78658e-06
3.7877e-06
3.78905e-06
3.79054e-06
3.79212e-06
3.79374e-06
3.79534e-06
3.7969e-06
3.7984e-06
3.79981e-06
3.80112e-06
3.80233e-06
3.80343e-06
3.80442e-06
3.8053e-06
3.80609e-06
3.80677e-06
3.80736e-06
3.80786e-06
3.80827e-06
3.80861e-06
3.80888e-06
3.80909e-06
3.80924e-06
3.80933e-06
3.80937e-06
3.80171e-06
3.80231e-06
3.80313e-06
3.80411e-06
3.8052e-06
3.80634e-06
3.8075e-06
3.80865e-06
3.80976e-06
3.81082e-06
3.81181e-06
3.81273e-06
3.81357e-06
3.81433e-06
3.81502e-06
3.81563e-06
3.81616e-06
3.81662e-06
3.81702e-06
3.81736e-06
3.81764e-06
3.81787e-06
3.81805e-06
3.81819e-06
3.81829e-06
3.81835e-06
3.81838e-06
3.81336e-06
3.81376e-06
3.81431e-06
3.81496e-06
3.81567e-06
3.81642e-06
3.81717e-06
3.81791e-06
3.81861e-06
3.81928e-06
3.8199e-06
3.82047e-06
3.82099e-06
3.82145e-06
3.82186e-06
3.82222e-06
3.82254e-06
3.82281e-06
3.82305e-06
3.82324e-06
3.8234e-06
3.82354e-06
3.82364e-06
3.82372e-06
3.82377e-06
3.82381e-06
3.82383e-06
3.82115e-06
3.82138e-06
3.82168e-06
3.82204e-06
3.82243e-06
3.82283e-06
3.82323e-06
3.82361e-06
3.82397e-06
3.82431e-06
3.82461e-06
3.82488e-06
3.82512e-06
3.82533e-06
3.82551e-06
3.82567e-06
3.8258e-06
3.82591e-06
3.82601e-06
3.82609e-06
3.82615e-06
3.8262e-06
3.82624e-06
3.82627e-06
3.82629e-06
3.8263e-06
3.82631e-06
3.8256e-06
3.82568e-06
3.82579e-06
3.82591e-06
3.82603e-06
3.82615e-06
3.82625e-06
3.82635e-06
3.82643e-06
3.82649e-06
3.82653e-06
3.82656e-06
3.82658e-06
3.82659e-06
3.82659e-06
3.82658e-06
3.82657e-06
3.82655e-06
3.82654e-06
3.82652e-06
3.8265e-06
3.82649e-06
3.82648e-06
3.82647e-06
3.82646e-06
3.82646e-06
3.82646e-06
3.82731e-06
3.82728e-06
3.82722e-06
3.82716e-06
3.82707e-06
3.82697e-06
3.82685e-06
3.82672e-06
3.82658e-06
3.82644e-06
3.82629e-06
3.82614e-06
3.82599e-06
3.82584e-06
3.8257e-06
3.82557e-06
3.82546e-06
3.82535e-06
3.82525e-06
3.82516e-06
3.82509e-06
3.82503e-06
3.82498e-06
3.82494e-06
3.82492e-06
3.8249e-06
3.82489e-06
3.82689e-06
3.82677e-06
3.82661e-06
3.8264e-06
3.82617e-06
3.82591e-06
3.82563e-06
3.82535e-06
3.82505e-06
3.82476e-06
3.82447e-06
3.8242e-06
3.82393e-06
3.82368e-06
3.82345e-06
3.82324e-06
3.82304e-06
3.82287e-06
3.82272e-06
3.82259e-06
3.82247e-06
3.82238e-06
3.82231e-06
3.82225e-06
3.82221e-06
3.82219e-06
3.82217e-06
3.82494e-06
3.82476e-06
3.82452e-06
3.82423e-06
3.82389e-06
3.82353e-06
3.82315e-06
3.82276e-06
3.82237e-06
3.82199e-06
3.82161e-06
3.82126e-06
3.82092e-06
3.82061e-06
3.82032e-06
3.82005e-06
3.81982e-06
3.81961e-06
3.81942e-06
3.81926e-06
3.81913e-06
3.81902e-06
3.81893e-06
3.81886e-06
3.81881e-06
3.81878e-06
3.81877e-06
3.82196e-06
3.82176e-06
3.82148e-06
3.82113e-06
3.82074e-06
3.82032e-06
3.81988e-06
3.81944e-06
3.819e-06
3.81856e-06
3.81815e-06
3.81775e-06
3.81738e-06
3.81703e-06
3.81671e-06
3.81642e-06
3.81616e-06
3.81594e-06
3.81574e-06
3.81556e-06
3.81542e-06
3.8153e-06
3.8152e-06
3.81513e-06
3.81508e-06
3.81505e-06
3.81503e-06
3.81841e-06
3.81819e-06
3.81789e-06
3.81752e-06
3.81711e-06
3.81667e-06
3.81621e-06
3.81574e-06
3.81528e-06
3.81483e-06
3.8144e-06
3.81399e-06
3.81361e-06
3.81325e-06
3.81293e-06
3.81263e-06
3.81237e-06
3.81214e-06
3.81194e-06
3.81176e-06
3.81162e-06
3.81149e-06
3.8114e-06
3.81132e-06
3.81127e-06
3.81124e-06
3.81122e-06
3.8146e-06
3.81438e-06
3.81408e-06
3.81371e-06
3.8133e-06
3.81286e-06
3.81241e-06
3.81195e-06
3.81149e-06
3.81105e-06
3.81062e-06
3.81022e-06
3.80984e-06
3.8095e-06
3.80918e-06
3.80889e-06
3.80863e-06
3.80841e-06
3.80821e-06
3.80804e-06
3.8079e-06
3.80778e-06
3.80769e-06
3.80761e-06
3.80756e-06
3.80753e-06
3.80752e-06
3.81077e-06
3.81056e-06
3.81027e-06
3.80992e-06
3.80952e-06
3.8091e-06
3.80867e-06
3.80823e-06
3.80779e-06
3.80737e-06
3.80696e-06
3.80658e-06
3.80622e-06
3.80589e-06
3.80559e-06
3.80532e-06