/*--------------------------------*- C++ -*----------------------------------*\
| =========                 |                                                 |
| \\      /  F ield         | OpenFOAM: The Open Source CFD Toolbox           |
|  \\    /   O peration     | Version:  2106                                  |
|   \\  /    A nd           | Website:  www.openfoam.com                      |
|    \\/     M anipulation  |                                                 |
\*---------------------------------------------------------------------------*/
FoamFile
{
    version     2.0;
    format      ascii;
    arch        "LSB;label=32;scalar=64";
    class       volScalarField;
    location    "110.00057";
    object      C4H2;
}
// * * * * * * * * * * * * * * * * * * * * * * * * * * * * * * * * * * * * * //

dimensions      [0 0 0 0 0 0 0];

internalField   nonuniform List<scalar> 
3360
(
1.74342e-22
1.85247e-22
2.00603e-22
2.19684e-22
2.41858e-22
2.66534e-22
2.93143e-22
3.21134e-22
3.49972e-22
3.79149e-22
4.08186e-22
4.36648e-22
4.64142e-22
4.90329e-22
5.14924e-22
5.37698e-22
5.58479e-22
5.77148e-22
5.93635e-22
6.07919e-22
6.20023e-22
6.30007e-22
6.37962e-22
6.4401e-22
6.48293e-22
6.50972e-22
6.52221e-22
8.81359e-22
9.42343e-22
1.02952e-21
1.14001e-21
1.27162e-21
1.42251e-21
1.59099e-21
1.77545e-21
1.97426e-21
2.1857e-21
2.40793e-21
2.63896e-21
2.87655e-21
3.11831e-21
3.36162e-21
3.6037e-21
3.84157e-21
4.07213e-21
4.29215e-21
4.49837e-21
4.68753e-21
4.85651e-21
5.0024e-21
5.12257e-21
5.21481e-21
5.27735e-21
5.30897e-21
3.36786e-21
3.6448e-21
4.04561e-21
4.56175e-21
5.18782e-21
5.91954e-21
6.75262e-21
7.68189e-21
8.70068e-21
9.80034e-21
1.09699e-20
1.21962e-20
1.34645e-20
1.4758e-20
1.60586e-20
1.73472e-20
1.86039e-20
1.9809e-20
2.09433e-20
2.19891e-20
2.29305e-20
2.37541e-20
2.44492e-20
2.50082e-20
2.54266e-20
2.57031e-20
2.58392e-20
1.21656e-20
1.33079e-20
1.4982e-20
1.71684e-20
1.98596e-20
2.30511e-20
2.67344e-20
3.08932e-20
3.55e-20
4.05144e-20
4.58821e-20
5.15357e-20
5.73957e-20
6.33726e-20
6.9369e-20
7.52835e-20
8.10147e-20
8.64653e-20
9.15463e-20
9.61801e-20
1.00303e-19
1.03865e-19
1.06835e-19
1.09194e-19
1.10938e-19
1.12078e-19
1.12633e-19
4.52051e-20
4.98682e-20
5.67457e-20
6.57954e-20
7.70211e-20
9.04303e-20
1.06006e-19
1.23683e-19
1.4334e-19
1.64786e-19
1.8776e-19
2.11941e-19
2.36955e-19
2.62388e-19
2.87802e-19
3.12756e-19
3.36819e-19
3.59591e-19
3.80717e-19
3.99893e-19
4.16879e-19
4.31497e-19
4.43636e-19
4.53244e-19
4.60328e-19
4.64942e-19
4.67183e-19
1.72352e-19
1.91204e-19
2.19122e-19
2.56007e-19
3.01937e-19
3.5698e-19
4.21077e-19
4.93962e-19
5.75103e-19
6.63671e-19
7.58548e-19
8.58345e-19
9.61457e-19
1.06612e-18
1.1705e-18
1.27276e-18
1.37113e-18
1.46399e-18
1.54992e-18
1.62773e-18
1.6965e-18
1.75554e-18
1.80447e-18
1.84312e-18
1.87157e-18
1.89006e-18
1.89904e-18
6.68273e-19
7.44135e-19
8.56713e-19
1.0058e-18
1.19183e-18
1.41516e-18
1.67553e-18
1.97178e-18
2.30163e-18
2.66155e-18
3.04684e-18
3.45172e-18
3.86955e-18
4.29312e-18
4.71496e-18
5.12765e-18
5.52413e-18
5.89795e-18
6.24345e-18
6.55597e-18
6.83187e-18
7.06858e-18
7.26457e-18
7.4193e-18
7.5331e-18
7.60706e-18
7.64292e-18
2.61602e-18
2.91911e-18
3.36953e-18
3.96685e-18
4.71319e-18
5.61014e-18
6.65684e-18
7.84859e-18
9.17596e-18
1.06245e-17
1.2175e-17
1.38038e-17
1.5484e-17
1.71862e-17
1.88804e-17
2.05366e-17
2.21265e-17
2.36244e-17
2.50077e-17
2.62579e-17
2.73607e-17
2.83062e-17
2.90884e-17
2.97055e-17
3.01591e-17
3.04537e-17
3.05964e-17
1.03052e-17
1.15158e-17
1.33159e-17
1.57047e-17
1.86914e-17
2.22825e-17
2.64742e-17
3.12472e-17
3.65628e-17
4.23623e-17
4.85673e-17
5.50826e-17
6.17996e-17
6.86011e-17
7.53663e-17
8.19764e-17
8.83185e-17
9.42905e-17
9.98033e-17
1.04784e-16
1.09176e-16
1.1294e-16
1.16054e-16
1.1851e-16
1.20315e-16
1.21487e-16
1.22055e-16
4.06732e-17
4.54878e-17
5.26518e-17
6.21644e-17
7.4064e-17
8.83785e-17
1.05094e-16
1.24131e-16
1.45335e-16
1.68469e-16
1.93219e-16
2.19202e-16
2.45984e-16
2.73095e-16
3.00053e-16
3.26383e-16
3.51636e-16
3.75405e-16
3.97339e-16
4.17147e-16
4.34606e-16
4.49564e-16
4.61931e-16
4.71683e-16
4.78846e-16
4.83496e-16
4.85749e-16
1.60842e-16
1.79995e-16
2.08498e-16
2.46352e-16
2.93713e-16
3.5069e-16
4.17223e-16
4.92991e-16
5.77367e-16
6.69401e-16
7.67831e-16
8.71128e-16
9.77556e-16
1.08525e-15
1.19229e-15
1.2968e-15
1.397e-15
1.49128e-15
1.57824e-15
1.65676e-15
1.72595e-15
1.78522e-15
1.83421e-15
1.87283e-15
1.9012e-15
1.91961e-15
1.92853e-15
6.35674e-16
7.11651e-16
8.24743e-16
9.74963e-16
1.16293e-15
1.38907e-15
1.65313e-15
1.95383e-15
2.28864e-15
2.65377e-15
3.04417e-15
3.45377e-15
3.87564e-15
4.30237e-15
4.72636e-15
5.14014e-15
5.53669e-15
5.90966e-15
6.25356e-15
6.5639e-15
6.83728e-15
7.07134e-15
7.26476e-15
7.41717e-15
7.52908e-15
7.60171e-15
7.63687e-15
2.51101e-15
2.81221e-15
3.26051e-15
3.85589e-15
4.60071e-15
5.49656e-15
6.54226e-15
7.73253e-15
9.05722e-15
1.05011e-14
1.20441e-14
1.3662e-14
1.53274e-14
1.7011e-14
1.86827e-14
2.03133e-14
2.18751e-14
2.33432e-14
2.46962e-14
2.59166e-14
2.69911e-14
2.79107e-14
2.86704e-14
2.92688e-14
2.9708e-14
2.9993e-14
3.01309e-14
9.88905e-15
1.10786e-14
1.28489e-14
1.51998e-14
1.81401e-14
2.16754e-14
2.58005e-14
3.04933e-14
3.57131e-14
4.13986e-14
4.747e-14
5.3831e-14
6.03735e-14
6.69819e-14
7.35384e-14
7.9928e-14
8.6043e-14
9.17864e-14
9.70754e-14
1.01842e-13
1.06037e-13
1.09624e-13
1.12585e-13
1.14916e-13
1.16627e-13
1.17736e-13
1.18272e-13
3.88104e-14
4.34928e-14
5.04592e-14
5.97061e-14
7.12654e-14
8.51547e-14
1.01347e-13
1.19752e-13
1.40201e-13
1.6245e-13
1.86179e-13
2.11009e-13
2.36514e-13
2.62243e-13
2.87737e-13
3.12551e-13
3.36269e-13
3.58521e-13
3.78989e-13
3.97418e-13
4.13618e-13
4.2746e-13
4.38877e-13
4.4786e-13
4.54445e-13
4.58712e-13
4.60776e-13
1.51392e-13
1.69698e-13
1.96919e-13
2.33028e-13
2.78129e-13
3.32269e-13
3.95315e-13
4.6688e-13
5.46284e-13
6.32543e-13
7.24395e-13
8.20349e-13
9.18743e-13
1.01783e-12
1.11584e-12
1.21107e-12
1.30195e-12
1.38706e-12
1.46523e-12
1.53551e-12
1.59719e-12
1.64983e-12
1.69319e-12
1.72727e-12
1.75222e-12
1.76838e-12
1.77619e-12
5.86008e-13
6.56958e-13
7.62384e-13
9.02089e-13
1.07636e-12
1.28524e-12
1.52806e-12
1.80316e-12
2.10774e-12
2.43788e-12
2.7886e-12
3.15409e-12
3.52796e-12
3.90353e-12
4.27412e-12
4.63334e-12
4.97532e-12
5.29492e-12
5.58781e-12
5.85061e-12
6.08084e-12
6.27695e-12
6.43826e-12
6.56483e-12
6.6574e-12
6.71726e-12
6.74615e-12
2.24533e-12
2.51699e-12
2.92019e-12
3.45367e-12
4.1179e-12
4.91227e-12
5.8334e-12
6.8741e-12
8.02294e-12
9.26427e-12
1.05787e-11
1.1944e-11
1.3336e-11
1.47297e-11
1.61004e-11
1.74249e-11
1.8682e-11
1.98534e-11
2.0924e-11
2.18821e-11
2.27194e-11
2.3431e-11
2.40152e-11
2.44726e-11
2.48066e-11
2.50223e-11
2.51263e-11
8.49498e-12
9.51858e-12
1.10352e-11
1.30375e-11
1.55237e-11
1.84876e-11
2.19123e-11
2.57668e-11
3.00046e-11
3.45642e-11
3.93716e-11
4.43432e-11
4.93899e-11
5.44212e-11
5.93492e-11
6.40919e-11
6.85762e-11
7.27396e-11
7.65318e-11
7.99146e-11
8.28625e-11
8.53612e-11
8.74071e-11
8.90059e-11
9.01708e-11
9.09216e-11
9.1283e-11
3.16432e-11
3.54194e-11
4.10015e-11
4.8348e-11
5.74361e-11
6.82241e-11
8.06309e-11
9.4524e-11
1.09718e-10
1.25977e-10
1.43025e-10
1.60559e-10
1.78263e-10
1.95821e-10
2.12931e-10
2.29319e-10
2.44744e-10
2.59004e-10
2.7194e-10
2.83439e-10
2.93424e-10
3.01862e-10
3.08752e-10
3.14122e-10
3.18026e-10
3.20538e-10
3.21744e-10
1.15713e-10
1.2928e-10
1.49272e-10
1.75474e-10
2.07726e-10
2.45799e-10
2.89319e-10
3.37743e-10
3.90352e-10
4.46274e-10
5.04524e-10
5.64044e-10
6.2376e-10
6.82623e-10
7.39658e-10
7.93988e-10
8.44863e-10
8.91675e-10
9.33958e-10
9.71388e-10
1.00378e-09
1.03105e-09
1.05326e-09
1.07052e-09
1.08304e-09
1.09108e-09
1.09493e-09
4.14008e-10
4.61185e-10
5.30419e-10
6.20684e-10
7.31111e-10
8.60574e-10
1.00748e-09
1.1697e-09
1.34458e-09
1.52906e-09
1.71978e-09
1.91323e-09
2.10598e-09
2.29472e-09
2.47647e-09
2.64859e-09
2.80891e-09
2.9557e-09
3.08769e-09
3.20404e-09
3.30435e-09
3.38855e-09
3.45689e-09
3.50987e-09
3.5482e-09
3.57275e-09
3.58451e-09
1.44386e-09
1.60166e-09
1.8321e-09
2.13069e-09
2.49334e-09
2.91516e-09
3.38986e-09
3.90962e-09
4.46525e-09
5.04655e-09
5.64272e-09
6.2429e-09
6.8366e-09
7.41408e-09
7.96669e-09
8.48706e-09
8.96918e-09
9.40848e-09
9.80176e-09
1.01471e-08
1.04437e-08
1.06919e-08
1.08928e-08
1.10482e-08
1.11603e-08
1.1232e-08
1.12663e-08
4.88469e-09
5.38935e-09
6.12245e-09
7.06586e-09
8.20281e-09
9.51424e-09
1.09774e-08
1.25657e-08
1.42492e-08
1.59963e-08
1.77741e-08
1.9551e-08
2.12967e-08
2.29842e-08
2.45896e-08
2.60935e-08
2.74801e-08
2.8738e-08
2.98598e-08
3.08413e-08
3.16817e-08
3.2383e-08
3.2949e-08
3.33858e-08
3.37005e-08
3.39013e-08
3.39971e-08
1.59329e-08
1.74687e-08
1.96878e-08
2.25244e-08
2.59173e-08
2.97997e-08
3.40965e-08
3.87239e-08
4.35917e-08
4.86066e-08
5.3676e-08
5.8711e-08
6.36297e-08
6.83595e-08
7.28385e-08
7.7016e-08
8.08533e-08
8.43227e-08
8.74069e-08
9.00984e-08
9.23974e-08
9.43115e-08
9.58538e-08
9.70419e-08
9.78967e-08
9.84416e-08
9.87012e-08
4.97116e-08
5.41406e-08
6.05105e-08
6.86063e-08
7.82281e-08
8.91667e-08
1.01195e-07
1.1407e-07
1.27537e-07
1.41339e-07
1.55227e-07
1.68964e-07
1.82335e-07
1.95154e-07
2.07262e-07
2.18531e-07
2.28864e-07
2.38193e-07
2.46478e-07
2.53703e-07
2.59871e-07
2.65006e-07
2.69143e-07
2.72331e-07
2.74625e-07
2.76089e-07
2.76786e-07
1.46902e-07
1.5895e-07
1.7622e-07
1.98078e-07
2.23944e-07
2.53226e-07
2.85303e-07
3.19524e-07
3.55224e-07
3.9174e-07
4.28433e-07
4.64705e-07
5.00013e-07
5.33881e-07
5.65909e-07
5.95769e-07
6.23209e-07
6.48052e-07
6.70181e-07
6.89545e-07
7.0614e-07
7.20008e-07
7.31231e-07
7.39915e-07
7.46194e-07
7.50216e-07
7.52144e-07
4.06277e-07
4.36943e-07
4.80803e-07
5.36191e-07
6.01599e-07
6.75527e-07
7.56435e-07
8.42739e-07
9.32836e-07
1.02514e-06
1.11812e-06
1.21033e-06
1.30046e-06
1.38734e-06
1.46994e-06
1.54743e-06
1.61912e-06
1.68448e-06
1.74314e-06
1.79486e-06
1.83955e-06
1.8772e-06
1.90791e-06
1.93188e-06
1.94935e-06
1.96063e-06
1.96608e-06
1.03813e-06
1.11018e-06
1.2131e-06
1.34295e-06
1.49619e-06
1.66939e-06
1.85909e-06
2.06179e-06
2.27393e-06
2.492e-06
2.71261e-06
2.93249e-06
3.14863e-06
3.35825e-06
3.55891e-06
3.74845e-06
3.92507e-06
4.08729e-06
4.23397e-06
4.36428e-06
4.47767e-06
4.5739e-06
4.65295e-06
4.71506e-06
4.76062e-06
4.79024e-06
4.80463e-06
2.42525e-06
2.57903e-06
2.7985e-06
3.07506e-06
3.40119e-06
3.76969e-06
4.17337e-06
4.60503e-06
5.05741e-06
5.52333e-06
5.99572e-06
6.46782e-06
6.9332e-06
7.38592e-06
7.82059e-06
8.23244e-06
8.61735e-06
8.97188e-06
9.29329e-06
9.57953e-06
9.82919e-06
1.00415e-05
1.02163e-05
1.03538e-05
1.04549e-05
1.05207e-05
1.05527e-05
5.15355e-06
5.44821e-06
5.86786e-06
6.39543e-06
7.01596e-06
7.71527e-06
8.47944e-06
9.29458e-06
1.01469e-05
1.10227e-05
1.19087e-05
1.27921e-05
1.3661e-05
1.45041e-05
1.53116e-05
1.60747e-05
1.67859e-05
1.74392e-05
1.80297e-05
1.85541e-05
1.90101e-05
1.93968e-05
1.97142e-05
1.99633e-05
2.01459e-05
2.02645e-05
2.0322e-05
9.9736e-06
1.04779e-05
1.11936e-05
1.20895e-05
1.31379e-05
1.43129e-05
1.55893e-05
1.69423e-05
1.8348e-05
1.97828e-05
2.12244e-05
2.2652e-05
2.40461e-05
2.53895e-05
2.6667e-05
2.78659e-05
2.89755e-05
2.99878e-05
3.08968e-05
3.16988e-05
3.23919e-05
3.29762e-05
3.3453e-05
3.38251e-05
3.40964e-05
3.42718e-05
3.43565e-05
1.76824e-05
1.84549e-05
1.95462e-05
2.0904e-05
2.24818e-05
2.42361e-05
2.61256e-05
2.81107e-05
3.01538e-05
3.22194e-05
3.4275e-05
3.62908e-05
3.82406e-05
4.01016e-05
4.1855e-05
4.34853e-05
4.4981e-05
4.63338e-05
4.75387e-05
4.85933e-05
4.9498e-05
5.0255e-05
5.08687e-05
5.13445e-05
5.16894e-05
5.1911e-05
5.20175e-05
2.8949e-05
3.00167e-05
3.15173e-05
3.33716e-05
3.55092e-05
3.78649e-05
4.03779e-05
4.29919e-05
4.56547e-05
4.83193e-05
5.09434e-05
5.34905e-05
5.59294e-05
5.82346e-05
6.03857e-05
6.23676e-05
6.41699e-05
6.57863e-05
6.72144e-05
6.8455e-05
6.95115e-05
7.03897e-05
7.10969e-05
7.16421e-05
7.2035e-05
7.22861e-05
7.24061e-05
4.41455e-05
4.54939e-05
4.73795e-05
4.96942e-05
5.23421e-05
5.52354e-05
5.82942e-05
6.14462e-05
6.46267e-05
6.7779e-05
7.08544e-05
7.38122e-05
7.66191e-05
7.92493e-05
8.16836e-05
8.39088e-05
8.59173e-05
8.7706e-05
8.92759e-05
9.06311e-05
9.17785e-05
9.27269e-05
9.34869e-05
9.40699e-05
9.44882e-05
9.47544e-05
9.48812e-05
6.32662e-05
6.48465e-05
6.70467e-05
6.97326e-05
7.2785e-05
7.60965e-05
7.95712e-05
8.31239e-05
8.66809e-05
9.01793e-05
9.35668e-05
9.6801e-05
9.9849e-05
0.000102686
0.000105296
0.000107667
0.000109795
0.000111681
0.000113328
0.000114744
0.000115937
0.00011692
0.000117705
0.000118305
0.000118734
0.000119006
0.000119136
8.59738e-05
8.77208e-05
9.0145e-05
9.30915e-05
9.64235e-05
0.000100019
0.00010377
0.000107583
0.000111378
0.000115091
0.000118666
0.000122062
0.000125247
0.000128198
0.000130901
0.000133347
0.000135535
0.000137467
0.00013915
0.000140592
0.000141804
0.000142801
0.000143594
0.0001442
0.000144633
0.000144907
0.000145037
0.000111729
0.000113579
0.00011614
0.000119244
0.000122741
0.000126501
0.000130408
0.000134364
0.000138288
0.000142111
0.000145781
0.000149255
0.000152503
0.000155504
0.000158246
0.000160722
0.000162932
0.00016488
0.000166573
0.000168022
0.000169239
0.000170238
0.000171033
0.000171639
0.000172072
0.000172345
0.000172475
0.00013993
0.000141832
0.00014446
0.000147639
0.000151213
0.000155047
0.000159021
0.000163037
0.00016701
0.000170873
0.000174574
0.000178071
0.000181335
0.000184347
0.000187095
0.000189574
0.000191784
0.000193731
0.000195422
0.000196868
0.000198082
0.000199078
0.000199871
0.000200475
0.000200906
0.000201178
0.000201308
0.00017001
0.000171926
0.000174573
0.000177771
0.000181363
0.00018521
0.000189194
0.000193214
0.000197187
0.000201046
0.000204739
0.000208227
0.00021148
0.000214481
0.000217216
0.000219684
0.000221883
0.000223819
0.000225502
0.00022694
0.000228148
0.000229138
0.000229927
0.000230528
0.000230956
0.000231228
0.000231356
0.000201487
0.000203396
0.000206032
0.000209214
0.000212787
0.000216612
0.000220571
0.000224564
0.00022851
0.000232341
0.000236006
0.000239467
0.000242695
0.000245672
0.000248387
0.000250835
0.000253018
0.000254941
0.000256611
0.00025804
0.00025924
0.000260224
0.000261007
0.000261605
0.000262031
0.000262301
0.00026243
0.000233977
0.000235866
0.000238475
0.000241625
0.00024516
0.000248945
0.000252862
0.000256813
0.000260717
0.000264509
0.000268138
0.000271564
0.000274762
0.000277711
0.000280402
0.000282829
0.000284994
0.000286901
0.000288559
0.000289978
0.000291169
0.000292147
0.000292926
0.00029352
0.000293944
0.000294213
0.00029434
0.000267186
0.000269051
0.000271626
0.000274735
0.000278226
0.000281964
0.000285834
0.000289738
0.000293597
0.000297347
0.000300936
0.000304327
0.000307493
0.000310414
0.000313081
0.000315487
0.000317635
0.000319527
0.000321173
0.000322582
0.000323765
0.000324738
0.000325512
0.000326103
0.000326525
0.000326792
0.000326919
0.000300897
0.000302737
0.000305277
0.000308345
0.000311791
0.000315482
0.000319305
0.000323163
0.000326979
0.000330687
0.00033424
0.000337597
0.000340733
0.000343628
0.000346272
0.000348659
0.00035079
0.000352669
0.000354304
0.000355704
0.00035688
0.000357847
0.000358618
0.000359206
0.000359626
0.000359892
0.000360018
0.000334951
0.000336767
0.000339274
0.000342304
0.000345708
0.000349356
0.000353135
0.000356951
0.000360727
0.000364399
0.000367917
0.000371245
0.000374354
0.000377225
0.000379849
0.000382219
0.000384335
0.000386202
0.000387827
0.000389219
0.00039039
0.000391352
0.000392118
0.000392704
0.000393122
0.000393387
0.000393513
0.000369232
0.000371026
0.000373505
0.000376501
0.000379867
0.000383477
0.000387218
0.000390997
0.000394738
0.000398377
0.000401866
0.000405167
0.000408253
0.000411104
0.00041371
0.000416065
0.000418169
0.000420025
0.000421641
0.000423026
0.000424191
0.000425149
0.000425912
0.000426496
0.000426912
0.000427177
0.000427302
0.000403657
0.000405433
0.000407887
0.000410853
0.000414188
0.000417764
0.000421472
0.00042522
0.000428931
0.000432542
0.000436006
0.000439284
0.000442349
0.000445183
0.000447774
0.000450116
0.000452209
0.000454056
0.000455664
0.000457043
0.000458203
0.000459157
0.000459918
0.000460499
0.000460914
0.000461178
0.000461303
0.000438168
0.000439928
0.000442361
0.000445302
0.00044861
0.000452158
0.000455838
0.000459559
0.000463244
0.000466832
0.000470273
0.000473532
0.00047658
0.000479399
0.000481976
0.000484307
0.00048639
0.000488229
0.000489831
0.000491205
0.000492361
0.000493311
0.000494069
0.000494648
0.000495063
0.000495325
0.00049545
0.000472721
0.000474468
0.000476883
0.000479803
0.000483088
0.000486612
0.000490268
0.000493966
0.000497629
0.000501197
0.000504621
0.000507863
0.000510896
0.000513701
0.000516267
0.000518588
0.000520663
0.000522495
0.000524091
0.00052546
0.000526612
0.000527559
0.000528315
0.000528893
0.000529306
0.000529568
0.000529692
0.000507286
0.000509021
0.000511421
0.000514324
0.000517589
0.000521093
0.000524729
0.000528407
0.000532052
0.000535602
0.00053901
0.000542237
0.000545258
0.000548052
0.000550607
0.00055292
0.000554987
0.000556813
0.000558404
0.000559768
0.000560917
0.000561861
0.000562615
0.000563191
0.000563603
0.000563864
0.000563988
0.000541839
0.000543565
0.000545951
0.000548839
0.000552088
0.000555574
0.000559193
0.000562855
0.000566483
0.000570018
0.000573412
0.000576627
0.000579636
0.000582419
0.000584966
0.000587271
0.000589332
0.000591152
0.000592738
0.000594098
0.000595243
0.000596185
0.000596937
0.000597511
0.000597922
0.000598183
0.000598307
0.000576363
0.000578081
0.000580456
0.000583331
0.000586565
0.000590037
0.000593641
0.000597287
0.000600902
0.000604423
0.000607805
0.000611008
0.000614007
0.000616781
0.00061932
0.000621617
0.000623672
0.000625486
0.000627068
0.000628424
0.000629567
0.000630506
0.000631256
0.000631829
0.000632238
0.000632499
0.000632622
0.000610845
0.000612556
0.000614922
0.000617785
0.000621006
0.000624465
0.000628055
0.000631688
0.00063529
0.000638799
0.000642169
0.000645362
0.000648351
0.000651117
0.000653648
0.000655939
0.000657987
0.000659797
0.000661374
0.000662727
0.000663866
0.000664803
0.000665551
0.000666123
0.000666531
0.000666791
0.000666914
0.000645274
0.000646979
0.000649336
0.000652188
0.000655398
0.000658845
0.000662423
0.000666044
0.000669633
0.000673132
0.000676491
0.000679674
0.000682654
0.000685412
0.000687936
0.00069022
0.000692263
0.000694067
0.00069564
0.00069699
0.000698126
0.00069906
0.000699806
0.000700376
0.000700784
0.000701043
0.000701166
0.000679642
0.00068134
0.000683689
0.000686532
0.000689731
0.000693166
0.000696733
0.000700342
0.000703921
0.000707408
0.000710757
0.000713931
0.000716902
0.000719652
0.000722168
0.000724446
0.000726483
0.000728283
0.000729851
0.000731197
0.00073233
0.000733262
0.000734006
0.000734575
0.000734982
0.00073524
0.000735363
0.000713939
0.000715632
0.000717973
0.000720806
0.000723995
0.000727419
0.000730975
0.000734573
0.00073814
0.000741617
0.000744956
0.00074812
0.000751083
0.000753824
0.000756334
0.000758605
0.000760636
0.000762431
0.000763995
0.000765337
0.000766467
0.000767396
0.000768138
0.000768705
0.000769111
0.000769368
0.000769491
0.000748157
0.000749844
0.000752178
0.000755002
0.000758181
0.000761594
0.000765138
0.000768725
0.000772281
0.000775747
0.000779076
0.000782231
0.000785184
0.000787918
0.000790419
0.000792684
0.000794709
0.000796498
0.000798058
0.000799396
0.000800523
0.00080145
0.000802189
0.000802755
0.000803159
0.000803416
0.000803538
0.000782287
0.00078397
0.000786295
0.000789111
0.000792279
0.000795681
0.000799213
0.000802788
0.000806333
0.000809788
0.000813106
0.000816251
0.000819195
0.00082192
0.000824414
0.000826671
0.00082869
0.000830473
0.000832028
0.000833362
0.000834485
0.000835409
0.000836146
0.00083671
0.000837113
0.000837369
0.000837491
0.000816321
0.000817997
0.000820315
0.000823121
0.000826278
0.000829669
0.000833189
0.000836752
0.000840285
0.000843728
0.000847034
0.000850168
0.000853102
0.000855817
0.000858303
0.000860552
0.000862564
0.000864342
0.000865891
0.00086722
0.00086834
0.00086926
0.000869995
0.000870557
0.000870959
0.000871214
0.000871335
0.000850247
0.000851917
0.000854226
0.000857021
0.000860167
0.000863545
0.000867052
0.000870602
0.000874122
0.000877552
0.000880846
0.000883968
0.000886891
0.000889597
0.000892073
0.000894313
0.000896318
0.000898089
0.000899632
0.000900956
0.000902071
0.000902989
0.000903721
0.00090428
0.00090468
0.000904935
0.000905055
0.000884051
0.000885715
0.000888015
0.000890799
0.000893932
0.000897296
0.000900789
0.000904324
0.00090783
0.000911246
0.000914527
0.000917636
0.000920546
0.00092324
0.000925706
0.000927937
0.000929933
0.000931697
0.000933233
0.000934552
0.000935662
0.000936576
0.000937304
0.000937862
0.00093826
0.000938513
0.000938633
0.000917719
0.000919375
0.000921665
0.000924437
0.000927556
0.000930905
0.000934382
0.000937901
0.000941391
0.000944791
0.000948057
0.000951151
0.000954048
0.000956729
0.000959183
0.000961404
0.00096339
0.000965145
0.000966675
0.000967987
0.000969092
0.000970001
0.000970726
0.00097128
0.000971677
0.000971929
0.000972048
0.000951233
0.000952881
0.000955159
0.000957917
0.00096102
0.000964352
0.000967812
0.000971313
0.000974783
0.000978166
0.000981414
0.000984492
0.000987374
0.000990041
0.000992481
0.00099469
0.000996665
0.000998411
0.000999932
0.00100124
0.00100234
0.00100324
0.00100396
0.00100451
0.00100491
0.00100516
0.00100528
0.00098457
0.000986209
0.000988474
0.000991216
0.000994301
0.000997614
0.00100105
0.00100453
0.00100798
0.00101135
0.00101457
0.00101763
0.0010205
0.00102315
0.00102557
0.00102777
0.00102973
0.00103146
0.00103298
0.00103427
0.00103536
0.00103626
0.00103698
0.00103753
0.00103792
0.00103817
0.00103828
0.00101771
0.00101933
0.00102158
0.00102431
0.00102737
0.00103066
0.00103408
0.00103753
0.00104096
0.0010443
0.00104751
0.00105054
0.00105339
0.00105602
0.00105843
0.0010606
0.00106255
0.00106427
0.00106577
0.00106706
0.00106814
0.00106904
0.00106975
0.00107029
0.00107068
0.00107093
0.00107104
0.00105061
0.00105222
0.00105446
0.00105716
0.0010602
0.00106346
0.00106685
0.00107028
0.00107368
0.00107699
0.00108017
0.00108318
0.001086
0.00108861
0.001091
0.00109316
0.00109509
0.0010968
0.00109829
0.00109956
0.00110064
0.00110152
0.00110222
0.00110276
0.00110315
0.00110339
0.00110351
0.00108324
0.00108484
0.00108705
0.00108973
0.00109275
0.00109598
0.00109934
0.00110273
0.0011061
0.00110938
0.00111253
0.00111551
0.00111831
0.00112089
0.00112325
0.00112539
0.0011273
0.00112899
0.00113046
0.00113173
0.00113279
0.00113366
0.00113436
0.0011349
0.00113528
0.00113552
0.00113563
0.00111556
0.00111714
0.00111933
0.00112198
0.00112496
0.00112816
0.00113148
0.00113484
0.00113817
0.00114142
0.00114453
0.00114748
0.00115024
0.00115279
0.00115513
0.00115724
0.00115913
0.0011608
0.00116226
0.0011635
0.00116455
0.00116542
0.00116611
0.00116663
0.00116701
0.00116725
0.00116736
0.00114751
0.00114908
0.00115124
0.00115386
0.0011568
0.00115996
0.00116324
0.00116656
0.00116984
0.00117304
0.00117611
0.00117902
0.00118175
0.00118427
0.00118657
0.00118865
0.00119052
0.00119216
0.0011936
0.00119483
0.00119586
0.00119671
0.00119739
0.00119791
0.00119828
0.00119852
0.00119863
0.00117904
0.00118058
0.00118272
0.00118529
0.00118819
0.00119131
0.00119454
0.0011978
0.00120104
0.00120419
0.00120721
0.00121008
0.00121276
0.00121523
0.0012175
0.00121955
0.00122138
0.001223
0.00122441
0.00122562
0.00122664
0.00122748
0.00122814
0.00122865
0.00122902
0.00122925
0.00122936
0.00121008
0.00121159
0.00121369
0.00121622
0.00121907
0.00122213
0.0012253
0.00122851
0.00123169
0.00123478
0.00123775
0.00124056
0.00124319
0.00124562
0.00124784
0.00124985
0.00125165
0.00125324
0.00125462
0.0012558
0.0012568
0.00125762
0.00125827
0.00125877
0.00125913
0.00125936
0.00125947
0.00124054
0.00124203
0.00124408
0.00124656
0.00124936
0.00125235
0.00125545
0.00125859
0.0012617
0.00126473
0.00126763
0.00127038
0.00127295
0.00127533
0.0012775
0.00127946
0.00128122
0.00128277
0.00128412
0.00128528
0.00128625
0.00128705
0.00128769
0.00128818
0.00128853
0.00128875
0.00128885
0.00127035
0.0012718
0.0012738
0.00127622
0.00127895
0.00128187
0.0012849
0.00128796
0.00129099
0.00129394
0.00129676
0.00129944
0.00130194
0.00130426
0.00130637
0.00130828
0.00130999
0.0013115
0.00131281
0.00131393
0.00131488
0.00131566
0.00131628
0.00131675
0.00131709
0.00131731
0.00131741
0.00129939
0.0013008
0.00130274
0.0013051
0.00130774
0.00131058
0.00131352
0.00131649
0.00131943
0.00132229
0.00132503
0.00132763
0.00133005
0.00133229
0.00133434
0.00133619
0.00133784
0.0013393
0.00134057
0.00134166
0.00134257
0.00134333
0.00134393
0.00134438
0.00134471
0.00134492
0.00134502
0.00132755
0.00132891
0.0013308
0.00133307
0.00133563
0.00133837
0.0013412
0.00134407
0.00134691
0.00134967
0.00135231
0.00135481
0.00135715
0.0013593
0.00136128
0.00136306
0.00136465
0.00136605
0.00136727
0.00136832
0.0013692
0.00136992
0.0013705
0.00137094
0.00137125
0.00137145
0.00137155
0.00135472
0.00135603
0.00135784
0.00136002
0.00136247
0.0013651
0.00136783
0.00137058
0.0013733
0.00137594
0.00137847
0.00138086
0.0013831
0.00138516
0.00138705
0.00138875
0.00139027
0.00139161
0.00139278
0.00139377
0.00139461
0.0013953
0.00139585
0.00139627
0.00139657
0.00139676
0.00139686
0.00138075
0.001382
0.00138373
0.00138581
0.00138815
0.00139066
0.00139325
0.00139587
0.00139845
0.00140096
0.00140337
0.00140564
0.00140777
0.00140972
0.00141151
0.00141313
0.00141457
0.00141584
0.00141694
0.00141788
0.00141868
0.00141933
0.00141985
0.00142025
0.00142053
0.00142071
0.0014208
0.00140552
0.0014067
0.00140833
0.0014103
0.00141251
0.00141488
0.00141733
0.0014198
0.00142224
0.0014246
0.00142687
0.00142901
0.001431
0.00143284
0.00143452
0.00143604
0.00143739
0.00143858
0.00143962
0.0014405
0.00144125
0.00144186
0.00144235
0.00144272
0.00144299
0.00144315
0.00144323
0.00142887
0.00142998
0.00143151
0.00143335
0.00143542
0.00143763
0.00143992
0.00144223
0.0014445
0.00144671
0.00144882
0.00145081
0.00145267
0.00145438
0.00145594
0.00145735
0.0014586
0.00145971
0.00146067
0.00146149
0.00146218
0.00146275
0.0014632
0.00146354
0.00146379
0.00146394
0.00146402
0.00145067
0.0014517
0.00145311
0.00145482
0.00145673
0.00145878
0.00146089
0.00146301
0.00146511
0.00146714
0.00146909
0.00147092
0.00147262
0.00147419
0.00147563
0.00147692
0.00147807
0.00147908
0.00147996
0.00148071
0.00148134
0.00148186
0.00148227
0.00148258
0.00148281
0.00148295
0.00148302
0.00147078
0.00147172
0.00147301
0.00147457
0.00147632
0.00147818
0.0014801
0.00148204
0.00148394
0.00148579
0.00148755
0.00148921
0.00149075
0.00149217
0.00149347
0.00149463
0.00149567
0.00149658
0.00149737
0.00149805
0.00149862
0.00149908
0.00149945
0.00149974
0.00149994
0.00150007
0.00150013
0.00148909
0.00148993
0.00149109
0.00149249
0.00149406
0.00149573
0.00149745
0.00149918
0.00150089
0.00150254
0.00150411
0.00150559
0.00150696
0.00150822
0.00150937
0.00151041
0.00151132
0.00151213
0.00151283
0.00151343
0.00151393
0.00151434
0.00151467
0.00151492
0.0015151
0.00151521
0.00151527
0.00150549
0.00150624
0.00150726
0.0015085
0.00150988
0.00151135
0.00151286
0.00151438
0.00151588
0.00151732
0.00151869
0.00151999
0.00152118
0.00152229
0.00152328
0.00152418
0.00152498
0.00152568
0.00152629
0.00152681
0.00152724
0.0015276
0.00152788
0.0015281
0.00152825
0.00152835
0.00152839
0.00151993
0.00152057
0.00152146
0.00152253
0.00152372
0.00152498
0.00152629
0.00152759
0.00152887
0.00153011
0.00153128
0.00153239
0.00153341
0.00153434
0.00153519
0.00153596
0.00153663
0.00153723
0.00153774
0.00153818
0.00153854
0.00153884
0.00153908
0.00153926
0.00153939
0.00153947
0.00153951
0.00153238
0.00153292
0.00153367
0.00153457
0.00153557
0.00153663
0.00153772
0.00153882
0.00153989
0.00154092
0.0015419
0.00154281
0.00154366
0.00154443
0.00154514
0.00154577
0.00154632
0.00154681
0.00154723
0.00154759
0.0015479
0.00154814
0.00154834
0.00154848
0.00154859
0.00154866
0.00154869
0.00154286
0.0015433
0.00154392
0.00154465
0.00154547
0.00154634
0.00154723
0.00154811
0.00154898
0.00154982
0.0015506
0.00155134
0.00155202
0.00155265
0.00155321
0.00155371
0.00155416
0.00155454
0.00155488
0.00155517
0.00155541
0.0015556
0.00155575
0.00155587
0.00155596
0.00155601
0.00155603
0.00155145
0.00155181
0.00155229
0.00155287
0.00155352
0.0015542
0.0015549
0.00155559
0.00155627
0.00155692
0.00155754
0.00155811
0.00155864
0.00155912
0.00155955
0.00155994
0.00156028
0.00156058
0.00156084
0.00156105
0.00156124
0.00156139
0.0015615
0.00156159
0.00156166
0.0015617
0.00156172
0.00155828
0.00155855
0.00155892
0.00155936
0.00155985
0.00156037
0.00156089
0.00156142
0.00156192
0.00156241
0.00156287
0.00156329
0.00156368
0.00156404
0.00156436
0.00156465
0.0015649
0.00156512
0.0015653
0.00156546
0.0015656
0.0015657
0.00156579
0.00156586
0.0015659
0.00156593
0.00156594
0.00156353
0.00156372
0.00156399
0.00156431
0.00156466
0.00156503
0.00156541
0.00156578
0.00156614
0.00156649
0.00156681
0.00156711
0.00156739
0.00156764
0.00156786
0.00156806
0.00156824
0.00156839
0.00156852
0.00156863
0.00156872
0.0015688
0.00156886
0.0015689
0.00156893
0.00156895
0.00156896
0.00156739
0.00156752
0.00156771
0.00156792
0.00156816
0.00156841
0.00156867
0.00156892
0.00156916
0.00156939
0.00156961
0.00156981
0.00156999
0.00157015
0.0015703
0.00157043
0.00157054
0.00157064
0.00157073
0.0015708
0.00157086
0.00157091
0.00157095
0.00157098
0.001571
0.00157101
0.00157102
0.00157011
0.0015702
0.00157031
0.00157045
0.0015706
0.00157075
0.00157091
0.00157107
0.00157122
0.00157136
0.00157149
0.00157162
0.00157173
0.00157183
0.00157192
0.00157199
0.00157206
0.00157212
0.00157218
0.00157222
0.00157225
0.00157228
0.00157231
0.00157232
0.00157234
0.00157234
0.00157235
0.00157193
0.00157198
0.00157204
0.00157212
0.0015722
0.00157229
0.00157238
0.00157247
0.00157255
0.00157263
0.0015727
0.00157277
0.00157283
0.00157288
0.00157293
0.00157298
0.00157301
0.00157305
0.00157307
0.0015731
0.00157312
0.00157313
0.00157315
0.00157316
0.00157316
0.00157317
0.00157317
0.00157307
0.00157309
0.00157312
0.00157316
0.0015732
0.00157324
0.00157328
0.00157332
0.00157336
0.0015734
0.00157343
0.00157346
0.00157349
0.00157352
0.00157354
0.00157356
0.00157358
0.00157359
0.00157361
0.00157362
0.00157363
0.00157364
0.00157364
0.00157365
0.00157365
0.00157365
0.00157365
0.00157374
0.00157374
0.00157375