/*--------------------------------*- C++ -*----------------------------------*\
| =========                 |                                                 |
| \\      /  F ield         | OpenFOAM: The Open Source CFD Toolbox           |
|  \\    /   O peration     | Version:  2106                                  |
|   \\  /    A nd           | Website:  www.openfoam.com                      |
|    \\/     M anipulation  |                                                 |
\*---------------------------------------------------------------------------*/
FoamFile
{
    version     2.0;
    format      ascii;
    arch        "LSB;label=32;scalar=64";
    class       volScalarField;
    location    "110.00057";
    object      C4H612_0;
}
// * * * * * * * * * * * * * * * * * * * * * * * * * * * * * * * * * * * * * //

dimensions      [0 0 0 0 0 0 0];

internalField   nonuniform List<scalar> 
3360
(
1.60383e-25
1.70417e-25
1.84547e-25
2.02106e-25
2.2251e-25
2.45216e-25
2.69701e-25
2.95458e-25
3.21994e-25
3.48842e-25
3.75561e-25
4.01751e-25
4.2705e-25
4.51147e-25
4.73778e-25
4.94735e-25
5.13857e-25
5.31035e-25
5.46206e-25
5.59351e-25
5.70488e-25
5.79675e-25
5.86995e-25
5.9256e-25
5.96502e-25
5.98967e-25
6.00116e-25
8.10927e-25
8.67044e-25
9.47263e-25
1.04894e-24
1.17004e-24
1.30888e-24
1.46391e-24
1.63365e-24
1.81659e-24
2.01116e-24
2.21565e-24
2.42823e-24
2.64686e-24
2.86932e-24
3.09321e-24
3.31596e-24
3.53485e-24
3.747e-24
3.94946e-24
4.13921e-24
4.31327e-24
4.46877e-24
4.60301e-24
4.71359e-24
4.79847e-24
4.85602e-24
4.88511e-24
3.09893e-24
3.35377e-24
3.72258e-24
4.19753e-24
4.77363e-24
5.44694e-24
6.21352e-24
7.06862e-24
8.0061e-24
9.01799e-24
1.00942e-23
1.12226e-23
1.23897e-23
1.35799e-23
1.47768e-23
1.59625e-23
1.71189e-23
1.82277e-23
1.92715e-23
2.02339e-23
2.11002e-23
2.1858e-23
2.24976e-23
2.3012e-23
2.3397e-23
2.36514e-23
2.37766e-23
1.11944e-23
1.22456e-23
1.37861e-23
1.57979e-23
1.82744e-23
2.12111e-23
2.46005e-23
2.84273e-23
3.26664e-23
3.72805e-23
4.22198e-23
4.74222e-23
5.28145e-23
5.83143e-23
6.38322e-23
6.92746e-23
7.45483e-23
7.95639e-23
8.42394e-23
8.85033e-23
9.22968e-23
9.55752e-23
9.83077e-23
1.00478e-22
1.02083e-22
1.03132e-22
1.03643e-22
4.15969e-23
4.58878e-23
5.22164e-23
6.05437e-23
7.08735e-23
8.32125e-23
9.75445e-23
1.13811e-22
1.319e-22
1.51633e-22
1.72774e-22
1.95025e-22
2.18043e-22
2.41445e-22
2.64831e-22
2.87793e-22
3.09936e-22
3.30891e-22
3.5033e-22
3.67976e-22
3.83605e-22
3.97057e-22
4.08227e-22
4.17069e-22
4.23587e-22
4.27832e-22
4.29894e-22
1.58596e-22
1.75943e-22
2.01632e-22
2.35574e-22
2.77838e-22
3.28487e-22
3.87469e-22
4.54537e-22
5.29201e-22
6.107e-22
6.98004e-22
7.89837e-22
8.84718e-22
9.8103e-22
1.07708e-21
1.17117e-21
1.26169e-21
1.34714e-21
1.42622e-21
1.49782e-21
1.56109e-21
1.61543e-21
1.66045e-21
1.69601e-21
1.72219e-21
1.73921e-21
1.74746e-21
6.14935e-22
6.84742e-22
7.88334e-22
9.25518e-22
1.0967e-21
1.30221e-21
1.5418e-21
1.81441e-21
2.11792e-21
2.44912e-21
2.80366e-21
3.17622e-21
3.5607e-21
3.95047e-21
4.33864e-21
4.71839e-21
5.08323e-21
5.4272e-21
5.74513e-21
6.03271e-21
6.28659e-21
6.5044e-21
6.68475e-21
6.82713e-21
6.93185e-21
6.99991e-21
7.0329e-21
2.40723e-21
2.68612e-21
3.10059e-21
3.65024e-21
4.337e-21
5.16237e-21
6.12553e-21
7.22216e-21
8.44358e-21
9.77654e-21
1.12033e-20
1.27021e-20
1.42481e-20
1.58145e-20
1.73734e-20
1.88975e-20
2.03605e-20
2.17388e-20
2.30117e-20
2.41621e-20
2.5177e-20
2.6047e-20
2.67668e-20
2.73346e-20
2.77519e-20
2.8023e-20
2.81544e-20
9.4827e-21
1.05966e-20
1.22531e-20
1.44513e-20
1.71996e-20
2.0504e-20
2.43612e-20
2.87532e-20
3.36446e-20
3.89812e-20
4.4691e-20
5.06862e-20
5.68671e-20
6.31257e-20
6.9351e-20
7.54335e-20
8.12695e-20
8.67647e-20
9.18376e-20
9.64207e-20
1.00462e-19
1.03926e-19
1.06791e-19
1.09051e-19
1.10712e-19
1.1179e-19
1.12313e-19
3.74269e-20
4.18573e-20
4.84495e-20
5.72028e-20
6.81526e-20
8.13246e-20
9.67055e-20
1.14223e-19
1.33735e-19
1.55023e-19
1.77797e-19
2.01707e-19
2.26351e-19
2.51298e-19
2.76104e-19
3.00333e-19
3.2357e-19
3.45443e-19
3.65626e-19
3.83852e-19
3.99918e-19
4.13682e-19
4.25063e-19
4.34036e-19
4.40627e-19
4.44906e-19
4.46979e-19
1.48005e-19
1.65629e-19
1.91857e-19
2.2669e-19
2.7027e-19
3.227e-19
3.83922e-19
4.53643e-19
5.31285e-19
6.15973e-19
7.06547e-19
8.01599e-19
8.99533e-19
9.98631e-19
1.09713e-18
1.1933e-18
1.2855e-18
1.37225e-18
1.45228e-18
1.52453e-18
1.5882e-18
1.64273e-18
1.68781e-18
1.72335e-18
1.74945e-18
1.7664e-18
1.77461e-18
5.84938e-19
6.54852e-19
7.58917e-19
8.97147e-19
1.07011e-18
1.2782e-18
1.52119e-18
1.79788e-18
2.10597e-18
2.44196e-18
2.8012e-18
3.17811e-18
3.5663e-18
3.95898e-18
4.34912e-18
4.72988e-18
5.09478e-18
5.43798e-18
5.75443e-18
6.04001e-18
6.29157e-18
6.50694e-18
6.68492e-18
6.82518e-18
6.92815e-18
6.99498e-18
7.02734e-18
2.31059e-18
2.58776e-18
3.00027e-18
3.54813e-18
4.2335e-18
5.05785e-18
6.02009e-18
7.11536e-18
8.33433e-18
9.66297e-18
1.10828e-17
1.25716e-17
1.4104e-17
1.56533e-17
1.71916e-17
1.8692e-17
2.01292e-17
2.14801e-17
2.27251e-17
2.38481e-17
2.48368e-17
2.5683e-17
2.6382e-17
2.69327e-17
2.73369e-17
2.75991e-17
2.7726e-17
9.09977e-18
1.01944e-17
1.18234e-17
1.39866e-17
1.66922e-17
1.99454e-17
2.37412e-17
2.80595e-17
3.28627e-17
3.80944e-17
4.36812e-17
4.95345e-17
5.55549e-17
6.16358e-17
6.7669e-17
7.35486e-17
7.91755e-17
8.44606e-17
8.93274e-17
9.3714e-17
9.75735e-17
1.00874e-16
1.03599e-16
1.05744e-16
1.07318e-16
1.08339e-16
1.08833e-16
3.57129e-17
4.00216e-17
4.64319e-17
5.49408e-17
6.55774e-17
7.83582e-17
9.32584e-17
1.10194e-16
1.29011e-16
1.49484e-16
1.71319e-16
1.94167e-16
2.17637e-16
2.41312e-16
2.64772e-16
2.87605e-16
3.0943e-16
3.29906e-16
3.4874e-16
3.65699e-16
3.80605e-16
3.93342e-16
4.03848e-16
4.12114e-16
4.18173e-16
4.22101e-16
4.24e-16
1.3931e-16
1.56154e-16
1.81202e-16
2.1443e-16
2.55932e-16
3.0575e-16
3.63764e-16
4.29617e-16
5.02683e-16
5.82057e-16
6.66579e-16
7.54873e-16
8.45415e-16
9.36592e-16
1.02678e-15
1.11441e-15
1.19803e-15
1.27635e-15
1.34828e-15
1.41295e-15
1.46971e-15
1.51815e-15
1.55805e-15
1.58941e-15
1.61237e-15
1.62724e-15
1.63442e-15
5.39244e-16
6.04531e-16
7.01542e-16
8.30097e-16
9.90461e-16
1.18267e-15
1.40611e-15
1.65925e-15
1.93952e-15
2.2433e-15
2.56603e-15
2.90235e-15
3.24638e-15
3.59197e-15
3.93298e-15
4.26353e-15
4.57822e-15
4.87231e-15
5.14183e-15
5.38364e-15
5.5955e-15
5.77596e-15
5.92439e-15
6.04086e-15
6.12604e-15
6.18112e-15
6.20771e-15
2.0662e-15
2.31617e-15
2.68719e-15
3.17809e-15
3.78931e-15
4.52027e-15
5.36788e-15
6.32552e-15
7.38265e-15
8.5249e-15
9.73445e-15
1.09908e-14
1.22716e-14
1.35541e-14
1.48154e-14
1.60342e-14
1.71909e-14
1.82688e-14
1.9254e-14
2.01355e-14
2.0906e-14
2.15609e-14
2.20984e-14
2.25193e-14
2.28267e-14
2.30251e-14
2.31208e-14
7.81761e-15
8.75951e-15
1.01551e-14
1.19976e-14
1.42853e-14
1.70126e-14
2.0164e-14
2.37109e-14
2.76104e-14
3.1806e-14
3.62296e-14
4.08043e-14
4.54482e-14
5.00779e-14
5.46125e-14
5.89766e-14
6.31029e-14
6.69339e-14
7.04234e-14
7.35362e-14
7.62487e-14
7.85479e-14
8.04305e-14
8.19017e-14
8.29736e-14
8.36645e-14
8.3997e-14
2.91234e-14
3.25984e-14
3.7735e-14
4.44952e-14
5.28578e-14
6.27848e-14
7.42011e-14
8.69851e-14
1.00966e-13
1.15927e-13
1.31614e-13
1.47748e-13
1.64038e-13
1.80194e-13
1.95938e-13
2.11017e-13
2.2521e-13
2.38331e-13
2.50235e-13
2.60815e-13
2.70003e-13
2.77767e-13
2.84107e-13
2.89048e-13
2.92641e-13
2.94952e-13
2.96062e-13
1.06529e-13
1.19014e-13
1.37411e-13
1.61522e-13
1.912e-13
2.26233e-13
2.66278e-13
3.10835e-13
3.59241e-13
4.10696e-13
4.64292e-13
5.19056e-13
5.74e-13
6.2816e-13
6.80636e-13
7.30624e-13
7.77434e-13
8.20504e-13
8.59408e-13
8.93846e-13
9.23646e-13
9.48744e-13
9.69175e-13
9.85057e-13
9.96577e-13
1.00397e-12
1.00752e-12
3.81409e-13
4.24826e-13
4.88541e-13
5.71606e-13
6.73221e-13
7.92346e-13
9.27516e-13
1.07677e-12
1.23767e-12
1.40739e-12
1.58284e-12
1.76081e-12
1.93812e-12
2.11174e-12
2.27893e-12
2.43727e-12
2.58474e-12
2.71977e-12
2.84118e-12
2.94822e-12
3.04049e-12
3.11794e-12
3.1808e-12
3.22954e-12
3.2648e-12
3.28739e-12
3.2982e-12
1.33229e-12
1.47756e-12
1.68968e-12
1.96449e-12
2.29823e-12
2.68635e-12
3.12307e-12
3.6012e-12
4.11226e-12
4.64688e-12
5.19512e-12
5.747e-12
6.29289e-12
6.82384e-12
7.3319e-12
7.81029e-12
8.25352e-12
8.65737e-12
9.0189e-12
9.33637e-12
9.60908e-12
9.83725e-12
1.00219e-11
1.01647e-11
1.02678e-11
1.03337e-11
1.03652e-11
4.52371e-12
4.98868e-12
5.66396e-12
6.53269e-12
7.57926e-12
8.78601e-12
1.01319e-11
1.15923e-11
1.31399e-11
1.47453e-11
1.63786e-11
1.80105e-11
1.96135e-11
2.11627e-11
2.26363e-11
2.40165e-11
2.52889e-11
2.64432e-11
2.74724e-11
2.83729e-11
2.91439e-11
2.97872e-11
3.03064e-11
3.07071e-11
3.09958e-11
3.118e-11
3.12679e-11
1.48743e-11
1.62927e-11
1.83411e-11
2.09574e-11
2.40841e-11
2.76586e-11
3.16109e-11
3.58632e-11
4.03324e-11
4.49325e-11
4.95785e-11
5.41893e-11
5.86903e-11
6.30154e-11
6.71083e-11
7.09236e-11
7.44262e-11
7.75914e-11
8.0404e-11
8.28573e-11
8.49522e-11
8.66957e-11
8.81001e-11
8.91817e-11
8.99597e-11
9.04555e-11
9.06917e-11
4.71926e-11
5.13112e-11
5.72268e-11
6.47324e-11
7.36353e-11
8.37347e-11
9.48151e-11
1.06647e-10
1.18994e-10
1.31617e-10
1.44288e-10
1.56791e-10
1.68933e-10
1.80546e-10
1.91489e-10
2.01651e-10
2.10948e-10
2.19323e-10
2.26746e-10
2.33204e-10
2.38707e-10
2.43278e-10
2.46954e-10
2.49781e-10
2.51811e-10
2.53104e-10
2.53719e-10
1.44103e-10
1.55507e-10
1.7181e-10
1.92378e-10
2.16621e-10
2.43945e-10
2.73731e-10
3.05344e-10
3.38142e-10
3.71499e-10
4.04818e-10
4.37552e-10
4.69214e-10
4.99388e-10
5.2773e-10
5.53972e-10
5.7792e-10
5.99444e-10
6.18478e-10
6.3501e-10
6.49073e-10
6.60738e-10
6.70106e-10
6.77301e-10
6.82465e-10
6.85749e-10
6.87311e-10
4.2281e-10
4.53061e-10
4.96149e-10
5.5026e-10
6.13734e-10
6.84922e-10
7.62156e-10
8.43759e-10
9.28067e-10
1.01348e-09
1.0985e-09
1.18176e-09
1.26205e-09
1.33838e-09
1.4099e-09
1.47598e-09
1.53617e-09
1.59017e-09
1.63786e-09
1.67922e-09
1.71437e-09
1.74349e-09
1.76686e-09
1.78479e-09
1.79765e-09
1.80582e-09
1.80971e-09
1.19051e-09
1.26781e-09
1.37763e-09
1.51511e-09
1.67585e-09
1.85553e-09
2.04983e-09
2.25449e-09
2.46534e-09
2.6784e-09
2.88996e-09
3.09672e-09
3.29576e-09
3.48463e-09
3.66137e-09
3.82446e-09
3.97284e-09
4.10585e-09
4.2232e-09
4.32491e-09
4.41126e-09
4.48277e-09
4.54011e-09
4.5841e-09
4.61563e-09
4.63566e-09
4.64518e-09
3.20885e-09
3.39958e-09
3.67009e-09
4.00812e-09
4.40252e-09
4.84252e-09
5.31751e-09
5.81705e-09
6.33103e-09
6.84984e-09
7.36461e-09
7.86736e-09
8.3511e-09
8.80996e-09
9.23922e-09
9.63525e-09
9.99548e-09
1.03183e-08
1.06031e-08
1.08499e-08
1.10594e-08
1.12329e-08
1.13719e-08
1.14786e-08
1.1555e-08
1.16035e-08
1.16266e-08
8.22059e-09
8.67216e-09
9.31218e-09
1.01114e-08
1.10433e-08
1.20826e-08
1.32045e-08
1.43845e-08
1.55991e-08
1.6826e-08
1.80442e-08
1.92351e-08
2.03821e-08
2.14713e-08
2.24913e-08
2.34333e-08
2.4291e-08
2.50604e-08
2.57397e-08
2.63287e-08
2.68289e-08
2.72433e-08
2.75756e-08
2.78305e-08
2.80131e-08
2.81291e-08
2.81842e-08
1.97762e-08
2.07864e-08
2.22181e-08
2.40057e-08
2.60905e-08
2.84164e-08
3.09287e-08
3.35738e-08
3.62999e-08
3.90573e-08
4.17999e-08
4.44858e-08
4.70776e-08
4.95434e-08
5.18569e-08
5.39975e-08
5.59499e-08
5.77042e-08
5.9255e-08
6.06016e-08
6.17464e-08
6.26955e-08
6.3457e-08
6.40413e-08
6.44601e-08
6.4726e-08
6.48522e-08
4.40926e-08
4.61802e-08
4.91369e-08
5.28266e-08
5.71274e-08
6.1924e-08
6.7104e-08
7.25583e-08
7.81809e-08
8.3871e-08
8.95342e-08
9.50844e-08
1.00445e-07
1.05549e-07
1.10343e-07
1.14782e-07
1.18834e-07
1.22478e-07
1.25701e-07
1.28501e-07
1.30882e-07
1.32856e-07
1.3444e-07
1.35655e-07
1.36526e-07
1.37078e-07
1.3734e-07
9.0303e-08
9.42128e-08
9.9742e-08
1.06629e-07
1.14639e-07
1.23553e-07
1.33158e-07
1.43249e-07
1.5363e-07
1.64115e-07
1.7453e-07
1.84718e-07
1.94542e-07
2.0388e-07
2.12636e-07
2.20732e-07
2.28112e-07
2.34737e-07
2.4059e-07
2.45667e-07
2.4998e-07
2.53551e-07
2.56413e-07
2.58606e-07
2.60175e-07
2.61171e-07
2.61642e-07
1.69717e-07
1.76318e-07
1.85631e-07
1.97192e-07
2.10588e-07
2.25434e-07
2.41363e-07
2.58023e-07
2.75085e-07
2.92241e-07
3.09208e-07
3.25735e-07
3.41602e-07
3.56627e-07
3.70661e-07
3.8359e-07
3.95334e-07
4.05846e-07
4.15104e-07
4.23113e-07
4.299e-07
4.35508e-07
4.39994e-07
4.43425e-07
4.45878e-07
4.47431e-07
4.48166e-07
2.9447e-07
3.04585e-07
3.18809e-07
3.36393e-07
3.56672e-07
3.79026e-07
4.02874e-07
4.27674e-07
4.52923e-07
4.78162e-07
5.02981e-07
5.27021e-07
5.49979e-07
5.71608e-07
5.91713e-07
6.10153e-07
6.26835e-07
6.41709e-07
6.54766e-07
6.66028e-07
6.75546e-07
6.83393e-07
6.89658e-07
6.94443e-07
6.97859e-07
7.0002e-07
7.01042e-07
4.76083e-07
4.90317e-07
5.10262e-07
5.34811e-07
5.62975e-07
5.93845e-07
6.26583e-07
6.60419e-07
6.94656e-07
7.28671e-07
7.61923e-07
7.9395e-07
8.24373e-07
8.52889e-07
8.79274e-07
9.03371e-07
9.25088e-07
9.44385e-07
9.61274e-07
9.75803e-07
9.88056e-07
9.98138e-07
1.00618e-06
1.01231e-06
1.01668e-06
1.01945e-06
1.02075e-06
7.24005e-07
7.42628e-07
7.68637e-07
8.00516e-07
8.36911e-07
8.7659e-07
9.18434e-07
9.61437e-07
1.0047e-06
1.04745e-06
1.08902e-06
1.12886e-06
1.16652e-06
1.20167e-06
1.23407e-06
1.26356e-06
1.29005e-06
1.31353e-06
1.33403e-06
1.35163e-06
1.36644e-06
1.37862e-06
1.38832e-06
1.39571e-06
1.40099e-06
1.40432e-06
1.4059e-06
1.0442e-06
1.06712e-06
1.09904e-06
1.13801e-06
1.18232e-06
1.23041e-06
1.28088e-06
1.33249e-06
1.38418e-06
1.43501e-06
1.48422e-06
1.5312e-06
1.57545e-06
1.61661e-06
1.65443e-06
1.68876e-06
1.71953e-06
1.74675e-06
1.77047e-06
1.79081e-06
1.80792e-06
1.82197e-06
1.83316e-06
1.84168e-06
1.84776e-06
1.8516e-06
1.85342e-06
1.43817e-06
1.46499e-06
1.50224e-06
1.54759e-06
1.59897e-06
1.65453e-06
1.71261e-06
1.77178e-06
1.83082e-06
1.88868e-06
1.94451e-06
1.99764e-06
2.04754e-06
2.09385e-06
2.1363e-06
2.17477e-06
2.20919e-06
2.2396e-06
2.26607e-06
2.28876e-06
2.30783e-06
2.32348e-06
2.33594e-06
2.34544e-06
2.35221e-06
2.35649e-06
2.35852e-06
1.90289e-06
1.93299e-06
1.97473e-06
2.02543e-06
2.08271e-06
2.14448e-06
2.20887e-06
2.27428e-06
2.33936e-06
2.40297e-06
2.46421e-06
2.52235e-06
2.57686e-06
2.62736e-06
2.67358e-06
2.71541e-06
2.75281e-06
2.78581e-06
2.81454e-06
2.83914e-06
2.85982e-06
2.87679e-06
2.89029e-06
2.90059e-06
2.90794e-06
2.91258e-06
2.91478e-06
2.43159e-06
2.46427e-06
2.50954e-06
2.56443e-06
2.62634e-06
2.69294e-06
2.76224e-06
2.83249e-06
2.90225e-06
2.97032e-06
3.03573e-06
3.09775e-06
3.15582e-06
3.20955e-06
3.25869e-06
3.30313e-06
3.34283e-06
3.37786e-06
3.40833e-06
3.43443e-06
3.45636e-06
3.47437e-06
3.4887e-06
3.49963e-06
3.50743e-06
3.51237e-06
3.5147e-06
3.01504e-06
3.04962e-06
3.09748e-06
3.15544e-06
3.22072e-06
3.29086e-06
3.36373e-06
3.43751e-06
3.51067e-06
3.58197e-06
3.65043e-06
3.71527e-06
3.77593e-06
3.83202e-06
3.8833e-06
3.92964e-06
3.97104e-06
4.00756e-06
4.03933e-06
4.06654e-06
4.0894e-06
4.10818e-06
4.12313e-06
4.13454e-06
4.14268e-06
4.14784e-06
4.15028e-06
3.64295e-06
3.67882e-06
3.72842e-06
3.78846e-06
3.85602e-06
3.92854e-06
4.00382e-06
4.07997e-06
4.15542e-06
4.2289e-06
4.29941e-06
4.36615e-06
4.42857e-06
4.48626e-06
4.53899e-06
4.58664e-06
4.62921e-06
4.66675e-06
4.69942e-06
4.72739e-06
4.75091e-06
4.77023e-06
4.78562e-06
4.79736e-06
4.80575e-06
4.81106e-06
4.81358e-06
4.30507e-06
4.34172e-06
4.39238e-06
4.45366e-06
4.52259e-06
4.59654e-06
4.67326e-06
4.75082e-06
4.82765e-06
4.90244e-06
4.97417e-06
5.04206e-06
5.10554e-06
5.1642e-06
5.21782e-06
5.26627e-06
5.30954e-06
5.34772e-06
5.38095e-06
5.40941e-06
5.43334e-06
5.453e-06
5.46867e-06
5.48063e-06
5.48917e-06
5.49458e-06
5.49715e-06
4.99197e-06
5.02899e-06
5.08015e-06
5.14203e-06
5.2116e-06
5.28622e-06
5.36361e-06
5.44184e-06
5.51931e-06
5.59471e-06
5.66701e-06
5.73544e-06
5.79941e-06
5.85853e-06
5.91257e-06
5.96141e-06
6.00503e-06
6.04353e-06
6.07703e-06
6.10574e-06
6.12988e-06
6.14972e-06
6.16554e-06
6.17761e-06
6.18624e-06
6.19171e-06
6.19431e-06
5.69539e-06
5.73248e-06
5.78372e-06
5.84569e-06
5.91535e-06
5.99006e-06
6.06754e-06
6.14584e-06
6.22338e-06
6.29884e-06
6.3712e-06
6.43968e-06
6.50371e-06
6.56289e-06
6.61699e-06
6.66588e-06
6.70957e-06
6.74812e-06
6.78168e-06
6.81044e-06
6.83464e-06
6.85452e-06
6.87038e-06
6.88249e-06
6.89114e-06
6.89663e-06
6.89924e-06
6.40839e-06
6.44531e-06
6.49632e-06
6.55801e-06
6.62735e-06
6.70171e-06
6.77882e-06
6.85676e-06
6.93393e-06
7.00904e-06
7.08107e-06
7.14924e-06
7.21299e-06
7.27191e-06
7.32577e-06
7.37447e-06
7.41798e-06
7.45638e-06
7.48982e-06
7.51849e-06
7.5426e-06
7.56243e-06
7.57824e-06
7.59032e-06
7.59895e-06
7.60443e-06
7.60703e-06
7.1253e-06
7.16188e-06
7.21243e-06
7.27356e-06
7.34227e-06
7.41596e-06
7.49238e-06
7.56962e-06
7.6461e-06
7.72055e-06
7.79194e-06
7.85952e-06
7.92272e-06
7.98114e-06
8.03456e-06
8.08285e-06
8.12601e-06
8.16411e-06
8.19729e-06
8.22573e-06
8.24967e-06
8.26935e-06
8.28505e-06
8.29705e-06
8.30562e-06
8.31106e-06
8.31365e-06
7.84157e-06
7.8777e-06
7.92762e-06
7.98798e-06
8.05584e-06
8.12863e-06
8.20411e-06
8.2804e-06
8.35595e-06
8.4295e-06
8.50004e-06
8.56681e-06
8.62926e-06
8.687e-06
8.7398e-06
8.78753e-06
8.8302e-06
8.86788e-06
8.90069e-06
8.92882e-06
8.9525e-06
8.97197e-06
8.98751e-06
8.99938e-06
9.00787e-06
9.01325e-06
9.01581e-06
8.55362e-06
8.58921e-06
8.63838e-06
8.69784e-06
8.76469e-06
8.83639e-06
8.91075e-06
8.98592e-06
9.06036e-06
9.13284e-06
9.20235e-06
9.26816e-06
9.32971e-06
9.38663e-06
9.43868e-06
9.48574e-06
9.52782e-06
9.56497e-06
9.59733e-06
9.62508e-06
9.64844e-06
9.66765e-06
9.68298e-06
9.69469e-06
9.70307e-06
9.70838e-06
9.71091e-06
9.25869e-06
9.29366e-06
9.342e-06
9.40045e-06
9.46618e-06
9.53667e-06
9.60978e-06
9.68369e-06
9.75689e-06
9.82816e-06
9.89652e-06
9.96125e-06
1.00218e-05
1.00778e-05
1.0129e-05
1.01753e-05
1.02167e-05
1.02532e-05
1.02851e-05
1.03124e-05
1.03354e-05
1.03543e-05
1.03694e-05
1.03809e-05
1.03892e-05
1.03944e-05
1.03969e-05
9.95461e-06
9.98894e-06
1.00364e-05
1.00938e-05
1.01583e-05
1.02274e-05
1.02992e-05
1.03718e-05
1.04436e-05
1.05136e-05
1.05807e-05
1.06443e-05
1.07037e-05
1.07587e-05
1.0809e-05
1.08545e-05
1.08951e-05
1.0931e-05
1.09623e-05
1.09891e-05
1.10117e-05
1.10303e-05
1.10451e-05
1.10565e-05
1.10646e-05
1.10697e-05
1.10722e-05
1.06398e-05
1.06734e-05
1.07199e-05
1.07761e-05
1.08394e-05
1.09072e-05
1.09775e-05
1.10487e-05
1.11191e-05
1.11877e-05
1.12535e-05
1.13158e-05
1.13741e-05
1.1428e-05
1.14773e-05
1.15219e-05
1.15618e-05
1.1597e-05
1.16277e-05
1.1654e-05
1.16762e-05
1.16944e-05
1.17089e-05
1.17201e-05
1.1728e-05
1.17331e-05
1.17355e-05
1.13129e-05
1.13458e-05
1.13913e-05
1.14464e-05
1.15083e-05
1.15747e-05
1.16436e-05
1.17132e-05
1.17822e-05
1.18494e-05
1.19138e-05
1.19748e-05
1.20319e-05
1.20847e-05
1.2133e-05
1.21767e-05
1.22157e-05
1.22502e-05
1.22803e-05
1.2306e-05
1.23277e-05
1.23456e-05
1.23598e-05
1.23707e-05
1.23785e-05
1.23835e-05
1.23858e-05
1.1973e-05
1.20052e-05
1.20498e-05
1.21036e-05
1.21641e-05
1.22291e-05
1.22965e-05
1.23646e-05
1.2432e-05
1.24977e-05
1.25608e-05
1.26204e-05
1.26763e-05
1.27279e-05
1.27751e-05
1.28179e-05
1.28561e-05
1.28898e-05
1.29192e-05
1.29444e-05
1.29657e-05
1.29831e-05
1.29971e-05
1.30077e-05
1.30154e-05
1.30202e-05
1.30225e-05
1.26194e-05
1.26509e-05
1.26944e-05
1.2747e-05
1.28061e-05
1.28696e-05
1.29354e-05
1.3002e-05
1.30679e-05
1.31321e-05
1.31937e-05
1.3252e-05
1.33065e-05
1.3357e-05
1.34031e-05
1.34449e-05
1.34822e-05
1.35152e-05
1.35439e-05
1.35685e-05
1.35893e-05
1.36064e-05
1.362e-05
1.36304e-05
1.36378e-05
1.36426e-05
1.36448e-05
1.32514e-05
1.32822e-05
1.33246e-05
1.3376e-05
1.34337e-05
1.34957e-05
1.35599e-05
1.36249e-05
1.36892e-05
1.37518e-05
1.3812e-05
1.38689e-05
1.39221e-05
1.39713e-05
1.40164e-05
1.40571e-05
1.40936e-05
1.41257e-05
1.41538e-05
1.41778e-05
1.41981e-05
1.42147e-05
1.4228e-05
1.42382e-05
1.42455e-05
1.42501e-05
1.42523e-05
1.38686e-05
1.38986e-05
1.394e-05
1.39901e-05
1.40464e-05
1.41068e-05
1.41694e-05
1.42327e-05
1.42955e-05
1.43565e-05
1.44151e-05
1.44706e-05
1.45225e-05
1.45705e-05
1.46144e-05
1.46541e-05
1.46897e-05
1.4721e-05
1.47484e-05
1.47718e-05
1.47915e-05
1.48078e-05
1.48207e-05
1.48307e-05
1.48378e-05
1.48423e-05
1.48444e-05
1.44705e-05
1.44997e-05
1.454e-05
1.45888e-05
1.46436e-05
1.47025e-05
1.47635e-05
1.48251e-05
1.48862e-05
1.49457e-05
1.50028e-05
1.50568e-05
1.51073e-05
1.51541e-05
1.51968e-05
1.52355e-05
1.527e-05
1.53006e-05
1.53272e-05
1.535e-05
1.53692e-05
1.5385e-05
1.53977e-05
1.54073e-05
1.54142e-05
1.54186e-05
1.54207e-05
1.50567e-05
1.50851e-05
1.51243e-05
1.51718e-05
1.52251e-05
1.52823e-05
1.53416e-05
1.54016e-05
1.5461e-05
1.55189e-05
1.55743e-05
1.56269e-05
1.5676e-05
1.57215e-05
1.5763e-05
1.58006e-05
1.58342e-05
1.58639e-05
1.58898e-05
1.5912e-05
1.59306e-05
1.5946e-05
1.59583e-05
1.59677e-05
1.59744e-05
1.59786e-05
1.59807e-05
1.56267e-05
1.56543e-05
1.56924e-05
1.57385e-05
1.57903e-05
1.58458e-05
1.59035e-05
1.59617e-05
1.60194e-05
1.60755e-05
1.61294e-05
1.61804e-05
1.62281e-05
1.62722e-05
1.63126e-05
1.6349e-05
1.63817e-05
1.64105e-05
1.64356e-05
1.64571e-05
1.64753e-05
1.64902e-05
1.65021e-05
1.65112e-05
1.65177e-05
1.65218e-05
1.65238e-05
1.61801e-05
1.62068e-05
1.62438e-05
1.62884e-05
1.63387e-05
1.63925e-05
1.64484e-05
1.65049e-05
1.65608e-05
1.66152e-05
1.66674e-05
1.67168e-05
1.6763e-05
1.68058e-05
1.68449e-05
1.68802e-05
1.69118e-05
1.69397e-05
1.69641e-05
1.69849e-05
1.70025e-05
1.70169e-05
1.70285e-05
1.70373e-05
1.70436e-05
1.70476e-05
1.70495e-05
1.67162e-05
1.67421e-05
1.67779e-05
1.68211e-05
1.68697e-05
1.69218e-05
1.69759e-05
1.70305e-05
1.70846e-05
1.71372e-05
1.71877e-05
1.72355e-05
1.72802e-05
1.73215e-05
1.73593e-05
1.73934e-05
1.7424e-05
1.7451e-05
1.74745e-05
1.74946e-05
1.75116e-05
1.75256e-05
1.75367e-05
1.75453e-05
1.75514e-05
1.75552e-05
1.75571e-05
1.72346e-05
1.72595e-05
1.72941e-05
1.73358e-05
1.73828e-05
1.74331e-05
1.74852e-05
1.75379e-05
1.75901e-05
1.76409e-05
1.76896e-05
1.77357e-05
1.77788e-05
1.78186e-05
1.7855e-05
1.7888e-05
1.79174e-05
1.79434e-05
1.79661e-05
1.79855e-05
1.80019e-05
1.80153e-05
1.80261e-05
1.80343e-05
1.80402e-05
1.80439e-05
1.80457e-05
1.77343e-05
1.77584e-05
1.77917e-05
1.78319e-05
1.7877e-05
1.79254e-05
1.79756e-05
1.80263e-05
1.80765e-05
1.81254e-05
1.81722e-05
1.82165e-05
1.8258e-05
1.82963e-05
1.83313e-05
1.83629e-05
1.83912e-05
1.84162e-05
1.8438e-05
1.84567e-05
1.84724e-05
1.84853e-05
1.84956e-05
1.85035e-05
1.85092e-05
1.85128e-05
1.85145e-05
1.82147e-05
1.82378e-05
1.82697e-05
1.83083e-05
1.83516e-05
1.83981e-05
1.84462e-05
1.84948e-05
1.85429e-05
1.85898e-05
1.86346e-05
1.86771e-05
1.87168e-05
1.87535e-05
1.8787e-05
1.88173e-05
1.88444e-05
1.88683e-05
1.88892e-05
1.8907e-05
1.89221e-05
1.89344e-05
1.89443e-05
1.89519e-05
1.89573e-05
1.89607e-05
1.89623e-05
1.86748e-05
1.86969e-05
1.87274e-05
1.87642e-05
1.88056e-05
1.885e-05
1.88959e-05
1.89424e-05
1.89883e-05
1.9033e-05
1.90758e-05
1.91163e-05
1.91541e-05
1.91891e-05
1.92211e-05
1.925e-05
1.92758e-05
1.92986e-05
1.93184e-05
1.93355e-05
1.93498e-05
1.93616e-05
1.9371e-05
1.93782e-05
1.93833e-05
1.93866e-05
1.93882e-05
1.91134e-05
1.91344e-05
1.91634e-05
1.91985e-05
1.92378e-05
1.928e-05
1.93237e-05
1.93678e-05
1.94114e-05
1.94538e-05
1.94944e-05
1.95328e-05
1.95688e-05
1.96019e-05
1.96323e-05
1.96597e-05
1.96841e-05
1.97057e-05
1.97246e-05
1.97407e-05
1.97543e-05
1.97655e-05
1.97744e-05
1.97812e-05
1.97861e-05
1.97892e-05
1.97906e-05
1.95294e-05
1.95492e-05
1.95767e-05
1.96098e-05
1.9647e-05
1.96869e-05
1.97281e-05
1.97698e-05
1.98109e-05
1.9851e-05
1.98893e-05
1.99255e-05
1.99594e-05
1.99907e-05
2.00192e-05
2.00451e-05
2.00681e-05
2.00885e-05
2.01062e-05
2.01214e-05
2.01342e-05
2.01447e-05
2.01531e-05
2.01595e-05
2.01641e-05
2.0167e-05
2.01684e-05
1.99214e-05
1.99401e-05
1.99658e-05
1.99969e-05
2.00319e-05
2.00693e-05
2.0108e-05
2.0147e-05
2.01856e-05
2.02231e-05
2.0259e-05
2.0293e-05
2.03247e-05
2.03539e-05
2.03806e-05
2.04048e-05
2.04264e-05
2.04454e-05
2.04619e-05
2.04761e-05
2.04881e-05
2.04979e-05
2.05058e-05
2.05118e-05
2.05161e-05
2.05188e-05
2.05201e-05
2.02881e-05
2.03055e-05
2.03295e-05
2.03585e-05
2.0391e-05
2.04258e-05
2.04619e-05
2.04982e-05
2.05341e-05
2.05689e-05
2.06022e-05
2.06337e-05
2.06632e-05
2.06903e-05
2.07151e-05
2.07375e-05
2.07574e-05
2.07751e-05
2.07904e-05
2.08036e-05
2.08146e-05
2.08237e-05
2.0831e-05
2.08366e-05
2.08405e-05
2.08431e-05
2.08443e-05
2.06282e-05
2.06442e-05
2.06664e-05
2.06932e-05
2.07232e-05
2.07552e-05
2.07884e-05
2.08219e-05
2.08549e-05
2.08869e-05
2.09176e-05
2.09466e-05
2.09736e-05
2.09985e-05
2.10212e-05
2.10418e-05
2.10601e-05
2.10763e-05
2.10903e-05
2.11024e-05
2.11126e-05
2.11209e-05
2.11276e-05
2.11326e-05
2.11363e-05
2.11386e-05
2.11397e-05
2.09403e-05
2.09549e-05
2.09752e-05
2.09996e-05
2.1027e-05
2.10562e-05
2.10864e-05
2.11169e-05
2.11469e-05
2.11761e-05
2.1204e-05
2.12303e-05
2.12548e-05
2.12774e-05
2.1298e-05
2.13166e-05
2.13333e-05
2.13479e-05
2.13607e-05
2.13716e-05
2.13808e-05
2.13883e-05
2.13944e-05
2.1399e-05
2.14023e-05
2.14044e-05
2.14054e-05
2.12233e-05
2.12365e-05
2.12547e-05
2.12767e-05
2.13014e-05
2.13277e-05
2.13549e-05
2.13823e-05
2.14093e-05
2.14354e-05
2.14604e-05
2.1484e-05
2.15059e-05
2.15262e-05
2.15447e-05
2.15613e-05
2.15762e-05
2.15893e-05
2.16007e-05
2.16104e-05
2.16186e-05
2.16254e-05
2.16308e-05
2.16349e-05
2.16379e-05
2.16397e-05
2.16406e-05
2.14764e-05
2.14881e-05
2.15043e-05
2.15239e-05
2.15457e-05
2.15691e-05
2.15932e-05
2.16174e-05
2.16413e-05
2.16644e-05
2.16865e-05
2.17073e-05
2.17267e-05
2.17446e-05
2.17608e-05
2.17755e-05
2.17886e-05
2.18001e-05
2.18101e-05
2.18187e-05
2.1826e-05
2.18319e-05
2.18367e-05
2.18403e-05
2.18429e-05
2.18445e-05
2.18453e-05
2.16992e-05
2.17095e-05
2.17236e-05
2.17407e-05
2.17598e-05
2.17802e-05
2.18012e-05
2.18223e-05
2.18431e-05
2.18632e-05
2.18824e-05
2.19004e-05
2.19173e-05
2.19328e-05
2.19469e-05
2.19596e-05
2.19709e-05
2.19809e-05
2.19896e-05
2.1997e-05
2.20033e-05
2.20084e-05
2.20125e-05
2.20157e-05
2.20179e-05
2.20194e-05
2.20201e-05
2.18919e-05
2.19007e-05
2.19129e-05
2.19276e-05
2.1944e-05
2.19614e-05
2.19794e-05
2.19975e-05
2.20153e-05
2.20325e-05
2.20489e-05
2.20643e-05
2.20787e-05
2.20919e-05
2.21039e-05
2.21147e-05
2.21244e-05
2.21329e-05
2.21403e-05
2.21467e-05
2.2152e-05
2.21564e-05
2.21599e-05
2.21626e-05
2.21645e-05
2.21658e-05
2.21664e-05
2.20554e-05
2.20629e-05
2.20732e-05
2.20856e-05
2.20994e-05
2.21141e-05
2.21293e-05
2.21445e-05
2.21594e-05
2.21739e-05
2.21877e-05
2.22006e-05
2.22127e-05
2.22238e-05
2.22339e-05
2.2243e-05
2.22511e-05
2.22582e-05
2.22644e-05
2.22698e-05
2.22742e-05
2.22779e-05
2.22808e-05
2.22831e-05
2.22847e-05
2.22857e-05
2.22862e-05
2.21915e-05
2.21977e-05
2.22063e-05
2.22165e-05
2.2228e-05
2.22402e-05
2.22528e-05
2.22654e-05
2.22778e-05
2.22897e-05
2.23011e-05
2.23118e-05
2.23217e-05
2.23308e-05
2.23392e-05
2.23466e-05
2.23533e-05
2.23592e-05
2.23643e-05
2.23687e-05
2.23724e-05
2.23754e-05
2.23778e-05
2.23797e-05
2.2381e-05
2.23819e-05
2.23823e-05
2.23028e-05
2.23078e-05
2.23148e-05
2.23231e-05
2.23325e-05
2.23424e-05
2.23527e-05
2.23629e-05
2.2373e-05
2.23827e-05
2.23919e-05
2.24006e-05
2.24087e-05
2.24162e-05
2.24229e-05
2.2429e-05
2.24345e-05
2.24393e-05
2.24434e-05
2.2447e-05
2.245e-05
2.24525e-05
2.24545e-05
2.2456e-05
2.24571e-05
2.24578e-05
2.24581e-05
2.23918e-05
2.23959e-05
2.24015e-05
2.24083e-05
2.24158e-05
2.24239e-05
2.24321e-05
2.24404e-05
2.24486e-05
2.24564e-05
2.24639e-05
2.2471e-05
2.24775e-05
2.24836e-05
2.24891e-05
2.2494e-05
2.24984e-05
2.25023e-05
2.25057e-05
2.25086e-05
2.25111e-05
2.25131e-05
2.25147e-05
2.2516e-05
2.25169e-05
2.25174e-05
2.25177e-05
2.24624e-05
2.24657e-05
2.24703e-05
2.24758e-05
2.24819e-05
2.24884e-05
2.24951e-05
2.25018e-05
2.25084e-05
2.25148e-05
2.25209e-05
2.25267e-05
2.2532e-05
2.2537e-05
2.25415e-05
2.25455e-05
2.25492e-05
2.25524e-05
2.25551e-05
2.25575e-05
2.25596e-05
2.25612e-05
2.25626e-05
2.25636e-05
2.25643e-05
2.25648e-05
2.2565e-05
2.25185e-05
2.25212e-05
2.25249e-05
2.25294e-05
2.25344e-05
2.25398e-05
2.25453e-05
2.25509e-05
2.25564e-05
2.25617e-05
2.25668e-05
2.25716e-05
2.2576e-05
2.25802e-05
2.25839e-05
2.25873e-05
2.25904e-05
2.25931e-05
2.25954e-05
2.25974e-05
2.25991e-05
2.26006e-05
2.26017e-05
2.26026e-05
2.26032e-05
2.26036e-05
2.26038e-05
2.25637e-05
2.2566e-05
2.25692e-05
2.2573e-05
2.25772e-05
2.25818e-05
2.25865e-05
2.25912e-05
2.25959e-05
2.26005e-05
2.26048e-05
2.2609e-05
2.26128e-05
2.26164e-05
2.26196e-05
2.26226e-05
2.26252e-05
2.26276e-05
2.26296e-05
2.26313e-05
2.26328e-05
2.26341e-05
2.2635e-05
2.26358e-05
2.26363e-05
2.26367e-05
2.26368e-05
2.26015e-05
2.26035e-05
2.26063e-05
2.26096e-05
2.26134e-05
2.26174e-05
2.26215e-05
2.26257e-05
2.26299e-05
2.26339e-05
2.26378e-05
2.26415e-05
2.26449e-05
2.26481e-05
2.2651e-05
2.26536e-05
2.2656e-05
2.26581e-05
2.26599e-05
2.26615e-05
2.26628e-05
2.26639e-05
2.26648e-05
2.26654e-05
2.26659e-05
2.26662e-05
2.26664e-05
2.26344e-05
2.26363e-05
2.26388e-05
2.26418e-05
2.26452e-05
2.26489e-05
2.26527e-05
2.26565e-05
2.26603e-05
2.2664e-05
2.26675e-05
2.26709e-05
2.2674e-05
2.26769e-05
2.26796e-05
2.2682e-05
2.26841e-05
2.2686e-05
2.26877e-05
2.26891e-05
2.26903e-05
2.26913e-05
2.26921e-05
2.26927e-05
2.26932e-05
2.26935e-05
2.26936e-05
2.26643e-05
2.26659e-05
2.26683e-05
2.26711e-05
2.26743e-05
2.26777e-05
2.26812e-05
2.26847e-05
2.26883e-05
2.26917e-05
2.2695e-05
2.26981e-05
2.2701e-05
2.27036e-05
2.27061e-05
2.27083e-05
2.27103e-05
2.27121e-05
2.27136e-05
2.27149e-05
2.2716e-05
2.2717e-05
2.27177e-05
2.27182e-05
2.27186e-05
2.27189e-05
2.2719e-05
2.2692e-05
2.26935e-05
2.26957e-05
2.26984e-05
2.27013e-05
2.27045e-05
2.27078e-05
2.27111e-05
2.27143e-05
2.27175e-05
2.27206e-05
2.27234e-05
2.27261e-05
2.27286e-05
2.27309e-05
2.27329e-05
2.27347e-05
2.27364e-05
2.27378e-05
2.2739e-05
2.274e-05
2.27408e-05
2.27415e-05
2.2742e-05
2.27424e-05
2.27426e-05
2.27427e-05
2.27179e-05
2.27194e-05
2.27214e-05
2.27238e-05
2.27266e-05
2.27295e-05
2.27325e-05
2.27356e-05
2.27386e-05
2.27415e-05
2.27443e-05
2.2747e-05
2.27494e-05
2.27517e-05
2.27538e-05
2.27556e-05
2.27573e-05
2.27588e-05
2.27601e-05
2.27612e-05
2.27621e-05
2.27628e-05
2.27635e-05
2.27639e-05
2.27643e-05
2.27645e-05
2.27646e-05
2.2742e-05
2.27434e-05
2.27452e-05
2.27475e-05
2.275e-05
2.27526e-05
2.27554e-05
2.27582e-05
2.27609e-05
2.27636e-05
2.27661e-05
2.27685e-05
2.27707e-05
2.27727e-05
2.27746e-05
2.27763e-05