/*--------------------------------*- C++ -*----------------------------------*\
| =========                 |                                                 |
| \\      /  F ield         | OpenFOAM: The Open Source CFD Toolbox           |
|  \\    /   O peration     | Version:  2106                                  |
|   \\  /    A nd           | Website:  www.openfoam.com                      |
|    \\/     M anipulation  |                                                 |
\*---------------------------------------------------------------------------*/
FoamFile
{
    version     2.0;
    format      ascii;
    arch        "LSB;label=32;scalar=64";
    class       volScalarField;
    location    "110.00057";
    object      C6H6_0;
}
// * * * * * * * * * * * * * * * * * * * * * * * * * * * * * * * * * * * * * //

dimensions      [0 0 0 0 0 0 0];

internalField   nonuniform List<scalar> 
3360
(
2.89697e-24
3.07822e-24
3.33345e-24
3.6506e-24
4.01916e-24
4.4293e-24
4.87158e-24
5.33681e-24
5.81613e-24
6.30107e-24
6.78371e-24
7.25677e-24
7.71374e-24
8.14899e-24
8.55779e-24
8.93633e-24
9.28173e-24
9.59201e-24
9.86604e-24
1.01035e-23
1.03046e-23
1.04706e-23
1.06028e-23
1.07033e-23
1.07745e-23
1.0819e-23
1.08398e-23
1.46477e-23
1.56613e-23
1.71103e-23
1.89468e-23
2.11343e-23
2.36421e-23
2.64424e-23
2.95084e-23
3.28128e-23
3.63272e-23
4.0021e-23
4.38608e-23
4.78099e-23
5.18281e-23
5.58722e-23
5.98957e-23
6.38495e-23
6.76816e-23
7.13385e-23
7.4766e-23
7.791e-23
8.07187e-23
8.31435e-23
8.51409e-23
8.6674e-23
8.77135e-23
8.8239e-23
5.59755e-23
6.05786e-23
6.72404e-23
7.58193e-23
8.62253e-23
9.83873e-23
1.12234e-22
1.27679e-22
1.44613e-22
1.62891e-22
1.8233e-22
2.02713e-22
2.23793e-22
2.45292e-22
2.6691e-22
2.88328e-22
3.09216e-22
3.29245e-22
3.48099e-22
3.65481e-22
3.81129e-22
3.94818e-22
4.06372e-22
4.15662e-22
4.22616e-22
4.27211e-22
4.29474e-22
2.02203e-22
2.2119e-22
2.49015e-22
2.85355e-22
3.30087e-22
3.83133e-22
4.44354e-22
5.13479e-22
5.90049e-22
6.73393e-22
7.6261e-22
8.56579e-22
9.5398e-22
1.05332e-21
1.15299e-21
1.2513e-21
1.34656e-21
1.43715e-21
1.5216e-21
1.59862e-21
1.66714e-21
1.72636e-21
1.77572e-21
1.81492e-21
1.84392e-21
1.86286e-21
1.87208e-21
7.51358e-22
8.28865e-22
9.43177e-22
1.09359e-21
1.28018e-21
1.50305e-21
1.76193e-21
2.05576e-21
2.38248e-21
2.73893e-21
3.12079e-21
3.52271e-21
3.93847e-21
4.36119e-21
4.78361e-21
5.19836e-21
5.59832e-21
5.97683e-21
6.32796e-21
6.64669e-21
6.92901e-21
7.17198e-21
7.37375e-21
7.53345e-21
7.65119e-21
7.72787e-21
7.76512e-21
2.86469e-21
3.17803e-21
3.64205e-21
4.25513e-21
5.01855e-21
5.93342e-21
6.99879e-21
8.21023e-21
9.55888e-21
1.1031e-20
1.2608e-20
1.42667e-20
1.59805e-20
1.77202e-20
1.94551e-20
2.11547e-20
2.27897e-20
2.43332e-20
2.57615e-20
2.70549e-20
2.81978e-20
2.91792e-20
2.99924e-20
3.06349e-20
3.11076e-20
3.14151e-20
3.15642e-20
1.11075e-20
1.23684e-20
1.42396e-20
1.67175e-20
1.98096e-20
2.35216e-20
2.78493e-20
3.27733e-20
3.82557e-20
4.42381e-20
5.0642e-20
5.73716e-20
6.43164e-20
7.13567e-20
7.83682e-20
8.52276e-20
9.18176e-20
9.80308e-20
1.03773e-19
1.08968e-19
1.13554e-19
1.17488e-19
1.20746e-19
1.23317e-19
1.25209e-19
1.26438e-19
1.27034e-19
4.34814e-20
4.8519e-20
5.60056e-20
6.59338e-20
7.83387e-20
9.32471e-20
1.10645e-19
1.30453e-19
1.52515e-19
1.76592e-19
2.02363e-19
2.29436e-19
2.57362e-19
2.85655e-19
3.13814e-19
3.41342e-19
3.67769e-19
3.92665e-19
4.15657e-19
4.36437e-19
4.54768e-19
4.70482e-19
4.83484e-19
4.93741e-19
5.01279e-19
5.06176e-19
5.08549e-19
1.71285e-19
1.91405e-19
2.21326e-19
2.61031e-19
3.10673e-19
3.70361e-19
4.40033e-19
5.19365e-19
6.07717e-19
7.04111e-19
8.07246e-19
9.15538e-19
1.02718e-18
1.14023e-18
1.25268e-18
1.36254e-18
1.46796e-18
1.56722e-18
1.65885e-18
1.74163e-18
1.81463e-18
1.8772e-18
1.92895e-18
1.96977e-18
1.99977e-18
2.01925e-18
2.02869e-18
6.76036e-19
7.56061e-19
8.75136e-19
1.03325e-18
1.23103e-18
1.46895e-18
1.74678e-18
2.0632e-18
2.41563e-18
2.80015e-18
3.21153e-18
3.6434e-18
4.08854e-18
4.53915e-18
4.98723e-18
5.42486e-18
5.8446e-18
6.23968e-18
6.60424e-18
6.93347e-18
7.22367e-18
7.47228e-18
7.67784e-18
7.83992e-18
7.95898e-18
8.03628e-18
8.07372e-18
2.67339e-18
2.99173e-18
3.46548e-18
4.09467e-18
4.88186e-18
5.82889e-18
6.93473e-18
8.19408e-18
9.59652e-18
1.11262e-17
1.27622e-17
1.44792e-17
1.62481e-17
1.80381e-17
1.98173e-17
2.15544e-17
2.32198e-17
2.47868e-17
2.62323e-17
2.75373e-17
2.86874e-17
2.96724e-17
3.04867e-17
3.11286e-17
3.16001e-17
3.19062e-17
3.20545e-17
1.05656e-17
1.18285e-17
1.37082e-17
1.6205e-17
1.93292e-17
2.3088e-17
2.7477e-17
3.24749e-17
3.80399e-17
4.41087e-17
5.05977e-17
5.74056e-17
6.44176e-17
7.15104e-17
7.85576e-17
8.54352e-17
9.20263e-17
9.82254e-17
1.03941e-16
1.091e-16
1.13644e-16
1.17534e-16
1.20749e-16
1.23282e-16
1.25142e-16
1.26349e-16
1.26934e-16
4.17359e-17
4.67423e-17
5.41935e-17
6.40894e-17
7.64691e-17
9.13592e-17
1.0874e-16
1.28524e-16
1.50542e-16
1.74541e-16
2.00187e-16
2.27078e-16
2.54759e-16
2.82742e-16
3.10529e-16
3.37631e-16
3.6359e-16
3.87991e-16
4.10479e-16
4.30764e-16
4.48624e-16
4.63909e-16
4.76535e-16
4.86481e-16
4.93782e-16
4.98519e-16
5.00811e-16
1.64368e-16
1.84139e-16
2.13564e-16
2.52638e-16
3.01509e-16
3.60271e-16
4.28834e-16
5.06835e-16
5.93594e-16
6.88094e-16
7.89007e-16
8.94735e-16
1.00348e-15
1.11332e-15
1.2223e-15
1.3285e-15
1.43014e-15
1.5256e-15
1.61351e-15
1.69274e-15
1.76246e-15
1.82208e-15
1.8713e-15
1.91005e-15
1.93847e-15
1.95691e-15
1.96583e-15
6.45076e-16
7.22903e-16
8.38692e-16
9.92387e-16
1.18451e-15
1.41537e-15
1.68451e-15
1.99042e-15
2.33031e-15
2.7001e-15
3.09451e-15
3.50722e-15
3.93114e-15
4.35879e-15
4.78253e-15
5.19496e-15
5.58919e-15
5.95904e-15
6.29924e-15
6.60556e-15
6.87481e-15
7.10488e-15
7.29465e-15
7.44395e-15
7.55341e-15
7.62434e-15
7.65864e-15
2.51633e-15
2.82058e-15
3.27303e-15
3.87321e-15
4.62285e-15
5.52271e-15
6.57061e-15
7.76011e-15
9.07989e-15
1.05136e-14
1.20403e-14
1.36352e-14
1.52706e-14
1.69175e-14
1.85466e-14
2.01294e-14
2.16399e-14
2.30546e-14
2.43539e-14
2.55219e-14
2.65472e-14
2.74221e-14
2.81429e-14
2.87092e-14
2.9124e-14
2.93926e-14
2.95223e-14
9.74024e-15
1.09195e-14
1.26718e-14
1.49939e-14
1.78905e-14
2.13623e-14
2.53982e-14
2.99707e-14
3.50332e-14
4.05204e-14
4.63498e-14
5.24247e-14
5.86389e-14
6.48813e-14
7.10409e-14
7.70115e-14
8.26957e-14
8.80078e-14
9.2876e-14
9.7244e-14
1.01071e-13
1.0433e-13
1.07011e-13
1.09115e-13
1.10654e-13
1.11649e-13
1.12129e-13
3.7321e-14
4.18362e-14
4.85378e-14
5.74049e-14
6.84452e-14
8.16486e-14
9.69588e-14
1.14256e-13
1.33351e-13
1.53984e-13
1.75832e-13
1.98525e-13
2.21661e-13
2.44825e-13
2.67608e-13
2.89623e-13
3.10517e-13
3.29987e-13
3.47781e-13
3.63705e-13
3.77622e-13
3.89451e-13
3.9916e-13
4.06763e-13
4.12315e-13
4.159e-13
4.17628e-13
1.41204e-13
1.58218e-13
1.83426e-13
2.16706e-13
2.58029e-13
3.07293e-13
3.64216e-13
4.28283e-13
4.98719e-13
5.74504e-13
6.54408e-13
7.37041e-13
8.20922e-13
9.04548e-13
9.86456e-13
1.06528e-12
1.13982e-12
1.20902e-12
1.27205e-12
1.32827e-12
1.37727e-12
1.4188e-12
1.45281e-12
1.47938e-12
1.49874e-12
1.51122e-12
1.51723e-12
5.26017e-13
5.88784e-13
6.81565e-13
8.03673e-13
9.54727e-13
1.13404e-12
1.34025e-12
1.57117e-12
1.8237e-12
2.09394e-12
2.3773e-12
2.66873e-12
2.96298e-12
3.2548e-12
3.53918e-12
3.81157e-12
4.06793e-12
4.30495e-12
4.51996e-12
4.71107e-12
4.87704e-12
5.01728e-12
5.1318e-12
5.22105e-12
5.28594e-12
5.32769e-12
5.34774e-12
1.9239e-12
2.14942e-12
2.48171e-12
2.91722e-12
3.4533e-12
4.0861e-12
4.80944e-12
5.61428e-12
6.48866e-12
7.41811e-12
8.38622e-12
9.37546e-12
1.03679e-11
1.13463e-11
1.22942e-11
1.31971e-11
1.40427e-11
1.48207e-11
1.55234e-11
1.61455e-11
1.66838e-11
1.71371e-11
1.75062e-11
1.77931e-11
1.80012e-11
1.81347e-11
1.81988e-11
6.88659e-12
7.6708e-12
8.82165e-12
1.0322e-11
1.21575e-11
1.43093e-11
1.67509e-11
1.9447e-11
2.23534e-11
2.54193e-11
2.85886e-11
3.18036e-11
3.50066e-11
3.81432e-11
4.11633e-11
4.40237e-11
4.66878e-11
4.9127e-11
5.13203e-11
5.32539e-11
5.49207e-11
5.63199e-11
5.74555e-11
5.83359e-11
5.89729e-11
5.9381e-11
5.95763e-11
2.40421e-11
2.66657e-11
3.0497e-11
3.54607e-11
4.14888e-11
4.84998e-11
5.6389e-11
6.50263e-11
7.42591e-11
8.39177e-11
9.38227e-11
1.03794e-10
1.13657e-10
1.2325e-10
1.32429e-10
1.41073e-10
1.49082e-10
1.56379e-10
1.62911e-10
1.68647e-10
1.73575e-10
1.77697e-10
1.81034e-10
1.83614e-10
1.85477e-10
1.86668e-10
1.87237e-10
8.15276e-11
8.99235e-11
1.02118e-10
1.17807e-10
1.36711e-10
1.5851e-10
1.82826e-10
2.09214e-10
2.37179e-10
2.66192e-10
2.95711e-10
3.25208e-10
3.54184e-10
3.82189e-10
4.08829e-10
4.3378e-10
4.56785e-10
4.77653e-10
4.96261e-10
5.12541e-10
5.26481e-10
5.38112e-10
5.475e-10
5.54744e-10
5.59964e-10
5.63295e-10
5.64884e-10
2.67283e-10
2.9288e-10
3.29851e-10
3.77087e-10
4.33552e-10
4.98125e-10
5.69545e-10
6.4641e-10
7.27217e-10
8.10416e-10
8.94466e-10
9.77899e-10
1.05936e-09
1.13765e-09
1.21176e-09
1.28084e-09
1.34428e-09
1.4016e-09
1.45255e-09
1.49699e-09
1.53494e-09
1.56653e-09
1.59197e-09
1.61157e-09
1.62566e-09
1.63465e-09
1.63893e-09
8.42658e-10
9.16842e-10
1.02345e-09
1.15879e-09
1.31944e-09
1.50183e-09
1.70208e-09
1.9161e-09
2.1396e-09
2.36828e-09
2.598e-09
2.82485e-09
3.0453e-09
3.25627e-09
3.45521e-09
3.64004e-09
3.80924e-09
3.96175e-09
4.09696e-09
4.21466e-09
4.31498e-09
4.39835e-09
4.4654e-09
4.51698e-09
4.55404e-09
4.57764e-09
4.58887e-09
2.53977e-09
2.74411e-09
3.03654e-09
3.40596e-09
3.84208e-09
4.33447e-09
4.87226e-09
5.44415e-09
6.03869e-09
6.64461e-09
7.25112e-09
7.84822e-09
8.427e-09
8.97971e-09
9.49995e-09
9.98263e-09
1.0424e-08
1.08214e-08
1.11736e-08
1.14799e-08
1.1741e-08
1.19579e-08
1.21324e-08
1.22665e-08
1.2363e-08
1.24243e-08
1.24536e-08
7.26892e-09
7.80358e-09
8.56661e-09
9.52734e-09
1.06578e-08
1.19302e-08
1.3316e-08
1.47864e-08
1.63125e-08
1.78659e-08
1.94199e-08
2.09496e-08
2.24328e-08
2.38502e-08
2.51858e-08
2.64265e-08
2.75628e-08
2.85879e-08
2.94978e-08
3.0291e-08
3.09683e-08
3.15321e-08
3.19866e-08
3.23368e-08
3.25889e-08
3.27497e-08
3.28265e-08
1.95981e-08
2.0922e-08
2.28087e-08
2.51807e-08
2.79683e-08
3.11032e-08
3.45168e-08
3.81397e-08
4.19031e-08
4.57398e-08
4.95855e-08
5.33807e-08
5.70712e-08
6.06095e-08
6.39551e-08
6.70749e-08
6.99429e-08
7.25404e-08
7.48551e-08
7.68809e-08
7.86173e-08
8.00683e-08
8.1242e-08
8.21497e-08
8.28054e-08
8.3225e-08
8.34258e-08
4.93697e-08
5.24438e-08
5.68222e-08
6.23245e-08
6.87898e-08
7.60627e-08
8.39885e-08
9.24118e-08
1.01178e-07
1.10136e-07
1.19139e-07
1.28052e-07
1.36747e-07
1.45112e-07
1.5305e-07
1.60479e-07
1.67333e-07
1.73562e-07
1.79134e-07
1.84026e-07
1.88233e-07
1.9176e-07
1.94621e-07
1.96841e-07
1.98448e-07
1.9948e-07
1.99975e-07
1.15383e-07
1.21989e-07
1.3139e-07
1.43194e-07
1.57054e-07
1.72639e-07
1.89619e-07
2.07666e-07
2.26453e-07
2.45661e-07
2.64978e-07
2.84114e-07
3.02799e-07
3.20791e-07
3.37878e-07
3.53882e-07
3.6866e-07
3.82101e-07
3.94129e-07
4.04699e-07
4.13794e-07
4.21423e-07
4.27616e-07
4.32422e-07
4.35905e-07
4.38141e-07
4.39214e-07
2.49101e-07
2.62061e-07
2.80472e-07
3.03536e-07
3.30549e-07
3.60839e-07
3.93748e-07
4.28623e-07
4.64824e-07
5.01727e-07
5.38733e-07
5.75285e-07
6.10871e-07
6.4504e-07
6.77398e-07
7.07622e-07
7.35453e-07
7.60702e-07
7.8324e-07
8.02999e-07
8.19962e-07
8.3416e-07
8.45663e-07
8.54574e-07
8.61021e-07
8.65154e-07
8.67134e-07
4.96296e-07
5.19328e-07
5.51944e-07
5.9264e-07
6.40078e-07
6.92995e-07
7.50169e-07
8.1041e-07
8.72573e-07
9.35561e-07
9.98349e-07
1.06e-06
1.11967e-06
1.17664e-06
1.23029e-06
1.28014e-06
1.32581e-06
1.36704e-06
1.40368e-06
1.43566e-06
1.463e-06
1.48581e-06
1.50422e-06
1.51843e-06
1.52869e-06
1.53525e-06
1.53838e-06
9.14542e-07
9.51621e-07
1.00392e-06
1.06883e-06
1.14404e-06
1.22737e-06
1.31676e-06
1.41026e-06
1.50601e-06
1.6023e-06
1.69758e-06
1.79045e-06
1.8797e-06
1.96432e-06
2.0435e-06
2.11661e-06
2.1832e-06
2.24299e-06
2.29585e-06
2.34177e-06
2.38086e-06
2.41332e-06
2.43944e-06
2.45953e-06
2.47399e-06
2.48321e-06
2.4876e-06
1.56632e-06
1.62082e-06
1.69736e-06
1.79185e-06
1.90063e-06
2.02032e-06
2.14778e-06
2.28009e-06
2.41457e-06
2.54879e-06
2.68061e-06
2.80819e-06
2.92998e-06
3.0447e-06
3.15139e-06
3.24934e-06
3.33807e-06
3.41735e-06
3.48712e-06
3.54748e-06
3.59866e-06
3.64103e-06
3.675e-06
3.70107e-06
3.71978e-06
3.73167e-06
3.73734e-06
2.51024e-06
2.58432e-06
2.68796e-06
2.81527e-06
2.961e-06
3.12036e-06
3.28895e-06
3.4628e-06
3.63834e-06
3.81241e-06
3.98231e-06
4.14577e-06
4.30092e-06
4.44631e-06
4.58086e-06
4.70382e-06
4.81475e-06
4.91349e-06
5.00008e-06
5.07475e-06
5.13791e-06
5.19005e-06
5.23176e-06
5.26371e-06
5.2866e-06
5.30114e-06
5.30805e-06
3.79412e-06
3.88862e-06
4.02041e-06
4.18166e-06
4.36539e-06
4.56531e-06
4.77571e-06
4.99155e-06
5.20836e-06
5.42229e-06
5.63012e-06
5.82917e-06
6.01732e-06
6.19296e-06
6.35492e-06
6.50247e-06
6.63521e-06
6.75304e-06
6.85614e-06
6.94488e-06
7.01979e-06
7.08153e-06
7.13087e-06
7.16861e-06
7.19562e-06
7.21276e-06
7.2209e-06
5.45183e-06
5.56658e-06
5.72625e-06
5.92102e-06
6.14219e-06
6.38195e-06
6.63335e-06
6.89026e-06
7.14739e-06
7.40022e-06
7.64502e-06
7.87876e-06
8.09909e-06
8.30423e-06
8.49298e-06
8.66456e-06
8.81865e-06
8.95522e-06
9.07455e-06
9.17713e-06
9.26364e-06
9.33489e-06
9.39179e-06
9.43529e-06
9.4664e-06
9.48613e-06
9.49551e-06
7.50383e-06
7.63812e-06
7.82466e-06
8.05174e-06
8.30899e-06
8.58716e-06
8.87808e-06
9.17463e-06
9.47069e-06
9.76114e-06
1.00418e-05
1.03092e-05
1.05608e-05
1.07947e-05
1.10097e-05
1.12048e-05
1.13799e-05
1.15349e-05
1.16703e-05
1.17865e-05
1.18846e-05
1.19653e-05
1.20297e-05
1.2079e-05
1.21142e-05
1.21365e-05
1.21471e-05
9.95971e-06
1.01126e-05
1.03248e-05
1.05828e-05
1.08746e-05
1.11896e-05
1.15185e-05
1.18532e-05
1.21869e-05
1.25138e-05
1.28292e-05
1.31294e-05
1.34116e-05
1.36736e-05
1.39143e-05
1.41326e-05
1.43284e-05
1.45017e-05
1.46529e-05
1.47828e-05
1.48923e-05
1.49825e-05
1.50544e-05
1.51094e-05
1.51487e-05
1.51737e-05
1.51856e-05
1.28213e-05
1.29921e-05
1.32288e-05
1.35164e-05
1.38414e-05
1.41919e-05
1.45574e-05
1.49291e-05
1.52992e-05
1.56616e-05
1.60109e-05
1.63432e-05
1.66554e-05
1.69452e-05
1.72111e-05
1.74524e-05
1.76687e-05
1.78601e-05
1.80271e-05
1.81706e-05
1.82915e-05
1.83911e-05
1.84705e-05
1.85313e-05
1.85747e-05
1.86023e-05
1.86154e-05
1.60855e-05
1.62734e-05
1.65339e-05
1.68501e-05
1.72072e-05
1.75921e-05
1.79933e-05
1.8401e-05
1.88068e-05
1.92039e-05
1.95866e-05
1.99504e-05
2.02922e-05
2.06094e-05
2.09004e-05
2.11644e-05
2.14011e-05
2.16105e-05
2.17932e-05
2.19502e-05
2.20826e-05
2.21915e-05
2.22785e-05
2.2345e-05
2.23926e-05
2.24228e-05
2.24371e-05
1.97464e-05
1.9951e-05
2.02345e-05
2.05786e-05
2.09671e-05
2.13857e-05
2.18219e-05
2.2265e-05
2.2706e-05
2.31373e-05
2.35529e-05
2.3948e-05
2.43191e-05
2.46634e-05
2.49794e-05
2.5266e-05
2.55229e-05
2.57502e-05
2.59487e-05
2.61191e-05
2.62628e-05
2.63811e-05
2.64756e-05
2.65479e-05
2.65996e-05
2.66324e-05
2.6648e-05
2.37966e-05
2.40176e-05
2.43238e-05
2.46954e-05
2.51148e-05
2.55666e-05
2.60373e-05
2.65155e-05
2.69912e-05
2.74565e-05
2.79047e-05
2.83309e-05
2.87311e-05
2.91025e-05
2.94432e-05
2.97523e-05
3.00294e-05
3.02746e-05
3.04886e-05
3.06725e-05
3.08275e-05
3.09552e-05
3.10572e-05
3.11351e-05
3.11909e-05
3.12264e-05
3.12432e-05
2.82285e-05
2.84657e-05
2.87943e-05
2.91931e-05
2.96431e-05
3.01279e-05
3.06329e-05
3.11458e-05
3.16561e-05
3.21551e-05
3.26359e-05
3.3093e-05
3.35221e-05
3.39204e-05
3.42859e-05
3.46174e-05
3.49145e-05
3.51776e-05
3.54072e-05
3.56044e-05
3.57707e-05
3.59077e-05
3.60171e-05
3.61008e-05
3.61607e-05
3.61987e-05
3.62168e-05
3.30343e-05
3.32876e-05
3.36386e-05
3.40644e-05
3.45449e-05
3.50625e-05
3.56017e-05
3.61492e-05
3.66939e-05
3.72266e-05
3.77397e-05
3.82276e-05
3.86856e-05
3.91107e-05
3.95008e-05
3.98546e-05
4.01718e-05
4.04525e-05
4.06976e-05
4.09082e-05
4.10858e-05
4.1232e-05
4.13488e-05
4.14382e-05
4.15022e-05
4.15428e-05
4.15621e-05
3.82069e-05
3.84763e-05
3.88495e-05
3.93022e-05
3.98132e-05
4.03634e-05
4.09366e-05
4.15187e-05
4.20977e-05
4.26639e-05
4.32094e-05
4.37279e-05
4.42147e-05
4.46665e-05
4.50811e-05
4.54572e-05
4.57943e-05
4.60927e-05
4.63532e-05
4.65771e-05
4.67658e-05
4.69213e-05
4.70454e-05
4.71404e-05
4.72084e-05
4.72516e-05
4.72722e-05
4.37394e-05
4.40248e-05
4.44202e-05
4.48998e-05
4.54411e-05
4.6024e-05
4.66312e-05
4.72477e-05
4.78609e-05
4.84605e-05
4.90382e-05
4.95872e-05
5.01028e-05
5.05812e-05
5.10202e-05
5.14184e-05
5.17753e-05
5.20913e-05
5.23671e-05
5.26042e-05
5.2804e-05
5.29686e-05
5.31001e-05
5.32007e-05
5.32728e-05
5.33185e-05
5.33402e-05
4.96255e-05
4.99269e-05
5.03444e-05
5.08509e-05
5.14224e-05
5.20379e-05
5.26789e-05
5.33297e-05
5.39771e-05
5.461e-05
5.52197e-05
5.57992e-05
5.63433e-05
5.68482e-05
5.73115e-05
5.77317e-05
5.81084e-05
5.84418e-05
5.87329e-05
5.8983e-05
5.91939e-05
5.93676e-05
5.95063e-05
5.96125e-05
5.96885e-05
5.97368e-05
5.97597e-05
5.58592e-05
5.61766e-05
5.66162e-05
5.71495e-05
5.77512e-05
5.83991e-05
5.90738e-05
5.97589e-05
6.04402e-05
6.11063e-05
6.17479e-05
6.23577e-05
6.29302e-05
6.34615e-05
6.39488e-05
6.43909e-05
6.47872e-05
6.51379e-05
6.54441e-05
6.57072e-05
6.59291e-05
6.61118e-05
6.62578e-05
6.63694e-05
6.64494e-05
6.65002e-05
6.65243e-05
6.24351e-05
6.27684e-05
6.323e-05
6.379e-05
6.44217e-05
6.5102e-05
6.58103e-05
6.65294e-05
6.72445e-05
6.79436e-05
6.8617e-05
6.92569e-05
6.98576e-05
7.0415e-05
7.09263e-05
7.13901e-05
7.18058e-05
7.21737e-05
7.24949e-05
7.27709e-05
7.30036e-05
7.31953e-05
7.33484e-05
7.34656e-05
7.35494e-05
7.36027e-05
7.3628e-05
6.93479e-05
6.9697e-05
7.01806e-05
7.07671e-05
7.14288e-05
7.21412e-05
7.28829e-05
7.36358e-05
7.43846e-05
7.51165e-05
7.58213e-05
7.64911e-05
7.71198e-05
7.77032e-05
7.82383e-05
7.87236e-05
7.91586e-05
7.95436e-05
7.98796e-05
8.01684e-05
8.04118e-05
8.06124e-05
8.07725e-05
8.08951e-05
8.09828e-05
8.10385e-05
8.1065e-05
7.65927e-05
7.69576e-05
7.7463e-05
7.80758e-05
7.87672e-05
7.95115e-05
8.02865e-05
8.1073e-05
8.18551e-05
8.26195e-05
8.33556e-05
8.4055e-05
8.47115e-05
8.53206e-05
8.58793e-05
8.63859e-05
8.684e-05
8.72419e-05
8.75927e-05
8.78941e-05
8.81482e-05
8.83575e-05
8.85246e-05
8.86525e-05
8.87441e-05
8.88022e-05
8.88299e-05
8.41646e-05
8.45451e-05
8.50721e-05
8.57112e-05
8.64321e-05
8.72081e-05
8.80159e-05
8.88358e-05
8.96509e-05
9.04476e-05
9.12147e-05
9.19435e-05
9.26275e-05
9.3262e-05
9.3844e-05
9.43718e-05
9.48448e-05
9.52633e-05
9.56287e-05
9.59426e-05
9.62072e-05
9.64252e-05
9.65993e-05
9.67325e-05
9.68278e-05
9.68883e-05
9.69171e-05
9.20588e-05
9.24549e-05
9.30033e-05
9.36684e-05
9.44185e-05
9.52258e-05
9.60663e-05
9.69192e-05
9.77671e-05
9.85956e-05
9.93933e-05
0.000100151
0.000100862
0.000101522
0.000102127
0.000102676
0.000103168
0.000103603
0.000103982
0.000104309
0.000104584
0.00010481
0.000104991
0.000105129
0.000105229
0.000105291
0.000105321
0.000100271
0.000100682
0.000101252
0.000101942
0.000102721
0.00010356
0.000104433
0.000105318
0.000106198
0.000107058
0.000107886
0.000108673
0.000109411
0.000110096
0.000110724
0.000111293
0.000111803
0.000112254
0.000112648
0.000112987
0.000113272
0.000113507
0.000113695
0.000113838
0.000113941
0.000114006
0.000114037
0.000108795
0.000109222
0.000109812
0.000110528
0.000111336
0.000112205
0.00011311
0.000114027
0.000114939
0.000115831
0.000116689
0.000117503
0.000118268
0.000118977
0.000119628
0.000120217
0.000120745
0.000121213
0.000121621
0.000121971
0.000122266
0.00012251
0.000122704
0.000122853
0.000122959
0.000123027
0.000123059
0.000117627
0.000118068
0.00011868
0.000119421
0.000120257
0.000121156
0.000122092
0.000123041
0.000123985
0.000124907
0.000125794
0.000126637
0.000127428
0.000128161
0.000128833
0.000129443
0.000129989
0.000130472
0.000130894
0.000131256
0.000131561
0.000131813
0.000132014
0.000132167
0.000132277
0.000132347
0.00013238
0.00012676
0.000127217
0.000127848
0.000128614
0.000129478
0.000130407
0.000131373
0.000132354
0.000133329
0.000134281
0.000135197
0.000136067
0.000136883
0.00013764
0.000138334
0.000138964
0.000139527
0.000140026
0.000140461
0.000140835
0.00014115
0.000141409
0.000141617
0.000141775
0.000141889
0.000141961
0.000141995
0.00013619
0.000136661
0.000137312
0.000138102
0.000138993
0.000139951
0.000140948
0.000141959
0.000142964
0.000143946
0.00014489
0.000145787
0.000146629
0.000147409
0.000148124
0.000148773
0.000149353
0.000149867
0.000150316
0.000150701
0.000151025
0.000151293
0.000151506
0.000151669
0.000151786
0.00015186
0.000151896
0.000145909
0.000146394
0.000147065
0.000147879
0.000148796
0.000149782
0.000150809
0.00015185
0.000152885
0.000153895
0.000154867
0.00015579
0.000156656
0.000157459
0.000158195
0.000158862
0.00015946
0.000159988
0.000160449
0.000160845
0.000161179
0.000161454
0.000161674
0.000161842
0.000161962
0.000162038
0.000162075
0.00015591
0.000156408
0.000157099
0.000157935
0.000158878
0.000159893
0.000160948
0.000162018
0.000163081
0.00016412
0.000165119
0.000166067
0.000166957
0.000167782
0.000168538
0.000169223
0.000169837
0.00017038
0.000170853
0.00017126
0.000171603
0.000171885
0.000172111
0.000172283
0.000172407
0.000172485
0.000172522
0.000166184
0.000166696
0.000167405
0.000168263
0.000169231
0.000170273
0.000171356
0.000172454
0.000173545
0.000174611
0.000175635
0.000176609
0.000177521
0.000178367
0.000179142
0.000179845
0.000180475
0.000181031
0.000181517
0.000181934
0.000182286
0.000182575
0.000182806
0.000182983
0.000183109
0.00018319
0.000183228
0.000176722
0.000177247
0.000177973
0.000178853
0.000179845
0.000180912
0.000182022
0.000183147
0.000184265
0.000185357
0.000186406
0.000187403
0.000188337
0.000189204
0.000189998
0.000190717
0.000191361
0.000191931
0.000192428
0.000192855
0.000193215
0.000193511
0.000193748
0.000193929
0.000194058
0.000194141
0.00019418
0.000187512
0.000188049
0.000188792
0.000189693
0.000190708
0.0001918
0.000192935
0.000194086
0.000195229
0.000196345
0.000197418
0.000198437
0.000199393
0.000200278
0.00020109
0.000201825
0.000202483
0.000203066
0.000203574
0.00020401
0.000204378
0.00020468
0.000204922
0.000205107
0.000205239
0.000205323
0.000205363
0.000198542
0.00019909
0.000199849
0.000200769
0.000201806
0.000202921
0.00020408
0.000205255
0.000206422
0.000207561
0.000208657
0.000209696
0.000210671
0.000211575
0.000212403
0.000213153
0.000213824
0.000214418
0.000214937
0.000215381
0.000215756
0.000216065
0.000216311
0.0002165
0.000216635
0.00021672
0.000216761
0.000209795
0.000210354
0.000211128
0.000212066
0.000213123
0.000214259
0.00021544
0.000216638
0.000217827
0.000218987
0.000220103
0.000221162
0.000222155
0.000223075
0.000223918
0.000224682
0.000225365
0.00022597
0.000226497
0.00022695
0.000227332
0.000227646
0.000227897
0.000228088
0.000228226
0.000228313
0.000228354
0.000221254
0.000221823
0.000222611
0.000223565
0.00022464
0.000225796
0.000226997
0.000228215
0.000229423
0.000230603
0.000231738
0.000232814
0.000233823
0.000234758
0.000235614
0.00023639
0.000237084
0.000237698
0.000238234
0.000238694
0.000239081
0.0002394
0.000239655
0.000239849
0.000239989
0.000240077
0.000240119
0.000232898
0.000233476
0.000234276
0.000235244
0.000236335
0.000237508
0.000238727
0.000239962
0.000241188
0.000242385
0.000243535
0.000244627
0.000245649
0.000246597
0.000247465
0.000248251
0.000248955
0.000249577
0.00025012
0.000250586
0.000250978
0.000251301
0.000251559
0.000251756
0.000251897
0.000251987
0.00025203
0.000244702
0.000245288
0.000246097
0.000247078
0.000248182
0.000249369
0.000250603
0.000251853
0.000253094
0.000254304
0.000255468
0.000256572
0.000257606
0.000258564
0.000259441
0.000260236
0.000260947
0.000261576
0.000262124
0.000262595
0.000262991
0.000263318
0.000263578
0.000263777
0.00026392
0.00026401
0.000264053
0.000256638
0.000257229
0.000258046
0.000259037
0.000260152
0.00026135
0.000262595
0.000263857
0.000265108
0.000266329
0.000267503
0.000268616
0.000269658
0.000270624
0.000271508
0.000272309
0.000273026
0.000273659
0.000274212
0.000274686
0.000275085
0.000275414
0.000275676
0.000275876
0.00027602
0.000276111
0.000276154
0.000268671
0.000269266
0.000270089
0.000271086
0.000272208
0.000273414
0.000274667
0.000275935
0.000277194
0.000278422
0.000279601
0.00028072
0.000281767
0.000282738
0.000283626
0.00028443
0.00028515
0.000285786
0.00028634
0.000286816
0.000287217
0.000287547
0.00028781
0.000288011
0.000288155
0.000288247
0.00028829
0.000280763
0.00028136
0.000282186
0.000283185
0.000284311
0.00028552
0.000286776
0.000288047
0.000289308
0.000290538
0.00029172
0.000292839
0.000293888
0.000294859
0.000295748
0.000296553
0.000297273
0.000297909
0.000298463
0.000298939
0.00029934
0.00029967
0.000299933
0.000300134
0.000300278
0.000300369
0.000300413
0.00029287
0.000293466
0.000294291
0.00029529
0.000296414
0.000297621
0.000298875
0.000300144
0.000301403
0.000302629
0.000303808
0.000304924
0.00030597
0.000306937
0.000307823
0.000308624
0.000309341
0.000309975
0.000310527
0.000311001
0.000311399
0.000311727
0.000311989
0.000312189
0.000312333
0.000312423
0.000312467
0.00030494
0.000305533
0.000306354
0.000307347
0.000308465
0.000309665
0.000310911
0.000312172
0.000313421
0.000314639
0.000315808
0.000316916
0.000317953
0.000318913
0.000319791
0.000320585
0.000321296
0.000321924
0.00032247
0.000322939
0.000323334
0.000323659
0.000323918
0.000324117
0.000324258
0.000324348
0.000324391
0.000316917
0.000317504
0.000318316
0.000319299
0.000320404
0.000321591
0.000322822
0.000324068
0.000325302
0.000326505
0.000327659
0.000328752
0.000329775
0.000330721
0.000331587
0.00033237
0.00033307
0.000333688
0.000334227
0.000334688
0.000335077
0.000335397
0.000335652
0.000335847
0.000335986
0.000336075
0.000336117
0.000328737
0.000329315
0.000330114
0.00033108
0.000332167
0.000333333
0.000334542
0.000335766
0.000336977
0.000338157
0.000339289
0.000340361
0.000341364
0.000342291
0.000343138
0.000343905
0.00034459
0.000345195
0.000345722
0.000346174
0.000346554
0.000346867
0.000347116
0.000347306
0.000347443
0.000347529
0.00034757
0.00034033
0.000340894
0.000341675
0.000342619
0.00034368
0.000344818
0.000345998
0.000347191
0.000348372
0.000349521
0.000350624
0.000351667
0.000352642
0.000353544
0.000354368
0.000355113
0.000355778
0.000356366
0.000356877
0.000357316
0.000357685
0.000357988
0.00035823
0.000358415
0.000358547
0.000358631
0.00035867
0.000351619
0.000352167
0.000352924
0.000353839
0.000354866
0.000355968
0.00035711
0.000358264
0.000359406
0.000360516
0.000361581
0.000362588
0.000363529
0.000364398
0.000365192
0.00036591
0.000366551
0.000367116
0.000367609
0.00036803
0.000368385
0.000368677
0.000368909
0.000369087
0.000369214
0.000369294
0.000369333
0.000362526
0.000363052
0.000363779
0.000364658
0.000365644
0.000366702
0.000367797
0.000368902
0.000369996
0.000371059
0.000372077
0.000373039
0.000373938
0.000374768
0.000375527
0.000376211
0.000376822
0.000377361
0.00037783
0.000378232
0.00037857
0.000378848
0.000379069
0.000379238
0.000379359
0.000379435
0.000379471
0.000372965
0.000373466
0.000374157
0.000374992
0.00037593
0.000376933
0.000377972
0.000379021
0.000380057
0.000381063
0.000382027
0.000382937
0.000383786
0.00038457
0.000385286
0.000385932
0.000386508
0.000387016
0.000387457
0.000387836
0.000388154
0.000388415
0.000388623
0.000388782
0.000388895
0.000388967
0.000389001
0.000382853
0.000383324
0.000383974
0.000384759
0.000385639
0.000386581
0.000387555
0.000388537
0.000389506
0.000390448
0.000391348
0.000392198
0.00039299
0.000393721
0.000394388
0.000394989
0.000395525
0.000395997
0.000396408
0.000396759
0.000397055
0.000397297
0.00039749
0.000397637
0.000397743
0.000397809
0.000397841
0.00039211
0.000392547
0.000393149
0.000393876
0.000394692
0.000395563
0.000396464
0.000397371
0.000398266
0.000399134
0.000399963
0.000400745
0.000401474
0.000402145
0.000402757
0.000403309
0.0004038
0.000404233
0.000404609
0.00040493
0.0004052
0.000405422
0.000405598
0.000405733
0.000405829
0.00040589
0.000405919
0.000400658
0.000401057
0.000401608
0.000402271
0.000403015
0.000403809
0.000404628
0.000405453
0.000406266
0.000407053
0.000407804
0.000408512
0.000409171
0.000409778
0.00041033
0.000410827
0.00041127
0.00041166
0.000411998
0.000412287
0.000412529
0.000412728
0.000412887
0.000413007
0.000413094
0.000413148
0.000413174
0.000408433
0.000408792
0.000409286
0.000409881
0.000410546
0.000411257
0.000411989
0.000412725
0.00041345
0.000414151
0.000414819
0.000415448
0.000416032
0.00041657
0.000417058
0.000417498
0.000417889
0.000418233
0.000418531
0.000418786
0.000418999
0.000419174
0.000419314
0.00041942
0.000419496
0.000419544
0.000419566
0.000415384
0.000415699
0.000416134
0.000416656
0.00041724
0.000417863
0.000418504
0.000419147
0.000419779
0.00042039
0.000420972
0.000421518
0.000422025
0.000422491
0.000422914
0.000423294
0.000423632
0.000423928
0.000424185
0.000424405
0.000424588
0.000424739
0.000424859
0.00042495
0.000425015
0.000425056
0.000425076
0.000421477
0.000421749
0.000422122
0.00042257
0.000423071
0.000423603
0.000424151
0.0004247
0.000425238
0.000425757
0.000426251
0.000426714
0.000427143
0.000427536
0.000427893
0.000428213
0.000428498
0.000428747
0.000428962
0.000429146
0.0004293
0.000429426
0.000429526
0.000429603
0.000429657
0.000429691
0.000429708
0.000426703
0.00042693
0.000427242
0.000427616
0.000428034
0.000428477
0.000428932
0.000429387
0.000429833
0.000430262
0.000430669
0.00043105
0.000431403
0.000431726
0.000432018
0.00043228
0.000432511
0.000432715
0.00043289
0.00043304
0.000433165
0.000433267
0.000433348
0.00043341
0.000433454
0.000433482
0.000433495
0.000431075
0.000431259
0.000431512
0.000431815
0.000432152
0.000432509
0.000432875
0.000433241
0.000433598
0.000433941
0.000434265
0.000434569
0.000434849
0.000435104
0.000435336
0.000435542
0.000435725
0.000435885
0.000436023
0.000436141
0.000436239
0.000436319
0.000436382
0.000436431
0.000436465
0.000436487
0.000436497
0.000434632
0.000434775
0.000434973
0.000435209
0.000435471
0.000435749
0.000436032
0.000436315
0.00043659
0.000436854
0.000437103
0.000437335
0.000437548
0.000437743
0.000437919
0.000438076
0.000438214
0.000438335
0.000438439
0.000438528
0.000438601
0.000438662
0.000438709
0.000438746
0.000438771
0.000438788
0.000438795
0.000437435
0.000437543
0.00043769
0.000437866
0.000438062
0.000438268
0.000438478
0.000438686
0.000438889
0.000439082
0.000439265
0.000439434
0.00043959
0.000439732
0.000439859