/*--------------------------------*- C++ -*----------------------------------*\
| =========                 |                                                 |
| \\      /  F ield         | OpenFOAM: The Open Source CFD Toolbox           |
|  \\    /   O peration     | Version:  2106                                  |
|   \\  /    A nd           | Website:  www.openfoam.com                      |
|    \\/     M anipulation  |                                                 |
\*---------------------------------------------------------------------------*/
FoamFile
{
    version     2.0;
    format      ascii;
    arch        "LSB;label=32;scalar=64";
    class       volScalarField;
    location    "110.00057";
    object      I-C4H3;
}
// * * * * * * * * * * * * * * * * * * * * * * * * * * * * * * * * * * * * * //

dimensions      [0 0 0 0 0 0 0];

internalField   nonuniform List<scalar> 
3360
(
3.53856e-25
3.75996e-25
4.07171e-25
4.4591e-25
4.90928e-25
5.41026e-25
5.95048e-25
6.51875e-25
7.10422e-25
7.69657e-25
8.28609e-25
8.86392e-25
9.4221e-25
9.95375e-25
1.04531e-24
1.09154e-24
1.13373e-24
1.17163e-24
1.20511e-24
1.23411e-24
1.25868e-24
1.27895e-24
1.2951e-24
1.30738e-24
1.31607e-24
1.32151e-24
1.32405e-24
1.78917e-24
1.91298e-24
2.08997e-24
2.31429e-24
2.58149e-24
2.88781e-24
3.22986e-24
3.60436e-24
4.00799e-24
4.43726e-24
4.88844e-24
5.35746e-24
5.83983e-24
6.33065e-24
6.82462e-24
7.31608e-24
7.79902e-24
8.2671e-24
8.71378e-24
9.13244e-24
9.51647e-24
9.85954e-24
1.01557e-23
1.03997e-23
1.0587e-23
1.07139e-23
1.07781e-23
6.83723e-24
7.39949e-24
8.21321e-24
9.26109e-24
1.05322e-23
1.20177e-23
1.3709e-23
1.55957e-23
1.7664e-23
1.98966e-23
2.2271e-23
2.47608e-23
2.73356e-23
2.99617e-23
3.26023e-23
3.52184e-23
3.77697e-23
4.02163e-23
4.25192e-23
4.46424e-23
4.65538e-23
4.82258e-23
4.9637e-23
5.07719e-23
5.16213e-23
5.21826e-23
5.24589e-23
2.46985e-23
2.70177e-23
3.04165e-23
3.48552e-23
4.03191e-23
4.67985e-23
5.42765e-23
6.27198e-23
7.20727e-23
8.22529e-23
9.31505e-23
1.04629e-22
1.16526e-22
1.2866e-22
1.40834e-22
1.52842e-22
1.64478e-22
1.75544e-22
1.85859e-22
1.95267e-22
2.03637e-22
2.1087e-22
2.16899e-22
2.21687e-22
2.25229e-22
2.27542e-22
2.28669e-22
9.17761e-23
1.01243e-22
1.15206e-22
1.33579e-22
1.5637e-22
1.83593e-22
2.15215e-22
2.51105e-22
2.91013e-22
3.34552e-22
3.81194e-22
4.30288e-22
4.81072e-22
5.32706e-22
5.84303e-22
6.34964e-22
6.83818e-22
7.30051e-22
7.72941e-22
8.11872e-22
8.46357e-22
8.76036e-22
9.0068e-22
9.20188e-22
9.34569e-22
9.43936e-22
9.48485e-22
3.49913e-22
3.88187e-22
4.44866e-22
5.19751e-22
6.13e-22
7.24749e-22
8.54881e-22
1.00285e-21
1.16759e-21
1.3474e-21
1.54002e-21
1.74263e-21
1.95197e-21
2.16447e-21
2.37638e-21
2.58399e-21
2.7837e-21
2.97223e-21
3.14669e-21
3.30467e-21
3.44427e-21
3.56415e-21
3.66348e-21
3.74195e-21
3.7997e-21
3.83725e-21
3.85547e-21
1.35674e-21
1.51076e-21
1.73932e-21
2.04199e-21
2.41968e-21
2.87309e-21
3.4017e-21
4.00316e-21
4.67282e-21
5.40354e-21
6.18577e-21
7.00776e-21
7.85605e-21
8.716e-21
9.57243e-21
1.04103e-20
1.12152e-20
1.19742e-20
1.26756e-20
1.33101e-20
1.38702e-20
1.43508e-20
1.47487e-20
1.50629e-20
1.52939e-20
1.5444e-20
1.55168e-20
5.31111e-21
5.92644e-21
6.84091e-21
8.05361e-21
9.56883e-21
1.13898e-20
1.35149e-20
1.59344e-20
1.86293e-20
2.15702e-20
2.4718e-20
2.80249e-20
3.14359e-20
3.48919e-20
3.83314e-20
4.16939e-20
4.49218e-20
4.79628e-20
5.07712e-20
5.33095e-20
5.55485e-20
5.7468e-20
5.90561e-20
6.03089e-20
6.12297e-20
6.18278e-20
6.21177e-20
2.09219e-20
2.33796e-20
2.70342e-20
3.18842e-20
3.79478e-20
4.52384e-20
5.37487e-20
6.34389e-20
7.42308e-20
8.6005e-20
9.86026e-20
1.1183e-19
1.25467e-19
1.39276e-19
1.53011e-19
1.66431e-19
1.79307e-19
1.91431e-19
2.02623e-19
2.12735e-19
2.21652e-19
2.29294e-19
2.35615e-19
2.40602e-19
2.44266e-19
2.46645e-19
2.47798e-19
8.25757e-20
9.23506e-20
1.06895e-19
1.26208e-19
1.50367e-19
1.79428e-19
2.13364e-19
2.52013e-19
2.95062e-19
3.4203e-19
3.92278e-19
4.4503e-19
4.99403e-19
5.54444e-19
6.09174e-19
6.6263e-19
7.139e-19
7.62158e-19
8.06688e-19
8.46902e-19
8.82349e-19
9.12716e-19
9.37825e-19
9.57622e-19
9.72165e-19
9.81606e-19
9.8618e-19
3.26546e-19
3.65431e-19
4.23298e-19
5.00151e-19
5.96304e-19
7.1198e-19
8.47056e-19
1.00088e-18
1.17219e-18
1.35903e-18
1.55887e-18
1.76859e-18
1.98466e-18
2.2033e-18
2.42062e-18
2.6328e-18
2.83622e-18
3.02763e-18
3.20419e-18
3.3636e-18
3.50407e-18
3.62439e-18
3.72386e-18
3.80227e-18
3.85986e-18
3.89725e-18
3.91535e-18
1.29056e-18
1.44481e-18
1.67441e-18
1.97939e-18
2.361e-18
2.82012e-18
3.35623e-18
3.96671e-18
4.64646e-18
5.38774e-18
6.18036e-18
7.01192e-18
7.86841e-18
8.73477e-18
9.59557e-18
1.04356e-17
1.12407e-17
1.19979e-17
1.26961e-17
1.33262e-17
1.38812e-17
1.43564e-17
1.47491e-17
1.50585e-17
1.52857e-17
1.54332e-17
1.55046e-17
5.09791e-18
5.70943e-18
6.61957e-18
7.82832e-18
9.34047e-18
1.11593e-17
1.32823e-17
1.56988e-17
1.83882e-17
2.13196e-17
2.44522e-17
2.77369e-17
3.11181e-17
3.45361e-17
3.79302e-17
4.12406e-17
4.44114e-17
4.73919e-17
5.01388e-17
5.26165e-17
5.4798e-17
5.6665e-17
5.82073e-17
5.94222e-17
6.0314e-17
6.08925e-17
6.11726e-17
2.0077e-17
2.24921e-17
2.60862e-17
3.0859e-17
3.68284e-17
4.4006e-17
5.23808e-17
6.19084e-17
7.25057e-17
8.40486e-17
9.63748e-17
1.09289e-16
1.22572e-16
1.35988e-16
1.493e-16
1.62272e-16
1.74687e-16
1.86347e-16
1.97085e-16
2.06763e-16
2.15279e-16
2.22561e-16
2.28573e-16
2.33306e-16
2.36779e-16
2.3903e-16
2.4012e-16
7.8794e-17
8.83004e-17
1.02444e-16
1.21217e-16
1.44685e-16
1.72883e-16
2.05758e-16
2.43123e-16
2.8464e-16
3.29809e-16
3.77985e-16
4.28396e-16
4.80177e-16
5.32413e-16
5.84171e-16
6.34549e-16
6.82702e-16
7.27878e-16
7.69433e-16
8.06849e-16
8.39737e-16
8.67839e-16
8.9102e-16
9.09256e-16
9.22625e-16
9.3129e-16
9.3548e-16
3.07362e-16
3.44526e-16
3.9979e-16
4.731e-16
5.64667e-16
6.74583e-16
8.0258e-16
9.47874e-16
1.10908e-15
1.28421e-15
1.47069e-15
1.66549e-15
1.86526e-15
2.06642e-15
2.26541e-15
2.45875e-15
2.64324e-15
2.81605e-15
2.97475e-15
3.11743e-15
3.24266e-15
3.34953e-15
3.43756e-15
3.50675e-15
3.55741e-15
3.59021e-15
3.60606e-15
1.18974e-15
1.33379e-15
1.54782e-15
1.83146e-15
2.18527e-15
2.60934e-15
3.10232e-15
3.66082e-15
4.2792e-15
4.94945e-15
5.66149e-15
6.40352e-15
7.16256e-15
7.92505e-15
8.67742e-15
9.40672e-15
1.0101e-14
1.07499e-14
1.13445e-14
1.1878e-14
1.23455e-14
1.27436e-14
1.30711e-14
1.33281e-14
1.3516e-14
1.36375e-14
1.36962e-14
4.55864e-15
5.11017e-15
5.92874e-15
7.01183e-15
8.36038e-15
9.97313e-15
1.18432e-14
1.39561e-14
1.62885e-14
1.88086e-14
2.14773e-14
2.42492e-14
2.70752e-14
2.99046e-14
3.26875e-14
3.53765e-14
3.79288e-14
4.03069e-14
4.24804e-14
4.44255e-14
4.61254e-14
4.75702e-14
4.87561e-14
4.96849e-14
5.0363e-14
5.08009e-14
5.10119e-14
1.72477e-14
1.93258e-14
2.2405e-14
2.647e-14
3.15175e-14
3.75349e-14
4.44879e-14
5.23134e-14
6.0917e-14
7.01739e-14
7.99339e-14
9.00272e-14
1.00273e-13
1.10488e-13
1.20493e-13
1.30121e-13
1.39225e-13
1.47678e-13
1.55377e-13
1.62245e-13
1.68229e-13
1.73302e-13
1.77456e-13
1.80702e-13
1.83067e-13
1.84591e-13
1.85325e-13
6.42515e-14
7.19183e-14
8.32512e-14
9.81663e-14
1.16617e-13
1.38519e-13
1.63707e-13
1.91913e-13
2.22759e-13
2.55768e-13
2.90379e-13
3.25977e-13
3.61919e-13
3.97563e-13
4.32301e-13
4.65571e-13
4.96886e-13
5.25836e-13
5.52099e-13
5.75443e-13
5.95715e-13
6.12846e-13
6.26833e-13
6.37736e-13
6.45662e-13
6.5076e-13
6.5321e-13
2.35001e-13
2.62547e-13
3.03135e-13
3.56331e-13
4.21811e-13
4.99106e-13
5.8746e-13
6.85767e-13
7.9257e-13
9.06099e-13
1.02435e-12
1.14518e-12
1.26641e-12
1.38591e-12
1.50169e-12
1.61199e-12
1.71527e-12
1.8103e-12
1.89614e-12
1.97212e-12
2.03787e-12
2.09325e-12
2.13833e-12
2.17337e-12
2.19879e-12
2.2151e-12
2.22292e-12
8.41194e-13
9.36983e-13
1.07755e-12
1.26082e-12
1.48501e-12
1.74785e-12
2.04608e-12
2.37539e-12
2.73041e-12
3.10489e-12
3.49202e-12
3.88471e-12
4.27595e-12
4.65907e-12
5.02797e-12
5.37735e-12
5.70277e-12
6.00071e-12
6.26861e-12
6.5048e-12
6.7084e-12
6.8793e-12
7.01801e-12
7.12555e-12
7.20336e-12
7.25321e-12
7.27706e-12
2.93686e-12
3.25731e-12
3.72528e-12
4.33157e-12
5.06787e-12
5.92422e-12
6.88783e-12
7.94284e-12
9.07057e-12
1.02503e-11
1.14602e-11
1.26781e-11
1.38828e-11
1.50545e-11
1.61758e-11
1.72316e-11
1.82098e-11
1.91011e-11
1.9899e-11
2.05997e-11
2.12016e-11
2.17052e-11
2.21127e-11
2.24279e-11
2.26554e-11
2.28009e-11
2.28704e-11
9.96024e-12
1.09857e-11
1.24751e-11
1.43914e-11
1.67003e-11
1.93628e-11
2.23326e-11
2.55556e-11
2.89712e-11
3.25148e-11
3.61202e-11
3.9723e-11
4.32621e-11
4.66826e-11
4.99366e-11
5.29842e-11
5.57941e-11
5.83431e-11
6.06159e-11
6.26046e-11
6.43074e-11
6.57281e-11
6.68749e-11
6.77598e-11
6.83973e-11
6.88042e-11
6.89983e-11
3.26655e-11
3.57917e-11
4.0307e-11
4.60758e-11
5.29715e-11
6.08572e-11
6.95788e-11
7.89653e-11
8.88331e-11
9.89929e-11
1.09257e-10
1.19445e-10
1.29393e-10
1.38955e-10
1.48005e-10
1.56442e-10
1.64189e-10
1.71191e-10
1.77413e-10
1.82842e-10
1.87477e-10
1.91336e-10
1.94444e-10
1.96838e-10
1.9856e-10
1.99657e-10
2.0018e-10
1.03079e-10
1.1214e-10
1.25159e-10
1.41685e-10
1.61301e-10
1.83567e-10
2.08012e-10
2.34135e-10
2.61413e-10
2.89322e-10
3.17355e-10
3.45037e-10
3.71938e-10
3.97683e-10
4.21959e-10
4.44515e-10
4.65165e-10
4.83778e-10
5.00281e-10
5.14649e-10
5.26897e-10
5.37075e-10
5.45264e-10
5.51562e-10
5.56089e-10
5.58971e-10
5.60343e-10
3.11382e-10
3.36352e-10
3.7208e-10
4.17199e-10
4.70448e-10
5.30546e-10
5.96157e-10
6.659e-10
7.38377e-10
8.12208e-10
8.86079e-10
9.58775e-10
1.02921e-09
1.09644e-09
1.1597e-09
1.21836e-09
1.27197e-09
1.32023e-09
1.36296e-09
1.40011e-09
1.43176e-09
1.45803e-09
1.47915e-09
1.49539e-09
1.50705e-09
1.51447e-09
1.518e-09
8.95506e-10
9.61031e-10
1.0545e-09
1.17212e-09
1.3104e-09
1.46591e-09
1.63513e-09
1.81447e-09
2.00037e-09
2.18934e-09
2.3781e-09
2.56359e-09
2.74312e-09
2.91435e-09
3.07533e-09
3.22456e-09
3.36089e-09
3.48358e-09
3.59223e-09
3.68672e-09
3.76722e-09
3.83408e-09
3.88786e-09
3.92923e-09
3.95897e-09
3.97791e-09
3.98693e-09
2.43557e-09
2.59923e-09
2.83233e-09
3.12514e-09
3.46889e-09
3.85495e-09
4.27465e-09
4.71927e-09
5.18013e-09
5.6488e-09
6.11727e-09
6.57817e-09
7.02491e-09
7.45176e-09
7.85396e-09
8.22768e-09
8.57007e-09
8.87913e-09
9.15371e-09
9.39335e-09
9.59825e-09
9.76912e-09
9.9071e-09
1.00137e-08
1.00906e-08
1.01399e-08
1.01634e-08
6.21257e-09
6.5993e-09
7.14992e-09
7.84149e-09
8.65352e-09
9.56612e-09
1.05594e-08
1.16136e-08
1.27089e-08
1.38261e-08
1.49468e-08
1.60539e-08
1.71319e-08
1.8167e-08
1.91476e-08
2.0064e-08
2.09085e-08
2.16755e-08
2.23613e-08
2.29636e-08
2.34819e-08
2.39169e-08
2.42705e-08
2.45454e-08
2.4745e-08
2.48735e-08
2.49354e-08
1.47111e-08
1.55629e-08
1.6776e-08
1.83005e-08
2.00923e-08
2.21091e-08
2.43093e-08
2.66509e-08
2.90923e-08
3.15926e-08
3.41123e-08
3.6614e-08
3.9063e-08
4.1428e-08
4.36815e-08
4.58e-08
4.7764e-08
4.95582e-08
5.11715e-08
5.25964e-08
5.38289e-08
5.48685e-08
5.57173e-08
5.63799e-08
5.6863e-08
5.71751e-08
5.73257e-08
3.20181e-08
3.37331e-08
3.61748e-08
3.92429e-08
4.28493e-08
4.69107e-08
5.13449e-08
5.60702e-08
6.10051e-08
6.6069e-08
7.11835e-08
7.62738e-08
8.12697e-08
8.61067e-08
9.07274e-08
9.50818e-08
9.91277e-08
1.02832e-07
1.06168e-07
1.09119e-07
1.11675e-07
1.13832e-07
1.15594e-07
1.1697e-07
1.17973e-07
1.18621e-07
1.18933e-07
6.36656e-08
6.67686e-08
7.11788e-08
7.67087e-08
8.31941e-08
9.04798e-08
9.84148e-08
1.0685e-07
1.15638e-07
1.24634e-07
1.33698e-07
1.42697e-07
1.51508e-07
1.60017e-07
1.68125e-07
1.75745e-07
1.82805e-07
1.89251e-07
1.95039e-07
2.00144e-07
2.04551e-07
2.08259e-07
2.11279e-07
2.13629e-07
2.15336e-07
2.16434e-07
2.16963e-07
1.15685e-07
1.20699e-07
1.27801e-07
1.36669e-07
1.47018e-07
1.58581e-07
1.711e-07
1.84326e-07
1.98017e-07
2.11941e-07
2.25877e-07
2.39621e-07
2.52986e-07
2.65807e-07
2.77941e-07
2.8927e-07
2.99699e-07
3.09159e-07
3.17601e-07
3.25002e-07
3.31353e-07
3.36669e-07
3.40973e-07
3.44306e-07
3.46716e-07
3.48259e-07
3.48998e-07
1.93294e-07
2.00572e-07
2.10838e-07
2.23585e-07
2.38363e-07
2.54751e-07
2.72354e-07
2.90795e-07
3.0972e-07
3.28796e-07
3.47719e-07
3.66214e-07
3.84041e-07
4.00992e-07
4.169e-07
4.31629e-07
4.4508e-07
4.57187e-07
4.67914e-07
4.77252e-07
4.85215e-07
4.91837e-07
4.9717e-07
5.01277e-07
5.04233e-07
5.06118e-07
5.07016e-07
2.99914e-07
3.09538e-07
3.23049e-07
3.39724e-07
3.58916e-07
3.80032e-07
4.02519e-07
4.25867e-07
4.49607e-07
4.73315e-07
4.96615e-07
5.1918e-07
5.40734e-07
5.61053e-07
5.79961e-07
5.97329e-07
6.1307e-07
6.27136e-07
6.39516e-07
6.50226e-07
6.59306e-07
6.66817e-07
6.72837e-07
6.77453e-07
6.80761e-07
6.82863e-07
6.83862e-07
4.36782e-07
4.48549e-07
4.64996e-07
4.85177e-07
5.08247e-07
5.33439e-07
5.60053e-07
5.87455e-07
6.15082e-07
6.42439e-07
6.69101e-07
6.94714e-07
7.18988e-07
7.417e-07
7.62685e-07
7.81831e-07
7.99077e-07
8.14399e-07
8.27813e-07
8.3936e-07
8.49107e-07
8.57138e-07
8.63551e-07
8.68453e-07
8.71957e-07
8.74177e-07
8.7523e-07
6.02875e-07
6.16366e-07
6.35151e-07
6.58083e-07
6.84145e-07
7.12419e-07
7.42085e-07
7.72416e-07
8.02779e-07
8.32637e-07
8.61539e-07
8.89122e-07
9.15102e-07
9.39268e-07
9.61475e-07
9.81635e-07
9.99709e-07
1.0157e-06
1.02964e-06
1.04161e-06
1.05168e-06
1.05995e-06
1.06654e-06
1.07157e-06
1.07515e-06
1.07742e-06
1.0785e-06
7.95049e-07
8.09732e-07
8.3011e-07
8.54886e-07
8.8291e-07
9.13156e-07
9.44719e-07
9.76813e-07
1.00877e-06
1.04002e-06
1.07012e-06
1.0987e-06
1.1255e-06
1.15032e-06
1.17305e-06
1.1936e-06
1.21197e-06
1.22818e-06
1.24227e-06
1.25434e-06
1.26447e-06
1.27279e-06
1.2794e-06
1.28444e-06
1.28803e-06
1.2903e-06
1.29138e-06
1.00849e-06
1.02382e-06
1.04505e-06
1.07077e-06
1.09977e-06
1.13094e-06
1.16334e-06
1.19615e-06
1.22869e-06
1.2604e-06
1.29082e-06
1.31961e-06
1.34652e-06
1.37137e-06
1.39407e-06
1.41455e-06
1.43281e-06
1.44889e-06
1.46286e-06
1.4748e-06
1.48482e-06
1.49303e-06
1.49956e-06
1.50453e-06
1.50807e-06
1.51031e-06
1.51137e-06
1.2375e-06
1.253e-06
1.27442e-06
1.30033e-06
1.32946e-06
1.36069e-06
1.39306e-06
1.42575e-06
1.45808e-06
1.4895e-06
1.51957e-06
1.54798e-06
1.57447e-06
1.59889e-06
1.62115e-06
1.64121e-06
1.65908e-06
1.6748e-06
1.68845e-06
1.7001e-06
1.70987e-06
1.71788e-06
1.72424e-06
1.72908e-06
1.73254e-06
1.73472e-06
1.73575e-06
1.47626e-06
1.49156e-06
1.51268e-06
1.53819e-06
1.56682e-06
1.59746e-06
1.62915e-06
1.66111e-06
1.69265e-06
1.72326e-06
1.75252e-06
1.7801e-06
1.80581e-06
1.82948e-06
1.85103e-06
1.87044e-06
1.88772e-06
1.90292e-06
1.9161e-06
1.92735e-06
1.93679e-06
1.94452e-06
1.95066e-06
1.95534e-06
1.95868e-06
1.96078e-06
1.96178e-06
1.71953e-06
1.73437e-06
1.75484e-06
1.77953e-06
1.80722e-06
1.83682e-06
1.86742e-06
1.89822e-06
1.9286e-06
1.95805e-06
1.98617e-06
2.01267e-06
2.03734e-06
2.06005e-06
2.08073e-06
2.09934e-06
2.1159e-06
2.13046e-06
2.14309e-06
2.15388e-06
2.16292e-06
2.17033e-06
2.17622e-06
2.18071e-06
2.1839e-06
2.18593e-06
2.18689e-06
1.96289e-06
1.97711e-06
1.9967e-06
2.02033e-06
2.04681e-06
2.0751e-06
2.10432e-06
2.13372e-06
2.1627e-06
2.19078e-06
2.21758e-06
2.24284e-06
2.26634e-06
2.28797e-06
2.30765e-06
2.32537e-06
2.34114e-06
2.35501e-06
2.36704e-06
2.37731e-06
2.38593e-06
2.39299e-06
2.39861e-06
2.40288e-06
2.40593e-06
2.40786e-06
2.40878e-06
2.20289e-06
2.21638e-06
2.23498e-06
2.25741e-06
2.28252e-06
2.30935e-06
2.33704e-06
2.36491e-06
2.39237e-06
2.41897e-06
2.44436e-06
2.46828e-06
2.49054e-06
2.51102e-06
2.52967e-06
2.54645e-06
2.5614e-06
2.57454e-06
2.58594e-06
2.59568e-06
2.60385e-06
2.61054e-06
2.61587e-06
2.61993e-06
2.62282e-06
2.62466e-06
2.62552e-06
2.43692e-06
2.44965e-06
2.46719e-06
2.48834e-06
2.51203e-06
2.53733e-06
2.56344e-06
2.58972e-06
2.61561e-06
2.64069e-06
2.66463e-06
2.68718e-06
2.70817e-06
2.72749e-06
2.74507e-06
2.76091e-06
2.77501e-06
2.78741e-06
2.79817e-06
2.80737e-06
2.81508e-06
2.82141e-06
2.82644e-06
2.83028e-06
2.83302e-06
2.83475e-06
2.83557e-06
2.6631e-06
2.67505e-06
2.69153e-06
2.71139e-06
2.73364e-06
2.7574e-06
2.78193e-06
2.8066e-06
2.83092e-06
2.85448e-06
2.87697e-06
2.89815e-06
2.91788e-06
2.93604e-06
2.95257e-06
2.96746e-06
2.98071e-06
2.99238e-06
3.0025e-06
3.01116e-06
3.01842e-06
3.02438e-06
3.02912e-06
3.03273e-06
3.03531e-06
3.03695e-06
3.03772e-06
2.88013e-06
2.89132e-06
2.90675e-06
2.92534e-06
2.94617e-06
2.96841e-06
2.99137e-06
3.01448e-06
3.03725e-06
3.05932e-06
3.08038e-06
3.10023e-06
3.11871e-06
3.13572e-06
3.15122e-06
3.16517e-06
3.1776e-06
3.18854e-06
3.19804e-06
3.20616e-06
3.21297e-06
3.21857e-06
3.22302e-06
3.22641e-06
3.22883e-06
3.23037e-06
3.2311e-06
3.08717e-06
3.09762e-06
3.11202e-06
3.12938e-06
3.14883e-06
3.1696e-06
3.19105e-06
3.21262e-06
3.23389e-06
3.2545e-06
3.27418e-06
3.29273e-06
3.30999e-06
3.3259e-06
3.34038e-06
3.35343e-06
3.36505e-06
3.37528e-06
3.38416e-06
3.39176e-06
3.39814e-06
3.40337e-06
3.40754e-06
3.41072e-06
3.41298e-06
3.41442e-06
3.4151e-06
3.28373e-06
3.29346e-06
3.30688e-06
3.32305e-06
3.34116e-06
3.36051e-06
3.38049e-06
3.4006e-06
3.42042e-06
3.43962e-06
3.45796e-06
3.47525e-06
3.49135e-06
3.50617e-06
3.51967e-06
3.53184e-06
3.54268e-06
3.55222e-06
3.56051e-06
3.5676e-06
3.57355e-06
3.57844e-06
3.58232e-06
3.58529e-06
3.58741e-06
3.58875e-06
3.58939e-06
3.46955e-06
3.4786e-06
3.49107e-06
3.50611e-06
3.52294e-06
3.54093e-06
3.55951e-06
3.5782e-06
3.59662e-06
3.61448e-06
3.63153e-06
3.6476e-06
3.66257e-06
3.67636e-06
3.68892e-06
3.70024e-06
3.71032e-06
3.7192e-06
3.72691e-06
3.73351e-06
3.73905e-06
3.74359e-06
3.74721e-06
3.74998e-06
3.75195e-06
3.7532e-06
3.75379e-06
3.64461e-06
3.653e-06
3.66457e-06
3.67851e-06
3.69413e-06
3.71082e-06
3.72805e-06
3.74538e-06
3.76248e-06
3.77904e-06
3.79486e-06
3.80977e-06
3.82365e-06
3.83644e-06
3.8481e-06
3.8586e-06
3.86795e-06
3.87619e-06
3.88335e-06
3.88947e-06
3.89461e-06
3.89883e-06
3.90219e-06
3.90476e-06
3.90659e-06
3.90775e-06
3.9083e-06
3.80899e-06
3.81675e-06
3.82746e-06
3.84037e-06
3.85482e-06
3.87026e-06
3.88621e-06
3.90225e-06
3.91807e-06
3.9334e-06
3.94803e-06
3.96183e-06
3.97468e-06
3.98652e-06
3.9973e-06
4.00702e-06
4.01567e-06
4.0233e-06
4.02992e-06
4.03559e-06
4.04034e-06
4.04425e-06
4.04736e-06
4.04974e-06
4.05143e-06
4.05251e-06
4.05302e-06
3.96289e-06
3.97006e-06
3.97995e-06
3.99186e-06
4.00521e-06
4.01947e-06
4.03419e-06
4.049e-06
4.0636e-06
4.07774e-06
4.09125e-06
4.10399e-06
4.11584e-06
4.12677e-06
4.13672e-06
4.14568e-06
4.15367e-06
4.16071e-06
4.16682e-06
4.17205e-06
4.17644e-06
4.18004e-06
4.18291e-06
4.18511e-06
4.18667e-06
4.18766e-06
4.18814e-06
4.10658e-06
4.11319e-06
4.12229e-06
4.13327e-06
4.14556e-06
4.15869e-06
4.17224e-06
4.18587e-06
4.19931e-06
4.21233e-06
4.22476e-06
4.23648e-06
4.24739e-06
4.25744e-06
4.26659e-06
4.27484e-06
4.28219e-06
4.28866e-06
4.29428e-06
4.29909e-06
4.30313e-06
4.30645e-06
4.30909e-06
4.3111e-06
4.31254e-06
4.31346e-06
4.31389e-06
4.24038e-06
4.24645e-06
4.25481e-06
4.26489e-06
4.27617e-06
4.28822e-06
4.30066e-06
4.31318e-06
4.32551e-06
4.33745e-06
4.34885e-06
4.3596e-06
4.3696e-06
4.37882e-06
4.38721e-06
4.39477e-06
4.40151e-06
4.40744e-06
4.41259e-06
4.41699e-06
4.4207e-06
4.42374e-06
4.42616e-06
4.42801e-06
4.42933e-06
4.43016e-06
4.43056e-06
4.36462e-06
4.37018e-06
4.37783e-06
4.38705e-06
4.39738e-06
4.4084e-06
4.41978e-06
4.43122e-06
4.44249e-06
4.45341e-06
4.46383e-06
4.47364e-06
4.48278e-06
4.49119e-06
4.49886e-06
4.50576e-06
4.51191e-06
4.51732e-06
4.52202e-06
4.52604e-06
4.52942e-06
4.53219e-06
4.5344e-06
4.53609e-06
4.53729e-06
4.53806e-06
4.53842e-06
4.47965e-06
4.48471e-06
4.49169e-06
4.5001e-06
4.5095e-06
4.51954e-06
4.5299e-06
4.54032e-06
4.55057e-06
4.5605e-06
4.56998e-06
4.57891e-06
4.58721e-06
4.59486e-06
4.60182e-06
4.60809e-06
4.61367e-06
4.61859e-06
4.62285e-06
4.62651e-06
4.62957e-06
4.63209e-06
4.63409e-06
4.63562e-06
4.63672e-06
4.63741e-06
4.63774e-06
4.58579e-06
4.59038e-06
4.59671e-06
4.60433e-06
4.61285e-06
4.62195e-06
4.63133e-06
4.64076e-06
4.65004e-06
4.65903e-06
4.66759e-06
4.67566e-06
4.68317e-06
4.69007e-06
4.69636e-06
4.70202e-06
4.70706e-06
4.71149e-06
4.71534e-06
4.71863e-06
4.7214e-06
4.72367e-06
4.72548e-06
4.72686e-06
4.72784e-06
4.72847e-06
4.72876e-06
4.68333e-06
4.68747e-06
4.69317e-06
4.70003e-06
4.70771e-06
4.7159e-06
4.72433e-06
4.73281e-06
4.74115e-06
4.74922e-06
4.75691e-06
4.76415e-06
4.77088e-06
4.77706e-06
4.7827e-06
4.78776e-06
4.79227e-06
4.79624e-06
4.79969e-06
4.80263e-06
4.8051e-06
4.80713e-06
4.80875e-06
4.80998e-06
4.81086e-06
4.81142e-06
4.81169e-06
4.77253e-06
4.77623e-06
4.78132e-06
4.78745e-06
4.79431e-06
4.80161e-06
4.80913e-06
4.81668e-06
4.82411e-06
4.83128e-06
4.83812e-06
4.84455e-06
4.85052e-06
4.85601e-06
4.861e-06
4.86549e-06
4.86948e-06
4.87299e-06
4.87604e-06
4.87864e-06
4.88083e-06
4.88262e-06
4.88405e-06
4.88514e-06
4.88592e-06
4.88641e-06
4.88665e-06
4.85359e-06
4.85686e-06
4.86136e-06
4.86678e-06
4.87282e-06
4.87926e-06
4.88589e-06
4.89253e-06
4.89905e-06
4.90535e-06
4.91135e-06
4.91698e-06
4.92221e-06
4.927e-06
4.93136e-06
4.93528e-06
4.93877e-06
4.94183e-06
4.94448e-06
4.94675e-06
4.94865e-06
4.95021e-06
4.95145e-06
4.9524e-06
4.95308e-06
4.95351e-06
4.95371e-06
4.92664e-06
4.92949e-06
4.93341e-06
4.93811e-06
4.94336e-06
4.94894e-06
4.95468e-06
4.96042e-06
4.96605e-06
4.97148e-06
4.97664e-06
4.98148e-06
4.98597e-06
4.99008e-06
4.99381e-06
4.99716e-06
5.00013e-06
5.00274e-06
5.00501e-06
5.00694e-06
5.00856e-06
5.00988e-06
5.01094e-06
5.01174e-06
5.01232e-06
5.01268e-06
5.01286e-06
4.99173e-06
4.99416e-06
4.99749e-06
5.00149e-06
5.00594e-06
5.01066e-06
5.01551e-06
5.02035e-06
5.02508e-06
5.02964e-06
5.03396e-06
5.038e-06
5.04174e-06
5.04516e-06
5.04825e-06
5.05103e-06
5.05349e-06
5.05564e-06
5.05751e-06
5.0591e-06
5.06043e-06
5.06152e-06
5.06238e-06
5.06304e-06
5.06351e-06
5.06381e-06
5.06396e-06
5.04882e-06
5.05082e-06
5.05356e-06
5.05683e-06
5.06048e-06
5.06433e-06
5.06827e-06
5.07219e-06
5.07602e-06
5.07968e-06
5.08314e-06
5.08637e-06
5.08934e-06
5.09205e-06
5.0945e-06
5.09669e-06
5.09862e-06
5.1003e-06
5.10176e-06
5.103e-06
5.10403e-06
5.10488e-06
5.10555e-06
5.10606e-06
5.10643e-06
5.10666e-06
5.10677e-06
5.09774e-06
5.0993e-06
5.10143e-06
5.10397e-06
5.10678e-06
5.10974e-06
5.11275e-06
5.11573e-06
5.11861e-06
5.12135e-06
5.12393e-06
5.12631e-06
5.12849e-06
5.13046e-06
5.13224e-06
5.13381e-06
5.13519e-06
5.13639e-06
5.13742e-06
5.13829e-06
5.13902e-06
5.13961e-06
5.14008e-06
5.14044e-06
5.14069e-06
5.14085e-06
5.14093e-06
5.13823e-06
5.13933e-06
5.14083e-06
5.1426e-06
5.14454e-06
5.14657e-06
5.1486e-06
5.15058e-06
5.15248e-06
5.15426e-06
5.1559e-06
5.15739e-06
5.15874e-06
5.15994e-06
5.161e-06
5.16193e-06
5.16273e-06
5.16341e-06
5.16399e-06
5.16448e-06
5.16488e-06
5.1652e-06
5.16546e-06
5.16565e-06
5.16578e-06
5.16587e-06
5.16591e-06
5.16986e-06
5.17048e-06
5.17131e-06
5.17227e-06
5.1733e-06
5.17433e-06
5.17533e-06
5.17626e-06
5.17711e-06
5.17786e-06
5.17851e-06
5.17906e-06
5.17952e-06
5.17989e-06
5.18019e-06
5.18042e-06
5.1806e-06
5.18074e-06
5.18084e-06
5.18091e-06
5.18096e-06
5.18099e-06
5.18102e-06
5.18103e-06
5.18104e-06
5.18104e-06
5.18105e-06
5.19209e-06
5.19219e-06
5.19231e-06
5.1924e-06
5.19244e-06
5.19241e-06
5.19229e-06
5.1921e-06
5.19182e-06
5.19146e-06
5.19104e-06
5.19057e-06
5.19007e-06
5.18955e-06
5.18903e-06
5.18851e-06
5.18802e-06
5.18756e-06
5.18714e-06
5.18676e-06
5.18643e-06
5.18616e-06
5.18593e-06
5.18575e-06
5.18562e-06
5.18554e-06
5.1855e-06
5.20419e-06
5.20374e-06
5.20308e-06
5.20222e-06
5.2012e-06
5.20001e-06
5.1987e-06
5.19727e-06
5.19577e-06
5.19421e-06
5.19263e-06
5.19105e-06
5.1895e-06
5.18801e-06
5.18659e-06
5.18526e-06
5.18403e-06
5.18292e-06
5.18193e-06
5.18106e-06
5.18032e-06
5.1797e-06
5.1792e-06
5.17881e-06
5.17853e-06
5.17836e-06
5.17827e-06
5.20529e-06
5.20423e-06
5.20272e-06
5.20084e-06
5.19864e-06
5.1962e-06
5.19357e-06
5.1908e-06
5.18795e-06
5.18508e-06
5.18222e-06
5.17943e-06
5.17673e-06
5.17417e-06
5.17177e-06
5.16954e-06
5.16751e-06
5.16569e-06
5.16407e-06
5.16266e-06
5.16146e-06
5.16047e-06
5.15967e-06
5.15905e-06
5.1586e-06
5.15832e-06
5.15819e-06
5.19434e-06
5.19261e-06
5.19017e-06
5.18716e-06
5.18368e-06
5.17986e-06
5.17578e-06
5.17153e-06
5.16721e-06
5.16288e-06
5.15863e-06
5.15449e-06
5.15054e-06
5.1468e-06
5.14332e-06
5.14011e-06
5.13719e-06
5.13457e-06
5.13227e-06
5.13027e-06
5.12857e-06
5.12715e-06
5.12602e-06
5.12515e-06
5.12452e-06
5.12412e-06
5.12393e-06
5.17015e-06
5.16768e-06
5.16421e-06
5.15996e-06
5.15508e-06
5.14973e-06
5.14405e-06
5.13818e-06
5.13224e-06
5.12632e-06
5.12051e-06
5.11491e-06
5.10956e-06
5.10453e-06
5.09985e-06
5.09556e-06
5.09166e-06
5.08818e-06
5.08512e-06
5.08246e-06
5.08021e-06
5.07834e-06
5.07684e-06
5.07569e-06
5.07486e-06
5.07434e-06
5.07409e-06
5.13137e-06
5.12809e-06
5.12351e-06
5.11789e-06
5.11146e-06
5.10443e-06
5.09701e-06
5.08935e-06
5.08162e-06
5.07395e-06
5.06645e-06
5.05923e-06
5.05236e-06
5.04591e-06
5.03992e-06
5.03444e-06
5.02947e-06
5.02504e-06
5.02114e-06
5.01777e-06
5.01491e-06
5.01255e-06
5.01065e-06
5.00919e-06
5.00814e-06
5.00748e-06
5.00716e-06
5.0766e-06
5.07244e-06
5.06662e-06
5.0595e-06
5.05138e-06
5.04253e-06
5.03319e-06
5.02358e-06
5.01391e-06
5.00432e-06
4.99498e-06
4.98599e-06
4.97746e-06
4.96946e-06
4.96205e-06
4.95527e-06
4.94914e-06
4.94368e-06
4.93888e-06
4.93473e-06
4.93121e-06
4.9283e-06
4.92597e-06
4.92417e-06
4.92289e-06
4.92207e-06
4.92168e-06
5.00438e-06
4.99926e-06
4.99211e-06
4.98336e-06
4.97341e-06
4.96257e-06
4.95116e-06
4.93945e-06
4.92767e-06
4.91602e-06
4.90468e-06
4.8938e-06
4.88348e-06
4.87381e-06
4.86487e-06
4.85669e-06
4.84931e-06
4.84274e-06
4.83697e-06
4.83198e-06
4.82776e-06
4.82426e-06
4.82146e-06
4.81932e-06
4.81777e-06
4.81679e-06
4.81633e-06
4.91332e-06
4.90716e-06
4.89858e-06
4.88811e-06
4.87618e-06
4.86323e-06
4.84961e-06
4.83565e-06
4.82163e-06
4.80778e-06
4.79433e-06
4.78142e-06
4.7692e-06
4.75777e-06
4.74721e-06
4.73756e-06
4.72886e-06
4.72111e-06
4.71431e-06
4.70844e-06
4.70347e-06
4.69937e-06
4.69608e-06
4.69355e-06
4.69174e-06
4.69059e-06
4.69004e-06
4.8022e-06
4.79496e-06
4.78487e-06
4.77257e-06
4.75859e-06
4.74341e-06
4.72747e-06
4.71116e-06
4.6948e-06
4.67866e-06
4.663e-06
4.64799e-06
4.6338e-06
4.62054e-06
4.60829e-06
4.59712e-06
4.58705e-06
4.57809e-06
4.57023e-06
4.56345e-06
4.55772e-06
4.55298e-06
4.54918e-06
4.54627e-06
4.54418e-06
4.54286e-06
4.54222e-06
4.67013e-06
4.66177e-06
4.65014e-06
4.63595e-06
4.61985e-06
4.6024e-06
4.58409e-06
4.56537e-06
4.54662e-06
4.52816e-06
4.51025e-06
4.49311e-06
4.47692e-06
4.46181e-06
4.44786e-06
4.43515e-06
4.4237e-06
4.41353e-06
4.40461e-06
4.39692e-06
4.39042e-06
4.38505e-06
4.38075e-06
4.37745e-06
4.37509e-06
4.37359e-06
4.37287e-06
4.51672e-06
4.50724e-06
4.49406e-06
4.478e-06
4.45979e-06
4.44008e-06
4.41942e-06
4.39833e-06
4.37722e-06
4.35646e-06
4.33636e-06
4.31714e-06
4.29901e-06
4.2821e-06
4.26652e-06
4.25232e-06
4.23954e-06
4.2282e-06
4.21826e-06
4.20969e-06
4.20245e-06
4.19648e-06
4.19169e-06
4.18803e-06
4.1854e-06
4.18373e-06
4.18293e-06
4.34226e-06
4.3317e-06
4.31704e-06
4.29919e-06
4.27897e-06
4.25711e-06
4.23423e-06
4.2109e-06
4.18759e-06
4.16468e-06
4.14253e-06
4.12138e-06
4.10144e-06
4.08286e-06
4.06576e-06
4.0502e-06
4.0362e-06
4.02378e-06
4.01291e-06
4.00355e-06
3.99564e-06
3.98911e-06
3.98389e-06
3.97989e-06
3.97702e-06
3.9752e-06
3.97433e-06
4.14798e-06
4.13645e-06
4.12044e-06
4.10097e-06
4.07894e-06
4.05514e-06
4.03028e-06
4.00495e-06
3.97967e-06
3.95488e-06
3.93092e-06
3.90808e-06
3.88657e-06
3.86656e-06
3.84815e-06
3.83141e-06
3.81637e-06
3.80304e-06
3.79137e-06
3.78133e-06
3.77285e-06
3.76586e-06
3.76027e-06
3.75599e-06
3.75292e-06
3.75097e-06
3.75004e-06
3.93607e-06
3.92371e-06
3.90656e-06
3.88573e-06
3.86219e-06
3.8368e-06
3.81029e-06
3.78333e-06
3.75647e-06
3.73015e-06
3.70475e-06
3.68056e-06
3.65782e-06
3.63668e-06
3.61726e-06
3.59961e-06
3.58378e-06
3.56974e-06
3.55748e-06
3.54693e-06
3.53802e-06
3.53069e-06
3.52482e-06
3.52033e-06
3.51711e-06
3.51506e-06
3.51409e-06
3.70972e-06
3.69673e-06
3.67874e-06
3.6569e-06
3.63225e-06
3.60569e-06
3.57801e-06
3.54989e-06
3.52191e-06
3.49454e-06
3.46816e-06
3.44307e-06
3.41951e-06
3.39764e-06
3.37756e-06
3.35935e-06
3.34301e-06
3.32854e-06
3.31591e-06
3.30505e-06
3.29589e-06
3.28835e-06
3.28232e-06
3.2777e-06
3.2744e-06
3.2723e-06
3.2713e-06
3.47305e-06
3.4597e-06
3.4412e-06
3.41878e-06
3.39349e-06
3.36628e-06
3.33797e-06
3.30925e-06
3.2807e-06
3.25282e-06
3.22599e-06
3.20051e-06
3.17661e-06
3.15444e-06
3.13412e-06
3.1157e-06
3.09919e-06
3.08459e-06
3.07185e-06
3.0609e-06
3.05167e-06
3.04407e-06
3.038e-06
3.03336e-06
3.03004e-06
3.02792e-06
3.02692e-06
3.23087e-06
3.21741e-06
3.19879e-06
3.17624e-06
3.15084e-06
3.12355e-06
3.09518e-06
3.06645e-06
3.03793e-06
3.01012e-06
2.98338e-06
2.95803e-06
2.93427e-06
2.91227e-06
2.89211e-06
2.87386e-06
2.85752e-06
2.84308e-06
2.83048e-06
2.81967e-06
2.81056e-06
2.80305e-06
2.79707e-06
2.79249e-06
2.78921e-06
2.78713e-06
2.78614e-06
2.98826e-06
2.97498e-06
2.95662e-06
2.9344e-06
2.9094e-06
2.88257e-06
2.85471e-06
2.82654e-06
2.79861e-06
2.77141e-06
2.74529e-06
2.72055e-06
2.69739e-06
2.67597e-06
2.65636e-06
2.63862e-06
2.62275e-06
2.60873e-06
2.59651e-06
2.58603e-06
2.5772e-06
2.56994e-06
2.56414e-06
2.5597e-06
2.55653e-06
2.55451e-06
2.55356e-06
2.75016e-06
2.7373e-06
2.71953e-06
2.69806e-06
2.67392e-06
2.64803e-06
2.62119e-06
2.59407e-06
2.56722e-06
2.54109e-06
2.51604e-06
2.49232e-06
2.47014e-06
2.44964e-06
2.4309e-06
2.41395e-06
2.3988e-06
2.38542e-06
2.37376e-06
2.36377e-06
2.35535e-06
2.34843e-06
2.3429e-06
2.33868e-06
2.33566e-06
2.33374e-06
2.33282e-06
2.52087e-06
2.50864e-06
2.49175e-06
2.47134e-06
2.44842e-06
2.42387e-06
2.39843e-06
2.37275e-06
2.34735e-06
2.32264e-06
2.29898e-06
2.27659e-06
2.25568e-06
2.23635e-06
2.21869e-06
2.20273e-06
2.18847e-06
2.17588e-06
2.16492e-06
2.15552e-06
2.14761e-06
2.1411e-06
2.13591e-06
2.13194e-06
2.1291e-06
2.1273e-06
2.12644e-06
2.30377e-06
2.29231e-06
2.27649e-06
2.25738e-06
2.23594e-06
2.21297e-06
2.1892e-06
2.16522e-06
2.1415e-06
2.11846e-06
2.09639e-06
2.07553e-06
2.05605e-06
2.03806e-06
2.02162e-06
2.00677e-06
1.99351e-06
1.9818e-06
1.97161e-06
1.96287e-06
1.95552e-06
1.94947e-06
1.94464e-06
1.94095e-06
1.93831e-06
1.93664e-06
1.93584e-06
2.10117e-06
2.09056e-06
2.07592e-06
2.05825e-06
2.03842e-06
2.01719e-06
1.99523e-06
1.97308e-06
1.95118e-06
1.92992e-06
1.90956e-06
1.89032e-06
1.87236e-06
1.85577e-06
1.84063e-06
1.82694e-06
1.81472e-06