/*--------------------------------*- C++ -*----------------------------------*\
| =========                 |                                                 |
| \\      /  F ield         | OpenFOAM: The Open Source CFD Toolbox           |
|  \\    /   O peration     | Version:  2106                                  |
|   \\  /    A nd           | Website:  www.openfoam.com                      |
|    \\/     M anipulation  |                                                 |
\*---------------------------------------------------------------------------*/
FoamFile
{
    version     2.0;
    format      ascii;
    arch        "LSB;label=32;scalar=64";
    class       volScalarField;
    location    "110.00057";
    object      I-C4H51_0;
}
// * * * * * * * * * * * * * * * * * * * * * * * * * * * * * * * * * * * * * //

dimensions      [0 0 0 0 0 0 0];

internalField   nonuniform List<scalar> 
3360
(
2.61124e-26
2.77461e-26
3.00467e-26
3.29054e-26
3.62274e-26
3.99243e-26
4.39108e-26
4.81043e-26
5.24247e-26
5.67958e-26
6.11462e-26
6.54102e-26
6.95292e-26
7.34524e-26
7.71371e-26
8.05492e-26
8.36625e-26
8.64593e-26
8.89293e-26
9.10694e-26
9.28828e-26
9.43785e-26
9.55703e-26
9.64763e-26
9.7118e-26
9.75194e-26
9.77065e-26
1.32029e-25
1.41166e-25
1.54226e-25
1.7078e-25
1.90498e-25
2.13102e-25
2.38344e-25
2.65979e-25
2.95764e-25
3.27442e-25
3.60736e-25
3.95347e-25
4.30943e-25
4.67162e-25
5.03614e-25
5.39881e-25
5.75518e-25
6.1006e-25
6.43023e-25
6.73916e-25
7.02256e-25
7.27572e-25
7.49428e-25
7.67432e-25
7.81251e-25
7.90621e-25
7.95358e-25
5.04545e-25
5.46036e-25
6.06083e-25
6.83411e-25
7.77207e-25
8.86831e-25
1.01164e-24
1.15086e-24
1.30349e-24
1.46824e-24
1.64346e-24
1.82719e-24
2.01719e-24
2.21098e-24
2.40584e-24
2.59889e-24
2.78717e-24
2.96771e-24
3.13765e-24
3.29433e-24
3.43538e-24
3.55877e-24
3.6629e-24
3.74665e-24
3.80933e-24
3.85075e-24
3.87114e-24
1.82259e-24
1.99374e-24
2.24454e-24
2.5721e-24
2.9753e-24
3.45344e-24
4.00527e-24
4.62833e-24
5.31851e-24
6.06975e-24
6.87392e-24
7.72093e-24
8.59887e-24
9.49432e-24
1.03927e-23
1.12788e-23
1.21374e-23
1.2954e-23
1.37152e-23
1.44095e-23
1.50271e-23
1.55608e-23
1.60058e-23
1.63591e-23
1.66205e-23
1.67912e-23
1.68743e-23
6.7725e-24
7.47112e-24
8.50149e-24
9.85729e-24
1.15391e-23
1.3548e-23
1.58815e-23
1.85299e-23
2.14749e-23
2.46878e-23
2.81298e-23
3.17526e-23
3.55001e-23
3.93104e-23
4.31179e-23
4.68564e-23
5.04615e-23
5.38732e-23
5.70382e-23
5.99111e-23
6.24558e-23
6.46459e-23
6.64646e-23
6.79041e-23
6.89653e-23
6.96565e-23
6.99923e-23
2.58214e-23
2.86457e-23
3.28283e-23
3.83544e-23
4.52355e-23
5.34819e-23
6.30849e-23
7.40044e-23
8.61606e-23
9.94298e-23
1.13644e-22
1.28595e-22
1.44043e-22
1.59724e-22
1.75362e-22
1.90682e-22
2.05419e-22
2.19332e-22
2.32206e-22
2.43864e-22
2.54166e-22
2.63012e-22
2.70342e-22
2.76133e-22
2.80394e-22
2.83165e-22
2.84509e-22
1.00119e-22
1.11485e-22
1.28351e-22
1.50686e-22
1.78557e-22
2.12016e-22
2.51024e-22
2.95408e-22
3.44825e-22
3.98748e-22
4.56471e-22
5.17129e-22
5.79727e-22
6.43186e-22
7.06386e-22
7.68214e-22
8.27614e-22
8.83618e-22
9.35381e-22
9.82202e-22
1.02354e-21
1.059e-21
1.08836e-21
1.11154e-21
1.12859e-21
1.13967e-21
1.14505e-21
3.91927e-22
4.37334e-22
5.04816e-22
5.94306e-22
7.0612e-22
8.40499e-22
9.97315e-22
1.17586e-21
1.37472e-21
1.59175e-21
1.82404e-21
2.06806e-21
2.31977e-21
2.5748e-21
2.82862e-21
3.07675e-21
3.31495e-21
3.53935e-21
3.7466e-21
3.9339e-21
4.09913e-21
4.24078e-21
4.35797e-21
4.45042e-21
4.51837e-21
4.56251e-21
4.58389e-21
1.5439e-21
1.72527e-21
1.99496e-21
2.35285e-21
2.80031e-21
3.33831e-21
3.96632e-21
4.68139e-21
5.47777e-21
6.34663e-21
7.27626e-21
8.25236e-21
9.25869e-21
1.02777e-20
1.12912e-20
1.22815e-20
1.32317e-20
1.41264e-20
1.49523e-20
1.56985e-20
1.63565e-20
1.69205e-20
1.73869e-20
1.77549e-20
1.80253e-20
1.82009e-20
1.8286e-20
6.09357e-21
6.81489e-21
7.88819e-21
9.31335e-21
1.10961e-20
1.32407e-20
1.57449e-20
1.8597e-20
2.17737e-20
2.52397e-20
2.89477e-20
3.28404e-20
3.68528e-20
4.09145e-20
4.49533e-20
4.8898e-20
5.26813e-20
5.62425e-20
5.95285e-20
6.2496e-20
6.51118e-20
6.73527e-20
6.92056e-20
7.06665e-20
7.17397e-20
7.24364e-20
7.27739e-20
2.4097e-20
2.69665e-20
3.12368e-20
3.6908e-20
4.40035e-20
5.25397e-20
6.25074e-20
7.38588e-20
8.64999e-20
1.00288e-19
1.15035e-19
1.30511e-19
1.46455e-19
1.6259e-19
1.78627e-19
1.94284e-19
2.09295e-19
2.2342e-19
2.36449e-19
2.48212e-19
2.58579e-19
2.67457e-19
2.74797e-19
2.80584e-19
2.84833e-19
2.87592e-19
2.88928e-19
9.52354e-20
1.06618e-19
1.23561e-19
1.46067e-19
1.74227e-19
2.08107e-19
2.47669e-19
2.92718e-19
3.42879e-19
3.97582e-19
4.56072e-19
5.17436e-19
5.8064e-19
6.44572e-19
7.08093e-19
7.70085e-19
8.29495e-19
8.85372e-19
9.36895e-19
9.8339e-19
1.02435e-18
1.05941e-18
1.08839e-18
1.11123e-18
1.12799e-18
1.13887e-18
1.14414e-18
3.76194e-19
4.2132e-19
4.88482e-19
5.77681e-19
6.89268e-19
8.23483e-19
9.80148e-19
1.15847e-18
1.35693e-18
1.57325e-18
1.80442e-18
2.04681e-18
2.29632e-18
2.54855e-18
2.79901e-18
3.0433e-18
3.27728e-18
3.49723e-18
3.69993e-18
3.88277e-18
4.04375e-18
4.18152e-18
4.29533e-18
4.38499e-18
4.45079e-18
4.49349e-18
4.51415e-18
1.48156e-18
1.65977e-18
1.925e-18
2.2772e-18
2.71771e-18
3.24737e-18
3.86537e-18
4.56845e-18
5.35046e-18
6.20226e-18
7.11186e-18
8.06485e-18
9.04504e-18
1.00351e-17
1.10174e-17
1.19747e-17
1.28908e-17
1.37513e-17
1.45436e-17
1.52578e-17
1.58862e-17
1.64236e-17
1.68673e-17
1.72165e-17
1.74728e-17
1.76389e-17
1.77193e-17
5.81451e-18
6.51602e-18
7.55971e-18
8.94507e-18
1.06768e-17
1.27577e-17
1.51837e-17
1.7941e-17
2.10046e-17
2.43379e-17
2.78929e-17
3.16129e-17
3.54341e-17
3.92887e-17
4.31082e-17
4.68257e-17
5.03792e-17
5.37128e-17
5.67793e-17
5.95404e-17
6.19673e-17
6.40411e-17
6.57517e-17
6.70974e-17
6.8084e-17
6.87233e-17
6.90325e-17
2.26815e-17
2.54239e-17
2.95021e-17
3.49119e-17
4.16689e-17
4.978e-17
5.92254e-17
6.99472e-17
8.18432e-17
9.47663e-17
1.08527e-16
1.22903e-16
1.37644e-16
1.52489e-16
1.67173e-16
1.8144e-16
1.95055e-16
2.07807e-16
2.19518e-16
2.30047e-16
2.39288e-16
2.47174e-16
2.53671e-16
2.58776e-16
2.62514e-16
2.64935e-16
2.66105e-16
8.7796e-17
9.84256e-17
1.1422e-16
1.35151e-16
1.6126e-16
1.92554e-16
2.28932e-16
2.70146e-16
3.15778e-16
3.65239e-16
4.17783e-16
4.7254e-16
5.28552e-16
5.84819e-16
6.4034e-16
6.94157e-16
7.45393e-16
7.93274e-16
8.37154e-16
8.76525e-16
9.11018e-16
9.404e-16
9.64566e-16
9.83528e-16
9.97397e-16
1.00636e-15
1.01069e-15
3.36405e-16
3.77104e-16
4.3751e-16
5.17435e-16
6.16949e-16
7.3596e-16
8.73961e-16
1.02988e-15
1.20199e-15
1.38796e-15
1.58489e-15
1.78944e-15
1.99798e-15
2.20678e-15
2.41214e-15
2.61057e-15
2.7989e-15
2.9744e-15
3.13479e-15
3.27832e-15
3.40377e-15
3.51038e-15
3.5979e-15
3.66643e-15
3.71647e-15
3.74878e-15
3.76436e-15
1.27282e-15
1.42618e-15
1.6534e-15
1.95337e-15
2.32585e-15
2.76989e-15
3.28298e-15
3.86045e-15
4.49533e-15
5.17844e-15
5.89866e-15
6.64348e-15
7.39955e-15
8.15332e-15
8.89161e-15
9.60214e-15
1.0274e-14
1.08977e-14
1.14658e-14
1.19726e-14
1.24143e-14
1.27886e-14
1.30951e-14
1.33346e-14
1.35092e-14
1.36216e-14
1.36758e-14
4.74181e-15
5.30758e-15
6.14388e-15
7.24453e-15
8.60608e-15
1.02223e-14
1.2081e-14
1.41624e-14
1.64386e-14
1.88744e-14
2.14285e-14
2.40554e-14
2.67076e-14
2.93379e-14
3.19012e-14
3.43563e-14
3.66671e-14
3.88034e-14
4.07414e-14
4.2464e-14
4.39599e-14
4.5224e-14
4.62562e-14
4.70607e-14
4.76456e-14
4.80218e-14
4.82026e-14
1.73456e-14
1.93783e-14
2.23736e-14
2.62991e-14
3.11311e-14
3.6835e-14
4.33548e-14
5.06091e-14
5.84903e-14
6.68677e-14
7.55936e-14
8.45099e-14
9.34553e-14
1.02273e-13
1.10817e-13
1.18955e-13
1.26576e-13
1.33589e-13
1.39923e-13
1.45529e-13
1.50381e-13
1.54467e-13
1.57794e-13
1.6038e-13
1.62255e-13
1.63459e-13
1.64036e-13
6.21087e-14
6.91778e-14
7.95517e-14
9.3076e-14
1.0962e-13
1.29015e-13
1.51023e-13
1.75322e-13
2.01518e-13
2.2915e-13
2.57715e-13
2.8669e-13
3.15557e-13
3.43825e-13
3.71044e-13
3.96822e-13
4.20832e-13
4.42815e-13
4.62581e-13
4.80007e-13
4.95029e-13
5.07639e-13
5.17873e-13
5.25808e-13
5.31549e-13
5.35226e-13
5.36987e-13
2.17e-13
2.40652e-13
2.75192e-13
3.19937e-13
3.74274e-13
4.37467e-13
5.0857e-13
5.86413e-13
6.69617e-13
7.56653e-13
8.45908e-13
9.35754e-13
1.02462e-12
1.11106e-12
1.19377e-12
1.27165e-12
1.3438e-12
1.40954e-12
1.4684e-12
1.52008e-12
1.56448e-12
1.60162e-12
1.63168e-12
1.65493e-12
1.67171e-12
1.68244e-12
1.68757e-12
7.37172e-13
8.12894e-13
9.22861e-13
1.06432e-12
1.23474e-12
1.43122e-12
1.65035e-12
1.88812e-12
2.14006e-12
2.4014e-12
2.66728e-12
2.93292e-12
3.19384e-12
3.446e-12
3.68586e-12
3.91049e-12
4.11759e-12
4.30545e-12
4.47296e-12
4.61952e-12
4.74501e-12
4.84971e-12
4.93422e-12
4.99943e-12
5.04642e-12
5.07641e-12
5.09071e-12
2.42639e-12
2.6575e-12
2.99121e-12
3.41741e-12
3.92667e-12
4.5088e-12
5.15237e-12
5.8447e-12
6.57223e-12
7.32099e-12
8.07714e-12
8.82748e-12
9.55986e-12
1.02636e-11
1.09295e-11
1.15501e-11
1.21199e-11
1.26348e-11
1.30922e-11
1.34913e-11
1.3832e-11
1.41156e-11
1.4344e-11
1.45199e-11
1.46465e-11
1.47271e-11
1.47656e-11
7.71388e-12
8.38584e-12
9.35081e-12
1.05749e-11
1.20264e-11
1.36725e-11
1.54779e-11
1.74052e-11
1.94155e-11
2.14704e-11
2.35322e-11
2.55662e-11
2.75409e-11
2.9429e-11
3.12078e-11
3.28592e-11
3.43698e-11
3.57305e-11
3.69361e-11
3.79851e-11
3.88788e-11
3.96211e-11
4.0218e-11
4.0677e-11
4.10067e-11
4.12166e-11
4.13165e-11
2.36351e-11
2.55027e-11
2.81718e-11
3.15377e-11
3.55031e-11
3.99699e-11
4.48362e-11
4.99976e-11
5.53488e-11
6.07873e-11
6.62159e-11
7.15453e-11
7.66968e-11
8.16028e-11
8.62082e-11
9.047e-11
9.4357e-11
9.78491e-11
1.00936e-10
1.03616e-10
1.05895e-10
1.07785e-10
1.09302e-10
1.10467e-10
1.11303e-10
1.11835e-10
1.12088e-10
6.9661e-11
7.46622e-11
8.17838e-11
9.07242e-11
1.01206e-10
1.12956e-10
1.25695e-10
1.39143e-10
1.53025e-10
1.67076e-10
1.81048e-10
1.94717e-10
2.07885e-10
2.20388e-10
2.3209e-10
2.4289e-10
2.52713e-10
2.61516e-10
2.69278e-10
2.76001e-10
2.81704e-10
2.86423e-10
2.90202e-10
2.93098e-10
2.95171e-10
2.96487e-10
2.97111e-10
1.9667e-10
2.09716e-10
2.28263e-10
2.51505e-10
2.78706e-10
3.09145e-10
3.42102e-10
3.76857e-10
4.12702e-10
4.4896e-10
4.84995e-10
5.20232e-10
5.54166e-10
5.86366e-10
6.16484e-10
6.44254e-10
6.69487e-10
6.92066e-10
7.11941e-10
7.29121e-10
7.4366e-10
7.55655e-10
7.65235e-10
7.72549e-10
7.77766e-10
7.81062e-10
7.82619e-10
5.26123e-10
5.59482e-10
6.06997e-10
6.66707e-10
7.3685e-10
8.15718e-10
9.01597e-10
9.92765e-10
1.0875e-09
1.18413e-09
1.28105e-09
1.37674e-09
1.46987e-09
1.55921e-09
1.64376e-09
1.72265e-09
1.79524e-09
1.86104e-09
1.91972e-09
1.97112e-09
2.0152e-09
2.05206e-09
2.08187e-09
2.10493e-09
2.12158e-09
2.13221e-09
2.1373e-09
1.30486e-09
1.38715e-09
1.50507e-09
1.65448e-09
1.83186e-09
2.03388e-09
2.25723e-09
2.49851e-09
2.75425e-09
3.02091e-09
3.29493e-09
3.57276e-09
3.85093e-09
4.12603e-09
4.3948e-09
4.65414e-09
4.9011e-09
5.13297e-09
5.34726e-09
5.54177e-09
5.71463e-09
5.86427e-09
5.98955e-09
6.08969e-09
6.16434e-09
6.21354e-09
6.23773e-09
2.91021e-09
3.09677e-09
3.3662e-09
3.71133e-09
4.12676e-09
4.60785e-09
5.1501e-09
5.74885e-09
6.39903e-09
7.09498e-09
7.8303e-09
8.59778e-09
9.3893e-09
1.01958e-08
1.10073e-08
1.18132e-08
1.26021e-08
1.33624e-08
1.40826e-08
1.47515e-08
1.53585e-08
1.58942e-08
1.63507e-08
1.67215e-08
1.70019e-08
1.71892e-08
1.72824e-08
5.70165e-09
6.07221e-09
6.61089e-09
7.30712e-09
8.15449e-09
9.14843e-09
1.02848e-08
1.15588e-08
1.29642e-08
1.44924e-08
1.61319e-08
1.78677e-08
1.96814e-08
2.15508e-08
2.34505e-08
2.53523e-08
2.7226e-08
2.90406e-08
3.07651e-08
3.23701e-08
3.38282e-08
3.51154e-08
3.62116e-08
3.71011e-08
3.7773e-08
3.82211e-08
3.84438e-08
9.85986e-09
1.05021e-08
1.1439e-08
1.26552e-08
1.41426e-08
1.58959e-08
1.79097e-08
2.01764e-08
2.2684e-08
2.54147e-08
2.83442e-08
3.1441e-08
3.46666e-08
3.79761e-08
4.13197e-08
4.46439e-08
4.7894e-08
5.10155e-08
5.39566e-08
5.66696e-08
5.91126e-08
6.12507e-08
6.30563e-08
6.45097e-08
6.55994e-08
6.6321e-08
6.66773e-08
1.55786e-08
1.65765e-08
1.80309e-08
1.99157e-08
2.22149e-08
2.49148e-08
2.79998e-08
3.14487e-08
3.52325e-08
3.93131e-08
4.36426e-08
4.8164e-08
5.28123e-08
5.7517e-08
6.22039e-08
6.67985e-08
7.1228e-08
7.54244e-08
7.93262e-08
8.288e-08
8.60419e-08
8.87779e-08
9.10643e-08
9.2887e-08
9.42412e-08
9.51309e-08
9.55669e-08
2.34721e-08
2.48915e-08
2.69492e-08
2.95963e-08
3.27951e-08
3.65097e-08
4.06999e-08
4.53179e-08
5.03067e-08
5.55994e-08
6.11204e-08
6.67874e-08
7.25136e-08
7.82109e-08
8.37927e-08
8.91772e-08
9.42889e-08
9.90616e-08
1.03439e-07
1.07375e-07
1.10836e-07
1.13798e-07
1.1625e-07
1.18186e-07
1.19613e-07
1.20544e-07
1.20997e-07
3.45679e-08
3.64227e-08
3.90888e-08
4.24801e-08
4.65233e-08
5.1147e-08
5.62761e-08
6.18296e-08
6.77202e-08
7.38548e-08
8.01367e-08
8.64685e-08
9.27545e-08
9.89038e-08
1.04832e-07
1.10465e-07
1.15737e-07
1.20595e-07
1.24997e-07
1.28911e-07
1.32319e-07
1.35209e-07
1.3758e-07
1.3944e-07
1.40802e-07
1.41685e-07
1.42113e-07
4.96829e-08
5.19002e-08
5.50571e-08
5.90236e-08
6.36846e-08
6.89301e-08
7.46506e-08
8.07366e-08
8.70781e-08
9.35669e-08
1.00098e-07
1.06573e-07
1.12901e-07
1.18999e-07
1.24797e-07
1.30234e-07
1.35263e-07
1.39847e-07
1.43959e-07
1.47584e-07
1.50713e-07
1.53348e-07
1.55497e-07
1.57172e-07
1.58393e-07
1.59181e-07
1.59562e-07
6.87242e-08
7.11501e-08
7.45738e-08
7.8827e-08
8.37596e-08
8.92312e-08
9.51089e-08
1.01266e-07
1.07584e-07
1.13951e-07
1.20268e-07
1.26443e-07
1.32398e-07
1.38068e-07
1.43397e-07
1.48343e-07
1.52874e-07
1.56968e-07
1.60612e-07
1.63801e-07
1.66538e-07
1.68829e-07
1.70689e-07
1.72132e-07
1.7318e-07
1.73855e-07
1.7418e-07
9.05718e-08
9.30214e-08
9.64533e-08
1.00676e-07
1.05521e-07
1.10832e-07
1.16467e-07
1.22295e-07
1.282e-07
1.34079e-07
1.39843e-07
1.45416e-07
1.50734e-07
1.55747e-07
1.60418e-07
1.64716e-07
1.68624e-07
1.72131e-07
1.75234e-07
1.77934e-07
1.8024e-07
1.82163e-07
1.83717e-07
1.84919e-07
1.8579e-07
1.86349e-07
1.86617e-07
1.13578e-07
1.15891e-07
1.19113e-07
1.23048e-07
1.27524e-07
1.32385e-07
1.37491e-07
1.42721e-07
1.47968e-07
1.53143e-07
1.58169e-07
1.62985e-07
1.67544e-07
1.71809e-07
1.75753e-07
1.79359e-07
1.82619e-07
1.85528e-07
1.88088e-07
1.90307e-07
1.92195e-07
1.93763e-07
1.95026e-07
1.96002e-07
1.96706e-07
1.97158e-07
1.97374e-07
1.36185e-07
1.38258e-07
1.41132e-07
1.44622e-07
1.48566e-07
1.52817e-07
1.5725e-07
1.61756e-07
1.66242e-07
1.70632e-07
1.74866e-07
1.78896e-07
1.82684e-07
1.86207e-07
1.89446e-07
1.92392e-07
1.95041e-07
1.97395e-07
1.99459e-07
2.01241e-07
2.02751e-07
2.04002e-07
2.05008e-07
2.05782e-07
2.0634e-07
2.06697e-07
2.06868e-07
1.5732e-07
1.59107e-07
1.61575e-07
1.64559e-07
1.67914e-07
1.71512e-07
1.75241e-07
1.79008e-07
1.82737e-07
1.86365e-07
1.89843e-07
1.93134e-07
1.96213e-07
1.9906e-07
2.01666e-07
2.04026e-07
2.06139e-07
2.0801e-07
2.09643e-07
2.11049e-07
2.12237e-07
2.13219e-07
2.14006e-07
2.1461e-07
2.15045e-07
2.15323e-07
2.15455e-07
1.76451e-07
1.77949e-07
1.80013e-07
1.82501e-07
1.85288e-07
1.88262e-07
1.91331e-07
1.94417e-07
1.97457e-07
2.00401e-07
2.03209e-07
2.05855e-07
2.08318e-07
2.10587e-07
2.12654e-07
2.14519e-07
2.16182e-07
2.17649e-07
2.18926e-07
2.20021e-07
2.20944e-07
2.21704e-07
2.22312e-07
2.22777e-07
2.23112e-07
2.23325e-07
2.23426e-07
1.93468e-07
1.94702e-07
1.964e-07
1.98441e-07
2.0072e-07
2.03144e-07
2.05636e-07
2.08132e-07
2.10581e-07
2.12943e-07
2.15187e-07
2.17293e-07
2.19246e-07
2.21037e-07
2.22663e-07
2.24124e-07
2.25422e-07
2.26562e-07
2.27551e-07
2.28397e-07
2.29107e-07
2.2969e-07
2.30155e-07
2.3051e-07
2.30764e-07
2.30926e-07
2.31003e-07
2.08521e-07
2.09529e-07
2.10913e-07
2.12573e-07
2.14421e-07
2.16382e-07
2.18392e-07
2.20399e-07
2.22361e-07
2.24246e-07
2.26032e-07
2.277e-07
2.29241e-07
2.3065e-07
2.31923e-07
2.33062e-07
2.34071e-07
2.34953e-07
2.35715e-07
2.36364e-07
2.36907e-07
2.37351e-07
2.37704e-07
2.37972e-07
2.38164e-07
2.38285e-07
2.38343e-07
2.21881e-07
2.22702e-07
2.23827e-07
2.25174e-07
2.2667e-07
2.28255e-07
2.29874e-07
2.31487e-07
2.33058e-07
2.34563e-07
2.35983e-07
2.37305e-07
2.38522e-07
2.39629e-07
2.40626e-07
2.41514e-07
2.42296e-07
2.42978e-07
2.43564e-07
2.4406e-07
2.44473e-07
2.44809e-07
2.45075e-07
2.45277e-07
2.4542e-07
2.4551e-07
2.45552e-07
2.33849e-07
2.34518e-07
2.35435e-07
2.36532e-07
2.37748e-07
2.39033e-07
2.40343e-07
2.41644e-07
2.42908e-07
2.44115e-07
2.45249e-07
2.46301e-07
2.47265e-07
2.48139e-07
2.48921e-07
2.49615e-07
2.50223e-07
2.50749e-07
2.51199e-07
2.51579e-07
2.51892e-07
2.52146e-07
2.52345e-07
2.52495e-07
2.526e-07
2.52666e-07
2.52697e-07
2.44705e-07
2.45256e-07
2.46009e-07
2.46909e-07
2.47905e-07
2.48955e-07
2.50024e-07
2.51081e-07
2.52106e-07
2.53082e-07
2.53995e-07
2.54839e-07
2.55608e-07
2.56302e-07
2.5692e-07
2.57465e-07
2.57939e-07
2.58347e-07
2.58693e-07
2.58983e-07
2.5922e-07
2.5941e-07
2.59559e-07
2.59669e-07
2.59746e-07
2.59794e-07
2.59816e-07
2.54693e-07
2.55151e-07
2.55777e-07
2.56523e-07
2.57348e-07
2.58216e-07
2.59098e-07
2.59968e-07
2.60809e-07
2.61606e-07
2.62349e-07
2.63033e-07
2.63654e-07
2.6421e-07
2.64702e-07
2.65133e-07
2.65506e-07
2.65823e-07
2.6609e-07
2.66311e-07
2.66491e-07
2.66633e-07
2.66742e-07
2.66823e-07
2.66878e-07
2.66912e-07
2.66927e-07
2.64009e-07
2.64395e-07
2.64922e-07
2.65549e-07
2.66243e-07
2.66971e-07
2.67708e-07
2.68434e-07
2.69134e-07
2.69794e-07
2.70408e-07
2.70969e-07
2.71475e-07
2.71926e-07
2.72323e-07
2.72667e-07
2.72962e-07
2.7321e-07
2.73417e-07
2.73586e-07
2.73721e-07
2.73826e-07
2.73906e-07
2.73964e-07
2.74003e-07
2.74026e-07
2.74036e-07
2.72806e-07
2.73136e-07
2.73587e-07
2.74124e-07
2.74715e-07
2.75335e-07
2.75962e-07
2.76577e-07
2.77168e-07
2.77724e-07
2.78237e-07
2.78705e-07
2.79124e-07
2.79495e-07
2.79818e-07
2.80095e-07
2.8033e-07
2.80526e-07
2.80687e-07
2.80816e-07
2.80917e-07
2.80994e-07
2.81051e-07
2.81091e-07
2.81117e-07
2.81132e-07
2.81139e-07
2.81202e-07
2.81489e-07
2.81881e-07
2.82347e-07
2.8286e-07
2.83397e-07
2.83938e-07
2.84467e-07
2.84974e-07
2.85449e-07
2.85886e-07
2.86281e-07
2.86632e-07
2.86941e-07
2.87207e-07
2.87433e-07
2.87622e-07
2.87778e-07
2.87902e-07
2.88e-07
2.88075e-07
2.88131e-07
2.8817e-07
2.88197e-07
2.88213e-07
2.88222e-07
2.88225e-07
2.89282e-07
2.89536e-07
2.89882e-07
2.90292e-07
2.90744e-07
2.91215e-07
2.91689e-07
2.92152e-07
2.92594e-07
2.93005e-07
2.93381e-07
2.9372e-07
2.94019e-07
2.94279e-07
2.945e-07
2.94686e-07
2.94839e-07
2.94962e-07
2.95059e-07
2.95133e-07
2.95187e-07
2.95226e-07
2.95251e-07
2.95267e-07
2.95275e-07
2.95279e-07
2.9528e-07
2.97106e-07
2.97333e-07
2.97643e-07
2.9801e-07
2.98413e-07
2.98832e-07
2.99253e-07
2.99663e-07
3.00051e-07
3.00412e-07
3.0074e-07
3.01033e-07
3.0129e-07
3.01511e-07
3.01696e-07
3.0185e-07
3.01974e-07
3.02071e-07
3.02145e-07
3.02199e-07
3.02237e-07
3.02261e-07
3.02276e-07
3.02283e-07
3.02285e-07
3.02284e-07
3.02283e-07
3.04714e-07
3.0492e-07
3.052e-07
3.05531e-07
3.05893e-07
3.06271e-07
3.06648e-07
3.07014e-07
3.07359e-07
3.07678e-07
3.07966e-07
3.08222e-07
3.08443e-07
3.08631e-07
3.08787e-07
3.08913e-07
3.09012e-07
3.09088e-07
3.09143e-07
3.0918e-07
3.09204e-07
3.09217e-07
3.09221e-07
3.09221e-07
3.09218e-07
3.09214e-07
3.09211e-07
3.12129e-07
3.12316e-07
3.1257e-07
3.12871e-07
3.132e-07
3.13541e-07
3.1388e-07
3.14208e-07
3.14517e-07
3.14799e-07
3.15053e-07
3.15275e-07
3.15465e-07
3.15625e-07
3.15754e-07
3.15857e-07
3.15934e-07
3.15991e-07
3.16029e-07
3.16051e-07
3.16062e-07
3.16065e-07
3.16061e-07
3.16054e-07
3.16046e-07
3.16039e-07
3.16035e-07
3.19357e-07
3.19528e-07
3.1976e-07
3.20033e-07
3.20331e-07
3.2064e-07
3.20945e-07
3.21239e-07
3.21513e-07
3.21763e-07
3.21984e-07
3.22176e-07
3.22338e-07
3.22471e-07
3.22576e-07
3.22656e-07
3.22713e-07
3.22751e-07
3.22773e-07
3.22782e-07
3.22781e-07
3.22774e-07
3.22762e-07
3.22749e-07
3.22736e-07
3.22726e-07
3.22721e-07
3.26395e-07
3.26551e-07
3.26761e-07
3.27009e-07
3.27278e-07
3.27555e-07
3.27828e-07
3.28088e-07
3.2833e-07
3.28547e-07
3.28737e-07
3.28899e-07
3.29033e-07
3.29139e-07
3.2922e-07
3.29278e-07
3.29315e-07
3.29335e-07
3.29341e-07
3.29336e-07
3.29323e-07
3.29306e-07
3.29286e-07
3.29266e-07
3.29249e-07
3.29237e-07
3.2923e-07
3.33227e-07
3.33367e-07
3.33556e-07
3.33778e-07
3.34017e-07
3.34262e-07
3.34502e-07
3.34729e-07
3.34937e-07
3.35121e-07
3.35279e-07
3.3541e-07
3.35514e-07
3.35593e-07
3.35648e-07
3.35682e-07
3.35698e-07
3.35699e-07
3.35688e-07
3.35669e-07
3.35643e-07
3.35615e-07
3.35587e-07
3.35561e-07
3.35539e-07
3.35523e-07
3.35514e-07
3.39827e-07
3.39951e-07
3.40117e-07
3.40311e-07
3.40519e-07
3.4073e-07
3.40935e-07
3.41125e-07
3.41296e-07
3.41444e-07
3.41567e-07
3.41664e-07
3.41737e-07
3.41785e-07
3.41813e-07
3.41821e-07
3.41814e-07
3.41794e-07
3.41764e-07
3.41729e-07
3.41689e-07
3.4165e-07
3.41612e-07
3.41579e-07
3.41551e-07
3.41532e-07
3.41522e-07
3.46157e-07
3.46263e-07
3.46404e-07
3.46568e-07
3.46742e-07
3.46915e-07
3.4708e-07
3.4723e-07
3.4736e-07
3.47468e-07
3.47551e-07
3.47611e-07
3.47647e-07
3.47662e-07
3.47658e-07
3.47637e-07
3.47603e-07
3.4756e-07
3.47509e-07
3.47455e-07
3.474e-07
3.47347e-07
3.47298e-07
3.47257e-07
3.47223e-07
3.472e-07
3.47188e-07
3.52171e-07
3.52256e-07
3.52369e-07
3.52498e-07
3.52632e-07
3.52763e-07
3.52883e-07
3.52987e-07
3.5307e-07
3.53131e-07
3.5317e-07
3.53186e-07
3.53181e-07
3.53157e-07
3.53116e-07
3.53062e-07
3.52998e-07
3.52926e-07
3.52851e-07
3.52776e-07
3.52703e-07
3.52635e-07
3.52574e-07
3.52523e-07
3.52482e-07
3.52455e-07
3.5244e-07
3.57808e-07
3.5787e-07
3.57951e-07
3.5804e-07
3.58128e-07
3.5821e-07
3.58277e-07
3.58327e-07
3.58356e-07
3.58364e-07
3.5835e-07
3.58316e-07
3.58262e-07
3.58193e-07
3.58109e-07
3.58016e-07
3.57916e-07
3.57813e-07
3.5771e-07
3.5761e-07
3.57515e-07
3.57429e-07
3.57354e-07
3.57292e-07
3.57243e-07
3.5721e-07
3.57193e-07
3.62999e-07
3.63033e-07
3.63075e-07
3.63118e-07
3.63154e-07
3.63177e-07
3.63184e-07
3.63171e-07
3.63137e-07
3.63082e-07
3.63007e-07
3.62913e-07
3.62803e-07
3.6268e-07
3.62547e-07
3.62408e-07
3.62267e-07
3.62126e-07
3.61989e-07
3.6186e-07
3.61741e-07
3.61634e-07
3.61542e-07
3.61467e-07
3.61409e-07
3.6137e-07
3.6135e-07
3.67658e-07
3.6766e-07
3.67658e-07
3.67646e-07
3.67619e-07
3.67575e-07
3.6751e-07
3.67424e-07
3.67316e-07
3.67188e-07
3.6704e-07
3.66877e-07
3.66701e-07
3.66516e-07
3.66325e-07
3.66133e-07
3.65942e-07
3.65758e-07
3.65582e-07
3.65419e-07
3.65271e-07
3.6514e-07
3.65028e-07
3.64937e-07
3.64868e-07
3.64822e-07
3.64799e-07
3.71687e-07
3.71652e-07
3.71598e-07
3.71522e-07
3.71423e-07
3.71299e-07
3.71151e-07
3.70979e-07
3.70784e-07
3.7057e-07
3.70339e-07
3.70094e-07
3.69841e-07
3.69583e-07
3.69324e-07
3.69069e-07
3.68822e-07
3.68587e-07
3.68366e-07
3.68163e-07
3.67981e-07
3.67822e-07
3.67687e-07
3.67579e-07
3.67497e-07
3.67442e-07
3.67415e-07
3.74975e-07
3.74896e-07
3.74781e-07
3.74631e-07
3.74447e-07
3.74231e-07
3.73985e-07
3.73713e-07
3.73418e-07
3.73103e-07
3.72774e-07
3.72436e-07
3.72093e-07
3.7175e-07
3.71413e-07
3.71085e-07
3.70772e-07
3.70477e-07
3.70204e-07
3.69956e-07
3.69735e-07
3.69543e-07
3.69382e-07
3.69253e-07
3.69157e-07
3.69092e-07
3.69061e-07
3.77394e-07
3.77264e-07
3.77078e-07
3.76842e-07
3.76559e-07
3.76236e-07
3.75878e-07
3.7549e-07
3.75078e-07
3.74648e-07
3.74206e-07
3.73759e-07
3.73312e-07
3.72873e-07
3.72445e-07
3.72034e-07
3.71645e-07
3.71283e-07
3.70949e-07
3.70649e-07
3.70383e-07
3.70154e-07
3.69963e-07
3.6981e-07
3.69697e-07
3.69622e-07
3.69585e-07
3.78802e-07
3.78614e-07
3.78347e-07
3.78011e-07
3.77615e-07
3.77169e-07
3.76682e-07
3.76161e-07
3.75615e-07
3.75052e-07
3.74482e-07
3.7391e-07
3.73346e-07
3.72795e-07
3.72264e-07
3.71759e-07
3.71284e-07
3.70844e-07
3.70443e-07
3.70083e-07
3.69767e-07
3.69496e-07
3.69271e-07
3.69092e-07
3.68959e-07
3.68872e-07
3.68829e-07
3.79047e-07
3.78793e-07
3.78432e-07
3.77983e-07
3.77458e-07
3.76873e-07
3.76238e-07
3.75566e-07
3.74869e-07
3.74156e-07
3.7344e-07
3.72728e-07
3.72031e-07
3.71355e-07
3.70708e-07
3.70097e-07
3.69526e-07
3.69e-07
3.68522e-07
3.68096e-07
3.67724e-07
3.67406e-07
3.67143e-07
3.66935e-07
3.66781e-07
3.6668e-07
3.66631e-07
3.77966e-07
3.77637e-07
3.77172e-07
3.76595e-07
3.75925e-07
3.75182e-07
3.74383e-07
3.73542e-07
3.72675e-07
3.71796e-07
3.70917e-07
3.7005e-07
3.69204e-07
3.6839e-07
3.67615e-07
3.66886e-07
3.66209e-07
3.65588e-07
3.65027e-07
3.64529e-07
3.64095e-07
3.63725e-07
3.63421e-07
3.63181e-07
3.63005e-07
3.62889e-07
3.62833e-07
3.75395e-07
3.74981e-07
3.744e-07
3.73682e-07
3.72852e-07
3.71935e-07
3.70953e-07
3.69927e-07
3.68874e-07
3.67811e-07
3.66755e-07
3.65717e-07
3.64711e-07
3.63746e-07
3.62833e-07
3.61977e-07
3.61185e-07
3.60462e-07
3.59812e-07
3.59236e-07
3.58735e-07
3.58312e-07
3.57963e-07
3.5769e-07
3.57489e-07
3.57358e-07
3.57294e-07
3.71172e-07
3.70668e-07
3.6996e-07
3.69087e-07
3.68083e-07
3.66978e-07
3.65799e-07
3.64572e-07
3.63319e-07
3.6206e-07
3.60813e-07
3.59594e-07
3.58417e-07
3.57293e-07
3.56232e-07
3.55242e-07
3.5433e-07
3.53501e-07
3.52756e-07
3.52099e-07
3.51531e-07
3.5105e-07
3.50657e-07
3.50349e-07
3.50123e-07
3.49976e-07
3.49904e-07
3.65156e-07
3.64554e-07
3.63711e-07
3.62675e-07
3.61486e-07
3.60181e-07
3.58795e-07
3.57357e-07
3.55893e-07
3.54429e-07
3.52984e-07
3.51577e-07
3.50223e-07
3.48935e-07
3.47724e-07
3.46598e-07
3.45564e-07
3.44626e-07
3.43787e-07
3.4305e-07
3.42413e-07
3.41876e-07
3.41438e-07
3.41095e-07
3.40845e-07
3.40682e-07
3.40603e-07
3.57235e-07
3.56532e-07
3.5555e-07
3.54344e-07
3.52964e-07
3.51456e-07
3.49857e-07
3.48204e-07
3.46528e-07
3.44856e-07
3.43213e-07
3.41618e-07
3.40089e-07
3.38639e-07
3.3728e-07
3.36022e-07
3.34869e-07
3.33826e-07
3.32897e-07
3.32082e-07
3.31381e-07
3.30791e-07
3.30311e-07
3.29937e-07
3.29664e-07
3.29487e-07
3.29401e-07
3.47349e-07
3.46545e-07
3.45423e-07
3.44049e-07
3.42481e-07
3.40771e-07
3.38964e-07
3.37102e-07
3.3522e-07
3.33349e-07
3.31516e-07
3.29743e-07
3.28049e-07
3.26449e-07
3.24953e-07
3.23572e-07
3.22312e-07
3.21175e-07
3.20166e-07
3.19282e-07
3.18524e-07
3.17889e-07
3.17373e-07
3.16971e-07
3.16679e-07
3.16491e-07
3.164e-07
3.35507e-07
3.34607e-07
3.33353e-07
3.31821e-07
3.30076e-07
3.28178e-07
3.26179e-07
3.24124e-07
3.22055e-07
3.20005e-07
3.18004e-07
3.16074e-07
3.14236e-07
3.12506e-07
3.10895e-07
3.09412e-07
3.08063e-07
3.0685e-07
3.05776e-07
3.04839e-07
3.04037e-07
3.03367e-07
3.02823e-07
3.02401e-07
3.02095e-07
3.01898e-07
3.01803e-07
3.2181e-07
3.20824e-07
3.19453e-07
3.17781e-07
3.15882e-07
3.13822e-07
3.11658e-07
3.09442e-07
3.07217e-07
3.0502e-07
3.02882e-07
3.00828e-07
2.98878e-07
2.97049e-07
2.95352e-07
2.93796e-07
2.92386e-07
2.91124e-07
2.90009e-07
2.89041e-07
2.88216e-07
2.87528e-07
2.86973e-07
2.86543e-07
2.86233e-07
2.86033e-07
2.85938e-07
3.06464e-07
3.0541e-07
3.03946e-07
3.02165e-07
3.00147e-07
2.97963e-07
2.95677e-07
2.93343e-07
2.91009e-07
2.88716e-07
2.86493e-07
2.84367e-07
2.82357e-07
2.8048e-07
2.78746e-07
2.77161e-07
2.7573e-07
2.74454e-07
2.73332e-07
2.72361e-07
2.71536e-07
2.70851e-07
2.70301e-07
2.69876e-07
2.6957e-07
2.69375e-07
2.69281e-07
2.89785e-07
2.88688e-07
2.87168e-07
2.85323e-07
2.83238e-07
2.80991e-07
2.78648e-07
2.76265e-07
2.73891e-07
2.71567e-07
2.69323e-07
2.67186e-07
2.65175e-07
2.63304e-07
2.61584e-07
2.60019e-07
2.58612e-07
2.57364e-07
2.56271e-07
2.55329e-07
2.54532e-07
2.53874e-07
2.53347e-07
2.52943e-07
2.52653e-07
2.52468e-07
2.5238e-07
2.72266e-07
2.71158e-07
2.69625e-07
2.67769e-07
2.6568e-07
2.63435e-07
2.61103e-07
2.58742e-07
2.564e-07
2.54117e-07
2.51924e-07
2.49845e-07
2.47899e-07
2.46098e-07
2.4445e-07
2.42958e-07
2.41625e-07
2.40448e-07
2.39423e-07
2.38545e-07
2.37806e-07
2.372e-07
2.36717e-07
2.36348e-07
2.36086e-07
2.35919e-07
2.35841e-07
2.54452e-07
2.53368e-07
2.51872e-07
2.50065e-07
2.48038e-07
2.45869e-07
2.43626e-07
2.41365e-07
2.39134e-07
2.3697e-07
2.34903e-07
2.32955e-07
2.31142e-07
2.29473e-07
2.27956e-07
2.26592e-07
2.25381e-07
2.24318e-07
2.23399e-07
2.22618e-07
2.21965e-07
2.21433e-07
2.21013e-07
2.20695e-07
2.2047e-07
2.20329e-07
2.20262e-07
2.3695e-07
2.35926e-07
2.34517e-07
2.32822e-07
2.30926e-07
2.28907e-07
2.26829e-07
2.24746e-07
2.22702e-07
2.20731e-07
2.1886e-07
2.17109e-07
2.1549e-07
2.14011e-07
2.12676e-07
2.11486e-07
2.10437e-07
2.09526e-07
2.08745e-07
2.08087e-07
2.07543e-07
2.07104e-07
2.06761e-07
2.06505e-07
2.06326e-07
2.06215e-07
2.06164e-07
2.20367e-07
2.19438e-07
2.18162e-07
2.16633e-07
2.14931e-07
2.13127e-07
2.1128e-07
2.0944e-07
2.07646e-07
2.05928e-07
2.0431e-07
2.02807e-07
2.0143e-07
2.00183e-07
1.99069e-07
1.98085e-07
1.97228e-07
1.96492e-07
1.9587e-07
1.95352e-07
1.94931e-07
1.94597e-07
1.94341e-07
1.94153e-07
1.94025e-07
1.93948e-07
1.93913e-07
2.05236e-07
2.04429e-07
2.03323e-07
2.02002e-07
2.00539e-07
1.98996e-07
1.97428e-07
1.95876e-07
1.94374e-07
1.92948e-07
1.91618e-07
1.90394e-07
1.89284e-07
1.88292e-07
1.87417e-07
1.86656e-07
1.86003e-07
1.85453e-07
1.84997e-07
1.84627e-07
1.84333e-07
1.84107e-07
1.8394e-07
1.83822e-07
1.83745e-07
1.83701e-07
1.83683e-07
1.91949e-07
1.91278e-07
1.90362e-07
1.89273e-07
1.88074e-07
1.86817e-07
1.85548e-07
1.84304e-07
1.8311e-07
1.8199e-07
1.80956e-07
1.80018e-07
1.7918e-07
1.78444e-07
1.77807e-07
1.77266e-07
1.76815e-07
1.76446e-07
1.76152e-07
1.75924e-07
1.75753e-07
1.75631e-07
1.75549e-07
1.75498e-07
1.7547e-07
1.75459e-07
1.75456e-07
1.80707e-07
1.80175e-07
1.79453e-07
1.78599e-07
1.77663e-07
1.76691e-07
1.75719e-07
1.74775e-07
1.73881e-07
1.73054e-07
1.72304e-07
1.71637e-07
1.71055e-07
1.70559e-07
1.70144e-07
1.69807e-07
1.69542e-07
1.6934e-07
1.69195e-07
1.69098e-07
1.6904e-07
1.69013e-07
1.69009e-07
1.69019e-07
1.69037e-07
1.69055e-07
1.69067e-07
1.71512e-07
1.71112e-07
1.70572e-07
1.69937e-07
1.69248e-07
1.68539e-07
1.67838e-07
1.67169e-07
1.66547e-07
1.65985e-07
1.6549e-07
1.65065e-07
1.64712e-07
1.64429e-07
1.64213e-07
1.64058e-07
1.63958e-07
1.63905e-07
1.63893e-07
1.63912e-07
1.63956e-07
1.64014e-07
1.64081e-07
1.64147e-07
1.64206e-07
1.64251e-07
1.64277e-07
1.64205e-07
1.63922e-07
1.63542e-07
1.631e-07
1.62626e-07
1.62146e-07
1.61683e-07
1.61252e-07
1.60866e-07
1.60533e-07
1.60259e-07
1.60046e-07
1.59892e-07
1.59796e-07
1.59753e-07
1.59758e-07
1.59804e-07
1.59885e-07
1.59992e-07
1.60118e-07
1.60254e-07
1.60392e-07
1.60524e-07
1.60643e-07
1.60741e-07
1.60812e-07
1.6085e-07
1.58528e-07
1.58344e-07
1.58099e-07
1.5782e-07
1.57528e-07
1.57243e-07
1.5698e-07
1.56752e-07
1.56568e-07
1.56433e-07
1.56351e-07
1.56321e-07
1.56343e-07
1.56413e-07
1.56526e-07
1.56677e-07