/*--------------------------------*- C++ -*----------------------------------*\
| =========                 |                                                 |
| \\      /  F ield         | OpenFOAM: The Open Source CFD Toolbox           |
|  \\    /   O peration     | Version:  2106                                  |
|   \\  /    A nd           | Website:  www.openfoam.com                      |
|    \\/     M anipulation  |                                                 |
\*---------------------------------------------------------------------------*/
FoamFile
{
    version     2.0;
    format      ascii;
    arch        "LSB;label=32;scalar=64";
    class       volScalarField;
    location    "110.00057";
    object      SC3H5;
}
// * * * * * * * * * * * * * * * * * * * * * * * * * * * * * * * * * * * * * //

dimensions      [0 0 0 0 0 0 0];

internalField   nonuniform List<scalar> 
3360
(
2.50825e-24
2.66527e-24
2.88637e-24
3.16111e-24
3.48041e-24
3.83573e-24
4.21889e-24
4.62196e-24
5.03724e-24
5.4574e-24
5.87558e-24
6.28546e-24
6.68141e-24
7.05854e-24
7.41276e-24
7.74076e-24
8.04006e-24
8.30893e-24
8.54638e-24
8.75212e-24
8.92645e-24
9.07024e-24
9.18482e-24
9.27193e-24
9.33362e-24
9.37221e-24
9.3902e-24
1.26875e-23
1.35659e-23
1.48217e-23
1.64134e-23
1.83093e-23
2.04828e-23
2.29099e-23
2.55672e-23
2.84313e-23
3.14774e-23
3.46789e-23
3.80071e-23
4.14301e-23
4.4913e-23
4.84182e-23
5.19057e-23
5.53326e-23
5.86542e-23
6.18239e-23
6.47946e-23
6.75198e-23
6.99542e-23
7.20558e-23
7.37871e-23
7.51158e-23
7.60169e-23
7.64723e-23
4.85165e-23
5.25083e-23
5.82855e-23
6.57255e-23
7.47501e-23
8.52979e-23
9.7307e-23
1.10703e-22
1.2539e-22
1.41243e-22
1.58104e-22
1.75784e-22
1.94068e-22
2.12716e-22
2.31468e-22
2.50045e-22
2.68164e-22
2.85537e-22
3.01891e-22
3.1697e-22
3.30543e-22
3.42417e-22
3.52439e-22
3.60498e-22
3.6653e-22
3.70516e-22
3.72479e-22
1.75404e-22
1.91883e-22
2.16034e-22
2.47574e-22
2.864e-22
3.32444e-22
3.85585e-22
4.45587e-22
5.12055e-22
5.84405e-22
6.61854e-22
7.43431e-22
8.27988e-22
9.14232e-22
1.00076e-21
1.08611e-21
1.16881e-21
1.24746e-21
1.32079e-21
1.38765e-21
1.44715e-21
1.49856e-21
1.54141e-21
1.57545e-21
1.60063e-21
1.61707e-21
1.62508e-21
6.52396e-22
7.19726e-22
8.19031e-22
9.49702e-22
1.1118e-21
1.30544e-21
1.53035e-21
1.78564e-21
2.06953e-21
2.37924e-21
2.71104e-21
3.06029e-21
3.42157e-21
3.78891e-21
4.15599e-21
4.51642e-21
4.86399e-21
5.19293e-21
5.49808e-21
5.77507e-21
6.02043e-21
6.23159e-21
6.40694e-21
6.54574e-21
6.64806e-21
6.71471e-21
6.74708e-21
2.48987e-21
2.76233e-21
3.16582e-21
3.69894e-21
4.36282e-21
5.15843e-21
6.08495e-21
7.13854e-21
8.3115e-21
9.59188e-21
1.09635e-20
1.24063e-20
1.3897e-20
1.54103e-20
1.69194e-20
1.83979e-20
1.98202e-20
2.11628e-20
2.24053e-20
2.35305e-20
2.45247e-20
2.53785e-20
2.6086e-20
2.66449e-20
2.70562e-20
2.73237e-20
2.74534e-20
9.664e-21
1.07615e-20
1.23902e-20
1.45472e-20
1.72388e-20
2.04701e-20
2.42376e-20
2.85244e-20
3.32974e-20
3.85058e-20
4.40815e-20
4.99408e-20
5.59877e-20
6.21179e-20
6.82231e-20
7.41961e-20
7.99345e-20
8.53449e-20
9.03458e-20
9.48692e-20
9.88626e-20
1.02289e-19
1.05126e-19
1.07365e-19
1.09013e-19
1.10083e-19
1.10602e-19
3.78698e-20
4.22591e-20
4.87822e-20
5.74331e-20
6.82424e-20
8.12336e-20
9.63944e-20
1.13657e-19
1.32884e-19
1.53868e-19
1.76328e-19
1.99924e-19
2.24265e-19
2.48926e-19
2.7347e-19
2.97465e-19
3.20501e-19
3.42202e-19
3.62245e-19
3.80359e-19
3.96339e-19
4.10038e-19
4.21372e-19
4.30313e-19
4.36885e-19
4.41153e-19
4.43222e-19
1.49335e-19
1.66884e-19
1.92981e-19
2.27614e-19
2.70915e-19
3.22981e-19
3.83758e-19
4.52965e-19
5.30043e-19
6.14139e-19
7.0412e-19
7.98602e-19
8.96012e-19
9.94649e-19
1.09276e-18
1.18863e-18
1.28061e-18
1.36722e-18
1.44718e-18
1.51942e-18
1.58312e-18
1.63772e-18
1.68288e-18
1.7185e-18
1.74468e-18
1.76168e-18
1.76992e-18
5.90028e-19
6.59898e-19
7.63864e-19
9.01918e-19
1.07462e-18
1.28238e-18
1.52498e-18
1.80131e-18
2.10909e-18
2.4449e-18
2.80418e-18
3.18137e-18
3.57016e-18
3.96374e-18
4.35511e-18
4.73737e-18
5.104e-18
5.4491e-18
5.76755e-18
6.05514e-18
6.30864e-18
6.52581e-18
6.70538e-18
6.84697e-18
6.95097e-18
7.0185e-18
7.05121e-18
2.33578e-18
2.61402e-18
3.0281e-18
3.57806e-18
4.26614e-18
5.09397e-18
6.06066e-18
7.16158e-18
8.38762e-18
9.72496e-18
1.11553e-17
1.26564e-17
1.42031e-17
1.57681e-17
1.73238e-17
1.88426e-17
2.02988e-17
2.16691e-17
2.2933e-17
2.40742e-17
2.50799e-17
2.59412e-17
2.66533e-17
2.72147e-17
2.7627e-17
2.78947e-17
2.80243e-17
9.2416e-18
1.03465e-17
1.19913e-17
1.4176e-17
1.69099e-17
2.0199e-17
2.40399e-17
2.84137e-17
3.3284e-17
3.85953e-17
4.42745e-17
5.0233e-17
5.63703e-17
6.25784e-17
6.87468e-17
7.47668e-17
8.05361e-17
8.59625e-17
9.0966e-17
9.54814e-17
9.9459e-17
1.02864e-16
1.05679e-16
1.07896e-16
1.09525e-16
1.10581e-16
1.11093e-16
3.6548e-17
4.09333e-17
4.74603e-17
5.61291e-17
6.6974e-17
8.00184e-17
9.52452e-17
1.12578e-16
1.31868e-16
1.52895e-16
1.75365e-16
1.98927e-16
2.23181e-16
2.47701e-16
2.72048e-16
2.95797e-16
3.18544e-16
3.39926e-16
3.59632e-16
3.77408e-16
3.93059e-16
4.06453e-16
4.17518e-16
4.26234e-16
4.32632e-16
4.36783e-16
4.38792e-16
1.44114e-16
1.61454e-16
1.87259e-16
2.21528e-16
2.6439e-16
3.15928e-16
3.76064e-16
4.44479e-16
5.20578e-16
6.03468e-16
6.91986e-16
7.84728e-16
8.80119e-16
9.76471e-16
1.07207e-15
1.16523e-15
1.2544e-15
1.33814e-15
1.41526e-15
1.48477e-15
1.54593e-15
1.59824e-15
1.64142e-15
1.67541e-15
1.70035e-15
1.71653e-15
1.72435e-15
5.66353e-16
6.34694e-16
7.36372e-16
8.71338e-16
1.04006e-15
1.24279e-15
1.47914e-15
1.74779e-15
2.04628e-15
2.37104e-15
2.71743e-15
3.07988e-15
3.4522e-15
3.82778e-15
4.19994e-15
4.56218e-15
4.90842e-15
5.23326e-15
5.53206e-15
5.80111e-15
6.0376e-15
6.23967e-15
6.40635e-15
6.53749e-15
6.63363e-15
6.69593e-15
6.72606e-15
2.21261e-15
2.48017e-15
2.87805e-15
3.40584e-15
4.06508e-15
4.85643e-15
5.77796e-15
6.82402e-15
7.98465e-15
9.24548e-15
1.05881e-14
1.19906e-14
1.34289e-14
1.48772e-14
1.63098e-14
1.77018e-14
1.90301e-14
2.02743e-14
2.14169e-14
2.24441e-14
2.33458e-14
2.41152e-14
2.47491e-14
2.52472e-14
2.56119e-14
2.58481e-14
2.59622e-14
8.57966e-15
9.61847e-15
1.1162e-14
1.32075e-14
1.57591e-14
1.88173e-14
2.23723e-14
2.63998e-14
3.0859e-14
3.56922e-14
4.08266e-14
4.61772e-14
5.16505e-14
5.71484e-14
6.25734e-14
6.78319e-14
7.28381e-14
7.75165e-14
8.1804e-14
8.56508e-14
8.9021e-14
9.18918e-14
9.4253e-14
9.61057e-14
9.74607e-14
9.8337e-14
9.87599e-14
3.29409e-14
3.69267e-14
4.28424e-14
5.06695e-14
6.04146e-14
7.20688e-14
8.5582e-14
1.00849e-13
1.17701e-13
1.3591e-13
1.5519e-13
1.75216e-13
1.95632e-13
2.16072e-13
2.36175e-13
2.55599e-13
2.74034e-13
2.91212e-13
3.06911e-13
3.20959e-13
3.33237e-13
3.43672e-13
3.52237e-13
3.58945e-13
3.63843e-13
3.67005e-13
3.68529e-13
1.24914e-13
1.39972e-13
1.62283e-13
1.91737e-13
2.28309e-13
2.71908e-13
3.22283e-13
3.78977e-13
4.41304e-13
5.08361e-13
5.79058e-13
6.52164e-13
7.2637e-13
8.00345e-13
8.72796e-13
9.42519e-13
1.00844e-12
1.06964e-12
1.12538e-12
1.1751e-12
1.21842e-12
1.25515e-12
1.28521e-12
1.30871e-12
1.32583e-12
1.33686e-12
1.34217e-12
4.66334e-13
5.22067e-13
6.04455e-13
7.1289e-13
8.47037e-13
1.00628e-12
1.18943e-12
1.39451e-12
1.6188e-12
1.8588e-12
2.11045e-12
2.36926e-12
2.63055e-12
2.88967e-12
3.14218e-12
3.384e-12
3.6116e-12
3.82199e-12
4.01284e-12
4.18246e-12
4.32975e-12
4.45421e-12
4.55582e-12
4.63502e-12
4.69259e-12
4.72963e-12
4.74742e-12
1.7076e-12
1.90854e-12
2.20468e-12
2.59292e-12
3.07096e-12
3.63544e-12
4.28089e-12
4.99927e-12
5.77994e-12
6.60999e-12
7.47476e-12
8.35856e-12
9.24541e-12
1.01197e-11
1.09669e-11
1.17741e-11
1.25299e-11
1.32254e-11
1.38536e-11
1.44097e-11
1.48909e-11
1.52961e-11
1.5626e-11
1.58824e-11
1.60684e-11
1.61877e-11
1.6245e-11
6.10228e-12
6.80246e-12
7.83065e-12
9.17225e-12
1.0815e-11
1.2743e-11
1.4933e-11
1.7354e-11
1.9967e-11
2.27265e-11
2.55826e-11
2.84831e-11
3.13763e-11
3.42125e-11
3.69465e-11
3.95386e-11
4.19554e-11
4.41703e-11
4.61639e-11
4.7923e-11
4.94408e-11
5.07158e-11
5.17514e-11
5.25548e-11
5.31365e-11
5.35093e-11
5.36877e-11
2.11535e-11
2.34886e-11
2.6903e-11
3.13341e-11
3.67263e-11
4.30123e-11
5.0104e-11
5.78906e-11
6.62399e-11
7.50033e-11
8.40226e-11
9.31368e-11
1.02189e-10
1.11031e-10
1.19531e-10
1.27572e-10
1.3506e-10
1.41917e-10
1.48091e-10
1.53544e-10
1.58259e-10
1.62233e-10
1.65474e-10
1.68001e-10
1.6984e-10
1.71027e-10
1.71599e-10
7.07227e-11
7.8093e-11
8.88158e-11
1.02643e-10
1.19351e-10
1.38685e-10
1.60337e-10
1.83944e-10
2.09095e-10
2.35342e-10
2.62222e-10
2.89273e-10
3.16054e-10
3.42157e-10
3.67204e-10
3.90837e-10
4.12721e-10
4.32532e-10
4.49991e-10
4.65119e-10
4.77963e-10
4.88597e-10
4.97122e-10
5.03658e-10
5.08339e-10
5.11309e-10
5.12719e-10
2.27824e-10
2.49734e-10
2.81418e-10
3.21967e-10
3.70542e-10
4.26231e-10
4.87995e-10
5.54671e-10
6.25003e-10
6.97554e-10
7.70576e-10
8.41824e-10
9.0897e-10
9.71249e-10
1.02796e-09
1.07856e-09
1.12269e-09
1.16024e-09
1.19129e-09
1.21614e-09
1.23529e-09
1.24936e-09
1.25909e-09
1.26527e-09
1.26872e-09
1.27026e-09
1.27067e-09
7.12088e-10
7.74006e-10
8.62957e-10
9.75892e-10
1.10976e-09
1.2607e-09
1.42293e-09
1.58695e-09
1.74816e-09
1.9017e-09
2.04243e-09
2.16546e-09
2.26657e-09
2.3426e-09
2.39172e-09
2.41363e-09
2.40959e-09
2.38234e-09
2.33588e-09
2.2751e-09
2.20543e-09
2.13241e-09
2.06136e-09
1.99718e-09
1.94415e-09
1.90593e-09
1.88558e-09
2.1726e-09
2.3341e-09
2.55468e-09
2.82153e-09
3.11941e-09
3.4306e-09
3.73513e-09
4.01162e-09
4.2389e-09
4.39781e-09
4.47363e-09
4.45853e-09
4.35338e-09
4.16814e-09
3.92041e-09
3.63225e-09
3.32635e-09
3.02254e-09
2.73589e-09
2.47626e-09
2.24908e-09
2.05658e-09
1.89902e-09
1.77555e-09
1.68489e-09
1.62568e-09
1.59663e-09
5.8707e-09
6.17305e-09
6.56754e-09
6.99811e-09
7.40295e-09
7.71736e-09
7.88105e-09
7.849e-09
7.60305e-09
7.15929e-09
6.56569e-09
5.88865e-09
5.1941e-09
4.53252e-09
3.9338e-09
3.41015e-09
2.96233e-09
2.58516e-09
2.27109e-09
2.01226e-09
1.80142e-09
1.63226e-09
1.49954e-09
1.39896e-09
1.32708e-09
1.28117e-09
1.25907e-09
1.23652e-08
1.25211e-08
1.26093e-08
1.25124e-08
1.21409e-08
1.14629e-08
1.0517e-08
9.39998e-09
8.22861e-09
7.101e-09
6.07761e-09
5.18386e-09
4.42204e-09
3.7824e-09
3.25027e-09
2.81013e-09
2.44743e-09
2.14943e-09
1.90544e-09
1.70665e-09
1.546e-09
1.41783e-09
1.31769e-09
1.24204e-09
1.18814e-09
1.15381e-09
1.13733e-09
1.50838e-08
1.45278e-08
1.36904e-08
1.26132e-08
1.13765e-08
1.00789e-08
8.80953e-09
7.63129e-09
6.57842e-09
5.66259e-09
4.8806e-09
4.22113e-09
3.66925e-09
3.20945e-09
2.82723e-09
2.50986e-09
2.24657e-09
2.02843e-09
1.84819e-09
1.7e-09
1.57919e-09
1.48205e-09
1.40561e-09
1.34754e-09
1.30595e-09
1.27936e-09
1.26655e-09
1.10975e-08
1.05612e-08
9.84211e-09
9.01391e-09
8.14393e-09
7.2866e-09
6.48041e-09
5.74794e-09
5.09873e-09
4.53328e-09
4.04666e-09
3.63118e-09
3.27819e-09
2.97922e-09
2.72647e-09
2.51311e-09
2.33328e-09
2.18209e-09
2.05548e-09
1.95011e-09
1.86328e-09
1.79277e-09
1.73681e-09
1.69397e-09
1.66307e-09
1.6432e-09
1.63357e-09
7.21996e-09
6.94233e-09
6.57356e-09
6.15162e-09
5.70888e-09
5.27059e-09
4.85436e-09
4.4709e-09
4.12541e-09
3.81916e-09
3.55089e-09
3.31792e-09
3.11685e-09
2.94409e-09
2.79619e-09
2.66992e-09
2.56244e-09
2.47126e-09
2.39425e-09
2.32962e-09
2.2759e-09
2.23189e-09
2.19662e-09
2.16933e-09
2.14943e-09
2.13648e-09
2.13012e-09
4.83905e-09
4.72325e-09
4.5683e-09
4.38921e-09
4.19899e-09
4.00816e-09
3.82449e-09
3.65319e-09
3.49724e-09
3.35794e-09
3.23536e-09
3.12873e-09
3.03681e-09
2.9581e-09
2.89104e-09
2.83406e-09
2.78574e-09
2.7448e-09
2.71014e-09
2.68085e-09
2.6562e-09
2.63564e-09
2.61879e-09
2.60539e-09
2.59532e-09
2.58854e-09
2.5851e-09
3.49558e-09
3.46016e-09
3.41246e-09
3.35705e-09
3.29812e-09
3.23926e-09
3.18328e-09
3.13217e-09
3.08712e-09
3.04864e-09
3.01669e-09
2.99084e-09
2.9704e-09
2.95455e-09
2.94241e-09
2.93313e-09
2.92593e-09
2.92016e-09
2.91529e-09
2.91091e-09
2.9068e-09
2.90282e-09
2.89899e-09
2.89542e-09
2.8923e-09
2.8899e-09
2.88853e-09
2.76586e-09
2.76841e-09
2.77211e-09
2.77707e-09
2.78359e-09
2.792e-09
2.80256e-09
2.8154e-09
2.83045e-09
2.84744e-09
2.86596e-09
2.88546e-09
2.90536e-09
2.92504e-09
2.94393e-09
2.96154e-09
2.97745e-09
2.99136e-09
3.0031e-09
3.0126e-09
3.01991e-09
3.02517e-09
3.02863e-09
3.03059e-09
3.03142e-09
3.03154e-09
3.03138e-09
2.40586e-09
2.42517e-09
2.45175e-09
2.48384e-09
2.52003e-09
2.55914e-09
2.60022e-09
2.64242e-09
2.68497e-09
2.72719e-09
2.76841e-09
2.80803e-09
2.84552e-09
2.88042e-09
2.91236e-09
2.94106e-09
2.96635e-09
2.98816e-09
3.00652e-09
3.02154e-09
3.03343e-09
3.04245e-09
3.04894e-09
3.05328e-09
3.05587e-09
3.05715e-09
3.05756e-09
2.26847e-09
2.2932e-09
2.32714e-09
2.3679e-09
2.41344e-09
2.46202e-09
2.51221e-09
2.56281e-09
2.61282e-09
2.66141e-09
2.7079e-09
2.75173e-09
2.79248e-09
2.82982e-09
2.86354e-09
2.89351e-09
2.91971e-09
2.9422e-09
2.9611e-09
2.97659e-09
2.98894e-09
2.99843e-09
3.00539e-09
3.01019e-09
3.0132e-09
3.01482e-09
3.01544e-09
2.25318e-09
2.27711e-09
2.30991e-09
2.34916e-09
2.3928e-09
2.43906e-09
2.48649e-09
2.53389e-09
2.58028e-09
2.62493e-09
2.66722e-09
2.70672e-09
2.74312e-09
2.77622e-09
2.80591e-09
2.83216e-09
2.85501e-09
2.87456e-09
2.89097e-09
2.90443e-09
2.91518e-09
2.92349e-09
2.92963e-09
2.93393e-09
2.93668e-09
2.9382e-09
2.93881e-09
2.2904e-09
2.31055e-09
2.3381e-09
2.37097e-09
2.40739e-09
2.44583e-09
2.48502e-09
2.52396e-09
2.56185e-09
2.59806e-09
2.63217e-09
2.66385e-09
2.69288e-09
2.71915e-09
2.7426e-09
2.76326e-09
2.78118e-09
2.79648e-09
2.8093e-09
2.81982e-09
2.82823e-09
2.83474e-09
2.83957e-09
2.84296e-09
2.84516e-09
2.84638e-09
2.84688e-09
2.33692e-09
2.35232e-09
2.37333e-09
2.39835e-09
2.42597e-09
2.45501e-09
2.48449e-09
2.51366e-09
2.54192e-09
2.56881e-09
2.59401e-09
2.6173e-09
2.63855e-09
2.6577e-09
2.67473e-09
2.68968e-09
2.70261e-09
2.71362e-09
2.72282e-09
2.73036e-09
2.73638e-09
2.74103e-09
2.74449e-09
2.74692e-09
2.74849e-09
2.74937e-09
2.74973e-09
2.37065e-09
2.3815e-09
2.39629e-09
2.41385e-09
2.43318e-09
2.45343e-09
2.47391e-09
2.49408e-09
2.51352e-09
2.53193e-09
2.5491e-09
2.56489e-09
2.57923e-09
2.59208e-09
2.60347e-09
2.61342e-09
2.62199e-09
2.62925e-09
2.6353e-09
2.64023e-09
2.64415e-09
2.64717e-09
2.64939e-09
2.65094e-09
2.65194e-09
2.65249e-09
2.65271e-09
2.38415e-09
2.39119e-09
2.40075e-09
2.41207e-09
2.42447e-09
2.4374e-09
2.4504e-09
2.46313e-09
2.47532e-09
2.48679e-09
2.49741e-09
2.50711e-09
2.51585e-09
2.52364e-09
2.53048e-09
2.5364e-09
2.54147e-09
2.54573e-09
2.54924e-09
2.55207e-09
2.55429e-09
2.55597e-09
2.55719e-09
2.55803e-09
2.55854e-09
2.55882e-09
2.55892e-09
2.37779e-09
2.38185e-09
2.38735e-09
2.39382e-09
2.40085e-09
2.40811e-09
2.41535e-09
2.42235e-09
2.42897e-09
2.43512e-09
2.44073e-09
2.44578e-09
2.45026e-09
2.45418e-09
2.45756e-09
2.46044e-09
2.46284e-09
2.46481e-09
2.46639e-09
2.46762e-09
2.46854e-09
2.46921e-09
2.46965e-09
2.46993e-09
2.47007e-09
2.47013e-09
2.47014e-09
2.35539e-09
2.35726e-09
2.35976e-09
2.36264e-09
2.36572e-09
2.36881e-09
2.3718e-09
2.3746e-09
2.37714e-09
2.37939e-09
2.38135e-09
2.383e-09
2.38437e-09
2.38548e-09
2.38634e-09
2.38699e-09
2.38745e-09
2.38775e-09
2.38792e-09
2.38797e-09
2.38795e-09
2.38786e-09
2.38774e-09
2.3876e-09
2.38747e-09
2.38736e-09
2.3873e-09
2.32156e-09
2.32187e-09
2.32223e-09
2.32258e-09
2.32285e-09
2.32299e-09
2.32298e-09
2.3228e-09
2.32246e-09
2.32196e-09
2.32133e-09
2.32059e-09
2.31977e-09
2.31889e-09
2.31798e-09
2.31707e-09
2.31616e-09
2.31528e-09
2.31445e-09
2.31369e-09
2.31299e-09
2.31237e-09
2.31185e-09
2.31141e-09
2.31108e-09
2.31086e-09
2.31075e-09
2.28043e-09
2.27967e-09
2.27857e-09
2.27718e-09
2.27552e-09
2.27364e-09
2.27157e-09
2.26936e-09
2.26704e-09
2.26467e-09
2.26228e-09
2.25991e-09
2.25759e-09
2.25536e-09
2.25324e-09
2.25125e-09
2.24942e-09
2.24774e-09
2.24623e-09
2.2449e-09
2.24374e-09
2.24276e-09
2.24196e-09
2.24133e-09
2.24086e-09
2.24056e-09
2.24041e-09
2.23527e-09
2.2338e-09
2.23173e-09
2.22918e-09
2.22624e-09
2.22302e-09
2.21959e-09
2.21603e-09
2.21242e-09
2.2088e-09
2.20525e-09
2.20181e-09
2.19851e-09
2.19539e-09
2.19248e-09
2.18979e-09
2.18734e-09
2.18514e-09
2.18318e-09
2.18148e-09
2.18002e-09
2.17881e-09
2.17782e-09
2.17706e-09
2.1765e-09
2.17615e-09
2.17597e-09
2.18843e-09
2.1865e-09
2.18382e-09
2.18053e-09
2.17679e-09
2.17271e-09
2.16842e-09
2.16401e-09
2.15958e-09
2.15519e-09
2.1509e-09
2.14678e-09
2.14287e-09
2.1392e-09
2.13579e-09
2.13266e-09
2.12983e-09
2.1273e-09
2.12507e-09
2.12313e-09
2.12149e-09
2.12012e-09
2.11902e-09
2.11818e-09
2.11757e-09
2.11718e-09
2.117e-09
2.14153e-09
2.13933e-09
2.13627e-09
2.13255e-09
2.12832e-09
2.12374e-09
2.11894e-09
2.11403e-09
2.10911e-09
2.10426e-09
2.09955e-09
2.09504e-09
2.09077e-09
2.08677e-09
2.08308e-09
2.0797e-09
2.07664e-09
2.07392e-09
2.07153e-09
2.06947e-09
2.06772e-09
2.06627e-09
2.06511e-09
2.06421e-09
2.06357e-09
2.06317e-09
2.06297e-09
2.09562e-09
2.09327e-09
2.09001e-09
2.08605e-09
2.08157e-09
2.07672e-09
2.07165e-09
2.06648e-09
2.06131e-09
2.05623e-09
2.0513e-09
2.04659e-09
2.04213e-09
2.03798e-09
2.03414e-09
2.03063e-09
2.02747e-09
2.02466e-09
2.02219e-09
2.02006e-09
2.01826e-09
2.01677e-09
2.01558e-09
2.01467e-09
2.01402e-09
2.0136e-09
2.01341e-09
2.05132e-09
2.04891e-09
2.04557e-09
2.04151e-09
2.03693e-09
2.03197e-09
2.0268e-09
2.02153e-09
2.01627e-09
2.0111e-09
2.0061e-09
2.00132e-09
1.9968e-09
1.99259e-09
1.98871e-09
1.98517e-09
1.98197e-09
1.97914e-09
1.97665e-09
1.9745e-09
1.97269e-09
1.97119e-09
1.96999e-09
1.96907e-09
1.96842e-09
1.968e-09
1.96781e-09
2.00899e-09
2.00658e-09
2.00323e-09
1.99917e-09
1.99458e-09
1.98963e-09
1.98446e-09
1.9792e-09
1.97395e-09
1.96879e-09
1.96381e-09
1.95904e-09
1.95455e-09
1.95036e-09
1.9465e-09
1.94297e-09
1.9398e-09
1.93698e-09
1.9345e-09
1.93237e-09
1.93057e-09
1.92908e-09
1.92789e-09
1.92698e-09
1.92633e-09
1.92592e-09
1.92573e-09
1.96878e-09
1.9664e-09
1.9631e-09
1.95909e-09
1.95456e-09
1.94968e-09
1.94459e-09
1.9394e-09
1.93423e-09
1.92915e-09
1.92424e-09
1.91955e-09
1.91513e-09
1.91101e-09
1.9072e-09
1.90373e-09
1.90061e-09
1.89783e-09
1.89539e-09
1.89329e-09
1.89152e-09
1.89006e-09
1.88889e-09
1.88799e-09
1.88735e-09
1.88695e-09
1.88676e-09
1.93072e-09
1.92839e-09
1.92516e-09
1.92125e-09
1.91682e-09
1.91205e-09
1.90707e-09
1.90201e-09
1.89695e-09
1.89199e-09
1.88719e-09
1.88261e-09
1.87829e-09
1.87425e-09
1.87053e-09
1.86714e-09
1.86408e-09
1.86136e-09
1.85898e-09
1.85693e-09
1.85519e-09
1.85375e-09
1.85261e-09
1.85173e-09
1.85111e-09
1.85071e-09
1.85052e-09
1.89475e-09
1.89248e-09
1.88935e-09
1.88554e-09
1.88124e-09
1.8766e-09
1.87176e-09
1.86684e-09
1.86192e-09
1.8571e-09
1.85243e-09
1.84797e-09
1.84376e-09
1.83983e-09
1.83621e-09
1.8329e-09
1.82992e-09
1.82727e-09
1.82495e-09
1.82294e-09
1.82125e-09
1.81985e-09
1.81873e-09
1.81787e-09
1.81726e-09
1.81687e-09
1.81669e-09
1.86075e-09
1.85856e-09
1.85552e-09
1.85183e-09
1.84766e-09
1.84317e-09
1.83848e-09
1.8337e-09
1.82894e-09
1.82425e-09
1.81972e-09
1.81539e-09
1.81131e-09
1.80749e-09
1.80397e-09
1.80075e-09
1.79785e-09
1.79527e-09
1.793e-09
1.79105e-09
1.7894e-09
1.78803e-09
1.78694e-09
1.7861e-09
1.78551e-09
1.78513e-09
1.78495e-09
1.82858e-09
1.82646e-09
1.82352e-09
1.81996e-09
1.81593e-09
1.81158e-09
1.80703e-09
1.80241e-09
1.79779e-09
1.79325e-09
1.78885e-09
1.78465e-09
1.78068e-09
1.77697e-09
1.77355e-09
1.77042e-09
1.7676e-09
1.76509e-09
1.76288e-09
1.76098e-09
1.75936e-09
1.75803e-09
1.75697e-09
1.75615e-09
1.75557e-09
1.7552e-09
1.75503e-09
1.79809e-09
1.79604e-09
1.7932e-09
1.78974e-09
1.78584e-09
1.78163e-09
1.77723e-09
1.77275e-09
1.76827e-09
1.76386e-09
1.7596e-09
1.75552e-09
1.75166e-09
1.74805e-09
1.74472e-09
1.74168e-09
1.73893e-09
1.73648e-09
1.73433e-09
1.73247e-09
1.73089e-09
1.72959e-09
1.72855e-09
1.72776e-09
1.72719e-09
1.72682e-09
1.72665e-09
1.76909e-09
1.76711e-09
1.76435e-09
1.76101e-09
1.75723e-09
1.75314e-09
1.74887e-09
1.74452e-09
1.74017e-09
1.73589e-09
1.73174e-09
1.72777e-09
1.72402e-09
1.7205e-09
1.71725e-09
1.71428e-09
1.7116e-09
1.70921e-09
1.7071e-09
1.70529e-09
1.70375e-09
1.70247e-09
1.70145e-09
1.70067e-09
1.70011e-09
1.69976e-09
1.69959e-09
1.74141e-09
1.73948e-09
1.73681e-09
1.73356e-09
1.72989e-09
1.72592e-09
1.72177e-09
1.71753e-09
1.71329e-09
1.70912e-09
1.70508e-09
1.7012e-09
1.69754e-09
1.6941e-09
1.69093e-09
1.68802e-09
1.68539e-09
1.68305e-09
1.68098e-09
1.6792e-09
1.67769e-09
1.67644e-09
1.67544e-09
1.67467e-09
1.67412e-09
1.67377e-09
1.6736e-09
1.71486e-09
1.71298e-09
1.71038e-09
1.70722e-09
1.70364e-09
1.69976e-09
1.69571e-09
1.69158e-09
1.68743e-09
1.68336e-09
1.6794e-09
1.6756e-09
1.67201e-09
1.66864e-09
1.66552e-09
1.66266e-09
1.66008e-09
1.65777e-09
1.65574e-09
1.65399e-09
1.6525e-09
1.65126e-09
1.65027e-09
1.64952e-09
1.64897e-09
1.64863e-09
1.64846e-09
1.68925e-09
1.68742e-09
1.68487e-09
1.68178e-09
1.67827e-09
1.67448e-09
1.67051e-09
1.66645e-09
1.66239e-09
1.65838e-09
1.65449e-09
1.65075e-09
1.64721e-09
1.6439e-09
1.64082e-09
1.638e-09
1.63545e-09
1.63317e-09
1.63116e-09
1.62942e-09
1.62795e-09
1.62672e-09
1.62574e-09
1.62499e-09
1.62445e-09
1.62411e-09
1.62395e-09
1.66439e-09
1.66259e-09
1.66009e-09
1.65705e-09
1.6536e-09
1.64987e-09
1.64595e-09
1.64195e-09
1.63794e-09
1.63399e-09
1.63014e-09
1.62645e-09
1.62294e-09
1.61965e-09
1.6166e-09
1.61381e-09
1.61127e-09
1.60901e-09
1.60701e-09
1.60528e-09
1.60381e-09
1.60259e-09
1.60161e-09
1.60086e-09
1.60032e-09
1.59998e-09
1.59982e-09
1.64008e-09
1.6383e-09
1.63583e-09
1.63282e-09
1.62941e-09
1.62571e-09
1.62184e-09
1.61787e-09
1.61389e-09
1.60996e-09
1.60614e-09
1.60246e-09
1.59897e-09
1.59569e-09
1.59265e-09
1.58986e-09
1.58732e-09
1.58506e-09
1.58306e-09
1.58133e-09
1.57985e-09
1.57863e-09
1.57765e-09
1.57689e-09
1.57635e-09
1.57601e-09
1.57585e-09
1.61611e-09
1.61434e-09
1.61188e-09
1.60889e-09
1.60549e-09
1.6018e-09
1.59794e-09
1.59398e-09
1.59e-09
1.58607e-09
1.58224e-09
1.57856e-09
1.57506e-09
1.57177e-09
1.56872e-09
1.56591e-09
1.56336e-09
1.56108e-09
1.55906e-09
1.55732e-09
1.55583e-09
1.55459e-09
1.5536e-09
1.55284e-09
1.55229e-09
1.55195e-09
1.55178e-09
1.59225e-09
1.59048e-09
1.58802e-09
1.58502e-09
1.58161e-09
1.57791e-09
1.57403e-09
1.57004e-09
1.56604e-09
1.56208e-09
1.55822e-09
1.55451e-09
1.55097e-09
1.54764e-09
1.54455e-09
1.54171e-09
1.53912e-09
1.53681e-09
1.53476e-09
1.53299e-09
1.53148e-09
1.53022e-09
1.52921e-09
1.52844e-09
1.52788e-09
1.52752e-09
1.52736e-09
1.56828e-09
1.56649e-09
1.564e-09
1.56097e-09
1.55752e-09
1.55378e-09
1.54985e-09
1.54582e-09
1.54175e-09
1.53774e-09
1.53381e-09
1.53003e-09
1.52643e-09
1.52304e-09
1.51989e-09
1.51698e-09
1.51434e-09
1.51198e-09
1.50988e-09
1.50807e-09
1.50652e-09
1.50523e-09
1.5042e-09
1.5034e-09
1.50283e-09
1.50246e-09
1.50229e-09
1.54393e-09
1.54211e-09
1.53958e-09
1.53649e-09
1.53298e-09
1.52916e-09
1.52515e-09
1.52102e-09
1.51687e-09
1.51275e-09
1.50873e-09
1.50486e-09
1.50116e-09
1.49768e-09
1.49443e-09
1.49144e-09
1.48872e-09
1.48628e-09
1.48413e-09
1.48225e-09
1.48065e-09
1.47932e-09
1.47825e-09
1.47743e-09
1.47683e-09
1.47646e-09
1.47628e-09
1.51893e-09
1.51706e-09
1.51447e-09
1.51129e-09
1.50768e-09
1.50376e-09
1.49962e-09
1.49537e-09
1.49109e-09
1.48684e-09
1.48269e-09
1.47867e-09
1.47485e-09
1.47124e-09
1.46787e-09
1.46477e-09
1.46195e-09
1.45941e-09
1.45717e-09
1.45522e-09
1.45355e-09
1.45216e-09
1.45105e-09
1.45019e-09
1.44957e-09
1.44918e-09
1.44899e-09
1.49299e-09
1.49106e-09
1.48837e-09
1.48508e-09
1.48134e-09
1.47726e-09
1.47297e-09
1.46855e-09
1.4641e-09
1.45967e-09
1.45534e-09
1.45116e-09
1.44716e-09
1.44339e-09
1.43987e-09
1.43663e-09
1.43367e-09
1.43102e-09
1.42866e-09
1.42662e-09
1.42487e-09
1.42341e-09
1.42224e-09
1.42134e-09
1.42069e-09
1.42028e-09
1.42008e-09
1.46579e-09
1.46377e-09
1.46096e-09
1.45753e-09
1.45361e-09
1.44935e-09
1.44485e-09
1.44022e-09
1.43555e-09
1.4309e-09
1.42635e-09
1.42195e-09
1.41775e-09
1.41378e-09
1.41007e-09
1.40665e-09
1.40353e-09
1.40073e-09
1.39824e-09
1.39608e-09
1.39423e-09
1.3927e-09
1.39146e-09
1.39051e-09
1.38982e-09
1.38938e-09
1.38917e-09
1.43698e-09
1.43486e-09
1.4319e-09
1.42828e-09
1.42415e-09
1.41966e-09
1.41491e-09
1.41002e-09
1.40508e-09
1.40016e-09
1.39535e-09
1.39069e-09
1.38623e-09
1.38202e-09
1.37809e-09
1.37446e-09
1.37114e-09
1.36816e-09
1.36552e-09
1.36322e-09
1.36126e-09
1.35963e-09
1.35831e-09
1.35729e-09
1.35656e-09
1.3561e-09
1.35588e-09
1.4062e-09
1.40395e-09
1.40081e-09
1.39697e-09
1.39259e-09
1.38781e-09
1.38276e-09
1.37756e-09
1.3723e-09
1.36707e-09
1.36194e-09
1.35697e-09
1.35222e-09
1.34772e-09
1.34353e-09
1.33965e-09
1.33611e-09
1.33293e-09
1.3301e-09
1.32765e-09
1.32555e-09
1.3238e-09
1.32239e-09
1.32131e-09
1.32053e-09
1.32003e-09
1.31979e-09
1.37306e-09
1.37066e-09
1.36731e-09
1.3632e-09
1.35852e-09
1.35342e-09
1.34802e-09
1.34246e-09
1.33683e-09
1.33122e-09
1.32573e-09
1.3204e-09
1.31531e-09
1.31049e-09
1.30599e-09
1.30183e-09
1.29803e-09
1.29462e-09
1.29159e-09
1.28895e-09
1.2867e-09
1.28482e-09
1.28331e-09
1.28215e-09
1.28131e-09
1.28078e-09
1.28053e-09
1.33717e-09
1.33459e-09
1.33099e-09
1.32659e-09
1.32157e-09
1.31608e-09
1.31029e-09
1.30431e-09
1.29826e-09
1.29223e-09
1.28632e-09
1.2806e-09
1.27512e-09
1.26994e-09
1.26509e-09
1.26061e-09
1.25653e-09
1.25286e-09
1.2496e-09
1.24676e-09
1.24434e-09
1.24233e-09
1.24071e-09
1.23946e-09
1.23856e-09
1.23799e-09
1.23772e-09
1.29813e-09
1.29536e-09
1.29149e-09
1.28675e-09
1.28133e-09
1.27543e-09
1.26918e-09
1.26274e-09
1.25622e-09
1.24973e-09
1.24337e-09
1.2372e-09
1.23129e-09
1.22571e-09
1.22049e-09
1.21567e-09
1.21127e-09
1.20732e-09
1.20381e-09
1.20076e-09
1.19816e-09
1.196e-09
1.19426e-09
1.19292e-09
1.19196e-09
1.19135e-09
1.19106e-09
1.25559e-09
1.2526e-09
1.24842e-09
1.24331e-09
1.23748e-09
1.23111e-09
1.22438e-09
1.21743e-09
1.21041e-09
1.20341e-09
1.19655e-09
1.1899e-09
1.18355e-09
1.17754e-09
1.17192e-09
1.16673e-09
1.16201e-09
1.15776e-09
1.154e-09
1.15073e-09
1.14794e-09
1.14562e-09
1.14376e-09
1.14233e-09
1.14131e-09
1.14066e-09
1.14035e-09
1.20923e-09
1.20601e-09
1.20151e-09
1.196e-09
1.18971e-09
1.18285e-09
1.1756e-09
1.16813e-09
1.16057e-09
1.15305e-09
1.14567e-09
1.13854e-09
1.13171e-09
1.12526e-09
1.11924e-09
1.11369e-09
1.10864e-09
1.1041e-09
1.10009e-09
1.0966e-09
1.09364e-09
1.09119e-09
1.08922e-09
1.08772e-09
1.08664e-09
1.08596e-09
1.08564e-09
1.15882e-09
1.15535e-09
1.15051e-09
1.14459e-09
1.13784e-09
1.13048e-09
1.1227e-09
1.11469e-09
1.10659e-09
1.09855e-09
1.09066e-09
1.08304e-09
1.07577e-09
1.06892e-09
1.06252e-09
1.05661e-09
1.05124e-09
1.04643e-09
1.04217e-09
1.03848e-09
1.03535e-09
1.03275e-09
1.03067e-09
1.02908e-09
1.02795e-09
1.02723e-09
1.0269e-09
1.10426e-09
1.10055e-09
1.09538e-09
1.08905e-09
1.08185e-09
1.074e-09
1.06573e-09
1.05723e-09
1.04863e-09
1.04009e-09
1.03172e-09
1.02364e-09
1.01592e-09
1.00866e-09
1.00189e-09
9.95662e-10
9.9001e-10
9.8495e-10
9.80492e-10
9.76634e-10
9.73364e-10
9.70665e-10
9.68511e-10
9.66869e-10
9.65702e-10
9.64969e-10
9.64626e-10
1.04574e-09
1.04181e-09
1.03633e-09
1.02963e-09
1.022e-09
1.01371e-09
1.00496e-09
9.95974e-10
9.86911e-10
9.77926e-10
9.69146e-10
9.60682e-10
9.52624e-10
9.45044e-10
9.38001e-10
9.31538e-10
9.25685e-10
9.20461e-10
9.1587e-10
9.1191e-10
9.08567e-10
9.05817e-10
9.03632e-10
9.01974e-10
9.00803e-10
9.00072e-10
8.99732e-10
9.83476e-10
9.79355e-10
9.73619e-10
9.66616e-10
9.58653e-10
9.50002e-10
9.40902e-10
9.31564e-10
9.2217e-10
9.12878e-10
9.03821e-10
8.95112e-10
8.86842e-10
8.79086e-10
8.71901e-10
8.65329e-10
8.59399e-10
8.54126e-10
8.49512e-10
8.4555e-10
8.42222e-10
8.395e-10
8.37351e-10
8.35732e-10
8.34597e-10
8.33895e-10
8.33572e-10
9.18259e-10
9.14012e-10
9.08108e-10
9.00912e-10
8.92745e-10
8.83891e-10
8.74601e-10
8.65093e-10
8.55557e-10
8.46154e-10
8.3702e-10
8.28267e-10
8.19988e-10
8.12255e-10
8.05122e-10
7.98629e-10
7.92801e-10
7.87647e-10
7.83165e-10
7.79343e-10
7.76157e-10
7.73574e-10
7.71554e-10
7.70051e-10
7.6901e-10
7.68377e-10
7.6809e-10
8.51244e-10
8.46964e-10
8.41024e-10
8.338e-10
8.25622e-10
8.16784e-10
8.07544e-10
7.98122e-10
7.88712e-10
7.79475e-10
7.70545e-10
7.62032e-10
7.54025e-10
7.46591e-10
7.39781e-10
7.33625e-10
7.28143e-10
7.23339e-10
7.19202e-10
7.15714e-10
7.12843e-10
7.1055e-10
7.08788e-10
7.07502e-10
7.06634e-10
7.06121e-10
7.05898e-10
7.84071e-10
7.79886e-10
7.74092e-10
7.67067e-10
7.59145e-10
7.50622e-10
7.41754e-10
7.32765e-10
7.2384e-10
7.15139e-10
7.0679e-10
6.98894e-10
6.91534e-10
6.84766e-10
6.78633e-10
6.73157e-10
6.68345e-10
6.64194e-10
6.60683e-10
6.57784e-10
6.55457e-10
6.53653e-10
6.52316e-10
6.51385e-10
6.50793e-10
6.5047e-10
6.50344e-10
7.18927e-10
7.15006e-10
7.09594e-10
7.03064e-10
6.95743e-10
6.87919e-10
6.79843e-10
6.71727e-10
6.63752e-10
6.56061e-10
6.48773e-10
6.41977e-10
6.3574e-10
6.30107e-10
6.25106e-10
6.20745e-10
6.1702e-10
6.13912e-10
6.11388e-10
6.09408e-10
6.0792e-10
6.06863e-10
6.06171e-10
6.05773e-10
6.05592e-10
6.0555e-10
6.05568e-10
6.58569e-10
6.5512e-10
6.50387e-10
6.4472e-10
6.38427e-10
6.3178e-10
6.25013e-10
6.18321e-10
6.11866e-10
6.05774e-10
6.00143e-10
5.95045e-10
5.90527e-10
5.86614e-10
5.83315e-10
5.80621e-10
5.78507e-10
5.76937e-10
5.75863e-10
5.75226e-10
5.74959e-10
5.74987e-10
5.75228e-10
5.75598e-10
5.76009e-10
5.76371e-10
5.76595e-10
6.06316e-10
6.03591e-10
5.99892e-10
5.9553e-10
5.90781e-10
5.85888e-10
5.81056e-10
5.76453e-10
5.72213e-10
5.68436e-10
5.65194e-10
5.62531e-10
5.60469e-10
5.59007e-10
5.58127e-10
5.57796e-10
5.57966e-10
5.58576e-10
5.59554e-10
5.60819e-10
5.62282e-10
5.63846e-10
5.6541e-10
5.66871e-10
5.68122e-10
5.69059e-10
5.69576e-10
5.66029e-10
5.64326e-10
5.62083e-10
5.59552e-10
5.56962e-10
5.54513e-10
5.52368e-10
5.50659e-10
5.49482e-10
5.48903e-10
5.48958e-10
5.49656e-10
5.50984e-10
5.5291e-10
5.55382e-10
5.58333e-10
5.61682e-10
5.65335e-10
5.69188e-10
5.73128e-10
5.77032e-10
5.80774e-10
5.84221e-10
5.8724e-10
5.89697e-10
5.9146e-10
5.92402e-10
5.42133e-10
5.41807e-10
5.41524e-10
5.41458e-10
5.41774e-10
5.42612e-10
5.44086e-10
5.46278e-10
5.4924e-10
5.52991e-10
5.57524e-10
5.62807e-10
5.68782e-10
5.75374e-10
5.82487e-10
5.90009e-10
5.97813e-10
6.0576e-10
6.13695e-10
6.21458e-10
6.28876e-10
6.35772e-10
6.41964e-10
6.4727e-10
6.51508e-10
6.545e-10
6.56076e-10
5.39775e-10
5.41268e-10
5.43578e-10
5.46779e-10
5.50954e-10
5.56175e-10
5.62494e-10
5.69935e-10
5.78495e-10
5.88143e-10
5.98817e-10
6.10433e-10
6.22881e-10
6.36027e-10
6.49717e-10
6.63776e-10
6.7801e-10