/*--------------------------------*- C++ -*----------------------------------*\
| =========                 |                                                 |
| \\      /  F ield         | OpenFOAM: The Open Source CFD Toolbox           |
|  \\    /   O peration     | Version:  2106                                  |
|   \\  /    A nd           | Website:  www.openfoam.com                      |
|    \\/     M anipulation  |                                                 |
\*---------------------------------------------------------------------------*/
FoamFile
{
    version     2.0;
    format      ascii;
    arch        "LSB;label=32;scalar=64";
    class       volScalarField;
    location    "110.00057";
    object      T;
}
// * * * * * * * * * * * * * * * * * * * * * * * * * * * * * * * * * * * * * //

dimensions      [0 0 0 1 0 0 0];

internalField   nonuniform List<scalar> 
3360
(
301
301
301
301
301
301
301
301
301
301
301
301
301
301
301
301
301
301
301
301
301
301
301
301
301
301
301
301
301
301
301
301
301
301
301
301
301
301
301
301
301
301
301
301
301
301
301
301
301
301
301
301
301
301
301
301
301
301
301
301
301
301
301
301
301
301
301
301
301
301
301
301
301
301
301
301
301
301
301
301
301
301
301
301
301
301
301
301
301.001
301.001
301.001
301.001
301.001
301.001
301.001
301.001
301.001
301.001
301.001
301.001
301.001
301.001
301.001
301.001
301.001
301.001
301.001
301.001
301.001
301.001
301.001
301.001
301.001
301.002
301.002
301.002
301.002
301.003
301.003
301.003
301.003
301.004
301.004
301.004
301.005
301.005
301.005
301.005
301.005
301.006
301.006
301.006
301.006
301.006
301.006
301.003
301.003
301.003
301.004
301.004
301.005
301.006
301.006
301.007
301.008
301.009
301.01
301.011
301.012
301.013
301.014
301.016
301.017
301.017
301.018
301.019
301.02
301.021
301.021
301.022
301.022
301.022
301.008
301.008
301.009
301.011
301.012
301.014
301.016
301.018
301.021
301.023
301.026
301.029
301.032
301.035
301.038
301.042
301.045
301.048
301.051
301.054
301.056
301.059
301.061
301.063
301.065
301.066
301.068
301.02
301.021
301.024
301.027
301.03
301.035
301.04
301.046
301.052
301.058
301.066
301.073
301.081
301.089
301.097
301.105
301.113
301.121
301.128
301.136
301.143
301.149
301.155
301.161
301.166
301.17
301.174
301.046
301.049
301.055
301.062
301.07
301.08
301.092
301.104
301.118
301.134
301.15
301.167
301.184
301.202
301.22
301.239
301.257
301.274
301.292
301.308
301.324
301.339
301.353
301.366
301.378
301.389
301.399
301.099
301.106
301.118
301.132
301.15
301.171
301.195
301.221
301.25
301.282
301.315
301.35
301.386
301.423
301.461
301.498
301.535
301.572
301.608
301.642
301.675
301.706
301.736
301.763
301.789
301.812
301.833
301.2
301.216
301.238
301.266
301.301
301.342
301.388
301.439
301.496
301.556
301.62
301.687
301.757
301.827
301.899
301.971
302.042
302.112
302.18
302.246
302.309
302.369
302.426
302.479
302.528
302.574
302.616
301.386
301.414
301.455
301.508
301.572
301.647
301.731
301.825
301.928
302.038
302.154
302.276
302.401
302.529
302.658
302.787
302.915
303.04
303.163
303.281
303.394
303.502
303.604
303.7
303.79
303.873
303.949
301.71
301.76
301.832
301.925
302.038
302.168
302.316
302.48
302.658
302.848
303.049
303.258
303.473
303.692
303.913
304.133
304.351
304.565
304.773
304.975
305.168
305.352
305.526
305.689
305.842
305.984
306.115
302.253
302.338
302.46
302.618
302.807
303.027
303.275
303.548
303.844
304.16
304.492
304.836
305.19
305.55
305.911
306.271
306.627
306.976
307.315
307.642
307.956
308.254
308.537
308.803
309.052
309.283
309.497
303.137
303.276
303.476
303.733
304.041
304.398
304.798
305.238
305.714
306.218
306.747
307.295
307.855
308.423
308.992
309.558
310.117
310.662
311.192
311.703
312.192
312.658
313.098
313.512
313.9
314.261
314.595
304.533
304.753
305.071
305.477
305.964
306.524
307.151
307.838
308.577
309.358
310.174
311.016
311.875
312.742
313.609
314.468
315.313
316.137
316.936
317.704
318.439
319.138
319.798
320.418
320.999
321.539
322.039
306.687
307.028
307.519
308.144
308.89
309.747
310.703
311.745
312.86
314.036
315.258
316.514
317.789
319.072
320.351
321.614
322.851
324.055
325.219
326.336
327.402
328.413
329.367
330.264
331.101
331.881
332.602
309.941
310.456
311.196
312.136
313.254
314.533
315.951
317.491
319.131
320.852
322.633
324.453
326.293
328.136
329.965
331.764
333.521
335.224
336.865
338.436
339.931
341.346
342.68
343.93
345.097
346.182
347.187
314.769
315.532
316.624
318.004
319.641
321.503
323.558
325.777
328.128
330.58
333.103
335.669
338.249
340.82
343.358
345.845
348.262
350.597
352.837
354.976
357.005
358.922
360.724
362.411
363.984
365.444
366.795
321.814
322.918
324.493
326.476
328.816
331.462
334.367
337.483
340.764
344.165
347.642
351.156
354.669
358.149
361.567
364.899
368.123
371.224
374.188
377.008
379.676
382.19
384.548
386.751
388.802
390.704
392.464
331.921
333.482
335.701
338.482
341.743
345.409
349.405
353.662
358.112
362.692
367.343
372.012
376.65
381.218
385.678
390.003
394.169
398.159
401.959
405.561
408.959
412.153
415.143
417.932
420.525
422.928
425.15
346.152
348.302
351.343
355.134
359.552
364.482
369.816
375.455
381.305
387.28
393.305
399.31
405.238
411.04
416.676
422.112
427.325
432.298
437.017
441.476
445.673
449.608
453.286
456.712
459.894
462.843
465.568
365.75
368.616
372.652
377.654
383.441
389.849
396.73
403.945
411.372
418.901
426.438
433.901
441.222
448.347
455.232
461.844
468.159
474.161
479.841
485.194
490.221
494.928
499.321
503.41
507.208
510.726
513.979
391.994
395.673
400.828
407.176
414.468
422.484
431.023
439.908
448.986
458.124
467.211
476.155
484.881
493.331
501.461
509.238
516.642
523.659
530.284
536.516
542.362
547.828
552.928
557.675
562.083
566.169
569.95
425.939
430.457
436.756
444.468
453.269
462.875
473.035
483.536
494.193
504.856
515.399
525.722
535.749
545.42
554.692
563.536
571.934
579.878
587.366
594.403
600.998
607.164
612.916
618.272
623.249
627.868
632.147
468.044
473.325
480.661
489.595
499.735
510.735
522.303
534.189
546.188
558.133
569.892
581.36
592.459
603.132
613.339
623.054
632.265
640.966
649.161
656.859
664.072
670.818
677.114
682.981
688.441
693.514
698.224
517.828
523.695
531.818
541.673
552.806
564.83
577.416
590.292
603.238
616.078
628.675
640.925
652.75
664.097
674.93
685.227
694.98
704.187
712.857
721
728.634
735.777
742.451
748.677
754.48
759.881
764.905
573.716
579.908
588.46
598.806
610.458
623
636.086
649.432
662.811
676.046
688.999
701.569
713.682
725.288
736.356
746.868
756.818
766.21
775.054
783.363
791.158
798.457
805.285
811.664
817.618
823.171
828.346
633.151
639.369
647.944
658.297
669.932
682.429
695.439
708.678
721.923
734.999
747.776
760.155
772.069
783.473
794.338
804.651
814.41
823.62
832.294
840.447
848.099
855.271
861.987
868.27
874.143
879.629
884.752
693.049
699.005
707.21
717.106
728.21
740.119
752.497
765.073
777.635
790.018
802.1
813.791
825.03
835.776
846.006
855.71
864.889
873.549
881.705
889.371
896.57
903.321
909.647
915.571
921.114
926.3
931.15
750.363
755.82
763.333
772.386
782.536
793.407
804.692
816.142
827.562
838.805
849.758
860.342
870.504
880.208
889.436
898.182
906.446
914.239
921.574
928.467
934.939
941.008
946.697
952.026
957.016
961.689
966.062
802.6
807.398
814
821.95
830.855
840.382
850.26
860.268
870.235
880.032
889.56
898.753
907.564
915.965
923.941
931.489
938.612
945.32
951.627
957.549
963.104
968.31
973.189
977.757
982.036
986.041
989.792
848.146
852.208
857.796
864.518
872.041
880.081
888.405
896.826
905.199
913.413
921.387
929.064
936.407
943.394
950.014
956.266
962.156
967.691
972.887
977.758
982.32
986.592
990.589
994.329
997.829
1001.1
1004.17
886.339
889.665
894.237
899.734
905.879
912.438
919.219
926.068
932.864
939.518
945.964
952.156
958.064
963.673
968.974
973.969
978.663
983.066
987.189
991.046
994.652
998.022
1001.17
1004.11
1006.86
1009.43
1011.84
917.33
919.976
923.611
927.978
932.856
938.055
943.423
948.835
954.196
959.434
964.496
969.349
973.968
978.343
982.467
986.344
989.978
993.379
996.557
999.523
1002.29
1004.87
1007.28
1009.52
1011.62
1013.58
1015.4
941.825
943.881
946.706
950.096
953.879
957.907
962.061
966.242
970.377
974.41
978.3
982.022
985.557
988.897
992.041
994.988
997.746
1000.32
1002.72
1004.96
1007.04
1008.98
1010.79
1012.47
1014.04
1015.5
1016.86
960.809
962.379
964.535
967.121
970.005
973.073
976.233
979.411
982.55
985.606
988.551
991.363
994.03
996.546
998.909
1001.12
1003.19
1005.12
1006.91
1008.58
1010.13
1011.57
1012.91
1014.16
1015.32
1016.4
1017.41
975.321
976.504
978.129
980.078
982.25
984.559
986.936
989.324
991.681
993.974
996.18
998.284
1000.28
1002.16
1003.92
1005.57
1007.11
1008.54
1009.87
1011.11
1012.25
1013.32
1014.31
1015.23
1016.09
1016.88
1017.63
986.317
987.201
988.416
989.872
991.494
993.218
994.991
996.773
998.529
1000.24
1001.88
1003.45
1004.93
1006.32
1007.63
1008.85
1009.99
1011.05
1012.03
1012.94
1013.79
1014.58
1015.3
1015.98
1016.61
1017.19
1017.74
994.604
995.262
996.163
997.245
998.449
999.729
1001.05
1002.37
1003.67
1004.93
1006.15
1007.31
1008.4
1009.43
1010.4
1011.3
1012.13
1012.91
1013.64
1014.31
1014.93
1015.5
1016.04
1016.53
1016.99
1017.41
1017.81
1000.83
1001.32
1001.99
1002.79
1003.68
1004.62
1005.59
1006.57
1007.53
1008.46
1009.35
1010.2
1011.01
1011.76
1012.47
1013.13
1013.74
1014.31
1014.84
1015.33
1015.78
1016.19
1016.58
1016.94
1017.27
1017.58
1017.86
1005.51
1005.86
1006.35
1006.94
1007.6
1008.29
1009
1009.72
1010.42
1011.1
1011.76
1012.38
1012.97
1013.52
1014.03
1014.51
1014.95
1015.36
1015.74
1016.09
1016.42
1016.72
1016.99
1017.25
1017.48
1017.7
1017.9
1009.01
1009.27
1009.63
1010.06
1010.53
1011.04
1011.56
1012.08
1012.59
1013.09
1013.56
1014.01
1014.43
1014.83
1015.2
1015.54
1015.86
1016.15
1016.42
1016.67
1016.9
1017.11
1017.3
1017.48
1017.64
1017.79
1017.93
1011.63
1011.82
1012.08
1012.39
1012.74
1013.1
1013.48
1013.85
1014.22
1014.57
1014.91
1015.23
1015.53
1015.81
1016.07
1016.32
1016.54
1016.74
1016.93
1017.1
1017.25
1017.4
1017.53
1017.65
1017.76
1017.86
1017.95
1013.59
1013.73
1013.92
1014.14
1014.39
1014.65
1014.91
1015.18
1015.44
1015.69
1015.93
1016.15
1016.36
1016.55
1016.73
1016.9
1017.05
1017.18
1017.31
1017.42
1017.52
1017.62
1017.7
1017.78
1017.85
1017.91
1017.97
1015.06
1015.16
1015.29
1015.45
1015.62
1015.8
1015.99
1016.17
1016.35
1016.52
1016.69
1016.84
1016.98
1017.11
1017.22
1017.33
1017.43
1017.51
1017.59
1017.66
1017.72
1017.78
1017.83
1017.87
1017.91
1017.94
1017.98
1016.16
1016.23
1016.32
1016.43
1016.54
1016.67
1016.79
1016.92
1017.04
1017.15
1017.25
1017.35
1017.44
1017.52
1017.59
1017.65
1017.71
1017.76
1017.8
1017.84
1017.87
1017.9
1017.92
1017.94
1017.96
1017.97
1017.98
1016.98
1017.03
1017.09
1017.16
1017.23
1017.31
1017.39
1017.47
1017.54
1017.61
1017.68
1017.73
1017.78
1017.82
1017.86
1017.89
1017.92
1017.94
1017.96
1017.97
1017.98
1017.99
1017.99
1017.99
1017.99
1017.99
1017.98
1017.6
1017.62
1017.66
1017.7
1017.75
1017.8
1017.84
1017.88
1017.92
1017.96
1017.99
1018.02
1018.04
1018.05
1018.06
1018.07
1018.07
1018.07
1018.07
1018.07
1018.06
1018.05
1018.04
1018.03
1018.01
1018
1017.98
1018.05
1018.07
1018.09
1018.11
1018.13
1018.15
1018.17
1018.19
1018.2
1018.21
1018.22
1018.22
1018.22
1018.22
1018.21
1018.2
1018.19
1018.17
1018.15
1018.13
1018.11
1018.09
1018.07
1018.05
1018.02
1018
1017.98
1018.39
1018.39
1018.4
1018.41
1018.41
1018.42
1018.42
1018.42
1018.41
1018.4
1018.39
1018.38
1018.36
1018.34
1018.32
1018.29
1018.27
1018.24
1018.21
1018.18
1018.15
1018.12
1018.09
1018.06
1018.03
1018
1017.97
1018.64
1018.64
1018.63
1018.63
1018.62
1018.61
1018.6
1018.58
1018.56
1018.54
1018.51
1018.49
1018.46
1018.42
1018.39
1018.36
1018.32
1018.28
1018.25
1018.21
1018.17
1018.14
1018.1
1018.06
1018.03
1017.99
1017.96
1018.82
1018.81
1018.8
1018.79
1018.77
1018.75
1018.72
1018.7
1018.67
1018.63
1018.6
1018.56
1018.52
1018.48
1018.44
1018.4
1018.35
1018.31
1018.27
1018.22
1018.18
1018.14
1018.1
1018.06
1018.02
1017.98
1017.94
1018.95
1018.94
1018.92
1018.9
1018.87
1018.84
1018.81
1018.78
1018.74
1018.7
1018.65
1018.61
1018.56
1018.52
1018.47
1018.42
1018.37
1018.32
1018.27
1018.23
1018.18
1018.13
1018.09
1018.04
1018
1017.96
1017.92
1019.04
1019.02
1019
1018.97
1018.94
1018.91
1018.87
1018.83
1018.78
1018.73
1018.69
1018.63
1018.58
1018.53
1018.48
1018.42
1018.37
1018.32
1018.27
1018.22
1018.16
1018.12
1018.07
1018.02
1017.97
1017.93
1017.89
1019.09
1019.08
1019.05
1019.02
1018.99
1018.95
1018.9
1018.85
1018.8
1018.75
1018.7
1018.64
1018.58
1018.53
1018.47
1018.41
1018.36
1018.3
1018.25
1018.19
1018.14
1018.09
1018.04
1017.99
1017.94
1017.89
1017.85
1019.12
1019.1
1019.08
1019.04
1019
1018.96
1018.91
1018.86
1018.8
1018.75
1018.69
1018.63
1018.57
1018.51
1018.45
1018.39
1018.33
1018.27
1018.21
1018.16
1018.1
1018.05
1017.99
1017.94
1017.89
1017.84
1017.8
1019.13
1019.11
1019.08
1019.04
1019
1018.95
1018.9
1018.84
1018.79
1018.73
1018.66
1018.6
1018.54
1018.47
1018.41
1018.35
1018.29
1018.22
1018.16
1018.11
1018.05
1017.99
1017.94
1017.88
1017.83
1017.78
1017.73
1019.11
1019.09
1019.06
1019.02
1018.98
1018.93
1018.87
1018.81
1018.75
1018.69
1018.62
1018.56
1018.49
1018.42
1018.36
1018.29
1018.23
1018.16
1018.1
1018.04
1017.98
1017.92
1017.86
1017.81
1017.76
1017.71
1017.66
1019.08
1019.06
1019.02
1018.98
1018.93
1018.88
1018.82
1018.76
1018.69
1018.63
1018.56
1018.49
1018.42
1018.35
1018.28
1018.21
1018.15
1018.08
1018.02
1017.95
1017.89
1017.83
1017.77
1017.72
1017.66
1017.61
1017.56
1019.02
1019
1018.96
1018.92
1018.87
1018.81
1018.75
1018.69
1018.62
1018.55
1018.48
1018.4
1018.33
1018.26
1018.19
1018.11
1018.04
1017.97
1017.91
1017.84
1017.78
1017.72
1017.66
1017.6
1017.54
1017.49
1017.43
1018.95
1018.92
1018.88
1018.84
1018.78
1018.72
1018.66
1018.59
1018.52
1018.44
1018.37
1018.29
1018.21
1018.14
1018.06
1017.99
1017.91
1017.84
1017.77
1017.7
1017.64
1017.57
1017.51
1017.45
1017.39
1017.34
1017.28
1018.84
1018.81
1018.77
1018.72
1018.67
1018.6
1018.53
1018.46
1018.39
1018.31
1018.23
1018.15
1018.07
1017.99
1017.91
1017.83
1017.75
1017.68
1017.6
1017.53
1017.46
1017.4
1017.33
1017.27
1017.21
1017.15
1017.09
1018.71
1018.68
1018.63
1018.58
1018.52
1018.45
1018.38
1018.3
1018.22
1018.14
1018.05
1017.97
1017.88
1017.8
1017.71
1017.63
1017.55
1017.47
1017.39
1017.32
1017.25
1017.18
1017.11
1017.04
1016.98
1016.92
1016.86
1018.54
1018.51
1018.46
1018.4
1018.34
1018.27
1018.19
1018.1
1018.02
1017.93
1017.84
1017.75
1017.66
1017.57
1017.48
1017.39
1017.3
1017.22
1017.14
1017.06
1016.98
1016.91
1016.84
1016.77
1016.7
1016.64
1016.58
1018.33
1018.29
1018.24
1018.18
1018.11
1018.03
1017.95
1017.86
1017.76
1017.67
1017.57
1017.47
1017.38
1017.28
1017.18
1017.09
1017
1016.91
1016.82
1016.74
1016.65
1016.58
1016.5
1016.43
1016.36
1016.29
1016.23
1018.07
1018.03
1017.98
1017.91
1017.83
1017.75
1017.65
1017.56
1017.45
1017.35
1017.24
1017.14
1017.03
1016.93
1016.83
1016.72
1016.62
1016.53
1016.43
1016.34
1016.26
1016.17
1016.09
1016.01
1015.94
1015.87
1015.8
1017.75
1017.71
1017.65
1017.57
1017.49
1017.39
1017.29
1017.19
1017.08
1016.96
1016.85
1016.73
1016.61
1016.5
1016.39
1016.28
1016.17
1016.07
1015.96
1015.87
1015.77
1015.68
1015.59
1015.51
1015.43
1015.36
1015.28
1017.36
1017.31
1017.25
1017.17
1017.07
1016.97
1016.85
1016.74
1016.61
1016.49
1016.36
1016.23
1016.11
1015.98
1015.86
1015.74
1015.62
1015.5
1015.39
1015.29
1015.18
1015.09
1014.99
1014.9
1014.82
1014.73
1014.66
1016.88
1016.83
1016.76
1016.67
1016.56
1016.45
1016.32
1016.19
1016.05
1015.91
1015.77
1015.63
1015.49
1015.35
1015.21
1015.08
1014.95
1014.82
1014.7
1014.59
1014.47
1014.36
1014.26
1014.16
1014.07
1013.98
1013.9
1016.31
1016.25
1016.17
1016.07
1015.95
1015.82
1015.68
1015.53
1015.38
1015.22
1015.06
1014.9
1014.75
1014.59
1014.44
1014.29
1014.14
1014
1013.87
1013.74
1013.61
1013.5
1013.38
1013.27
1013.17
1013.07
1012.98
1015.62
1015.55
1015.46
1015.34
1015.21
1015.06
1014.9
1014.73
1014.56
1014.38
1014.21
1014.03
1013.85
1013.68
1013.5
1013.34
1013.17
1013.02
1012.87
1012.72
1012.58
1012.45
1012.32
1012.2
1012.09
1011.98
1011.88
1014.78
1014.7
1014.6
1014.47
1014.32
1014.15
1013.97
1013.78
1013.58
1013.38
1013.18
1012.97
1012.77
1012.58
1012.38
1012.19
1012.01
1011.83
1011.67
1011.5
1011.35
1011.2
1011.06
1010.92
1010.8
1010.68
1010.56
1013.78
1013.69
1013.57
1013.42
1013.25
1013.05
1012.85
1012.63
1012.41
1012.18
1011.95
1011.72
1011.49
1011.26
1011.04
1010.83
1010.62
1010.42
1010.23
1010.04
1009.87
1009.7
1009.54
1009.39
1009.25
1009.12
1008.99
1012.58
1012.48
1012.34
1012.17
1011.97
1011.75
1011.51
1011.26
1011
1010.74
1010.48
1010.21
1009.95
1009.69
1009.44
1009.2
1008.96
1008.73
1008.52
1008.31
1008.11
1007.92
1007.74
1007.57
1007.41
1007.26
1007.11
1011.15
1011.03
1010.87
1010.67
1010.44
1010.19
1009.92
1009.63
1009.33
1009.03
1008.73
1008.43
1008.13
1007.83
1007.54
1007.26
1006.99
1006.73
1006.48
1006.24
1006.01
1005.8
1005.59
1005.4
1005.22
1005.05
1004.89
1009.45
1009.31
1009.13
1008.9
1008.63
1008.34
1008.02
1007.69
1007.35
1007
1006.65
1006.31
1005.96
1005.62
1005.29
1004.97
1004.66
1004.36
1004.07
1003.8
1003.54
1003.29
1003.06
1002.83
1002.63
1002.43
1002.25
1007.43
1007.28
1007.06
1006.8
1006.49
1006.15
1005.79
1005.4
1005.01
1004.61
1004.2
1003.8
1003.4
1003.01
1002.63
1002.26
1001.9
1001.56
1001.23
1000.91
1000.61
1000.33
1000.06
999.803
999.565
999.342
999.133
1005.05
1004.87
1004.62
1004.32
1003.96
1003.57
1003.15
1002.7
1002.25
1001.78
1001.31
1000.85
1000.39
999.925
999.484
999.056
998.643
998.246
997.866
997.504
997.16
996.834
996.526
996.236
995.963
995.707
995.467
1002.25
1002.04
1001.75
1001.4
1000.99
1000.53
1000.04
999.519
998.99
998.451
997.909
997.369
996.835
996.312
995.801
995.306
994.828
994.37
993.931
993.513
993.116
992.74
992.385
992.05
991.736
991.441
991.165
998.953
998.714
998.379
997.965
997.487
996.959
996.392
995.797
995.184
994.559
993.932
993.306
992.688
992.082
991.491
990.918
990.365
989.835
989.327
988.844
988.385
987.951
987.541
987.155
986.793
986.453
986.135
995.109
994.833
994.444
993.964
993.41
992.798
992.141
991.452
990.741
990.018
989.291
988.566
987.851
987.149
986.464
985.801
985.162
984.548
983.961
983.402
982.872
982.37
981.896
981.451
981.032
980.64
980.273
990.632
990.311
989.862
989.306
988.665
987.956
987.196
986.398
985.575
984.738
983.896
983.058
982.229
981.417
980.625
979.858
979.118
978.408
977.729
977.083
976.47
975.889
975.342
974.827
974.343
973.89
973.467
985.437
985.067
984.547
983.904
983.163
982.344
981.465
980.543
979.591
978.624
977.65
976.681
975.723
974.784
973.868
972.981
972.126
971.305
970.52
969.773
969.064
968.393
967.76
967.165
966.606
966.083
965.594
979.435
979.008
978.408
977.666
976.811
975.866
974.851
973.787
972.689
971.572
970.449
969.329
968.224
967.139
966.082
965.058
964.07
963.122
962.215
961.352
960.533
959.758
959.027
958.339
957.694
957.089
956.524
972.53
972.038
971.348
970.494
969.51
968.421
967.253
966.027
964.763
963.476
962.182
960.892
959.618
958.368
957.149
955.968
954.829
953.736
952.69
951.694
950.749
949.855
949.011
948.218
947.472
946.775
946.122
964.624
964.06
963.266
962.287
961.156
959.906
958.564
957.156
955.703
954.224
952.737
951.254
949.789
948.351
946.95
945.591
944.28
943.021
941.817
940.671
939.582
938.552
937.58
936.664
935.805
935.001
934.248
955.616
954.97
954.062
952.94
951.646
950.214
948.678
947.065
945.401
943.706
942.001
940.301
938.621
936.972
935.364
933.804
932.299
930.853
929.47
928.152
926.901
925.716
924.598
923.545
922.556
921.63
920.763
945.406
944.669
943.634
942.354
940.877
939.244
937.491
935.649
933.749
931.813
929.865
927.923
926.002
924.116
922.276
920.49
918.767
917.111
915.527
914.016
912.581
911.222
909.939
908.73
907.595
906.53
905.535
933.899
933.062
931.886
930.432
928.754
926.897
924.904
922.81
920.648
918.446
916.228
914.016
911.827
909.678
907.58
905.543
903.577
901.686
899.877
898.151
896.51
894.956
893.487
892.103
890.803
889.583
888.441
921.01
920.063
918.733
917.089
915.19
913.089
910.832
908.461
906.011
903.516
901.002
898.493
896.01
893.569
891.187
888.873
886.637
884.487
882.427
880.462
878.593
876.821
875.146
873.568
872.083
870.689
869.384
906.667
905.601
904.104
902.253
900.115
897.748
895.206
892.534
889.772
886.958
884.121
881.288
878.483
875.726
873.032
870.414
867.883
865.448
863.114
860.886
858.765
856.753
854.851
853.056
851.367
849.781
848.295
890.817
889.624
887.948
885.876
883.482
880.831
877.982
874.986
871.89
868.732
865.547
862.366
859.214
856.114
853.083
850.136
847.286
844.541
841.909
839.393
836.999
834.725
832.574
830.543
828.63
826.833
825.148
873.435
872.108
870.244
867.937
865.272
862.32
859.147
855.809
852.357
848.834
845.28
841.729
838.208
834.742
831.351
828.053
824.86
821.783
818.831
816.008
813.317
810.762
808.342
806.055
803.9
801.874
799.973
854.528
853.061
851
848.451
845.504
842.239
838.727
835.032
831.209
827.306
823.366
819.426
815.517
811.668
807.899
804.231
800.677
797.25
793.959
790.809
787.806
784.951
782.245
779.686
777.273
775.002
772.869
834.14
832.532
830.27
827.472
824.237
820.652
816.794
812.734
808.53
804.236
799.9
795.561
791.254
787.009
782.851
778.8
774.873
771.082
767.439
763.951
760.621
757.453
754.448
751.604
748.92
746.392
744.015
812.362
810.612
808.15
805.103
801.58
797.674
793.471
789.044
784.459
779.775
775.04
770.3
765.592
760.949
756.397
751.96
747.654
743.496
739.496
735.663
732.001
728.513
725.202
722.066
719.103
716.311
713.683
789.33
787.441
784.784
781.496
777.692
773.474
768.934
764.15
759.194
754.127
749.004
743.872
738.772
733.738
728.801
723.983
719.306
714.785
710.433
706.258
702.266
698.462
694.847
691.419
688.179
685.121
682.241
765.227
763.207
760.367
756.851
752.782
748.271
743.413
738.293
732.987
727.56
722.07
716.569
711.098
705.696
700.393
695.216
690.186
685.32
680.632
676.132
671.825
667.717
663.81
660.102
656.593
653.279
650.156
740.285
738.147
735.14
731.418
727.111
722.334
717.189
711.766
706.144
700.393
694.574
688.739
682.935
677.2
671.568
666.066
660.717
655.54
650.548
645.752
641.159
636.774
632.6
628.636
624.881
621.331
617.982
714.775
712.536
709.386
705.488
700.977
695.974
690.586
684.905
679.016
672.991
666.893
660.778
654.692
648.678
642.769
636.994
631.377
625.937
620.688
615.643
610.808
606.189
601.787
597.605
593.639
589.887
586.345
689.001
686.682
683.42
679.383
674.712
669.533
663.955
658.077
651.982
645.747
639.437
633.108
626.81
620.585
614.468
608.488
602.67
597.033
591.593
586.36
581.344
576.548
571.976
567.628
563.503
559.597
555.906
663.288
660.914
657.575
653.444
648.666
643.369
637.667
631.659
625.433
619.064
612.621
606.161
599.734
593.382
587.14
581.039
575.103
569.352
563.8
558.459
553.337
548.439
543.768
539.323
535.104
531.106
527.326
637.968
635.567
632.191
628.015
623.188
617.84
612.086
606.027
599.752
593.338
586.852
580.353
573.891
567.507
561.237
555.112
549.154
543.382
537.812
532.455
527.317
522.404
517.718
513.258
509.022
505.008
501.211
613.365
610.966
607.595
603.428
598.615
593.286
587.558
581.532
575.297
568.93
562.498
556.06
549.665
543.353
537.159
531.113
525.237
519.549
514.063
508.789
503.734
498.901
494.293
489.907
485.743
481.796
478.061
589.778
587.412
584.09
579.987
575.251
570.014
564.391
558.484
552.379
546.155
539.876
533.601
527.375
521.24
515.229
509.368
503.68
498.18
492.882
487.794
482.921
478.266
473.83
469.611
465.606
461.811
458.221
567.474
565.171
561.94
557.953
553.357
548.283
542.842
537.136
531.251
525.261
519.23
513.214
507.258
501.401
495.672
490.098
484.698
479.486
474.472
469.665
465.068
460.682
456.507
452.541
448.778
445.215
441.845
546.665
544.454
541.354
537.533
533.136
528.289
523.103
517.675
512.089
506.418
500.722
495.054
489.456
483.965
478.608
473.408
468.382
463.543
458.898
454.453
450.211
446.17
442.33
438.686
435.234
431.968
428.882
527.516
525.42
522.486
518.876
514.729
510.167
505.298
500.214
494.997
489.714
484.425
479.176
474.009
468.955
464.039
459.282
454.697
450.294
446.08
442.057
438.226
434.586
431.132
427.862
424.767
421.844
419.084
510.127
508.169
505.431
502.068
498.212
493.982
489.478
484.79
479.993
475.152
470.321
465.544
460.857
456.289
451.861
447.59
443.487
439.56
435.812
432.245
428.857
425.646
422.606
419.733
417.02
414.46
412.047
494.54
492.735
490.215
487.126
483.592
479.725
475.621
471.363
467.021
462.654
458.312
454.035
449.855
445.796
441.876
438.109
434.503
431.063
427.791
424.687
421.747
418.967
416.342
413.867
411.534
409.336
407.267
480.738
479.097
476.808
474.008
470.814
467.329
463.642
459.829
455.955
452.075
448.231
444.459
440.787
437.236
433.82
430.549
427.43
424.465
421.653
418.994
416.483
414.116
411.886
409.787
407.813
405.957
404.211
468.653
467.178
465.127
462.622
459.772
456.672
453.402
450.033
446.623
443.22
439.862
436.58
433.398
430.332
427.394
424.591
421.928
419.404
417.02
414.771
412.653
410.662
408.79
407.032
405.382
403.832
402.377
458.174
456.866
455.048
452.834
450.321
447.595
444.73
441.787
438.82
435.869
432.969
430.145
427.417
424.797
422.297
419.919
417.668
415.541
413.537
411.652
409.881
408.22
406.662
405.201
403.832
402.548
401.344
449.165
448.016
446.423
444.485
442.292
439.92
437.434
434.889
432.332
429.797
427.314
424.905
422.585
420.365
418.253
416.25
414.359
412.578
410.903
409.332
407.859
406.479
405.188
403.979
402.847
401.787
400.794
441.473
440.473
439.088
437.409
435.511
433.464
431.324
429.141
426.952
424.79
422.679
420.636
418.675
416.804
415.027
413.348
411.765
410.278
408.883
407.576
406.353
405.209
404.139
403.14
402.205
401.33
400.511
434.942
434.078
432.884
431.438
429.808
428.053
426.223
424.36
422.498
420.663
418.876
417.151
415.498
413.925
412.435
411.029
409.707
408.466
407.304
406.217
405.201
404.252
403.365
402.537
401.764
401.04
400.363
429.43
428.689
427.665
426.427
425.033
423.536
421.978
420.395
418.817
417.264
415.755
414.301
412.911
411.59
410.34
409.163
408.057
407.021
406.052
405.146
404.3
403.51
402.773
402.085
401.442
400.842
400.28
424.859
424.225
423.35
422.293
421.105
419.83
418.506
417.163
415.824
414.51
413.234
412.007
410.835
409.722
408.67
407.68
406.751
405.88
405.066
404.306
403.597
402.934
402.316
401.74
401.201
400.698
400.228
421.472
420.924
420.168
419.254
418.228
417.128
415.986
414.827
413.673
412.541
411.441
410.383
409.373
408.413
407.506
406.651
405.849
405.096
404.392
403.734
403.119
402.545
402.009
401.509
401.041
400.605
400.196
301
301
301
301
301.001
301.003
301.008
301.019
301.044
301.095
301.193
301.373
301.686
302.213
303.071
304.427
306.522
309.692
314.401
321.28
331.163
345.106
364.351
390.193
423.722
465.444
514.935
570.658
630.077
690.103
747.663
800.226
846.135
884.693
916.02
940.806
960.031
974.734
985.878
994.279
1000.59
1005.33
1008.88
1011.54
1013.53
1015.02
1016.13
1016.96
1017.58
1018.04
1018.39
1018.64
1018.82
1018.95
1019.04
1019.1
1019.13
1019.14
1019.13
1019.09
1019.04
1018.96
1018.85
1018.72
1018.55
1018.34
1018.09
1017.77
1017.38
1016.91
1016.34
1015.65
1014.82
1013.82
1012.63
1011.2
1009.51
1007.51
1005.14
1002.35
999.07
995.244
990.788
985.618
979.644
972.771
964.9
955.932
945.766
934.308
921.473
907.187
891.399
874.083
855.244
834.926
813.217
790.252
766.213
741.329
715.868
690.134
664.448
639.141
614.537
590.935
568.6
547.747
528.541
511.086
495.425
481.544
469.377
458.818
449.731
441.965
435.368
429.796
425.172
421.743
)
;

boundaryField
{
    outlet
    {
        type            inletOutlet;
        inletValue      uniform 301;
        value           nonuniform List<scalar> 
28
(
421.472
420.924
420.168
419.254
418.228
417.128
415.986
414.827
413.673
412.541
411.441
410.383
409.373
408.413
407.506
406.651
405.849
405.096
404.392
403.734
403.119
402.545
402.009
401.509
401.041
400.605
400.196
421.743
)
;
    }
    inlet
    {
        type            fixedValue;
        value           uniform 301;
    }
    front
    {
        type            wedge;
    }
    wall
    {
        type            codedFixedValue;
        value           nonuniform List<scalar> 
120
(
301
301
301
301.001
301.006
301.023
301.068
301.176
301.404
301.843
302.635
303.985
306.177
309.598
314.752
322.275
332.943
347.66
367.432
393.293
426.197
466.854
515.514
571.737
634.173
700.458
767.294
830.813
887.199
933.471
968.157
991.59
1005.64
1012.99
1016.28
1017.51
1017.89
1017.98
1018
1018
1018
1018
1018
1017.99
1017.99
1017.99
1017.99
1017.98
1017.97
1017.96
1017.95
1017.94
1017.92
1017.89
1017.86
1017.82
1017.77
1017.71
1017.63
1017.53
1017.41
1017.26
1017.07
1016.83
1016.55
1016.2
1015.77
1015.25
1014.62
1013.86
1012.94
1011.83
1010.51
1008.93
1007.05
1004.81
1002.16
999.033
995.352
991.034
985.984
980.098
973.265
965.361
956.255
945.811
933.889
920.35
905.059
887.896
868.761
847.584
824.342
799.063
771.847
742.876
712.422
680.858
648.654
616.37
584.637
554.126
525.501
499.377
476.256
456.486
440.218
427.392
417.753
410.884
406.272
403.372
401.678
400.767
400.318
400.119
400.039
400.011
400.003
400.001
)
;
        name            wall_temperature_bc;
        code            #{
            double T_sp = 0.995112 * 1023.00;
            double a1 = 0.131512447180, m1 = 6.623234475866;
            double a2 = 0.495795038348, m2 = 14.073047382323;

            vector axisX = vector(1, 0, 0);
            scalarField x = (patch().Cf() & axisX);

            scalarField u = Foam::pow(x / a1, m1);
            scalarField d = Foam::pow(x / a2, m2);

            scalarField Tu = (T_sp - 301.0) * (1 - Foam::exp(-u));
            scalarField Td = (T_sp - 400.0) * (1 - Foam::exp(-d));

            scalarField Tval = 301 + Tu - Td;
            operator==(Tval);
        #};
    }
    back
    {
        type            wedge;
    }
}


// ************************************************************************* //
