/*--------------------------------*- C++ -*----------------------------------*\
| =========                 |                                                 |
| \\      /  F ield         | OpenFOAM: The Open Source CFD Toolbox           |
|  \\    /   O peration     | Version:  2106                                  |
|   \\  /    A nd           | Website:  www.openfoam.com                      |
|    \\/     M anipulation  |                                                 |
\*---------------------------------------------------------------------------*/
FoamFile
{
    version     2.0;
    format      ascii;
    arch        "LSB;label=32;scalar=64";
    class       volVectorField;
    location    "110.00057";
    object      U_0;
}
// * * * * * * * * * * * * * * * * * * * * * * * * * * * * * * * * * * * * * //

dimensions      [0 1 -1 0 0 0 0];

internalField   nonuniform List<vector> 
3360
(
(0.132623 -0.00481892 -3.84009e-11)
(0.133021 -0.00754787 -5.80905e-11)
(0.133576 -0.0103774 -6.96461e-11)
(0.134261 -0.0130991 -7.00136e-11)
(0.135032 -0.0157437 -5.69802e-11)
(0.135841 -0.018289 -3.47771e-11)
(0.136628 -0.0207136 -4.72499e-12)
(0.137324 -0.0229869 2.81993e-11)
(0.137853 -0.0250906 6.30615e-11)
(0.138134 -0.0269681 1.00856e-10)
(0.137863 -0.0285713 3.07382e-11)
(0.136768 -0.029921 -2.26943e-11)
(0.134901 -0.030934 -7.75863e-11)
(0.13227 -0.0316004 -3.62535e-11)
(0.128858 -0.0318963 -1.38442e-11)
(0.12463 -0.0318014 2.51518e-12)
(0.119544 -0.0312979 1.49574e-11)
(0.113554 -0.0303714 2.50832e-11)
(0.106609 -0.0290116 3.40077e-11)
(0.0986567 -0.0272121 4.28185e-11)
(0.0896415 -0.0249705 5.07179e-11)
(0.0795048 -0.0222848 3.877e-11)
(0.0681842 -0.0191794 2.8385e-11)
(0.0555737 -0.0156359 2.03268e-11)
(0.0416188 -0.0116921 1.36154e-11)
(0.0262544 -0.00734319 7.77848e-12)
(0.00939975 -0.00247591 2.48905e-12)
(0.162983 -0.00348349 2.0289e-10)
(0.163348 -0.005328 3.41924e-10)
(0.163755 -0.00715911 4.87358e-10)
(0.164071 -0.00878141 6.12415e-10)
(0.164158 -0.0102006 5.91937e-10)
(0.16388 -0.0113883 5.65815e-10)
(0.163106 -0.0123266 4.1505e-10)
(0.161719 -0.0130038 3.02129e-10)
(0.159613 -0.0133999 2.34828e-10)
(0.156704 -0.0135338 1.98509e-10)
(0.153145 -0.0134338 1.8053e-10)
(0.149053 -0.0130525 1.80724e-10)
(0.144345 -0.0125 1.92128e-10)
(0.138965 -0.011768 2.14108e-10)
(0.132862 -0.0108862 2.39983e-10)
(0.125977 -0.00988181 2.09468e-10)
(0.118283 -0.008786 1.86447e-10)
(0.109777 -0.00763173 1.7147e-10)
(0.100481 -0.0064532 1.61693e-10)
(0.0904396 -0.00528485 1.56e-10)
(0.0797189 -0.00416068 1.47486e-10)
(0.0684122 -0.00311796 1.32951e-10)
(0.0566144 -0.00216775 1.15696e-10)
(0.0444618 -0.00136733 1.00785e-10)
(0.0320311 -0.000722232 8.62121e-11)
(0.0193933 -0.000265847 6.03928e-11)
(0.00661216 -2.33774e-05 1.90296e-11)
(0.182448 -0.00315687 2.37298e-10)
(0.181927 -0.00483681 3.46417e-10)
(0.181043 -0.00640701 3.78674e-10)
(0.179693 -0.00770392 2.78488e-10)
(0.177776 -0.00873809 4.8962e-10)
(0.175204 -0.00950032 5.6462e-10)
(0.171908 -0.00999542 5.79941e-10)
(0.167849 -0.0102374 5.73426e-10)
(0.16302 -0.0102518 5.54289e-10)
(0.157429 -0.0100623 4.15349e-10)
(0.151075 -0.00969897 4.08943e-10)
(0.144025 -0.00920111 4.10424e-10)
(0.136272 -0.00856476 4.23781e-10)
(0.127859 -0.00783226 4.47383e-10)
(0.118868 -0.00701815 4.71044e-10)
(0.109418 -0.00615985 4.40532e-10)
(0.0996352 -0.00528284 3.504e-10)
(0.0896439 -0.00441517 2.71309e-10)
(0.0795592 -0.0035825 2.01703e-10)
(0.069484 -0.00280758 1.61003e-10)
(0.0595036 -0.00210733 1.23207e-10)
(0.0496737 -0.00149824 1.11113e-10)
(0.0400426 -0.000988243 9.92109e-11)
(0.0306505 -0.000582797 8.64496e-11)
(0.0215286 -0.000283369 6.05212e-11)
(0.0127017 -9.19769e-05 3.51903e-11)
(0.00418826 -2.56641e-06 1.13535e-11)
(0.204707 -0.00181672 -5.39089e-10)
(0.203211 -0.00270351 -8.80705e-10)
(0.200964 -0.00352209 -1.24745e-09)
(0.197942 -0.00416008 -9.43219e-10)
(0.194118 -0.0046259 -7.62069e-10)
(0.189472 -0.0049297 -5.63199e-10)
(0.184003 -0.00505146 -4.34483e-10)
(0.17777 -0.00504792 -3.98552e-10)
(0.170833 -0.00490547 -2.97675e-10)
(0.163265 -0.00466133 -1.20401e-10)
(0.155179 -0.00433049 -1.01011e-11)
(0.146647 -0.00393816 6.18611e-11)
(0.137722 -0.00350395 1.07501e-10)
(0.128459 -0.00305043 1.35739e-10)
(0.118913 -0.00260527 1.5324e-10)
(0.109159 -0.00217729 1.62665e-10)
(0.0992719 -0.00178114 1.63281e-10)
(0.0893205 -0.00142428 1.11625e-10)
(0.0793664 -0.00111051 6.09982e-11)
(0.0694622 -0.000840362 2.44864e-11)
(0.0596516 -0.000614509 2.30679e-11)
(0.0499702 -0.000427882 3.61241e-11)
(0.0404463 -0.000279724 2.91874e-11)
(0.0311031 -0.00016642 2.21719e-11)
(0.0219596 -8.44499e-05 1.54158e-11)
(0.013031 -3.05134e-05 8.96194e-12)
(0.00432959 -3.63669e-06 2.88282e-12)
(0.208722 -0.00110139 2.9303e-10)
(0.206712 -0.00167063 -2.85807e-11)
(0.203756 -0.0021594 -1.59084e-10)
(0.199883 -0.00251355 -1.4677e-10)
(0.195119 -0.00274513 -6.08911e-11)
(0.189495 -0.00285145 6.978e-11)
(0.183066 -0.0028808 2.48568e-10)
(0.175875 -0.00281327 2.73388e-10)
(0.168021 -0.00269197 2.15408e-10)
(0.159599 -0.00252402 2.23614e-10)
(0.150702 -0.00232216 2.57051e-10)
(0.141425 -0.00209633 2.16714e-10)
(0.131856 -0.00185659 1.88795e-10)
(0.122079 -0.00161155 1.69294e-10)
(0.112188 -0.00137135 1.54189e-10)
(0.102262 -0.00114277 1.41779e-10)
(0.0923665 -0.000931252 1.3132e-10)
(0.0825562 -0.000740302 1.22073e-10)
(0.0728783 -0.000571886 1.14759e-10)
(0.0633725 -0.000426767 1.09619e-10)
(0.0540721 -0.000304823 1.06198e-10)
(0.0450052 -0.000205324 1.0511e-10)
(0.0361947 -0.000127167 6.82911e-11)
(0.0276571 -6.89599e-05 5.03246e-11)
(0.0194037 -2.92545e-05 3.44822e-11)
(0.0114413 -6.9529e-06 1.99229e-11)
(0.00377249 1.31464e-06 6.40192e-12)
(0.218316 -0.000715108 3.2505e-11)
(0.215635 -0.001038 1.04163e-11)
(0.211789 -0.0013173 1.85026e-12)
(0.206905 -0.00151174 1.90803e-11)
(0.201099 -0.00161995 5.8789e-11)
(0.194491 -0.00166325 1.05826e-10)
(0.187202 -0.00164234 1.49385e-10)
(0.179325 -0.00157235 1.79929e-10)
(0.170923 -0.00146887 2.01775e-10)
(0.162075 -0.00134213 2.25651e-10)
(0.152863 -0.00120205 2.4554e-10)
(0.14337 -0.00105671 1.81062e-10)
(0.133675 -0.000912683 1.19241e-10)
(0.12385 -0.000775211 6.32342e-11)
(0.113958 -0.000647815 9.48367e-12)
(0.104058 -0.000532318 -4.75931e-11)
(0.0941971 -0.000429598 -2.97632e-11)
(0.084416 -0.000339876 -1.99782e-11)
(0.074749 -0.000262911 -1.39912e-11)
(0.0652243 -0.000198123 1.30571e-11)
(0.0558651 -0.000144687 3.50877e-11)
(0.0466901 -0.000101597 3.54328e-11)
(0.0377144 -6.77163e-05 3.42624e-11)
(0.0289501 -4.18489e-05 3.3852e-11)
(0.0204068 -2.2755e-05 3.42434e-11)
(0.012092 -9.23486e-06 1.95567e-11)
(0.00401127 -1.73178e-06 6.17897e-12)
(0.219313 -0.00040446 1.27363e-11)
(0.216419 -0.000617372 3.30412e-11)
(0.212285 -0.000797477 7.07552e-11)
(0.207065 -0.000923148 1.12249e-10)
(0.200892 -0.00101042 1.56039e-10)
(0.19388 -0.00105067 2.09605e-10)
(0.186157 -0.00105853 9.30899e-11)
(0.177833 -0.00103476 -8.93715e-12)
(0.169011 -0.000985544 -1.13079e-10)
(0.159788 -0.000917558 -9.52189e-11)
(0.150254 -0.000837085 -1.02081e-10)
(0.140495 -0.000749533 -1.30113e-10)
(0.130589 -0.000659332 -1.71711e-10)
(0.120608 -0.000569946 -2.22718e-10)
(0.110615 -0.000483958 -2.09359e-10)
(0.100666 -0.000403205 -2.05424e-10)
(0.0908091 -0.000328942 -2.08939e-10)
(0.081087 -0.000261966 -2.22029e-10)
(0.0715345 -0.000202726 -1.97894e-10)
(0.062181 -0.000151407 -1.65118e-10)
(0.0530502 -0.000108001 -1.38465e-10)
(0.0441609 -7.23534e-05 -9.05498e-11)
(0.0355276 -4.42071e-05 -7.16909e-11)
(0.0271607 -2.3222e-05 -5.38914e-11)
(0.0190672 -9.05204e-06 -3.71494e-11)
(0.0112509 -1.51296e-06 -2.15538e-11)
(0.00371333 8.67042e-07 -6.94732e-12)
(0.223032 -0.000254551 5.73848e-10)
(0.21989 -0.00036346 1.0147e-09)
(0.215438 -0.000458405 4.61839e-10)
(0.209873 -0.000520054 1.38918e-10)
(0.203371 -0.000556217 -1.08992e-10)
(0.196083 -0.000565876 -3.16705e-10)
(0.188124 -0.000555582 -4.59019e-10)
(0.179604 -0.00052903 -4.77966e-10)
(0.170628 -0.000490681 -5.3609e-10)
(0.161292 -0.000444637 -5.14144e-10)
(0.151686 -0.000394521 -4.15648e-10)
(0.141889 -0.000343322 -3.49221e-10)
(0.131975 -0.00029336 -3.0411e-10)
(0.122006 -0.000246316 -2.69426e-10)
(0.112037 -0.000203304 -2.37439e-10)
(0.102116 -0.000164961 -2.12377e-10)
(0.0922831 -0.000131547 -2.42179e-10)
(0.0825711 -0.000103029 -2.79789e-10)
(0.0730083 -7.91675e-05 -2.79359e-10)
(0.0636178 -5.95763e-05 -2.47823e-10)
(0.0544182 -4.37831e-05 -2.18862e-10)
(0.0454245 -3.12718e-05 -1.83474e-10)
(0.0366487 -2.15193e-05 -1.50022e-10)
(0.0281002 -1.402e-05 -9.58534e-11)
(0.019786 -8.2647e-06 -6.67203e-11)
(0.0117114 -3.73909e-06 -3.8605e-11)
(0.00388003 -9.49045e-07 -1.24117e-11)
(0.223301 -0.000170092 1.49302e-10)
(0.220071 -0.00026288 1.94714e-10)
(0.215496 -0.000340885 1.61692e-10)
(0.20978 -0.000399859 1.2184e-10)
(0.203095 -0.000438504 1.27443e-10)
(0.1956 -0.000459436 -1.17073e-10)
(0.187429 -0.000463618 -2.61281e-10)
(0.178707 -0.000453938 -3.5579e-10)
(0.169545 -0.000433406 -4.24398e-10)
(0.160042 -0.000404915 -4.74639e-10)
(0.150291 -0.000371048 -5.18004e-10)
(0.140372 -0.000333996 -5.72085e-10)
(0.130357 -0.000295549 -5.25393e-10)
(0.12031 -0.000257116 -5.00902e-10)
(0.110287 -0.000219779 -4.89485e-10)
(0.100336 -0.000184343 -4.88597e-10)
(0.0904988 -0.000151391 -4.97651e-10)
(0.0808101 -0.000121331 -5.11274e-10)
(0.0712997 -9.44352e-05 -5.01914e-10)
(0.061992 -7.08694e-05 -4.51748e-10)
(0.0529069 -5.07192e-05 -4.06269e-10)
(0.04406 -3.4006e-05 -3.2922e-10)
(0.0354636 -2.06992e-05 -2.58167e-10)
(0.0271262 -1.07225e-05 -1.92744e-10)
(0.0190539 -3.98871e-06 -1.32422e-10)
(0.0112501 -4.82404e-07 -7.6554e-11)
(0.00371595 4.49275e-07 -2.45996e-11)
(0.224976 -0.000106595 -4.57537e-11)
(0.221659 -0.000151047 -7.28837e-11)
(0.216976 -0.00019052 -8.67547e-11)
(0.211152 -0.000217631 -1.25638e-10)
(0.204368 -0.000233835 -2.02192e-10)
(0.196781 -0.000239802 -3.08303e-10)
(0.18853 -0.000236712 -4.17638e-10)
(0.179744 -0.000226482 -5.24684e-10)
(0.170533 -0.000211 -6.38609e-10)
(0.161 -0.000192046 -6.21629e-10)
(0.151233 -0.000171177 -6.22598e-10)
(0.141311 -0.000149678 -6.29971e-10)
(0.131304 -0.000128549 -6.40735e-10)
(0.121271 -0.000108525 -6.67237e-10)
(0.111264 -9.01028e-05 -6.10336e-10)
(0.101327 -7.3582e-05 -5.72608e-10)
(0.091497 -5.91007e-05 -5.41718e-10)
(0.0818053 -4.667e-05 -5.1146e-10)
(0.0722778 -3.6207e-05 -4.69357e-10)
(0.062936 -2.75613e-05 -3.99705e-10)
(0.0537972 -2.0539e-05 -3.36955e-10)
(0.0448752 -1.49221e-05 -2.57866e-10)
(0.0361811 -1.04854e-05 -2.02199e-10)
(0.0277233 -7.00741e-06 -1.5163e-10)
(0.0195078 -4.25244e-06 -1.04629e-10)
(0.0115392 -1.96479e-06 -6.06599e-11)
(0.00381997 -6.41773e-07 -1.95202e-11)
(0.225155 -9.12327e-05 4.55202e-10)
(0.221798 -0.000141438 8.42589e-10)
(0.217056 -0.00018419 2.16147e-10)
(0.211153 -0.000215469 -1.67607e-10)
(0.204274 -0.000236258 -4.66107e-10)
(0.196586 -0.000247519 -7.51746e-10)
(0.188235 -0.000250738 -8.52852e-10)
(0.179351 -0.000247175 -8.86482e-10)
(0.17005 -0.000238168 -9.4945e-10)
(0.160434 -0.000224968 -9.06296e-10)
(0.150592 -0.000208686 -7.86304e-10)
(0.140605 -0.000190277 -6.97802e-10)
(0.130541 -0.000170584 -6.27004e-10)
(0.120462 -0.000150331 -5.6518e-10)
(0.110418 -0.000130134 -5.07569e-10)
(0.100457 -0.000110496 -4.54166e-10)
(0.0906152 -9.18248e-05 -4.54588e-10)
(0.0809261 -7.44417e-05 -4.58665e-10)
(0.0714167 -5.85962e-05 -4.32077e-10)
(0.0621095 -4.44747e-05 -3.80012e-10)
(0.0530229 -3.22099e-05 -3.33433e-10)
(0.0441712 -2.18876e-05 -2.76992e-10)
(0.0355657 -1.3552e-05 -2.21696e-10)
(0.0272146 -7.20914e-06 -1.54345e-10)
(0.0191236 -2.83756e-06 -1.06479e-10)
(0.0112959 -4.34938e-07 -6.1605e-11)
(0.003733 5.62151e-08 -1.97914e-11)
(0.226196 -6.67956e-05 1.41343e-10)
(0.222797 -9.54506e-05 1.68457e-10)
(0.218005 -0.000121107 8.08147e-11)
(0.21205 -0.000139252 -1.98291e-11)
(0.205133 -0.000150818 -8.74663e-11)
(0.197416 -0.000156584 -3.26526e-10)
(0.189044 -0.000157255 -4.76479e-10)
(0.180146 -0.000153737 -5.66624e-10)
(0.170837 -0.000146927 -6.17976e-10)
(0.161218 -0.000137417 -6.41271e-10)
(0.151377 -0.000126679 -6.47998e-10)
(0.141392 -0.00011434 -6.47264e-10)
(0.131331 -0.000101598 -6.45455e-10)
(0.121255 -8.87522e-05 -6.45659e-10)
(0.111212 -7.62221e-05 -6.49809e-10)
(0.101247 -6.43291e-05 -6.55639e-10)
(0.0913966 -5.33047e-05 -6.16927e-10)
(0.0816904 -4.33032e-05 -5.82441e-10)
(0.0721542 -3.44119e-05 -5.25488e-10)
(0.0628091 -2.66627e-05 -4.26357e-10)
(0.0536722 -2.00429e-05 -3.37443e-10)
(0.0447571 -1.45061e-05 -2.55521e-10)
(0.0360747 -9.98273e-06 -1.78031e-10)
(0.0276331 -6.38697e-06 -1.2571e-10)
(0.0194384 -3.59452e-06 -7.43521e-11)
(0.0114944 -1.44594e-06 -4.37735e-11)
(0.00380369 -6.77722e-07 -1.41053e-11)
(0.22661 -8.72414e-05 -3.28315e-11)
(0.223194 -0.000134238 -7.58139e-11)
(0.218376 -0.000175979 -1.43965e-10)
(0.212389 -0.000208346 -2.30818e-10)
(0.205429 -0.000231359 -3.3188e-10)
(0.197664 -0.000244989 -4.45821e-10)
(0.189243 -0.00025012 -5.58636e-10)
(0.180296 -0.000247902 -6.66081e-10)
(0.170938 -0.000239602 -7.64123e-10)
(0.161272 -0.000226758 -7.53878e-10)
(0.151384 -0.000209914 -7.47142e-10)
(0.141355 -0.000191284 -7.48614e-10)
(0.131252 -0.00017126 -7.56529e-10)
(0.121136 -0.000150806 -7.68722e-10)
(0.111057 -0.000130518 -7.14444e-10)
(0.101059 -0.000110879 -6.67213e-10)
(0.0911811 -9.22719e-05 -6.25718e-10)
(0.0814534 -7.49973e-05 -5.87867e-10)
(0.071903 -5.92821e-05 -5.23965e-10)
(0.0625517 -4.52914e-05 -4.47894e-10)
(0.0534175 -3.31368e-05 -3.73164e-10)
(0.0445147 -2.28834e-05 -2.90685e-10)
(0.0358543 -1.45571e-05 -2.25777e-10)
(0.0274447 -8.14679e-06 -1.67608e-10)
(0.0192918 -3.5918e-06 -1.14801e-10)
(0.0113992 -8.13618e-07 -6.62878e-11)
(0.0037687 -4.67671e-07 -2.12888e-11)
(0.227909 -9.16637e-05 -1.37908e-10)
(0.22447 -0.000135638 -1.92003e-10)
(0.21962 -0.0001757 -2.88961e-10)
(0.213595 -0.000206188 -4.01926e-10)
(0.206591 -0.000227623 -5.17197e-10)
(0.198783 -0.00024015 -6.27449e-10)
(0.19032 -0.000244566 -7.35232e-10)
(0.181336 -0.000241941 -8.3984e-10)
(0.171948 -0.000233492 -9.31858e-10)
(0.162257 -0.00022049 -9.07926e-10)
(0.152352 -0.000204161 -8.86341e-10)
(0.142311 -0.000185649 -8.73046e-10)
(0.132199 -0.000165917 -8.66968e-10)
(0.122072 -0.00014578 -8.60882e-10)
(0.111979 -0.000125885 -7.9657e-10)
(0.101962 -0.000106744 -7.36524e-10)
(0.0920572 -8.87515e-05 -6.84533e-10)
(0.0822942 -7.21948e-05 -6.33378e-10)
(0.0726988 -5.72713e-05 -5.72218e-10)
(0.0632923 -4.41004e-05 -4.86147e-10)
(0.0540922 -3.27362e-05 -4.0741e-10)
(0.0451126 -2.31794e-05 -3.15031e-10)
(0.0363649 -1.53912e-05 -2.46435e-10)
(0.0278577 -9.29789e-06 -1.84014e-10)
(0.0195977 -4.75359e-06 -1.26573e-10)
(0.0115893 -1.55215e-06 -7.32174e-11)
(0.00383527 -1.09342e-06 -2.35307e-11)
(0.229024 -0.000127694 6.23326e-10)
(0.225573 -0.00019427 -5.11425e-10)
(0.220708 -0.000254746 -3.61346e-10)
(0.214665 -0.000302679 -2.58425e-10)
(0.207641 -0.000338817 -1.81374e-10)
(0.19981 -0.000363324 -3.0314e-10)
(0.191323 -0.000376946 -3.94106e-10)
(0.182312 -0.000380674 -4.60111e-10)
(0.172893 -0.000375671 -5.02102e-10)
(0.163166 -0.000363184 -5.22091e-10)
(0.153221 -0.000344481 -5.25918e-10)
(0.143133 -0.000320793 -5.17982e-10)
(0.132969 -0.000293348 -5.01372e-10)
(0.122786 -0.00026338 -4.78255e-10)
(0.112634 -0.000232048 -4.50134e-10)
(0.102555 -0.000200402 -4.19443e-10)
(0.0925863 -0.00016936 -3.8821e-10)
(0.0827594 -0.0001397 -3.61492e-10)
(0.0731007 -0.000112062 -3.03637e-10)
(0.0636324 -8.69453e-05 -2.57419e-10)
(0.054373 -6.47239e-05 -1.95766e-10)
(0.0453375 -4.5653e-05 -1.65278e-10)
(0.0365379 -2.98876e-05 -1.17867e-10)
(0.0279834 -1.74863e-05 -8.90747e-11)
(0.019681 -8.37265e-06 -6.18905e-11)
(0.0116353 -2.39356e-06 -3.60898e-11)
(0.00384914 -1.369e-06 -1.16495e-11)
(0.23131 -0.000167474 3.58511e-10)
(0.227845 -0.00025144 4.40609e-10)
(0.222961 -0.000328471 -3.09335e-10)
(0.216893 -0.000389196 -2.86349e-10)
(0.20984 -0.00043453 -2.91491e-10)
(0.201977 -0.000464561 -3.38935e-10)
(0.193452 -0.000480235 -4.09871e-10)
(0.184399 -0.000482885 -4.95443e-10)
(0.17493 -0.000474123 -5.91141e-10)
(0.165148 -0.00045572 -5.69396e-10)
(0.155139 -0.000429514 -5.62657e-10)
(0.14498 -0.000397333 -5.66645e-10)
(0.134738 -0.000360937 -5.78701e-10)
(0.124469 -0.000321966 -5.95085e-10)
(0.114225 -0.000281897 -5.49206e-10)
(0.104047 -0.000242023 -5.10716e-10)
(0.0939736 -0.000203435 -4.79384e-10)
(0.0840359 -0.000167022 -4.56358e-10)
(0.0742607 -0.000133476 -4.07716e-10)
(0.0646708 -0.000103305 -3.44454e-10)
(0.0552847 -7.68555e-05 -2.88385e-10)
(0.046118 -5.43259e-05 -2.17653e-10)
(0.0371832 -3.57998e-05 -1.69952e-10)
(0.0284899 -2.12523e-05 -1.27387e-10)
(0.0200457 -1.04853e-05 -8.77376e-11)
(0.0118559 -3.18632e-06 -5.07945e-11)
(0.00392412 -2.10609e-06 -1.63269e-11)
(0.234058 -0.00022153 -6.33888e-10)
(0.230582 -0.000335137 -1.16823e-09)
(0.225679 -0.000438423 -8.27314e-10)
(0.219588 -0.000519665 -7.27662e-10)
(0.212506 -0.000579987 -7.37124e-10)
(0.204606 -0.000619578 -8.07514e-10)
(0.196038 -0.000639775 -9.13915e-10)
(0.186931 -0.000642455 -1.03818e-09)
(0.177401 -0.000629882 -1.07201e-09)
(0.167548 -0.000604533 -9.74968e-10)
(0.157458 -0.000568954 -9.20043e-10)
(0.147207 -0.000525644 -8.83739e-10)
(0.136863 -0.000476966 -8.60985e-10)
(0.126482 -0.000425082 -8.43888e-10)
(0.116116 -0.000371915 -7.69886e-10)
(0.105807 -0.000319124 -7.03466e-10)
(0.0955956 -0.000268104 -6.46871e-10)
(0.0855127 -0.000219985 -5.93199e-10)
(0.075587 -0.000175654 -5.32956e-10)
(0.0658423 -0.00013577 -4.47099e-10)
(0.0562987 -0.000100785 -3.73659e-10)
(0.046973 -7.09792e-05 -2.8937e-10)
(0.0378788 -4.64834e-05 -2.26927e-10)
(0.029027 -2.72928e-05 -1.69947e-10)
(0.020426 -1.31777e-05 -1.1688e-10)
(0.012082 -3.76844e-06 -6.75617e-11)
(0.00399934 -2.73581e-06 -2.16935e-11)
(0.238425 -0.000285556 -6.22144e-10)
(0.234936 -0.00042934 -1.00953e-09)
(0.230014 -0.000560017 -1.35581e-09)
(0.223895 -0.000661962 -1.13351e-09)
(0.216777 -0.000736716 -9.97548e-10)
(0.208829 -0.000784661 -9.18677e-10)
(0.2002 -0.000807693 -8.69679e-10)
(0.191019 -0.000808416 -8.33392e-10)
(0.181399 -0.000789914 -7.9806e-10)
(0.171439 -0.000755505 -7.62166e-10)
(0.161225 -0.000708554 -7.26966e-10)
(0.150833 -0.00065232 -6.92851e-10)
(0.14033 -0.000589843 -6.60776e-10)
(0.129774 -0.000523871 -6.27063e-10)
(0.119216 -0.000456813 -5.32617e-10)
(0.108702 -0.000390716 -4.45477e-10)
(0.0982709 -0.000327267 -4.09647e-10)
(0.0879575 -0.000267803 -3.81742e-10)
(0.0777915 -0.000213341 -3.25348e-10)
(0.0677985 -0.000164607 -2.75595e-10)
(0.0580004 -0.000122071 -2.27844e-10)
(0.0484156 -8.59818e-05 -1.82722e-10)
(0.0390594 -5.64197e-05 -1.40339e-10)
(0.0299441 -3.33004e-05 -1.00603e-10)
(0.0210797 -1.62564e-05 -6.33819e-11)
(0.0124734 -4.74072e-06 -2.97685e-11)
(0.00413067 -3.74314e-06 -9.19273e-12)
(0.24421 -0.000358877 -8.89569e-10)
(0.240706 -0.000540572 -1.49312e-09)
(0.235761 -0.00070407 -1.19131e-09)
(0.229608 -0.000830329 -1.03442e-09)
(0.222442 -0.000921389 -9.4902e-10)
(0.21443 -0.000978096 -9.07696e-10)
(0.205719 -0.00100319 -8.96524e-10)
(0.196436 -0.00100031 -9.05757e-10)
(0.186691 -0.000973625 -9.27646e-10)
(0.176581 -0.000927559 -8.6347e-10)
(0.166194 -0.000866496 -8.1598e-10)
(0.155604 -0.000794613 -7.82083e-10)
(0.14488 -0.000715743 -7.59773e-10)
(0.134081 -0.000633287 -7.44391e-10)
(0.12326 -0.000550177 -6.72578e-10)
(0.112465 -0.000468859 -6.10862e-10)
(0.101737 -0.000391309 -5.60224e-10)
(0.0911139 -0.000319063 -5.20599e-10)
(0.0806273 -0.000253256 -4.59161e-10)
(0.0703055 -0.000194668 -3.83057e-10)
(0.0601731 -0.000143777 -3.15543e-10)
(0.0502506 -0.000100804 -2.44625e-10)
(0.0405554 -6.57744e-05 -1.91328e-10)
(0.0311019 -3.85275e-05 -1.43583e-10)
(0.0219017 -1.85614e-05 -9.87181e-11)
(0.0129636 -5.16811e-06 -5.70663e-11)
(0.00429441 -4.72028e-06 -1.83212e-11)
(0.252508 -0.000429393 -1.11458e-09)
(0.248989 -0.000644027 -1.74185e-09)
(0.244016 -0.000835982 -1.47486e-09)
(0.23782 -0.000982306 -1.30948e-09)
(0.23059 -0.00108566 -1.21788e-09)
(0.222491 -0.00114754 -1.17256e-09)
(0.213664 -0.00117169 -1.15757e-09)
(0.204232 -0.00116293 -1.16325e-09)
(0.194305 -0.00112664 -1.18001e-09)
(0.183977 -0.00106836 -1.09179e-09)
(0.173336 -0.00099349 -1.02155e-09)
(0.162457 -0.000907061 -9.68956e-10)
(0.15141 -0.000813582 -9.27649e-10)
(0.140257 -0.000716978 -8.93448e-10)
(0.129054 -0.000620554 -8.09101e-10)
(0.117851 -0.000527006 -7.34076e-10)
(0.106695 -0.000438458 -6.68247e-10)
(0.0956252 -0.000356509 -6.0819e-10)
(0.0846781 -0.0002823 -5.40434e-10)
(0.0738854 -0.000216574 -4.52845e-10)
(0.0632747 -0.000159735 -3.80803e-10)
(0.0528698 -0.00011192 -2.94225e-10)
(0.0426909 -7.30597e-05 -2.29418e-10)
(0.032755 -4.28917e-05 -1.71208e-10)
(0.0230758 -2.07542e-05 -1.17589e-10)
(0.0136642 -5.74905e-06 -6.79498e-11)
(0.00452858 -5.97395e-06 -2.18085e-11)
(0.263543 -0.000489355 -3.85572e-10)
(0.260005 -0.000733659 -5.7159e-10)
(0.254998 -0.000949627 -6.74523e-10)
(0.248744 -0.00111182 -7.25514e-10)
(0.241427 -0.00122357 -7.41417e-10)
(0.233204 -0.0012873 -7.29541e-10)
(0.224212 -0.00130799 -6.916e-10)
(0.214568 -0.00129174 -8.065e-10)
(0.204381 -0.00124519 -8.89818e-10)
(0.193744 -0.00117498 -8.29107e-10)
(0.182745 -0.00108741 -7.723e-10)
(0.171461 -0.000988229 -7.14268e-10)
(0.159966 -0.000882477 -6.56921e-10)
(0.148325 -0.000774435 -6.00759e-10)
(0.1366 -0.000667626 -5.45662e-10)
(0.124846 -0.00056486 -4.92095e-10)
(0.113113 -0.000468288 -4.40779e-10)
(0.101448 -0.000379484 -3.92398e-10)
(0.0898915 -0.000299523 -3.25742e-10)
(0.0784794 -0.000229061 -2.78845e-10)
(0.067244 -0.000168408 -2.20228e-10)
(0.0562128 -0.0001176 -1.81317e-10)
(0.0454096 -7.64777e-05 -1.31913e-10)
(0.0348543 -4.46877e-05 -1.0031e-10)
(0.0245632 -2.14266e-05 -6.94119e-11)
(0.0145496 -5.63373e-06 -4.03113e-11)
(0.0048237 -7.17638e-06 -1.29615e-11)
(0.278472 -0.0005209 -7.57341e-10)
(0.274907 -0.000777893 -1.24823e-09)
(0.269849 -0.00100277 -9.66977e-10)
(0.26351 -0.00116876 -8.29667e-10)
(0.256063 -0.00127982 -7.60769e-10)
(0.247656 -0.00133939 -7.24919e-10)
(0.238418 -0.00135355 -7.07392e-10)
(0.228463 -0.00132949 -7.02025e-10)
(0.217897 -0.00127473 -6.97887e-10)
(0.206814 -0.00119665 -6.90441e-10)
(0.195304 -0.00110202 -6.81808e-10)
(0.183449 -0.000996872 -6.73581e-10)
(0.171327 -0.00088637 -6.66527e-10)
(0.159012 -0.000774783 -6.60633e-10)
(0.14657 -0.000665539 -6.0885e-10)
(0.134066 -0.000561295 -5.63214e-10)
(0.121555 -0.000464027 -5.22911e-10)
(0.109092 -0.000375126 -4.84385e-10)
(0.0967222 -0.000295493 -4.37511e-10)
(0.0844886 -0.000225627 -3.74399e-10)
(0.0724283 -0.000165707 -3.15851e-10)
(0.0605733 -0.000115658 -2.51634e-10)
(0.0489516 -7.52419e-05 -2.07232e-10)
(0.0375865 -4.40414e-05 -1.54862e-10)
(0.0264974 -2.11437e-05 -1.06167e-10)
(0.0157001 -5.35671e-06 -6.12637e-11)
(0.00520692 -8.48134e-06 -1.9633e-11)
(0.297831 -0.000512341 -8.59146e-10)
(0.294219 -0.000764078 -1.39608e-09)
(0.289074 -0.000981335 -1.06401e-09)
(0.282595 -0.00113879 -9.03477e-10)
(0.274942 -0.00124075 -8.16758e-10)
(0.266251 -0.00129165 -7.66913e-10)
(0.256644 -0.00129829 -7.36439e-10)
(0.246234 -0.00126844 -7.15702e-10)
(0.235123 -0.00120997 -6.98948e-10)
(0.22341 -0.00113034 -6.82992e-10)
(0.211191 -0.00103624 -6.67698e-10)
(0.198557 -0.000933481 -6.53008e-10)
(0.185592 -0.00082688 -6.38627e-10)
(0.172381 -0.000720343 -6.23071e-10)
(0.159 -0.000616925 -5.60051e-10)
(0.145521 -0.00051893 -5.01268e-10)
(0.13201 -0.000428022 -4.4773e-10)
(0.118529 -0.000345331 -3.95472e-10)
(0.105132 -0.000271551 -3.3357e-10)
(0.0918666 -0.000207027 -2.65207e-10)
(0.0787771 -0.000151829 -2.00691e-10)
(0.0659006 -0.00010582 -1.52019e-10)
(0.0532692 -6.87357e-05 -1.18752e-10)
(0.04091 -4.01566e-05 -8.91406e-11)
(0.0288456 -1.91325e-05 -6.12844e-11)
(0.0170942 -4.4274e-06 -3.53869e-11)
(0.00567022 -9.61863e-06 -1.134e-11)
(0.322692 -0.000450967 -5.9679e-10)
(0.318984 -0.000669849 -9.46528e-10)
(0.313677 -0.000856226 -1.23242e-09)
(0.306954 -0.000988497 -9.7628e-10)
(0.29896 -0.00107095 -7.91344e-10)
(0.289823 -0.00110843 -6.53293e-10)
(0.279659 -0.00110773 -5.39609e-10)
(0.26858 -0.00107627 -4.36942e-10)
(0.256693 -0.00102132 -3.42316e-10)
(0.244106 -0.00094955 -3.35191e-10)
(0.230923 -0.00086679 -3.21113e-10)
(0.217246 -0.00077792 -2.9903e-10)
(0.203173 -0.000686902 -2.71486e-10)
(0.188799 -0.000596846 -2.39989e-10)
(0.174213 -0.000510118 -2.05868e-10)
(0.159498 -0.000428452 -1.71582e-10)
(0.144731 -0.000353058 -1.72489e-10)
(0.129981 -0.000284727 -1.7039e-10)
(0.115312 -0.000223912 -1.53776e-10)
(0.100779 -0.000170808 -1.36011e-10)
(0.0864314 -0.000125408 -1.19332e-10)
(0.0723119 -8.75556e-05 -1.03351e-10)
(0.058457 -5.70218e-05 -8.77802e-11)
(0.0448977 -3.34509e-05 -6.29874e-11)
(0.0316593 -1.59311e-05 -3.95197e-11)
(0.0187627 -3.2521e-06 -1.81823e-11)
(0.00622401 -1.06028e-05 -5.64177e-12)
(0.353401 -0.000335279 -7.37499e-10)
(0.349506 -0.000497003 -1.26027e-09)
(0.343902 -0.000631998 -9.24111e-10)
(0.336762 -0.000725189 -7.41938e-10)
(0.328221 -0.000780345 -6.11101e-10)
(0.318403 -0.000802015 -5.13451e-10)
(0.307424 -0.000796001 -4.38275e-10)
(0.295401 -0.000768351 -3.80072e-10)
(0.282453 -0.000724767 -3.3597e-10)
(0.268699 -0.000670273 -3.04463e-10)
(0.254258 -0.000609086 -2.8146e-10)
(0.239247 -0.000544614 -2.64025e-10)
(0.22378 -0.000479516 -2.50245e-10)
(0.207966 -0.000415802 -2.39128e-10)
(0.191906 -0.000354944 -2.3014e-10)
(0.175697 -0.000297979 -2.22939e-10)
(0.159425 -0.000245599 -2.16758e-10)
(0.14317 -0.000198233 -2.15194e-10)
(0.127003 -0.00015611 -1.98316e-10)
(0.110987 -0.000119307 -1.64541e-10)
(0.0951772 -8.77872e-05 -1.36145e-10)
(0.079621 -6.1438e-05 -1.10145e-10)
(0.0643591 -4.01227e-05 -8.64772e-11)
(0.0494256 -2.36138e-05 -6.46592e-11)
(0.0348486 -1.11199e-05 -4.44476e-11)
(0.0206506 -1.53746e-06 -2.56798e-11)
(0.00684941 -1.11806e-05 -8.23664e-12)
(0.390178 -0.000168324 -7.11638e-10)
(0.385952 -0.000247081 -1.2131e-09)
(0.379852 -0.000309882 -9.04934e-10)
(0.37205 -0.000349884 -7.6923e-10)
(0.362683 -0.000369848 -6.8857e-10)
(0.351879 -0.000373114 -6.4073e-10)
(0.339766 -0.000363482 -6.1689e-10)
(0.326475 -0.000344606 -6.12108e-10)
(0.312141 -0.000319668 -6.23427e-10)
(0.2969 -0.000291242 -6.41751e-10)
(0.28089 -0.000261289 -6.12906e-10)
(0.264246 -0.000231229 -5.299e-10)
(0.247098 -0.000202034 -4.70216e-10)
(0.22957 -0.000174332 -4.22878e-10)
(0.211779 -0.0001485 -3.84785e-10)
(0.193832 -0.000124739 -3.53629e-10)
(0.175827 -0.000103139 -3.26861e-10)
(0.157852 -8.37146e-05 -3.02066e-10)
(0.139986 -6.64446e-05 -2.67534e-10)
(0.122298 -5.12858e-05 -2.25431e-10)
(0.104848 -3.81857e-05 -1.86202e-10)
(0.0876882 -2.70936e-05 -1.50479e-10)
(0.0708624 -1.79964e-05 -1.17672e-10)
(0.0544072 -1.08322e-05 -8.76437e-11)
(0.0383524 -4.99427e-06 -6.00724e-11)
(0.0227221 4.60199e-07 -3.46463e-11)
(0.00753462 -1.13125e-05 -1.11003e-11)
(0.432106 3.91052e-05 -6.63077e-10)
(0.42737 6.13349e-05 -1.15887e-09)
(0.42053 8.56251e-05 -8.3006e-10)
(0.411776 0.000109067 -6.95433e-10)
(0.401264 0.000130136 -6.13005e-10)
(0.389144 0.000147403 -5.58796e-10)
(0.375562 0.000159805 -5.19884e-10)
(0.360674 0.000166795 -4.89355e-10)
(0.344637 0.000168344 -4.62921e-10)
(0.32761 0.000164854 -4.37732e-10)
(0.309751 0.000157035 -4.11777e-10)
(0.291214 0.000145781 -3.85659e-10)
(0.272146 0.000132056 -3.60625e-10)
(0.252688 0.000116804 -3.37221e-10)
(0.232967 0.000100887 -3.1567e-10)
(0.213102 8.50461e-05 -2.96079e-10)
(0.193202 6.98816e-05 -2.79199e-10)
(0.17336 5.58484e-05 -2.63814e-10)
(0.153663 4.32637e-05 -2.39411e-10)
(0.134184 3.23198e-05 -1.98003e-10)
(0.114988 2.31043e-05 -1.63588e-10)
(0.0961298 1.56128e-05 -1.32255e-10)
(0.0776546 9.73685e-06 -1.0374e-10)
(0.0596009 5.3631e-06 -7.74879e-11)
(0.0419995 2.86705e-06 -5.32173e-11)
(0.0248748 2.98525e-06 -3.07284e-11)
(0.00824545 -1.08237e-05 -9.85103e-12)
(0.477647 0.000272694 -6.98478e-10)
(0.472218 0.000409874 -1.08534e-09)
(0.464392 0.000532699 -8.65148e-10)
(0.454404 0.000628106 -7.24507e-10)
(0.442449 0.000695872 -6.3294e-10)
(0.428708 0.000736894 -5.64988e-10)
(0.413364 0.000753229 -5.11556e-10)
(0.3966 0.000747801 -4.67691e-10)
(0.378603 0.00072405 -4.30377e-10)
(0.359556 0.00068563 -3.97805e-10)
(0.33964 0.000636164 -3.68873e-10)
(0.319027 0.000579068 -3.4291e-10)
(0.29788 0.000517429 -3.19465e-10)
(0.276353 0.000453932 -2.98212e-10)
(0.254586 0.000390831 -2.78942e-10)
(0.232706 0.00032995 -2.61629e-10)
(0.210828 0.000272699 -2.45732e-10)
(0.189054 0.000220116 -2.3422e-10)
(0.167472 0.000172906 -2.09e-10)
(0.14616 0.000131492 -1.7569e-10)
(0.125186 9.60589e-05 -1.45328e-10)
(0.104604 6.65995e-05 -1.1794e-10)
(0.0844621 4.29213e-05 -9.27472e-11)
(0.0647988 2.47585e-05 -6.94103e-11)
(0.0456447 1.22563e-05 -4.7739e-11)
(0.0270238 5.88846e-06 -2.75937e-11)
(0.00895406 -9.74944e-06 -8.85372e-12)
(0.524291 0.000513111 4.82775e-10)
(0.518025 0.000768055 9.12467e-11)
(0.509026 0.000992306 -1.14222e-10)
(0.497593 0.00116266 -2.49204e-10)
(0.483976 0.00127993 -1.15118e-10)
(0.468405 0.00134728 -1.78697e-10)
(0.451104 0.0013698 -1.94281e-10)
(0.432295 0.00135377 -1.92684e-10)
(0.412193 0.00130602 -1.81119e-10)
(0.391008 0.0012334 -1.64417e-10)
(0.368942 0.00114242 -1.44681e-10)
(0.346185 0.00103904 -1.23088e-10)
(0.322916 0.0009285 -9.97328e-11)
(0.299297 0.000815299 -7.87434e-11)
(0.275479 0.00070316 -8.54851e-11)
(0.251596 0.000595078 -9.49801e-11)
(0.227766 0.000493372 -1.23287e-10)
(0.204096 0.000399755 -1.26676e-10)
(0.180677 0.000315412 -1.18582e-10)
(0.157589 0.000241079 -9.92361e-11)
(0.134898 0.000177116 -8.76405e-11)
(0.11266 0.000123577 -8.03638e-11)
(0.0909233 8.02438e-05 -6.15573e-11)
(0.0697247 4.67406e-05 -4.58095e-11)
(0.0490943 2.29795e-05 -3.13664e-11)
(0.0290548 9.18394e-06 -1.809e-11)
(0.00962275 -8.11769e-06 -5.7969e-12)
(0.569442 0.000738169 -3.0113e-10)
(0.562263 0.00110483 -5.70659e-10)
(0.551998 0.0014257 -3.67095e-10)
(0.539023 0.00166841 -2.75816e-10)
(0.523652 0.00183449 -2.18953e-10)
(0.506175 0.00192906 -1.85522e-10)
(0.486862 0.00195984 -1.64361e-10)
(0.465974 0.00193608 -1.50544e-10)
(0.443759 0.00186764 -1.4173e-10)
(0.420451 0.00176429 -1.35955e-10)
(0.396273 0.00163519 -1.31936e-10)
(0.37143 0.00148867 -1.29078e-10)
(0.346113 0.00133203 -1.27147e-10)
(0.320494 0.00117151 -1.26066e-10)
(0.294728 0.00101229 -1.25813e-10)
(0.268955 0.000858531 -1.25746e-10)