/*--------------------------------*- C++ -*----------------------------------*\
| =========                 |                                                 |
| \\      /  F ield         | OpenFOAM: The Open Source CFD Toolbox           |
|  \\    /   O peration     | Version:  2106                                  |
|   \\  /    A nd           | Website:  www.openfoam.com                      |
|    \\/     M anipulation  |                                                 |
\*---------------------------------------------------------------------------*/
FoamFile
{
    version     2.0;
    format      ascii;
    arch        "LSB;label=32;scalar=64";
    class       volScalarField;
    location    "49.99987";
    object      C2H4_0;
}
// * * * * * * * * * * * * * * * * * * * * * * * * * * * * * * * * * * * * * //

dimensions      [0 0 0 0 0 0 0];

internalField   nonuniform List<scalar> 
3360
(
1.69604e-18
1.75062e-18
1.82659e-18
1.9195e-18
2.0255e-18
2.1411e-18
2.26317e-18
2.38887e-18
2.51567e-18
2.64135e-18
2.76397e-18
2.8819e-18
2.99378e-18
3.09853e-18
3.19533e-18
3.28361e-18
3.36302e-18
3.4334e-18
3.49478e-18
3.54734e-18
3.59141e-18
3.6274e-18
3.65583e-18
3.67728e-18
3.69236e-18
3.70175e-18
3.70611e-18
7.44047e-18
7.71399e-18
8.09996e-18
8.58063e-18
9.14126e-18
9.76901e-18
1.04524e-17
1.1181e-17
1.19449e-17
1.2735e-17
1.35424e-17
1.43585e-17
1.51747e-17
1.59827e-17
1.67743e-17
1.75412e-17
1.82756e-17
1.89697e-17
1.96162e-17
2.02081e-17
2.07391e-17
2.12035e-17
2.15966e-17
2.19145e-17
2.21545e-17
2.23147e-17
2.23946e-17
2.33464e-17
2.43712e-17
2.58275e-17
2.76573e-17
2.98129e-17
3.22511e-17
3.49309e-17
3.7812e-17
4.08536e-17
4.40139e-17
4.72502e-17
5.05204e-17
5.37823e-17
5.69947e-17
6.01175e-17
6.31127e-17
6.59451e-17
6.85831e-17
7.09994e-17
7.31713e-17
7.50812e-17
7.67167e-17
7.80706e-17
7.91407e-17
7.99297e-17
8.04442e-17
8.06946e-17
6.79953e-17
7.13732e-17
7.62054e-17
8.23192e-17
8.95698e-17
9.78222e-17
1.06941e-16
1.16786e-16
1.2721e-16
1.38058e-16
1.4917e-16
1.60385e-16
1.7154e-16
1.82479e-16
1.93051e-16
2.0312e-16
2.12565e-16
2.21283e-16
2.29189e-16
2.36224e-16
2.42344e-16
2.47528e-16
2.51775e-16
2.55096e-16
2.5752e-16
2.59085e-16
2.5984e-16
1.98668e-16
2.09324e-16
2.24598e-16
2.43967e-16
2.66989e-16
2.93239e-16
3.22278e-16
3.53644e-16
3.86842e-16
4.21352e-16
4.56634e-16
4.92146e-16
5.27354e-16
5.6175e-16
5.94862e-16
6.26269e-16
6.55605e-16
6.82571e-16
7.06934e-16
7.28526e-16
7.47246e-16
7.63052e-16
7.75959e-16
7.86025e-16
7.93352e-16
7.98072e-16
8.00344e-16
5.85823e-16
6.18554e-16
6.65523e-16
7.25137e-16
7.96033e-16
8.7689e-16
9.66341e-16
1.06293e-15
1.1651e-15
1.27122e-15
1.3796e-15
1.48855e-15
1.59641e-15
1.7016e-15
1.80269e-15
1.89841e-15
1.98765e-15
2.06953e-15
2.14337e-15
2.2087e-15
2.26524e-15
2.31291e-15
2.35178e-15
2.38205e-15
2.40405e-15
2.41821e-15
2.42502e-15
1.74031e-15
1.83977e-15
1.9825e-15
2.16366e-15
2.37909e-15
2.62473e-15
2.89637e-15
3.18951e-15
3.49939e-15
3.82097e-15
4.14909e-15
4.47861e-15
4.80452e-15
5.12208e-15
5.42697e-15
5.71539e-15
5.98408e-15
6.23042e-15
6.45244e-15
6.64876e-15
6.81859e-15
6.96171e-15
7.07835e-15
7.16917e-15
7.23518e-15
7.27764e-15
7.29806e-15
5.18725e-15
5.48656e-15
5.91627e-15
6.4619e-15
7.11091e-15
7.85106e-15
8.66958e-15
9.55286e-15
1.04864e-14
1.1455e-14
1.2443e-14
1.34348e-14
1.44154e-14
1.53705e-14
1.62871e-14
1.71538e-14
1.79609e-14
1.87005e-14
1.93667e-14
1.99556e-14
2.04648e-14
2.08938e-14
2.12432e-14
2.15152e-14
2.17128e-14
2.18399e-14
2.19009e-14
1.55023e-14
1.64019e-14
1.76932e-14
1.93327e-14
2.12825e-14
2.35058e-14
2.59639e-14
2.86157e-14
3.14175e-14
3.43235e-14
3.72867e-14
4.02605e-14
4.31995e-14
4.60612e-14
4.88068e-14
5.14021e-14
5.38184e-14
5.60323e-14
5.80263e-14
5.97885e-14
6.13123e-14
6.25957e-14
6.36412e-14
6.44549e-14
6.50461e-14
6.54264e-14
6.56091e-14
4.63325e-14
4.90273e-14
5.28961e-14
5.78082e-14
6.36504e-14
7.03118e-14
7.76765e-14
8.5621e-14
9.4014e-14
1.02718e-13
1.11592e-13
1.20496e-13
1.29294e-13
1.37859e-13
1.46075e-13
1.5384e-13
1.61067e-13
1.67687e-13
1.73649e-13
1.78916e-13
1.83469e-13
1.87303e-13
1.90426e-13
1.92856e-13
1.94621e-13
1.95756e-13
1.96301e-13
1.38546e-13
1.46614e-13
1.58195e-13
1.72897e-13
1.90378e-13
2.10306e-13
2.32331e-13
2.56085e-13
2.81171e-13
3.07178e-13
3.33685e-13
3.60273e-13
3.86537e-13
4.12098e-13
4.3661e-13
4.59769e-13
4.8132e-13
5.01057e-13
5.18827e-13
5.34524e-13
5.48092e-13
5.59516e-13
5.6882e-13
5.76059e-13
5.81317e-13
5.84697e-13
5.86322e-13
4.139e-13
4.37994e-13
4.72576e-13
5.16469e-13
5.68653e-13
6.28124e-13
6.93838e-13
7.64685e-13
8.39483e-13
9.17001e-13
9.95981e-13
1.07517e-12
1.15337e-12
1.22945e-12
1.30237e-12
1.37125e-12
1.43532e-12
1.49398e-12
1.54677e-12
1.59339e-12
1.63368e-12
1.66758e-12
1.69519e-12
1.71666e-12
1.73225e-12
1.74228e-12
1.74709e-12
1.2352e-12
1.30703e-12
1.41008e-12
1.54083e-12
1.6962e-12
1.87316e-12
2.0686e-12
2.27916e-12
2.50133e-12
2.73143e-12
2.96571e-12
3.20046e-12
3.43213e-12
3.65737e-12
3.87315e-12
4.07684e-12
4.26622e-12
4.43951e-12
4.5954e-12
4.73301e-12
4.85187e-12
4.95188e-12
5.03328e-12
5.09658e-12
5.14254e-12
5.17207e-12
5.18626e-12
3.67569e-12
3.88884e-12
4.19456e-12
4.58225e-12
5.04266e-12
5.56672e-12
6.14502e-12
6.76759e-12
7.4239e-12
8.10302e-12
8.79387e-12
9.48549e-12
1.01674e-11
1.08297e-11
1.14637e-11
1.20616e-11
1.26171e-11
1.3125e-11
1.35815e-11
1.39842e-11
1.43318e-11
1.46242e-11
1.48619e-11
1.50467e-11
1.51808e-11
1.5267e-11
1.53084e-11
1.08991e-11
1.15282e-11
1.24298e-11
1.35723e-11
1.49277e-11
1.64687e-11
1.81672e-11
1.99932e-11
2.19156e-11
2.39019e-11
2.59197e-11
2.79369e-11
2.99229e-11
3.18494e-11
3.36909e-11
3.54256e-11
3.70351e-11
3.85051e-11
3.98251e-11
4.09883e-11
4.19915e-11
4.28345e-11
4.35196e-11
4.40519e-11
4.44378e-11
4.46856e-11
4.48046e-11
3.21288e-11
3.39677e-11
3.66011e-11
3.99338e-11
4.38823e-11
4.83647e-11
5.32966e-11
5.85895e-11
6.41513e-11
6.98874e-11
7.57029e-11
8.15056e-11
8.72077e-11
9.27288e-11
9.7997e-11
1.02951e-10
1.07539e-10
1.11724e-10
1.15476e-10
1.18777e-10
1.21621e-10
1.24008e-10
1.25946e-10
1.27449e-10
1.28539e-10
1.29238e-10
1.29573e-10
9.39803e-11
9.92856e-11
1.06873e-10
1.1646e-10
1.27796e-10
1.40636e-10
1.5473e-10
1.69818e-10
1.85631e-10
2.01895e-10
2.18342e-10
2.34709e-10
2.5075e-10
2.66244e-10
2.80991e-10
2.94827e-10
3.07614e-10
3.19251e-10
3.29665e-10
3.38814e-10
3.4668e-10
3.53271e-10
3.58616e-10
3.62758e-10
3.65756e-10
3.67677e-10
3.68598e-10
2.72e-10
2.87024e-10
3.08475e-10
3.35516e-10
3.67405e-10
4.03419e-10
4.42825e-10
4.84867e-10
5.28777e-10
5.73785e-10
6.19137e-10
6.64116e-10
7.08053e-10
7.50352e-10
7.90492e-10
8.28038e-10
8.62646e-10
8.94058e-10
9.22102e-10
9.46682e-10
9.67774e-10
9.85416e-10
9.99696e-10
1.01075e-09
1.01873e-09
1.02385e-09
1.02629e-09
7.76286e-10
8.17785e-10
8.76898e-10
9.51198e-10
1.03852e-09
1.13675e-09
1.24379e-09
1.35751e-09
1.47576e-09
1.59644e-09
1.71751e-09
1.83709e-09
1.95342e-09
2.06498e-09
2.17045e-09
2.26877e-09
2.35909e-09
2.44083e-09
2.5136e-09
2.57722e-09
2.63168e-09
2.67714e-09
2.71386e-09
2.74223e-09
2.7627e-09
2.77579e-09
2.78204e-09
2.17506e-09
2.28601e-09
2.4436e-09
2.64097e-09
2.87193e-09
3.13056e-09
3.41097e-09
3.70735e-09
4.01396e-09
4.32526e-09
4.63602e-09
4.94144e-09
5.23719e-09
5.51956e-09
5.78541e-09
6.03226e-09
6.25823e-09
6.46203e-09
6.64291e-09
6.80059e-09
6.93525e-09
7.04737e-09
7.13777e-09
7.20747e-09
7.25769e-09
7.28974e-09
7.30505e-09
5.95209e-09
6.23696e-09
6.64027e-09
7.14323e-09
7.72894e-09
8.38129e-09
9.08465e-09
9.82379e-09
1.05841e-08
1.13516e-08
1.21137e-08
1.28587e-08
1.35766e-08
1.42587e-08
1.48982e-08
1.54896e-08
1.60289e-08
1.65136e-08
1.69424e-08
1.73152e-08
1.76328e-08
1.78965e-08
1.81088e-08
1.82721e-08
1.83896e-08
1.84645e-08
1.85002e-08
1.58126e-08
1.65098e-08
1.74934e-08
1.87146e-08
2.01293e-08
2.16961e-08
2.33755e-08
2.51299e-08
2.69238e-08
2.87246e-08
3.05026e-08
3.22317e-08
3.38896e-08
3.54577e-08
3.69214e-08
3.82696e-08
3.94947e-08
4.05921e-08
4.15601e-08
4.23993e-08
4.31122e-08
4.37032e-08
4.41778e-08
4.45424e-08
4.48042e-08
4.49709e-08
4.50502e-08
4.05353e-08
4.21534e-08
4.44282e-08
4.72397e-08
5.04804e-08
5.40498e-08
5.78541e-08
6.18056e-08
6.58235e-08
6.9835e-08
7.37752e-08
7.75884e-08
8.12278e-08
8.46556e-08
8.78424e-08
9.07672e-08
9.34161e-08
9.57818e-08
9.78629e-08
9.96625e-08
1.01188e-07
1.0245e-07
1.03462e-07
1.04238e-07
1.04794e-07
1.05148e-07
1.05317e-07
9.97326e-08
1.03284e-07
1.08262e-07
1.1439e-07
1.21421e-07
1.29127e-07
1.37298e-07
1.45744e-07
1.54289e-07
1.62779e-07
1.71081e-07
1.79082e-07
1.86688e-07
1.93825e-07
2.00438e-07
2.06489e-07
2.11953e-07
2.16821e-07
2.21093e-07
2.24779e-07
2.27898e-07
2.30474e-07
2.32536e-07
2.34116e-07
2.35247e-07
2.35965e-07
2.36307e-07
2.3466e-07
2.4204e-07
2.52356e-07
2.65012e-07
2.79477e-07
2.95267e-07
3.1194e-07
3.29098e-07
3.46388e-07
3.635e-07
3.8017e-07
3.96177e-07
4.11345e-07
4.25535e-07
4.38646e-07
4.50611e-07
4.61391e-07
4.70974e-07
4.79368e-07
4.86598e-07
4.92706e-07
4.97744e-07
5.0177e-07
5.04851e-07
5.07056e-07
5.08455e-07
5.09119e-07
5.27229e-07
5.41788e-07
5.62094e-07
5.86935e-07
6.15235e-07
6.46018e-07
6.78407e-07
7.11617e-07
7.4496e-07
7.77844e-07
8.0977e-07
8.40328e-07
8.69196e-07
8.96126e-07
9.20945e-07
9.4354e-07
9.63853e-07
9.81875e-07
9.97633e-07
1.01119e-06
1.02262e-06
1.03204e-06
1.03956e-06
1.04531e-06
1.04942e-06
1.05203e-06
1.05326e-06
1.13135e-06
1.15874e-06
1.19687e-06
1.24341e-06
1.2963e-06
1.35368e-06
1.41389e-06
1.47548e-06
1.53716e-06
1.59786e-06
1.65667e-06
1.71286e-06
1.76586e-06
1.81523e-06
1.86068e-06
1.902e-06
1.93912e-06
1.97202e-06
2.00076e-06
2.02546e-06
2.04629e-06
2.06344e-06
2.07712e-06
2.08758e-06
2.09505e-06
2.09979e-06
2.10204e-06
2.32012e-06
2.36994e-06
2.43924e-06
2.52377e-06
2.61974e-06
2.72377e-06
2.83284e-06
2.9443e-06
3.05584e-06
3.16553e-06
3.27174e-06
3.37315e-06
3.46874e-06
3.55773e-06
3.63961e-06
3.71402e-06
3.78083e-06
3.84002e-06
3.89171e-06
3.93613e-06
3.97356e-06
4.00437e-06
4.02894e-06
4.04772e-06
4.06113e-06
4.06963e-06
4.07366e-06
4.56867e-06
4.6577e-06
4.78155e-06
4.93261e-06
5.1041e-06
5.28999e-06
5.48488e-06
5.68404e-06
5.88337e-06
6.07939e-06
6.26918e-06
6.45042e-06
6.62125e-06
6.7803e-06
6.92662e-06
7.05961e-06
7.179e-06
7.28477e-06
7.37713e-06
7.45648e-06
7.52334e-06
7.57836e-06
7.62225e-06
7.65577e-06
7.67972e-06
7.69489e-06
7.70208e-06
8.66732e-06
8.82415e-06
9.04241e-06
9.30875e-06
9.61134e-06
9.93959e-06
1.0284e-05
1.06363e-05
1.09893e-05
1.13367e-05
1.16735e-05
1.19953e-05
1.2299e-05
1.2582e-05
1.28426e-05
1.30796e-05
1.32925e-05
1.34812e-05
1.36462e-05
1.37879e-05
1.39074e-05
1.40057e-05
1.40842e-05
1.41441e-05
1.4187e-05
1.42141e-05
1.42269e-05
1.582e-05
1.60902e-05
1.64664e-05
1.6926e-05
1.74489e-05
1.80169e-05
1.8614e-05
1.92258e-05
1.984e-05
2.04456e-05
2.10338e-05
2.15972e-05
2.21298e-05
2.26271e-05
2.30858e-05
2.35039e-05
2.38801e-05
2.42141e-05
2.45064e-05
2.47579e-05
2.49702e-05
2.51452e-05
2.52849e-05
2.53917e-05
2.5468e-05
2.55164e-05
2.55394e-05
2.76246e-05
2.807e-05
2.86907e-05
2.94497e-05
3.03139e-05
3.1254e-05
3.22434e-05
3.32588e-05
3.42796e-05
3.5288e-05
3.6269e-05
3.72102e-05
3.81015e-05
3.89352e-05
3.97056e-05
4.04088e-05
4.10427e-05
4.16063e-05
4.21002e-05
4.25259e-05
4.28856e-05
4.31823e-05
4.34195e-05
4.3601e-05
4.37308e-05
4.38131e-05
4.38522e-05
4.57873e-05
4.64692e-05
4.74193e-05
4.85803e-05
4.99017e-05
5.13381e-05
5.2849e-05
5.43983e-05
5.59547e-05
5.74911e-05
5.89846e-05
6.04164e-05
6.17712e-05
6.30374e-05
6.42064e-05
6.52726e-05
6.62328e-05
6.70859e-05
6.78328e-05
6.8476e-05
6.90191e-05
6.94667e-05
6.98244e-05
7.0098e-05
7.02936e-05
7.04177e-05
7.04765e-05
7.15452e-05
7.2491e-05
7.38066e-05
7.54109e-05
7.72321e-05
7.92061e-05
8.12758e-05
8.33911e-05
8.55085e-05
8.75911e-05
8.96083e-05
9.15349e-05
9.33513e-05
9.50431e-05
9.66e-05
9.80157e-05
9.92871e-05
0.000100414
0.000101398
0.000102244
0.000102957
0.000103544
0.000104012
0.00010437
0.000104626
0.000104788
0.000104864
0.000105034
0.000106213
0.000107848
0.000109836
0.000112085
0.000114512
0.000117045
0.000119622
0.00012219
0.000124705
0.00012713
0.000129437
0.000131604
0.000133614
0.000135458
0.000137129
0.000138625
0.000139948
0.000141101
0.000142089
0.000142921
0.000143604
0.000144148
0.000144563
0.00014486
0.000145047
0.000145136
0.000145036
0.000146369
0.000148216
0.000150454
0.000152978
0.000155693
0.000158517
0.000161378
0.000164219
0.000166991
0.000169654
0.000172179
0.000174542
0.000176728
0.000178727
0.000180535
0.000182149
0.000183574
0.000184813
0.000185873
0.000186765
0.000187496
0.000188079
0.000188523
0.00018884
0.00018904
0.000189135
0.000189513
0.000190915
0.000192855
0.000195201
0.00019784
0.000200671
0.000203608
0.000206576
0.000209515
0.000212375
0.000215116
0.000217709
0.00022013
0.000222366
0.000224408
0.00022625
0.000227894
0.000229343
0.000230602
0.000231679
0.000232584
0.000233326
0.000233917
0.000234367
0.000234688
0.000234892
0.000234988
0.000236298
0.000237699
0.000239634
0.000241972
0.000244597
0.00024741
0.000250324
0.000253264
0.00025617
0.000258995
0.000261698
0.000264252
0.000266636
0.000268835
0.00027084
0.00027265
0.000274264
0.000275685
0.000276921
0.000277977
0.000278865
0.000279593
0.000280173
0.000280615
0.00028093
0.00028113
0.000281225
0.000283534
0.000284886
0.000286754
0.000289009
0.00029154
0.000294249
0.000297053
0.000299881
0.000302676
0.00030539
0.000307986
0.000310439
0.000312727
0.000314837
0.000316762
0.000318499
0.000320047
0.000321412
0.000322598
0.000323613
0.000324465
0.000325165
0.000325722
0.000326147
0.000326451
0.000326643
0.000326734
0.000329858
0.000331138
0.000332904
0.000335036
0.000337429
0.000339991
0.000342642
0.000345315
0.000347957
0.000350522
0.000352976
0.000355295
0.000357458
0.000359453
0.000361274
0.000362917
0.000364383
0.000365675
0.000366798
0.00036776
0.000368568
0.000369231
0.00036976
0.000370163
0.000370451
0.000370634
0.00037072
0.000374383
0.000375579
0.000377231
0.000379225
0.000381464
0.00038386
0.00038634
0.000388841
0.000391313
0.000393714
0.000396013
0.000398184
0.000400211
0.000402081
0.000403788
0.000405329
0.000406704
0.000407916
0.000408971
0.000409874
0.000410633
0.000411256
0.000411753
0.000412132
0.000412403
0.000412575
0.000412657
0.000416595
0.000417707
0.000419242
0.000421095
0.000423176
0.000425404
0.00042771
0.000430037
0.000432338
0.000434573
0.000436713
0.000438735
0.000440623
0.000442366
0.000443958
0.000445394
0.000446677
0.000447808
0.000448792
0.000449635
0.000450344
0.000450927
0.000451391
0.000451746
0.000451999
0.00045216
0.000452236
0.000456242
0.000457272
0.000458693
0.000460411
0.000462339
0.000464403
0.000466541
0.000468699
0.000470833
0.000472906
0.000474892
0.000476769
0.000478522
0.00048014
0.000481619
0.000482954
0.000484146
0.000485197
0.000486112
0.000486896
0.000487555
0.000488097
0.000488529
0.000488859
0.000489095
0.000489245
0.000489316
0.000493247
0.000494199
0.000495513
0.000497101
0.000498885
0.000500795
0.000502773
0.00050477
0.000506745
0.000508665
0.000510504
0.000512242
0.000513866
0.000515366
0.000516736
0.000517973
0.000519078
0.000520053
0.000520902
0.000521629
0.00052224
0.000522743
0.000523144
0.00052345
0.000523669
0.000523808
0.000523874
0.000527641
0.00052852
0.000529735
0.000531202
0.00053285
0.000534615
0.000536444
0.00053829
0.000540116
0.000541891
0.000543592
0.0005452
0.000546702
0.00054809
0.000549358
0.000550503
0.000551526
0.000552428
0.000553214
0.000553887
0.000554453
0.000554919
0.00055529
0.000555574
0.000555777
0.000555905
0.000555966
0.00055952
0.000560333
0.000561454
0.000562809
0.000564332
0.000565963
0.000567652
0.000569358
0.000571045
0.000572686
0.000574258
0.000575744
0.000577133
0.000578416
0.000579588
0.000580647
0.000581593
0.000582428
0.000583154
0.000583777
0.000584301
0.000584732
0.000585075
0.000585337
0.000585525
0.000585644
0.0005857
0.000589021
0.000589771
0.000590807
0.000592058
0.000593464
0.000594971
0.000596531
0.000598107
0.000599666
0.000601182
0.000602635
0.000604009
0.000605292
0.000606478
0.000607561
0.00060854
0.000609414
0.000610186
0.000610857
0.000611433
0.000611917
0.000612315
0.000612633
0.000612875
0.000613049
0.000613159
0.000613211
0.000616294
0.000616987
0.000617944
0.0006191
0.000620399
0.00062179
0.000623232
0.000624689
0.000626129
0.00062753
0.000628872
0.000630142
0.000631328
0.000632424
0.000633425
0.00063433
0.000635138
0.000635851
0.000636472
0.000637004
0.000637451
0.000637819
0.000638113
0.000638337
0.000638497
0.000638599
0.000638647
0.000641499
0.000642139
0.000643024
0.000644092
0.000645293
0.000646579
0.000647912
0.000649257
0.000650589
0.000651884
0.000653125
0.000654298
0.000655395
0.000656408
0.000657333
0.000658169
0.000658917
0.000659576
0.00066015
0.000660642
0.000661055
0.000661396
0.000661667
0.000661874
0.000662022
0.000662117
0.000662161
0.000664795
0.000665387
0.000666204
0.000667192
0.000668302
0.000669492
0.000670724
0.000671969
0.0006732
0.000674397
0.000675545
0.00067663
0.000677644
0.000678581
0.000679437
0.000680211
0.000680902
0.000681512
0.000682042
0.000682497
0.00068288
0.000683195
0.000683446
0.000683637
0.000683775
0.000683862
0.000683903
0.000686333
0.000686881
0.000687637
0.000688552
0.000689579
0.000690679
0.00069182
0.000692971
0.000694111
0.000695219
0.000696281
0.000697285
0.000698224
0.000699091
0.000699883
0.000700599
0.000701239
0.000701803
0.000702294
0.000702715
0.000703069
0.000703361
0.000703593
0.00070377
0.000703897
0.000703978
0.000704016
0.000706259
0.000706766
0.000707467
0.000708313
0.000709264
0.000710284
0.00071134
0.000712406
0.000713462
0.000714488
0.000715471
0.000716402
0.000717271
0.000718074
0.000718808
0.000719471
0.000720063
0.000720586
0.000721041
0.000721431
0.000721759
0.000722029
0.000722244
0.000722408
0.000722526
0.0007226
0.000722636
0.000724707
0.000725177
0.000725826
0.000726611
0.000727493
0.000728437
0.000729416
0.000730405
0.000731383
0.000732334
0.000733246
0.000734108
0.000734914
0.000735659
0.000736339
0.000736954
0.000737503
0.000737987
0.000738409
0.000738771
0.000739075
0.000739325
0.000739524
0.000739677
0.000739786
0.000739855
0.000739888
0.000741802
0.000742238
0.000742841
0.000743569
0.000744387
0.000745263
0.000746171
0.000747089
0.000747996
0.000748879
0.000749725
0.000750525
0.000751273
0.000751963
0.000752595
0.000753165
0.000753675
0.000754124
0.000754516
0.000754851
0.000755133
0.000755365
0.00075555
0.000755692
0.000755793
0.000755857
0.000755888
0.000757659
0.000758064
0.000758624
0.0007593
0.00076006
0.000760874
0.000761717
0.000762569
0.000763412
0.000764232
0.000765018
0.000765761
0.000766455
0.000767097
0.000767683
0.000768213
0.000768686
0.000769104
0.000769468
0.000769779
0.000770041
0.000770257
0.000770429
0.00077056
0.000770654
0.000770714
0.000770742
0.000772384
0.00077276
0.00077328
0.000773909
0.000774615
0.000775372
0.000776156
0.000776948
0.000777732
0.000778494
0.000779225
0.000779916
0.000780562
0.000781158
0.000781703
0.000782196
0.000782636
0.000783025
0.000783363
0.000783652
0.000783896
0.000784097
0.000784257
0.000784379
0.000784466
0.000784521
0.000784548
0.000786071
0.000786421
0.000786905
0.00078749
0.000788148
0.000788852
0.000789582
0.000790319
0.000791049
0.000791758
0.000792438
0.000793081
0.000793682
0.000794238
0.000794745
0.000795204
0.000795614
0.000795975
0.00079629
0.00079656
0.000796787
0.000796973
0.000797122
0.000797236
0.000797317
0.000797369
0.000797393
0.000798808
0.000799135
0.000799586
0.000800131
0.000800743
0.000801399
0.000802079
0.000802766
0.000803446
0.000804107
0.000804741
0.00080534
0.0008059
0.000806418
0.000806891
0.000807318
0.0008077
0.000808037
0.00080833
0.000808581
0.000808793
0.000808967
0.000809105
0.000809211
0.000809287
0.000809335
0.000809358
0.000810675
0.000810979
0.0008114
0.000811908
0.000812479
0.000813091
0.000813725
0.000814366
0.000815
0.000815617
0.000816208
0.000816767
0.00081729
0.000817772
0.000818213
0.000818612
0.000818968
0.000819283
0.000819556
0.000819791
0.000819988
0.00082015
0.00082028
0.000820379
0.000820449
0.000820494
0.000820515
0.000821742
0.000822026
0.000822419
0.000822893
0.000823426
0.000823998
0.00082459
0.000825188
0.00082578
0.000826356
0.000826908
0.00082743
0.000827918
0.000828369
0.000828781
0.000829153
0.000829486
0.00082978
0.000830035
0.000830254
0.000830438
0.00083059
0.000830711
0.000830803
0.000830869
0.000830911
0.000830931
0.000832074
0.00083234
0.000832707
0.000833151
0.000833649
0.000834183
0.000834737
0.000835296
0.000835849
0.000836387
0.000836903
0.000837391
0.000837847
0.000838269
0.000838654
0.000839002
0.000839313
0.000839588
0.000839826
0.000840031
0.000840203
0.000840345
0.000840458
0.000840544
0.000840606
0.000840645
0.000840664
0.000841731
0.00084198
0.000842323
0.000842738
0.000843204
0.000843704
0.000844222
0.000844745
0.000845263
0.000845766
0.000846249
0.000846706
0.000847132
0.000847527
0.000847887
0.000848213
0.000848504
0.000848761
0.000848984
0.000849176
0.000849337
0.00084947
0.000849575
0.000849656
0.000849714
0.00084975
0.000849768
0.000850765
0.000850998
0.000851319
0.000851708
0.000852144
0.000852612
0.000853097
0.000853587
0.000854072
0.000854544
0.000854996
0.000855423
0.000855823
0.000856192
0.00085653
0.000856835
0.000857107
0.000857348
0.000857557
0.000857737
0.000857888
0.000858012
0.000858111
0.000858187
0.000858241
0.000858275
0.000858291
0.000859224
0.000859442
0.000859743
0.000860107
0.000860516
0.000860955
0.000861409
0.000861868
0.000862323
0.000862765
0.000863189
0.000863589
0.000863964
0.00086431
0.000864627
0.000864913
0.000865168
0.000865393
0.00086559
0.000865758
0.000865899
0.000866016
0.000866109
0.00086618
0.00086623
0.000866262
0.000866278
0.00086715
0.000867355
0.000867637
0.000867978
0.000868362
0.000868773
0.0008692
0.00086963
0.000870057
0.000870471
0.000870869
0.000871244
0.000871596
0.000871921
0.000872217
0.000872486
0.000872725
0.000872937
0.000873121
0.000873278
0.000873411
0.00087352
0.000873607
0.000873674
0.000873722
0.000873752
0.000873766
0.000874582
0.000874774
0.000875039
0.00087536
0.00087572
0.000876106
0.000876506
0.00087691
0.00087731
0.000877699
0.000878072
0.000878425
0.000878754
0.000879059
0.000879338
0.000879589
0.000879814
0.000880013
0.000880185
0.000880334
0.000880458
0.000880561
0.000880642
0.000880705
0.000880749
0.000880778
0.000880791
0.000881555
0.000881735
0.000881984
0.000882285
0.000882623
0.000882985
0.000883361
0.00088374
0.000884116
0.000884481
0.000884831
0.000885162
0.000885472
0.000885758
0.00088602
0.000886256
0.000886467
0.000886653
0.000886815
0.000886955
0.000887071
0.000887168
0.000887244
0.000887303
0.000887345
0.000887371
0.000887384
0.000888099
0.000888268
0.000888502
0.000888784
0.000889102
0.000889442
0.000889794
0.000890151
0.000890503
0.000890846
0.000891175
0.000891486
0.000891777
0.000892046
0.000892291
0.000892513
0.000892711
0.000892886
0.000893039
0.000893169
0.000893279
0.000893369
0.000893441
0.000893496
0.000893536
0.000893561
0.000893572
0.000894241
0.000894399
0.000894619
0.000894884
0.000895182
0.000895502
0.000895833
0.000896167
0.000896498
0.000896821
0.000897129
0.000897421
0.000897694
0.000897947
0.000898177
0.000898386
0.000898572
0.000898736
0.000898879
0.000899002
0.000899105
0.000899189
0.000899257
0.000899309
0.000899346
0.000899369
0.00089938
0.000900004
0.000900153
0.000900359
0.000900608
0.000900888
0.000901188
0.000901499
0.000901813
0.000902124
0.000902426
0.000902716
0.00090299
0.000903246
0.000903483
0.0009037
0.000903895
0.00090407
0.000904224
0.000904358
0.000904473
0.00090457
0.00090465
0.000904713
0.000904762
0.000904796
0.000904818
0.000904829
0.00090541
0.00090555
0.000905743
0.000905977
0.00090624
0.000906521
0.000906813
0.000907107
0.000907399
0.000907682
0.000907954
0.000908211
0.000908452
0.000908674
0.000908877
0.00090906
0.000909224
0.000909369
0.000909495
0.000909602
0.000909693
0.000909768
0.000909827
0.000909873
0.000909905
0.000909926
0.000909936
0.000910476
0.000910607
0.000910789
0.000911007
0.000911254
0.000911517
0.000911791
0.000912067
0.00091234
0.000912606
0.00091286
0.000913101
0.000913326
0.000913535
0.000913725
0.000913896
0.00091405
0.000914185
0.000914303
0.000914404
0.000914489
0.000914559
0.000914615
0.000914658
0.000914688
0.000914707
0.000914717
0.000915217
0.00091534
0.00091551
0.000915714
0.000915945
0.000916191
0.000916447
0.000916705
0.000916961
0.00091721
0.000917448
0.000917673
0.000917884
0.000918078
0.000918256
0.000918417
0.00091856
0.000918687
0.000918797
0.000918892
0.000918971
0.000919037
0.000919089
0.000919129
0.000919157
0.000919175
0.000919184
0.000919645
0.00091976
0.000919918
0.00092011
0.000920325
0.000920555
0.000920794
0.000921035
0.000921274
0.000921506
0.000921728
0.000921938
0.000922135
0.000922316
0.000922482
0.000922632
0.000922766
0.000922884
0.000922987
0.000923075
0.000923149
0.00092321
0.000923259
0.000923296
0.000923322
0.000923339
0.000923347
0.000923771
0.000923877
0.000924025
0.000924203
0.000924403
0.000924618
0.00092484
0.000925064
0.000925286
0.000925502
0.000925709
0.000925905
0.000926087
0.000926256
0.000926411
0.00092655
0.000926674
0.000926784
0.00092688
0.000926962
0.000927031
0.000927087
0.000927132
0.000927167
0.000927192
0.000927207
0.000927215
0.0009276
0.000927699
0.000927836
0.000928001
0.000928187
0.000928386
0.000928592
0.0009288
0.000929005
0.000929206
0.000929397
0.000929579
0.000929748
0.000929904
0.000930047
0.000930176
0.000930292
0.000930393
0.000930482
0.000930558
0.000930621
0.000930674
0.000930716
0.000930748
0.00093077
0.000930785
0.000930792
0.000931139
0.00093123
0.000931357
0.000931509
0.000931681
0.000931864
0.000932054
0.000932246
0.000932436
0.000932621
0.000932797
0.000932964
0.000933121
0.000933265
0.000933396
0.000933515
0.000933621
0.000933715
0.000933797
0.000933866
0.000933925
0.000933973
0.000934012
0.000934041
0.000934062
0.000934076
0.000934082
0.000934391
0.000934475
0.000934591
0.000934731
0.000934888
0.000935057
0.000935231
0.000935407
0.000935581
0.00093575
0.000935912
0.000936065
0.000936208
0.00093634
0.00093646
0.000936569
0.000936666
0.000936752
0.000936827
0.000936891
0.000936944
0.000936988
0.000937024
0.00093705
0.00093707
0.000937082
0.000937088
0.000937359
0.000937436
0.000937541
0.000937669
0.000937812
0.000937965
0.000938124
0.000938284
0.000938442
0.000938596
0.000938743
0.000938882
0.000939012
0.000939132
0.000939241
0.00093934
0.000939428
0.000939506
0.000939573
0.000939631
0.00093968
0.00093972
0.000939752
0.000939776
0.000939794
0.000939805
0.00093981
0.000940044
0.000940113
0.000940208
0.000940323
0.000940453
0.000940591
0.000940734
0.000940878
0.00094102
0.000941159
0.000941291
0.000941416
0.000941533
0.000941641
0.000941739
0.000941828
0.000941907
0.000941977
0.000942038
0.00094209
0.000942134
0.00094217
0.000942198
0.00094222
0.000942236
0.000942246
0.00094225
0.000942448
0.000942509
0.000942594
0.000942697
0.000942812
0.000942935
0.000943062
0.000943191
0.000943318
0.000943441
0.000943559
0.00094367
0.000943774
0.00094387
0.000943957
0.000944036
0.000944106
0.000944168
0.000944222
0.000944268
0.000944307
0.000944339
0.000944364
0.000944384
0.000944398
0.000944406
0.00094441
0.000944572
0.000944626
0.000944701
0.000944791
0.000944892
0.000945001
0.000945113
0.000945225
0.000945337
0.000945445
0.000945548
0.000945646
0.000945737
0.000945821
0.000945897
0.000945966
0.000946028
0.000946082
0.000946129
0.000946169
0.000946203
0.000946231
0.000946253
0.00094627
0.000946282
0.00094629
0.000946293
0.00094642
0.000946467
0.000946532
0.00094661
0.000946698
0.000946792
0.000946888
0.000946986
0.000947082
0.000947175
0.000947264
0.000947348
0.000947427
0.000947499
0.000947565
0.000947624
0.000947677
0.000947723
0.000947764
0.000947798
0.000947827
0.000947851
0.00094787
0.000947885
0.000947895
0.000947902
0.000947905
0.000948
0.00094804
0.000948095
0.000948161
0.000948236
0.000948315
0.000948397
0.000948479
0.000948561
0.000948639
0.000948714
0.000948785
0.000948851
0.000948912
0.000948967
0.000949017
0.000949061
0.000949101
0.000949134
0.000949163
0.000949188
0.000949208
0.000949224
0.000949236
0.000949245
0.00094925
0.000949253
0.00094932
0.000949353
0.000949399
0.000949454
0.000949515
0.000949581
0.000949648
0.000949717
0.000949784
0.000949848
0.00094991
0.000949969
0.000950023
0.000950073
0.000950118
0.000950159
0.000950196
0.000950228
0.000950255
0.000950279
0.000950299
0.000950316
0.000950329
0.000950339
0.000950346
0.00095035
0.000950352
0.000950397
0.000950423
0.00095046
0.000950505
0.000950554
0.000950607
0.000950662
0.000950717
0.000950771
0.000950823
0.000950873
0.00095092
0.000950963
0.000951003
0.00095104
0.000951073
0.000951102
0.000951127
0.00095115
0.000951169
0.000951185
0.000951198
0.000951208
0.000951216
0.000951222
0.000951225
0.000951227
0.000951254
0.000951275
0.000951304
0.000951339
0.000951378
0.00095142
0.000951463
0.000951506
0.000951549
0.00095159
0.000951629
0.000951666
0.0009517
0.000951731
0.00095176
0.000951785
0.000951808
0.000951828
0.000951846
0.000951861
0.000951873
0.000951883
0.000951892
0.000951898
0.000951902
0.000951905
0.000951906
0.000951919
0.000951936
0.000951958
0.000951985
0.000952015
0.000952048
0.000952081
0.000952114
0.000952147
0.000952178
0.000952208
0.000952237
0.000952263
0.000952287
0.000952309
0.000952329
0.000952346
0.000952362
0.000952375
0.000952386
0.000952396
0.000952404
0.00095241
0.000952415
0.000952418
0.00095242
0.000952422
0.000952425
0.000952438
0.000952455
0.000952475
0.000952498
0.000952523
0.000952548
0.000952573
0.000952598
0.000952622
0.000952644
0.000952666
0.000952686
0.000952704
0.00095272
0.000952735
0.000952749
0.00095276
0.00095277
0.000952779
0.000952786
0.000952792
0.000952797
0.000952801
0.000952803
0.000952805
0.000952806
0.000952803
0.000952813
0.000952825
0.000952841
0.000952858
0.000952876
0.000952895
0.000952914
0.000952933
0.000952951
0.000952968
0.000952984
0.000952999
0.000953013
0.000953025
0.000953037
0.000953047
0.000953055
0.000953063
0.00095307
0.000953075
0.00095308
0.000953083
0.000953086
0.000953088
0.000953089
0.00095309
0.000953083
0.00095309
0.0009531
0.000953112
0.000953125
0.000953138
0.000953153
0.000953167
0.000953181
0.000953195
0.000953208
0.00095322
0.000953231
0.000953242
0.000953251
0.00095326
0.000953268
0.000953274