/*--------------------------------*- C++ -*----------------------------------*\
| =========                 |                                                 |
| \\      /  F ield         | OpenFOAM: The Open Source CFD Toolbox           |
|  \\    /   O peration     | Version:  2106                                  |
|   \\  /    A nd           | Website:  www.openfoam.com                      |
|    \\/     M anipulation  |                                                 |
\*---------------------------------------------------------------------------*/
FoamFile
{
    version     2.0;
    format      ascii;
    arch        "LSB;label=32;scalar=64";
    class       volScalarField;
    location    "49.99987";
    object      C3H6;
}
// * * * * * * * * * * * * * * * * * * * * * * * * * * * * * * * * * * * * * //

dimensions      [0 0 0 0 0 0 0];

internalField   nonuniform List<scalar> 
3360
(
1.70671e-18
1.76163e-18
1.83807e-18
1.93156e-18
2.03822e-18
2.15455e-18
2.27738e-18
2.40386e-18
2.53145e-18
2.65791e-18
2.7813e-18
2.89996e-18
3.01254e-18
3.11794e-18
3.21535e-18
3.30418e-18
3.38408e-18
3.4549e-18
3.51666e-18
3.56956e-18
3.6139e-18
3.65011e-18
3.67872e-18
3.7003e-18
3.71548e-18
3.72492e-18
3.72931e-18
7.48704e-18
7.76226e-18
8.15063e-18
8.63428e-18
9.19839e-18
9.83005e-18
1.05177e-17
1.12508e-17
1.20195e-17
1.28145e-17
1.36269e-17
1.4448e-17
1.52693e-17
1.60824e-17
1.68788e-17
1.76505e-17
1.83895e-17
1.90879e-17
1.97384e-17
2.0334e-17
2.08682e-17
2.13356e-17
2.17311e-17
2.2051e-17
2.22924e-17
2.24536e-17
2.2534e-17
2.34914e-17
2.45225e-17
2.59877e-17
2.78288e-17
2.99977e-17
3.24509e-17
3.51472e-17
3.8046e-17
4.11063e-17
4.4286e-17
4.75423e-17
5.08325e-17
5.41146e-17
5.73467e-17
6.04887e-17
6.35023e-17
6.63521e-17
6.90064e-17
7.14375e-17
7.36228e-17
7.55444e-17
7.71899e-17
7.85521e-17
7.96288e-17
8.04226e-17
8.09403e-17
8.11923e-17
6.8413e-17
7.18115e-17
7.66731e-17
8.28241e-17
9.01189e-17
9.84215e-17
1.07596e-16
1.175e-16
1.27988e-16
1.38902e-16
1.50082e-16
1.61365e-16
1.72588e-16
1.83592e-16
1.94229e-16
2.0436e-16
2.13862e-16
2.22632e-16
2.30587e-16
2.37664e-16
2.43821e-16
2.49037e-16
2.53309e-16
2.56651e-16
2.59089e-16
2.60664e-16
2.61423e-16
1.99873e-16
2.10593e-16
2.25959e-16
2.45445e-16
2.68605e-16
2.95012e-16
3.24226e-16
3.5578e-16
3.89178e-16
4.23894e-16
4.59388e-16
4.95113e-16
5.30532e-16
5.65134e-16
5.98444e-16
6.30039e-16
6.59551e-16
6.86679e-16
7.11187e-16
7.32908e-16
7.5174e-16
7.67641e-16
7.80625e-16
7.90751e-16
7.98122e-16
8.02871e-16
8.05156e-16
5.89328e-16
6.22252e-16
6.69499e-16
7.29467e-16
8.00784e-16
8.82119e-16
9.721e-16
1.06926e-15
1.17204e-15
1.27879e-15
1.38781e-15
1.4974e-15
1.60589e-15
1.71171e-15
1.8134e-15
1.90967e-15
1.99944e-15
2.0818e-15
2.15608e-15
2.22179e-15
2.27867e-15
2.32662e-15
2.36572e-15
2.39617e-15
2.4183e-15
2.43254e-15
2.43939e-15
1.75057e-15
1.85061e-15
1.99417e-15
2.17639e-15
2.39308e-15
2.64015e-15
2.91338e-15
3.20823e-15
3.51991e-15
3.84336e-15
4.1734e-15
4.50484e-15
4.83264e-15
5.15205e-15
5.45872e-15
5.74881e-15
6.01906e-15
6.26684e-15
6.49015e-15
6.6876e-15
6.85842e-15
7.00237e-15
7.11969e-15
7.21104e-15
7.27743e-15
7.32014e-15
7.34067e-15
5.21737e-15
5.5184e-15
5.95059e-15
6.49936e-15
7.1521e-15
7.89651e-15
8.71973e-15
9.60809e-15
1.0547e-14
1.15211e-14
1.25148e-14
1.35123e-14
1.44985e-14
1.54591e-14
1.63809e-14
1.72526e-14
1.80643e-14
1.88081e-14
1.94782e-14
2.00704e-14
2.05826e-14
2.1014e-14
2.13654e-14
2.16389e-14
2.18377e-14
2.19655e-14
2.20269e-14
1.55909e-14
1.64956e-14
1.77943e-14
1.9443e-14
2.14039e-14
2.36397e-14
2.61117e-14
2.87786e-14
3.15962e-14
3.45186e-14
3.74986e-14
4.04891e-14
4.34447e-14
4.63226e-14
4.90836e-14
5.16936e-14
5.41234e-14
5.63498e-14
5.83551e-14
6.01272e-14
6.16595e-14
6.29502e-14
6.40016e-14
6.48199e-14
6.54144e-14
6.57968e-14
6.59806e-14
4.65933e-14
4.9303e-14
5.31934e-14
5.81329e-14
6.40077e-14
7.07062e-14
7.81119e-14
8.61006e-14
9.45403e-14
1.03293e-13
1.12216e-13
1.21169e-13
1.30017e-13
1.38629e-13
1.46891e-13
1.54698e-13
1.61965e-13
1.68622e-13
1.74617e-13
1.79913e-13
1.84492e-13
1.88347e-13
1.91487e-13
1.93931e-13
1.95705e-13
1.96846e-13
1.97395e-13
1.39313e-13
1.47425e-13
1.5907e-13
1.73852e-13
1.91429e-13
2.11466e-13
2.33612e-13
2.57496e-13
2.82719e-13
3.08868e-13
3.3552e-13
3.62254e-13
3.88662e-13
4.14362e-13
4.39007e-13
4.62293e-13
4.83961e-13
5.03806e-13
5.21673e-13
5.37456e-13
5.51098e-13
5.62584e-13
5.71939e-13
5.79217e-13
5.84503e-13
5.87903e-13
5.89536e-13
4.16152e-13
4.40376e-13
4.75144e-13
5.19274e-13
5.71739e-13
6.3153e-13
6.97599e-13
7.68827e-13
8.44027e-13
9.21962e-13
1.00137e-12
1.08098e-12
1.1596e-12
1.23609e-12
1.30941e-12
1.37865e-12
1.44307e-12
1.50204e-12
1.55511e-12
1.60199e-12
1.64248e-12
1.67657e-12
1.70433e-12
1.72592e-12
1.74159e-12
1.75167e-12
1.75651e-12
1.2418e-12
1.314e-12
1.41761e-12
1.54905e-12
1.70524e-12
1.88314e-12
2.07961e-12
2.29129e-12
2.51463e-12
2.74594e-12
2.98146e-12
3.21746e-12
3.45035e-12
3.67677e-12
3.89369e-12
4.09845e-12
4.28883e-12
4.46303e-12
4.61975e-12
4.75808e-12
4.87757e-12
4.9781e-12
5.05993e-12
5.12357e-12
5.16977e-12
5.19946e-12
5.21372e-12
3.69493e-12
3.90919e-12
4.2165e-12
4.6062e-12
5.069e-12
5.59579e-12
6.17709e-12
6.80289e-12
7.46261e-12
8.14525e-12
8.83968e-12
9.53488e-12
1.02203e-11
1.08861e-11
1.15233e-11
1.21244e-11
1.26827e-11
1.31932e-11
1.36521e-11
1.40569e-11
1.44063e-11
1.47001e-11
1.49391e-11
1.51249e-11
1.52597e-11
1.53463e-11
1.53879e-11
1.09548e-11
1.15871e-11
1.24934e-11
1.36417e-11
1.5004e-11
1.65528e-11
1.82599e-11
2.00952e-11
2.20274e-11
2.40238e-11
2.60519e-11
2.80793e-11
3.00754e-11
3.20116e-11
3.38625e-11
3.5606e-11
3.72236e-11
3.87011e-11
4.00278e-11
4.11969e-11
4.22052e-11
4.30524e-11
4.3741e-11
4.4276e-11
4.46639e-11
4.49129e-11
4.50325e-11
3.22889e-11
3.41369e-11
3.67834e-11
4.01327e-11
4.41008e-11
4.86054e-11
5.35618e-11
5.88811e-11
6.44705e-11
7.0235e-11
7.60794e-11
8.19109e-11
8.76413e-11
9.31897e-11
9.84841e-11
1.03462e-10
1.08074e-10
1.12279e-10
1.16049e-10
1.19368e-10
1.22225e-10
1.24624e-10
1.26571e-10
1.28082e-10
1.29177e-10
1.2988e-10
1.30217e-10
9.44332e-11
9.97641e-11
1.07389e-10
1.17022e-10
1.28412e-10
1.41314e-10
1.55476e-10
1.70637e-10
1.86526e-10
2.0287e-10
2.19396e-10
2.35842e-10
2.51961e-10
2.67529e-10
2.82348e-10
2.96251e-10
3.091e-10
3.20793e-10
3.31258e-10
3.4045e-10
3.48354e-10
3.54978e-10
3.60348e-10
3.64511e-10
3.67523e-10
3.69454e-10
3.70379e-10
2.73256e-10
2.8835e-10
3.099e-10
3.37067e-10
3.69106e-10
4.05289e-10
4.44878e-10
4.87117e-10
5.31233e-10
5.76452e-10
6.22017e-10
6.67207e-10
7.11351e-10
7.53848e-10
7.94176e-10
8.319e-10
8.6667e-10
8.9823e-10
9.26406e-10
9.51102e-10
9.72293e-10
9.90018e-10
1.00437e-09
1.01547e-09
1.02349e-09
1.02863e-09
1.03109e-09
7.79665e-10
8.21349e-10
8.80727e-10
9.55359e-10
1.04307e-09
1.14174e-09
1.24927e-09
1.36349e-09
1.48228e-09
1.6035e-09
1.72513e-09
1.84525e-09
1.96211e-09
2.07418e-09
2.18013e-09
2.2789e-09
2.36964e-09
2.45175e-09
2.52485e-09
2.58876e-09
2.64347e-09
2.68914e-09
2.72603e-09
2.75453e-09
2.77509e-09
2.78824e-09
2.79453e-09
2.18379e-09
2.2952e-09
2.45347e-09
2.65167e-09
2.88362e-09
3.14335e-09
3.42497e-09
3.72263e-09
4.03057e-09
4.34323e-09
4.65535e-09
4.96211e-09
5.25917e-09
5.54279e-09
5.80983e-09
6.05778e-09
6.28476e-09
6.48947e-09
6.67117e-09
6.82957e-09
6.96483e-09
7.07746e-09
7.16827e-09
7.23829e-09
7.28873e-09
7.32093e-09
7.33631e-09
5.97345e-09
6.25944e-09
6.66435e-09
7.16932e-09
7.75739e-09
8.4124e-09
9.11865e-09
9.86084e-09
1.06243e-08
1.13951e-08
1.21604e-08
1.29086e-08
1.36296e-08
1.43148e-08
1.49571e-08
1.55511e-08
1.60928e-08
1.65797e-08
1.70105e-08
1.7385e-08
1.77039e-08
1.79689e-08
1.81821e-08
1.83462e-08
1.84643e-08
1.85395e-08
1.85754e-08
1.58617e-08
1.65615e-08
1.75488e-08
1.87745e-08
2.01947e-08
2.17676e-08
2.34536e-08
2.52151e-08
2.70164e-08
2.88246e-08
3.06102e-08
3.23468e-08
3.4012e-08
3.55871e-08
3.70574e-08
3.84118e-08
3.96426e-08
4.07451e-08
4.17177e-08
4.25609e-08
4.32774e-08
4.38712e-08
4.43481e-08
4.47145e-08
4.49776e-08
4.51451e-08
4.52249e-08
4.06445e-08
4.22683e-08
4.45513e-08
4.73731e-08
5.06259e-08
5.42091e-08
5.80284e-08
6.19959e-08
6.60305e-08
7.00591e-08
7.40166e-08
7.7847e-08
8.15032e-08
8.49471e-08
8.81494e-08
9.10885e-08
9.37507e-08
9.61284e-08
9.82202e-08
1.00029e-07
1.01563e-07
1.02832e-07
1.03849e-07
1.04629e-07
1.05189e-07
1.05545e-07
1.05714e-07
9.99985e-08
1.03564e-07
1.08562e-07
1.14714e-07
1.21774e-07
1.29513e-07
1.3772e-07
1.46203e-07
1.54787e-07
1.63317e-07
1.71659e-07
1.79699e-07
1.87342e-07
1.94516e-07
2.01163e-07
2.07245e-07
2.12739e-07
2.17633e-07
2.21928e-07
2.25635e-07
2.28772e-07
2.31363e-07
2.33436e-07
2.35025e-07
2.36163e-07
2.36886e-07
2.37229e-07
2.35503e-07
2.42927e-07
2.53305e-07
2.66039e-07
2.80594e-07
2.96483e-07
3.13264e-07
3.30534e-07
3.47939e-07
3.65166e-07
3.81949e-07
3.98066e-07
4.13339e-07
4.27627e-07
4.4083e-07
4.52879e-07
4.63735e-07
4.73385e-07
4.81838e-07
4.8912e-07
4.95272e-07
5.00346e-07
5.04401e-07
5.07505e-07
5.09725e-07
5.11135e-07
5.11804e-07
5.3048e-07
5.45217e-07
5.65772e-07
5.90926e-07
6.19592e-07
6.50786e-07
6.83618e-07
7.17299e-07
7.5113e-07
7.84512e-07
8.16939e-07
8.47993e-07
8.77344e-07
9.0474e-07
9.30001e-07
9.53008e-07
9.73703e-07
9.92069e-07
1.00813e-06
1.02196e-06
1.03362e-06
1.04323e-06
1.05091e-06
1.05677e-06
1.06097e-06
1.06363e-06
1.0649e-06
1.14399e-06
1.1721e-06
1.21125e-06
1.25908e-06
1.31348e-06
1.37255e-06
1.43459e-06
1.4981e-06
1.56178e-06
1.62449e-06
1.6853e-06
1.74346e-06
1.79834e-06
1.84949e-06
1.89661e-06
1.93947e-06
1.97798e-06
2.01213e-06
2.04198e-06
2.06764e-06
2.08927e-06
2.10709e-06
2.12131e-06
2.13218e-06
2.13994e-06
2.14487e-06
2.1472e-06
2.36639e-06
2.4186e-06
2.49128e-06
2.57999e-06
2.6808e-06
2.79017e-06
2.90495e-06
3.02234e-06
3.13993e-06
3.25566e-06
3.36779e-06
3.47494e-06
3.57599e-06
3.67012e-06
3.75675e-06
3.83552e-06
3.90626e-06
3.96895e-06
4.0237e-06
4.07076e-06
4.11042e-06
4.14306e-06
4.1691e-06
4.18899e-06
4.2032e-06
4.21221e-06
4.21648e-06
4.70707e-06
4.80257e-06
4.93551e-06
5.0978e-06
5.28226e-06
5.48243e-06
5.69255e-06
5.90754e-06
6.12296e-06
6.33503e-06
6.54058e-06
6.73704e-06
6.92238e-06
7.09507e-06
7.25403e-06
7.39858e-06
7.5284e-06
7.64345e-06
7.74393e-06
7.83027e-06
7.90303e-06
7.96289e-06
8.01064e-06
8.0471e-06
8.07314e-06
8.08963e-06
8.09745e-06
8.99713e-06
9.16959e-06
9.40993e-06
9.7037e-06
1.00381e-05
1.04017e-05
1.0784e-05
1.11761e-05
1.15698e-05
1.19582e-05
1.23355e-05
1.2697e-05
1.30387e-05
1.33577e-05
1.36519e-05
1.392e-05
1.41611e-05
1.4375e-05
1.45621e-05
1.47231e-05
1.48588e-05
1.49706e-05
1.50597e-05
1.51278e-05
1.51765e-05
1.52073e-05
1.52219e-05
1.6423e-05
1.67261e-05
1.71493e-05
1.76676e-05
1.82593e-05
1.89045e-05
1.95854e-05
2.02861e-05
2.09925e-05
2.16922e-05
2.23748e-05
2.30313e-05
2.36546e-05
2.42388e-05
2.47797e-05
2.52743e-05
2.57208e-05
2.61183e-05
2.6467e-05
2.67677e-05
2.70219e-05
2.72316e-05
2.73993e-05
2.75275e-05
2.76192e-05
2.76773e-05
2.77048e-05
2.83097e-05
2.88086e-05
2.95058e-05
3.03611e-05
3.13389e-05
3.24072e-05
3.3537e-05
3.47022e-05
3.58797e-05
3.70488e-05
3.81921e-05
3.92943e-05
4.03432e-05
4.13286e-05
4.22429e-05
4.30807e-05
4.38383e-05
4.45141e-05
4.51077e-05
4.56203e-05
4.60542e-05
4.64124e-05
4.66989e-05
4.69182e-05
4.70751e-05
4.71745e-05
4.72217e-05
4.55355e-05
4.62686e-05
4.72919e-05
4.85452e-05
4.99756e-05
5.1535e-05
5.31802e-05
5.48726e-05
5.65779e-05
5.82662e-05
5.9912e-05
6.14936e-05
6.29936e-05
6.43981e-05
6.56969e-05
6.68828e-05
6.79516e-05
6.89016e-05
6.97333e-05
7.04491e-05
7.10531e-05
7.15504e-05
7.19472e-05
7.22502e-05
7.24666e-05
7.26035e-05
7.26684e-05
6.78319e-05
6.87648e-05
7.00626e-05
7.16451e-05
7.34417e-05
7.53887e-05
7.74295e-05
7.95141e-05
8.15994e-05
8.36484e-05
8.56305e-05
8.75208e-05
8.93e-05
9.09537e-05
9.24724e-05
9.385e-05
9.5084e-05
9.61749e-05
9.71252e-05
9.79394e-05
9.86236e-05
9.91849e-05
9.96313e-05
9.99713e-05
0.000100213
0.000100366
0.000100439
9.34894e-05
9.45129e-05
9.59307e-05
9.76498e-05
9.95883e-05
0.000101673
0.000103841
0.000106038
0.000108216
0.00011034
0.000112378
0.000114306
0.000116108
0.000117772
0.00011929
0.000120658
0.000121877
0.000122949
0.000123879
0.000124672
0.000125336
0.000125879
0.000126309
0.000126636
0.000126868
0.000127015
0.000127084
0.000119842
0.000120827
0.000122188
0.000123829
0.00012567
0.000127638
0.000129671
0.000131717
0.000133734
0.000135686
0.000137547
0.000139297
0.000140923
0.000142416
0.000143771
0.000144986
0.000146065
0.000147009
0.000147825
0.00014852
0.0001491
0.000149573
0.000149947
0.000150232
0.000150433
0.00015056
0.00015062
0.000144423
0.000145282
0.000146464
0.000147886
0.000149474
0.000151163
0.0001529
0.000154639
0.000156345
0.000157988
0.000159547
0.000161008
0.000162358
0.000163593
0.000164711
0.00016571
0.000166594
0.000167366
0.000168032
0.000168598
0.00016907
0.000169454
0.000169758
0.000169988
0.000170152
0.000170255
0.000170304
0.000165659
0.000166354
0.000167308
0.000168452
0.000169725
0.000171077
0.000172461
0.000173843
0.000175194
0.000176491
0.000177718
0.000178864
0.000179921
0.000180885
0.000181756
0.000182534
0.00018322
0.000183819
0.000184336
0.000184774
0.000185139
0.000185436
0.000185671
0.00018585
0.000185976
0.000186056
0.000186093
0.000182906
0.000183435
0.000184162
0.000185032
0.000185998
0.000187022
0.000188068
0.00018911
0.000190127
0.000191101
0.000192021
0.000192879
0.000193669
0.000194389
0.000195038
0.000195617
0.000196128
0.000196574
0.000196958
0.000197283
0.000197555
0.000197776
0.000197951
0.000198083
0.000198177
0.000198237
0.000198265
0.000196184
0.000196569
0.000197096
0.000197727
0.000198427
0.000199167
0.000199922
0.000200673
0.000201405
0.000202105
0.000202765
0.00020338
0.000203946
0.000204461
0.000204925
0.000205339
0.000205704
0.000206023
0.000206297
0.000206529
0.000206723
0.000206881
0.000207006
0.000207101
0.000207168
0.00020721
0.00020723
0.000205886
0.000206152
0.000206517
0.000206952
0.000207435
0.000207944
0.000208464
0.000208979
0.000209481
0.00020996
0.000210411
0.000210831
0.000211217
0.000211568
0.000211884
0.000212165
0.000212413
0.000212629
0.000212815
0.000212973
0.000213104
0.000213211
0.000213296
0.00021336
0.000213406
0.000213435
0.000213449
0.000212544
0.000212717
0.000212954
0.000213236
0.000213548
0.000213877
0.000214211
0.000214542
0.000214863
0.000215169
0.000215457
0.000215724
0.000215968
0.00021619
0.00021639
0.000216567
0.000216723
0.000216859
0.000216976
0.000217075
0.000217157
0.000217224
0.000217277
0.000217317
0.000217346
0.000217364
0.000217372
0.000216704
0.000216805
0.000216943
0.000217108
0.000217288
0.000217478
0.00021767
0.000217859
0.000218041
0.000218213
0.000218375
0.000218523
0.000218659
0.000218781
0.00021889
0.000218987
0.000219072
0.000219145
0.000219208
0.000219261
0.000219305
0.000219341
0.000219369
0.00021939
0.000219405
0.000219415
0.000219419
0.000218862
0.000218908
0.000218972
0.000219046
0.000219127
0.00021921
0.000219293
0.000219373
0.000219449
0.00021952
0.000219584
0.000219642
0.000219694
0.00021974
0.00021978
0.000219815
0.000219844
0.000219869
0.000219891
0.000219908
0.000219923
0.000219934
0.000219943
0.00021995
0.000219954
0.000219957
0.000219959
0.00021944
0.000219445
0.000219452
0.000219458
0.000219463
0.000219466
0.000219467
0.000219465
0.00021946
0.000219453
0.000219444
0.000219433
0.000219421
0.000219408
0.000219395
0.000219382
0.00021937
0.000219358
0.000219347
0.000219338
0.000219329
0.000219322
0.000219316
0.000219312
0.000219308
0.000219306
0.000219305
0.000218789
0.000218763
0.000218727
0.000218682
0.00021863
0.000218573
0.000218511
0.000218446
0.000218381
0.000218315
0.00021825
0.000218187
0.000218126
0.000218069
0.000218016
0.000217967
0.000217922
0.000217882
0.000217847
0.000217817
0.000217791
0.00021777
0.000217752
0.000217739
0.00021773
0.000217724
0.000217721
0.000217192
0.000217143
0.000217075
0.000216992
0.000216897
0.000216794
0.000216685
0.000216574
0.000216462
0.000216352
0.000216245
0.000216142
0.000216045
0.000215955
0.000215871
0.000215795
0.000215726
0.000215665
0.000215612
0.000215566
0.000215527
0.000215494
0.000215469
0.000215449
0.000215435
0.000215426
0.000215422
0.000214876
0.00021481
0.000214718
0.000214606
0.000214479
0.000214342
0.000214199
0.000214053
0.000213907
0.000213764
0.000213625
0.000213493
0.000213369
0.000213254
0.000213147
0.000213051
0.000212964
0.000212887
0.00021282
0.000212762
0.000212713
0.000212673
0.000212641
0.000212616
0.000212599
0.000212587
0.000212582
0.000212021
0.000211942
0.000211833
0.0002117
0.00021155
0.000211388
0.000211219
0.000211047
0.000210876
0.000210709
0.000210547
0.000210394
0.00021025
0.000210116
0.000209993
0.000209881
0.000209781
0.000209693
0.000209615
0.000209549
0.000209493
0.000209447
0.00020941
0.000209381
0.000209361
0.000209348
0.000209342
0.000208771
0.000208683
0.000208561
0.000208412
0.000208245
0.000208065
0.000207878
0.000207688
0.000207499
0.000207314
0.000207136
0.000206967
0.000206808
0.000206661
0.000206526
0.000206404
0.000206294
0.000206198
0.000206113
0.00020604
0.000205979
0.000205929
0.000205888
0.000205858
0.000205836
0.000205822
0.000205815
0.000205238
0.000205143
0.000205012
0.000204853
0.000204674
0.000204482
0.000204282
0.000204079
0.000203877
0.00020368
0.000203491
0.000203311
0.000203142
0.000202986
0.000202843
0.000202713
0.000202597
0.000202494
0.000202404
0.000202327
0.000202262
0.000202209
0.000202166
0.000202134
0.000202111
0.000202096
0.000202089
0.000201511
0.000201412
0.000201275
0.000201109
0.000200922
0.000200721
0.000200513
0.000200301
0.000200091
0.000199886
0.000199689
0.000199502
0.000199327
0.000199164
0.000199016
0.000198881
0.000198761
0.000198654
0.000198561
0.000198481
0.000198414
0.000198359
0.000198315
0.000198281
0.000198257
0.000198242
0.000198234
0.00019766
0.000197558
0.000197418
0.000197248
0.000197056
0.00019685
0.000196636
0.000196419
0.000196204
0.000195994
0.000195793
0.000195602
0.000195423
0.000195257
0.000195105
0.000194967
0.000194844
0.000194736
0.000194641
0.00019456
0.000194491
0.000194435
0.00019439
0.000194355
0.000194331
0.000194315
0.000194308
0.00019374
0.000193637
0.000193495
0.000193322
0.000193128
0.00019292
0.000192703
0.000192484
0.000192267
0.000192054
0.000191851
0.000191658
0.000191477
0.000191309
0.000191156
0.000191017
0.000190893
0.000190783
0.000190688
0.000190606
0.000190537
0.00019048
0.000190435
0.0001904
0.000190375
0.000190359
0.000190352
0.000189794
0.000189691
0.000189548
0.000189375
0.00018918
0.000188971
0.000188754
0.000188535
0.000188317
0.000188104
0.0001879
0.000187707
0.000187526
0.000187359
0.000187205
0.000187066
0.000186942
0.000186833
0.000186737
0.000186655
0.000186586
0.000186529
0.000186484
0.000186449
0.000186424
0.000186409
0.000186401
0.000185855
0.000185752
0.00018561
0.000185438
0.000185244
0.000185036
0.00018482
0.000184602
0.000184385
0.000184174
0.000183971
0.000183779
0.000183599
0.000183433
0.00018328
0.000183143
0.000183019
0.00018291
0.000182815
0.000182734
0.000182665
0.000182609
0.000182564
0.00018253
0.000182505
0.000182489
0.000182482
0.000181949
0.000181848
0.000181707
0.000181537
0.000181345
0.000181139
0.000180926
0.00018071
0.000180495
0.000180287
0.000180086
0.000179896
0.000179718
0.000179554
0.000179403
0.000179267
0.000179145
0.000179038
0.000178944
0.000178864
0.000178796
0.00017874
0.000178696
0.000178662
0.000178638
0.000178622
0.000178615
0.000178097
0.000177997
0.000177858
0.00017769
0.000177501
0.000177299
0.000177089
0.000176876
0.000176665
0.000176459
0.000176262
0.000176075
0.0001759
0.000175739
0.00017559
0.000175456
0.000175337
0.000175231
0.000175139
0.00017506
0.000174993
0.000174938
0.000174895
0.000174861
0.000174837
0.000174822
0.000174815
0.000174312
0.000174214
0.000174078
0.000173913
0.000173728
0.000173529
0.000173323
0.000173114
0.000172908
0.000172706
0.000172513
0.000172329
0.000172158
0.000171999
0.000171854
0.000171723
0.000171605
0.000171502
0.000171411
0.000171334
0.000171269
0.000171215
0.000171172
0.000171139
0.000171116
0.000171101
0.000171094
0.000170608
0.000170511
0.000170378
0.000170217
0.000170036
0.000169842
0.00016964
0.000169436
0.000169234
0.000169037
0.000168848
0.000168669
0.000168501
0.000168346
0.000168204
0.000168076
0.000167961
0.00016786
0.000167771
0.000167696
0.000167632
0.000167579
0.000167538
0.000167506
0.000167483
0.000167468
0.000167461
0.000166991
0.000166897
0.000166767
0.00016661
0.000166434
0.000166244
0.000166047
0.000165848
0.000165651
0.000165459
0.000165274
0.0001651
0.000164936
0.000164785
0.000164647
0.000164522
0.00016441
0.000164311
0.000164225
0.000164151
0.000164089
0.000164038
0.000163997
0.000163966
0.000163944
0.00016393
0.000163923
0.000163469
0.000163378
0.000163251
0.000163098
0.000162926
0.000162742
0.00016255
0.000162356
0.000162164
0.000161977
0.000161798
0.000161628
0.000161469
0.000161322
0.000161187
0.000161066
0.000160957
0.000160861
0.000160777
0.000160705
0.000160645
0.000160595
0.000160555
0.000160525
0.000160503
0.00016049
0.000160483
0.000160046
0.000159957
0.000159834
0.000159686
0.000159519
0.000159339
0.000159153
0.000158965
0.000158778
0.000158597
0.000158422
0.000158257
0.000158103
0.00015796
0.000157829
0.000157711
0.000157606
0.000157512
0.000157431
0.000157361
0.000157303
0.000157254
0.000157216
0.000157186
0.000157165
0.000157152
0.000157146
0.000156725
0.000156639
0.00015652
0.000156376
0.000156214
0.00015604
0.000155859
0.000155677
0.000155496
0.000155319
0.00015515
0.00015499
0.000154841
0.000154702
0.000154575
0.000154461
0.000154358
0.000154268
0.000154189
0.000154122
0.000154065
0.000154018
0.000153981
0.000153952
0.000153932
0.000153919
0.000153913
0.000153509
0.000153425
0.00015331
0.00015317
0.000153013
0.000152845
0.00015267
0.000152493
0.000152318
0.000152147
0.000151984
0.000151829
0.000151684
0.00015155
0.000151427
0.000151316
0.000151217
0.00015113
0.000151053
0.000150988
0.000150933
0.000150888
0.000150851
0.000150824
0.000150804
0.000150792
0.000150786
0.000150398
0.000150317
0.000150206
0.000150071
0.000149919
0.000149756
0.000149587
0.000149416
0.000149247
0.000149082
0.000148924
0.000148774
0.000148634
0.000148504
0.000148386
0.000148278
0.000148183
0.000148098
0.000148024
0.000147961
0.000147908
0.000147864
0.000147829
0.000147803
0.000147784
0.000147771
0.000147766
0.000147395
0.000147317
0.000147209
0.000147079
0.000146932
0.000146775
0.000146612
0.000146447
0.000146283
0.000146124
0.000145971
0.000145827
0.000145691
0.000145566
0.000145452
0.000145349
0.000145256
0.000145174
0.000145103
0.000145042
0.000144991
0.000144949
0.000144915
0.000144889
0.000144871
0.000144859
0.000144854
0.000144499
0.000144424
0.00014432
0.000144195
0.000144053
0.000143902
0.000143744
0.000143585
0.000143428
0.000143275
0.000143127
0.000142988
0.000142858
0.000142737
0.000142627
0.000142527
0.000142438
0.00014236
0.000142291
0.000142233
0.000142183
0.000142142
0.00014211
0.000142085
0.000142067
0.000142056
0.000142051
0.000141713
0.000141641
0.000141541
0.00014142
0.000141284
0.000141138
0.000140987
0.000140834
0.000140682
0.000140535
0.000140393
0.000140259
0.000140134
0.000140018
0.000139912
0.000139816
0.000139731
0.000139655
0.000139589
0.000139533
0.000139485
0.000139446
0.000139415
0.000139391
0.000139374
0.000139363
0.000139358
0.000139037
0.000138968
0.000138872
0.000138755
0.000138625
0.000138485
0.000138339
0.000138193
0.000138047
0.000137906
0.00013777
0.000137641
0.000137521
0.00013741
0.000137308
0.000137216
0.000137134
0.000137061
0.000136998
0.000136944
0.000136898
0.000136861
0.000136831
0.000136808
0.000136792
0.000136781
0.000136777
0.000136473
0.000136406
0.000136314
0.000136203
0.000136078
0.000135943
0.000135804
0.000135664
0.000135524
0.000135389
0.000135259
0.000135136
0.00013502
0.000134914
0.000134817
0.000134729
0.00013465
0.000134581
0.00013452
0.000134468
0.000134425
0.000134389
0.00013436
0.000134338
0.000134323
0.000134313
0.000134308
0.000134022
0.000133958
0.00013387
0.000133764
0.000133644
0.000133516
0.000133383
0.000133249
0.000133116
0.000132986
0.000132862
0.000132744
0.000132635
0.000132533
0.00013244
0.000132356
0.000132281
0.000132215
0.000132157
0.000132108
0.000132066
0.000132032
0.000132005
0.000131984
0.000131969
0.000131959
0.000131955
0.000131686
0.000131625
0.000131542
0.000131441
0.000131327
0.000131205
0.000131078
0.00013095
0.000130824
0.0001307
0.000130582
0.00013047
0.000130366
0.000130269
0.000130181
0.000130101
0.00013003
0.000129967
0.000129912
0.000129865
0.000129825
0.000129793
0.000129767
0.000129747
0.000129733
0.000129724
0.00012972
0.000129469
0.000129412
0.000129332
0.000129236
0.000129128
0.000129013
0.000128893
0.000128771
0.000128651
0.000128535
0.000128423
0.000128317
0.000128218
0.000128126
0.000128042
0.000127967
0.000127899
0.00012784
0.000127788
0.000127743
0.000127706
0.000127675
0.00012765
0.000127632
0.000127618
0.00012761
0.000127606
0.000127374
0.00012732
0.000127245
0.000127154
0.000127052
0.000126943
0.00012683
0.000126715
0.000126602
0.000126492
0.000126387
0.000126287
0.000126193
0.000126107
0.000126028
0.000125957
0.000125893
0.000125837
0.000125788
0.000125746
0.000125711
0.000125682
0.000125659
0.000125641
0.000125629
0.000125621
0.000125617
0.000125405
0.000125354
0.000125283
0.000125198
0.000125103
0.000125
0.000124894
0.000124787
0.000124681
0.000124577
0.000124478
0.000124385
0.000124297
0.000124216
0.000124143
0.000124076
0.000124016
0.000123964
0.000123918
0.000123879
0.000123846
0.000123819
0.000123797
0.000123781
0.000123769
0.000123761
0.000123758
0.000123565
0.000123518
0.000123452
0.000123373
0.000123284
0.000123188
0.000123089
0.000122989
0.00012289
0.000122794
0.000122702
0.000122615
0.000122534
0.000122459
0.00012239
0.000122328
0.000122273
0.000122224
0.000122181
0.000122145
0.000122114
0.000122089
0.000122069
0.000122053
0.000122043
0.000122036
0.000122032
0.00012186
0.000121816
0.000121756
0.000121682
0.0001216
0.000121512
0.00012142
0.000121328
0.000121237
0.000121148
0.000121063
0.000120983
0.000120907
0.000120838
0.000120775
0.000120718
0.000120667
0.000120622
0.000120583
0.000120549
0.000120521
0.000120498
0.000120479
0.000120465
0.000120455
0.000120449
0.000120445
0.000120294
0.000120254
0.000120198
0.000120131
0.000120056
0.000119975
0.000119891
0.000119807
0.000119723
0.000119642
0.000119565
0.000119491
0.000119423
0.00011936
0.000119302
0.00011925
0.000119203
0.000119162
0.000119126
0.000119096
0.00011907
0.000119049
0.000119032
0.000119019
0.00011901
0.000119004
0.000119002
0.000118871
0.000118835
0.000118784
0.000118724
0.000118655
0.000118582
0.000118507
0.00011843
0.000118355
0.000118282
0.000118211
0.000118145
0.000118083
0.000118026
0.000117974
0.000117927
0.000117886
0.000117849
0.000117816
0.000117789
0.000117766
0.000117747
0.000117732
0.00011772
0.000117712
0.000117707
0.000117704
0.000117595
0.000117562
0.000117517
0.000117463
0.000117402
0.000117336
0.000117269
0.000117201
0.000117134
0.000117068
0.000117006
0.000116947
0.000116892
0.000116841
0.000116795
0.000116753
0.000116716
0.000116684
0.000116655
0.000116631
0.00011661
0.000116593
0.00011658
0.00011657
0.000116562
0.000116558
0.000116555
0.000116466
0.000116437
0.000116398
0.00011635
0.000116296
0.000116239
0.00011618
0.00011612
0.000116061
0.000116004
0.000115949
0.000115898
0.00011585
0.000115805
0.000115765
0.000115729
0.000115696
0.000115667
0.000115643
0.000115621
0.000115604
0.000115589
0.000115577
0.000115568
0.000115562
0.000115558
0.000115556
0.000115485
0.000115461
0.000115426
0.000115385
0.000115339
0.000115289
0.000115238
0.000115187
0.000115136
0.000115087
0.00011504
0.000114996
0.000114955
0.000114917
0.000114882
0.000114851
0.000114823
0.000114799
0.000114778
0.00011476
0.000114744
0.000114732
0.000114722
0.000114714
0.000114709
0.000114705
0.000114704
0.00011465
0.000114629
0.000114601
0.000114566
0.000114527
0.000114485
0.000114442
0.000114399
0.000114356
0.000114315
0.000114276
0.000114238
0.000114204
0.000114172
0.000114143
0.000114117
0.000114094
0.000114074
0.000114056
0.000114041
0.000114028
0.000114018
0.000114009
0.000114003
0.000113999
0.000113996
0.000113994
0.000113956
0.000113939
0.000113915
0.000113886
0.000113854
0.00011382
0.000113785
0.000113749
0.000113714
0.000113681
0.000113648
0.000113618
0.00011359
0.000113564
0.00011354
0.000113519
0.0001135
0.000113484
0.000113469
0.000113457
0.000113447
0.000113438
0.000113432
0.000113426
0.000113423
0.00011342
0.000113419
0.000113393
0.000113379
0.00011336
0.000113337
0.000113312
0.000113284
0.000113256
0.000113228
0.0001132
0.000113173
0.000113147
0.000113123
0.000113101
0.00011308
0.000113061
0.000113045
0.00011303
0.000113017
0.000113005
0.000112995
0.000112987
0.000112981
0.000112975
0.000112971
0.000112968
0.000112967
0.000112966
0.000112949
0.000112938
0.000112923
0.000112905
0.000112885
0.000112864
0.000112842
0.00011282
0.000112798
0.000112777
0.000112758
0.000112739
0.000112722
0.000112706
0.000112691
0.000112678
0.000112667
0.000112657
0.000112648
0.00011264
0.000112634
0.000112629
0.000112625
0.000112622
0.000112619
0.000112618
0.000112617
0.000112607
0.000112599
0.000112588
0.000112574
0.000112559
0.000112543
0.000112526
0.00011251
0.000112493
0.000112477
0.000112462
0.000112448
0.000112435
0.000112423
0.000112412
0.000112403
0.000112394
0.000112386
0.00011238
0.000112374
0.000112369
0.000112366
0.000112362
0.00011236
0.000112358
0.000112357
0.000112357
0.000112351
0.000112345
0.000112337
0.000112327
0.000112315
0.000112303
0.000112291
0.000112279
0.000112267
0.000112255
0.000112244
0.000112233
0.000112224
0.000112215
0.000112207
0.0001122
0.000112193
0.000112188
0.000112183
0.000112179
0.000112175
0.000112172
0.00011217
0.000112168
0.000112167
0.000112166
0.000112166
0.000112163
0.000112159
0.000112153
0.000112145
0.000112137
0.000112128
0.000112119
0.00011211
0.000112101
0.000112093
0.000112085
0.000112077
0.00011207
0.000112064
0.000112058
0.000112053
0.000112048
0.000112044
0.00011204
0.000112037
0.000112035
0.000112033
0.000112031
0.00011203
0.000112029
0.000112028
0.000112028
0.000112027
0.000112023
0.000112019
0.000112014
0.000112008
0.000112001
0.000111995
0.000111988
0.000111982
0.000111976
0.00011197
0.000111964
0.000111959
0.000111954
0.00011195
0.000111946