/*--------------------------------*- C++ -*----------------------------------*\
| =========                 |                                                 |
| \\      /  F ield         | OpenFOAM: The Open Source CFD Toolbox           |
|  \\    /   O peration     | Version:  2106                                  |
|   \\  /    A nd           | Website:  www.openfoam.com                      |
|    \\/     M anipulation  |                                                 |
\*---------------------------------------------------------------------------*/
FoamFile
{
    version     2.0;
    format      ascii;
    arch        "LSB;label=32;scalar=64";
    class       volScalarField;
    location    "49.99987";
    object      C4H2_0;
}
// * * * * * * * * * * * * * * * * * * * * * * * * * * * * * * * * * * * * * //

dimensions      [0 0 0 0 0 0 0];

internalField   nonuniform List<scalar> 
3360
(
7.4598e-18
7.69988e-18
8.03399e-18
8.44267e-18
8.90889e-18
9.41735e-18
9.95424e-18
1.05071e-17
1.10648e-17
1.16176e-17
1.21569e-17
1.26756e-17
1.31677e-17
1.36285e-17
1.40542e-17
1.44425e-17
1.47918e-17
1.51013e-17
1.53713e-17
1.56025e-17
1.57963e-17
1.59546e-17
1.60797e-17
1.6174e-17
1.62404e-17
1.62816e-17
1.63008e-17
3.27259e-17
3.3929e-17
3.56266e-17
3.77407e-17
4.02066e-17
4.29677e-17
4.59736e-17
4.91781e-17
5.25382e-17
5.60134e-17
5.95646e-17
6.3154e-17
6.67441e-17
7.0298e-17
7.37794e-17
7.71527e-17
8.03828e-17
8.34358e-17
8.62793e-17
8.88827e-17
9.12181e-17
9.32609e-17
9.49898e-17
9.63881e-17
9.74434e-17
9.81481e-17
9.84995e-17
1.02686e-16
1.07194e-16
1.13599e-16
1.21647e-16
1.31128e-16
1.41852e-16
1.53639e-16
1.66311e-16
1.79689e-16
1.93589e-16
2.07824e-16
2.22207e-16
2.36554e-16
2.50684e-16
2.64419e-16
2.77593e-16
2.90051e-16
3.01654e-16
3.12282e-16
3.21834e-16
3.30235e-16
3.37428e-16
3.43383e-16
3.4809e-16
3.5156e-16
3.53823e-16
3.54925e-16
2.99068e-16
3.13926e-16
3.3518e-16
3.6207e-16
3.93961e-16
4.30258e-16
4.70366e-16
5.13667e-16
5.59515e-16
6.07229e-16
6.56107e-16
7.05434e-16
7.54498e-16
8.02609e-16
8.4911e-16
8.93399e-16
9.34942e-16
9.73284e-16
1.00806e-15
1.039e-15
1.06592e-15
1.08872e-15
1.1074e-15
1.12201e-15
1.13267e-15
1.13955e-15
1.14287e-15
8.73814e-16
9.20687e-16
9.87867e-16
1.07306e-15
1.17432e-15
1.28977e-15
1.4175e-15
1.55546e-15
1.70148e-15
1.85326e-15
2.00845e-15
2.16464e-15
2.3195e-15
2.47079e-15
2.61643e-15
2.75457e-15
2.8836e-15
3.00221e-15
3.10936e-15
3.20433e-15
3.28667e-15
3.35619e-15
3.41296e-15
3.45724e-15
3.48946e-15
3.51022e-15
3.52022e-15
2.57667e-15
2.72063e-15
2.92722e-15
3.18943e-15
3.50126e-15
3.8569e-15
4.25034e-15
4.67517e-15
5.12457e-15
5.59133e-15
6.06803e-15
6.54721e-15
7.0216e-15
7.48429e-15
7.92893e-15
8.34992e-15
8.74243e-15
9.10257e-15
9.42735e-15
9.71469e-15
9.9634e-15
1.01731e-14
1.0344e-14
1.04772e-14
1.05739e-14
1.06362e-14
1.06662e-14
7.65457e-15
8.09203e-15
8.71979e-15
9.51659e-15
1.04641e-14
1.15446e-14
1.27393e-14
1.40287e-14
1.53917e-14
1.68061e-14
1.82493e-14
1.96987e-14
2.11321e-14
2.25289e-14
2.38699e-14
2.51385e-14
2.63203e-14
2.74038e-14
2.83803e-14
2.92438e-14
2.99908e-14
3.06203e-14
3.11333e-14
3.15328e-14
3.18231e-14
3.20099e-14
3.20997e-14
2.28155e-14
2.4132e-14
2.60221e-14
2.84219e-14
3.12766e-14
3.4532e-14
3.81322e-14
4.20172e-14
4.61232e-14
5.03834e-14
5.47289e-14
5.90915e-14
6.34045e-14
6.76054e-14
7.16371e-14
7.54491e-14
7.89988e-14
8.2252e-14
8.51824e-14
8.77726e-14
9.00123e-14
9.1899e-14
9.34359e-14
9.46322e-14
9.55013e-14
9.60603e-14
9.63289e-14
6.81852e-14
7.2142e-14
7.78218e-14
8.50328e-14
9.36089e-14
1.03388e-13
1.14199e-13
1.25863e-13
1.38187e-13
1.50968e-13
1.64002e-13
1.77081e-13
1.90008e-13
2.02595e-13
2.14671e-13
2.26087e-13
2.36714e-13
2.46452e-13
2.55222e-13
2.62973e-13
2.69675e-13
2.7532e-13
2.79919e-13
2.83498e-13
2.86098e-13
2.87771e-13
2.88575e-13
2.03789e-13
2.15641e-13
2.32658e-13
2.54263e-13
2.7996e-13
3.09259e-13
3.41652e-13
3.76595e-13
4.13511e-13
4.51794e-13
4.90825e-13
5.29989e-13
5.68687e-13
6.0636e-13
6.42497e-13
6.76648e-13
7.08436e-13
7.37555e-13
7.63775e-13
7.86942e-13
8.06969e-13
8.23833e-13
8.37568e-13
8.48256e-13
8.56019e-13
8.61011e-13
8.6341e-13
6.09381e-13
6.44868e-13
6.95807e-13
7.60469e-13
8.37359e-13
9.25009e-13
1.02189e-12
1.12636e-12
1.2367e-12
1.35109e-12
1.46768e-12
1.58463e-12
1.70015e-12
1.81257e-12
1.92038e-12
2.02225e-12
2.11704e-12
2.20385e-12
2.28201e-12
2.35105e-12
2.41073e-12
2.46098e-12
2.5019e-12
2.53374e-12
2.55686e-12
2.57173e-12
2.57888e-12
1.8205e-12
1.92648e-12
2.07858e-12
2.27164e-12
2.50117e-12
2.76274e-12
3.05178e-12
3.36339e-12
3.69239e-12
4.03334e-12
4.38073e-12
4.72905e-12
5.073e-12
5.40761e-12
5.72837e-12
6.03132e-12
6.31313e-12
6.57113e-12
6.80333e-12
7.00839e-12
7.18557e-12
7.33471e-12
7.45613e-12
7.55058e-12
7.61916e-12
7.66325e-12
7.68443e-12
5.43292e-12
5.74884e-12
6.20213e-12
6.77721e-12
7.46058e-12
8.23896e-12
9.09855e-12
1.00247e-11
1.10019e-11
1.20139e-11
1.30444e-11
1.4077e-11
1.50959e-11
1.60866e-11
1.70357e-11
1.79316e-11
1.87646e-11
1.95268e-11
2.02125e-11
2.08177e-11
2.13405e-11
2.17804e-11
2.21384e-11
2.24169e-11
2.2619e-11
2.27489e-11
2.28113e-11
1.61673e-11
1.71048e-11
1.84495e-11
2.01547e-11
2.21798e-11
2.44848e-11
2.70284e-11
2.97667e-11
3.26535e-11
3.56405e-11
3.86791e-11
4.17212e-11
4.47204e-11
4.76337e-11
5.04222e-11
5.30522e-11
5.54953e-11
5.77292e-11
5.97372e-11
6.15085e-11
6.30374e-11
6.43231e-11
6.5369e-11
6.61819e-11
6.67717e-11
6.71507e-11
6.73326e-11
4.79391e-11
5.07061e-11
5.46721e-11
5.96971e-11
6.56587e-11
7.24368e-11
7.99073e-11
8.7939e-11
9.63943e-11
1.05131e-10
1.14006e-10
1.22879e-10
1.31614e-10
1.40087e-10
1.48187e-10
1.55817e-10
1.62896e-10
1.69362e-10
1.75168e-10
1.80284e-10
1.84697e-10
1.88404e-10
1.91418e-10
1.93759e-10
1.95457e-10
1.96547e-10
1.9707e-10
1.41319e-10
1.49407e-10
1.6099e-10
1.75649e-10
1.93016e-10
2.12731e-10
2.34424e-10
2.57705e-10
2.82168e-10
3.07397e-10
3.32977e-10
3.58499e-10
3.8358e-10
4.07864e-10
4.31036e-10
4.52824e-10
4.73007e-10
4.91412e-10
5.07915e-10
5.22437e-10
5.34945e-10
5.45442e-10
5.53966e-10
5.60579e-10
5.65371e-10
5.68446e-10
5.6992e-10
4.13382e-10
4.36717e-10
4.70092e-10
5.12259e-10
5.62119e-10
6.18596e-10
6.80589e-10
7.46952e-10
8.16504e-10
8.88045e-10
9.60385e-10
1.03237e-09
1.10293e-09
1.17108e-09
1.23595e-09
1.2968e-09
1.35305e-09
1.40423e-09
1.45004e-09
1.49028e-09
1.52487e-09
1.55387e-09
1.57738e-09
1.5956e-09
1.60878e-09
1.61723e-09
1.62128e-09
1.19647e-09
1.26255e-09
1.35691e-09
1.47585e-09
1.61612e-09
1.77453e-09
1.94786e-09
2.13279e-09
2.32593e-09
2.5239e-09
2.72339e-09
2.92123e-09
3.1145e-09
3.30055e-09
3.47711e-09
3.64226e-09
3.79449e-09
3.93266e-09
4.05601e-09
4.16413e-09
4.25691e-09
4.33451e-09
4.39732e-09
4.44593e-09
4.48106e-09
4.50355e-09
4.51431e-09
3.41496e-09
3.59751e-09
3.85755e-09
4.18439e-09
4.5685e-09
5.00063e-09
5.4715e-09
5.97173e-09
6.49191e-09
7.02278e-09
7.5554e-09
8.0814e-09
8.59315e-09
9.08389e-09
9.54787e-09
9.98036e-09
1.03777e-08
1.07373e-08
1.10574e-08
1.13372e-08
1.15768e-08
1.17768e-08
1.19383e-08
1.20631e-08
1.21532e-08
1.22108e-08
1.22383e-08
9.56963e-09
1.00578e-08
1.07512e-08
1.16195e-08
1.26357e-08
1.37737e-08
1.50075e-08
1.63115e-08
1.76605e-08
1.90302e-08
2.03976e-08
2.17414e-08
2.30427e-08
2.42852e-08
2.54549e-08
2.65411e-08
2.75354e-08
2.84322e-08
2.92281e-08
2.99219e-08
3.05144e-08
3.10078e-08
3.14056e-08
3.17123e-08
3.19333e-08
3.20743e-08
3.21417e-08
2.61942e-08
2.74481e-08
2.92234e-08
3.14374e-08
3.40156e-08
3.68873e-08
3.99835e-08
4.32372e-08
4.65841e-08
4.99632e-08
5.3318e-08
5.6598e-08
5.97585e-08
6.27618e-08
6.55772e-08
6.81809e-08
7.05554e-08
7.26896e-08
7.45779e-08
7.62194e-08
7.76175e-08
7.8779e-08
7.97135e-08
8.04327e-08
8.095e-08
8.12798e-08
8.1437e-08
6.96212e-08
7.26933e-08
7.70275e-08
8.24084e-08
8.86424e-08
9.55471e-08
1.02948e-07
1.1068e-07
1.18587e-07
1.26524e-07
1.34361e-07
1.41984e-07
1.49292e-07
1.56206e-07
1.62659e-07
1.68603e-07
1.74005e-07
1.78844e-07
1.83112e-07
1.86813e-07
1.89957e-07
1.92563e-07
1.94656e-07
1.96264e-07
1.97418e-07
1.98154e-07
1.98504e-07
1.78623e-07
1.85767e-07
1.95813e-07
2.08229e-07
2.22542e-07
2.38309e-07
2.55116e-07
2.72575e-07
2.9033e-07
3.08058e-07
3.25473e-07
3.4233e-07
3.5842e-07
3.73575e-07
3.87667e-07
4.00602e-07
4.12317e-07
4.22781e-07
4.31987e-07
4.39948e-07
4.46698e-07
4.52282e-07
4.56758e-07
4.60191e-07
4.62654e-07
4.64219e-07
4.64964e-07
4.40106e-07
4.5586e-07
4.77943e-07
5.05133e-07
5.36336e-07
5.70546e-07
6.06834e-07
6.44345e-07
6.82311e-07
7.20045e-07
7.56951e-07
7.92526e-07
8.26353e-07
8.58103e-07
8.87527e-07
9.14454e-07
9.38775e-07
9.60444e-07
9.79464e-07
9.9588e-07
1.00977e-06
1.02124e-06
1.03043e-06
1.03746e-06
1.0425e-06
1.0457e-06
1.04723e-06
1.03779e-06
1.07083e-06
1.11702e-06
1.17373e-06
1.23857e-06
1.3094e-06
1.38424e-06
1.46131e-06
1.53902e-06
1.61599e-06
1.69101e-06
1.7631e-06
1.83144e-06
1.89541e-06
1.95455e-06
2.00854e-06
2.05721e-06
2.10049e-06
2.13841e-06
2.17109e-06
2.1987e-06
2.22148e-06
2.23969e-06
2.25363e-06
2.2636e-06
2.26993e-06
2.27294e-06
2.33813e-06
2.40445e-06
2.49703e-06
2.61043e-06
2.73982e-06
2.88079e-06
3.02937e-06
3.18201e-06
3.33556e-06
3.4873e-06
3.6349e-06
3.77647e-06
3.91044e-06
4.03566e-06
4.15125e-06
4.25665e-06
4.35155e-06
4.43585e-06
4.50965e-06
4.5732e-06
4.62686e-06
4.6711e-06
4.70645e-06
4.73348e-06
4.75283e-06
4.7651e-06
4.77092e-06
5.03012e-06
5.15855e-06
5.3377e-06
5.55695e-06
5.80685e-06
6.07888e-06
6.36538e-06
6.65948e-06
6.95518e-06
7.24727e-06
7.53134e-06
7.80375e-06
8.06159e-06
8.30261e-06
8.52517e-06
8.7282e-06
8.91109e-06
9.07365e-06
9.21606e-06
9.33875e-06
9.44243e-06
9.52797e-06
9.59636e-06
9.64872e-06
9.6862e-06
9.70999e-06
9.7213e-06
1.03245e-05
1.05655e-05
1.09016e-05
1.13131e-05
1.17824e-05
1.22936e-05
1.28324e-05
1.33862e-05
1.39437e-05
1.44953e-05
1.50326e-05
1.55489e-05
1.60385e-05
1.64972e-05
1.69218e-05
1.73099e-05
1.76604e-05
1.79727e-05
1.82469e-05
1.84838e-05
1.86844e-05
1.88503e-05
1.89832e-05
1.90853e-05
1.91584e-05
1.9205e-05
1.92272e-05
2.01696e-05
2.06049e-05
2.12127e-05
2.19574e-05
2.28076e-05
2.3735e-05
2.47142e-05
2.57225e-05
2.67396e-05
2.77482e-05
2.87331e-05
2.96817e-05
3.05838e-05
3.14311e-05
3.22175e-05
3.29385e-05
3.35913e-05
3.41746e-05
3.46881e-05
3.51329e-05
3.55107e-05
3.58239e-05
3.60756e-05
3.62692e-05
3.64084e-05
3.64972e-05
3.65395e-05
3.73237e-05
3.80668e-05
3.91044e-05
4.03762e-05
4.18288e-05
4.34142e-05
4.50892e-05
4.68149e-05
4.85573e-05
5.02863e-05
5.19763e-05
5.36055e-05
5.51563e-05
5.66144e-05
5.79689e-05
5.92121e-05
6.0339e-05
6.13468e-05
6.22352e-05
6.30054e-05
6.36603e-05
6.42038e-05
6.46411e-05
6.49778e-05
6.52202e-05
6.5375e-05
6.54489e-05
6.49962e-05
6.61646e-05
6.77949e-05
6.9791e-05
7.20681e-05
7.45497e-05
7.71676e-05
7.98605e-05
8.25748e-05
8.52638e-05
8.78877e-05
9.04132e-05
9.2813e-05
9.50658e-05
9.71554e-05
9.90704e-05
0.000100804
0.000102352
0.000103715
0.000104896
0.000105898
0.00010673
0.000107398
0.000107912
0.000108282
0.000108518
0.000108631
0.000105912
0.000107576
0.000109892
0.000112722
0.000115941
0.000119439
0.000123116
0.000126885
0.00013067
0.000134406
0.000138039
0.000141522
0.00014482
0.000147905
0.000150756
0.000153362
0.000155712
0.000157806
0.000159643
0.000161231
0.000162576
0.000163688
0.00016458
0.000165266
0.000165758
0.000166071
0.000166221
0.000161221
0.000163359
0.000166331
0.00016995
0.000174053
0.000178492
0.000183141
0.000187884
0.000192627
0.000197287
0.000201796
0.000206102
0.00021016
0.000213941
0.000217421
0.000220589
0.000223435
0.000225962
0.000228173
0.000230076
0.000231684
0.00023301
0.000234071
0.000234884
0.000235467
0.000235837
0.000236013
0.000230027
0.000232536
0.000236016
0.000240242
0.000245016
0.000250163
0.000255529
0.000260983
0.000266412
0.000271723
0.000276842
0.000281708
0.000286277
0.000290517
0.000294405
0.000297931
0.00030109
0.000303884
0.000306322
0.000308415
0.000310179
0.00031163
0.000312788
0.000313674
0.000314307
0.000314709
0.0003149
0.000309862
0.000312601
0.000316392
0.000320984
0.000326157
0.000331718
0.000337497
0.000343351
0.000349159
0.000354823
0.000360263
0.000365419
0.000370245
0.000374711
0.000378796
0.00038249
0.000385792
0.000388706
0.000391244
0.000393418
0.000395247
0.00039675
0.000397947
0.000398862
0.000399515
0.000399929
0.000400125
0.000397656
0.000400493
0.000404415
0.000409159
0.000414494
0.000420217
0.000426152
0.000432152
0.000438092
0.000443873
0.000449414
0.000454656
0.000459554
0.000464078
0.000468211
0.000471943
0.000475274
0.000478211
0.000480766
0.000482953
0.00048479
0.000486299
0.000487501
0.000488418
0.000489073
0.000489487
0.000489684
0.000490585
0.00049343
0.00049736
0.00050211
0.000507447
0.000513166
0.000519091
0.000525074
0.000530992
0.000536746
0.000542257
0.000547466
0.00055233
0.00055682
0.000560918
0.000564618
0.00056792
0.00057083
0.000573359
0.000575525
0.000577345
0.000578838
0.000580028
0.000580936
0.000581584
0.000581994
0.000582189
0.000586484
0.000589288
0.00059316
0.000597838
0.000603092
0.000608722
0.000614554
0.000620441
0.000626262
0.000631922
0.000637342
0.000642465
0.000647249
0.000651665
0.000655697
0.000659337
0.000662586
0.00066545
0.00066794
0.000670073
0.000671865
0.000673336
0.000674509
0.000675404
0.000676043
0.000676448
0.00067664
0.000683874
0.000686617
0.000690405
0.000694983
0.000700125
0.000705636
0.000711345
0.00071711
0.000722813
0.000728358
0.000733671
0.000738695
0.000743388
0.000747722
0.00075168
0.000755256
0.000758448
0.000761263
0.000763712
0.00076581
0.000767574
0.000769024
0.000770179
0.00077106
0.00077169
0.00077209
0.000772279
0.000781818
0.000784498
0.000788201
0.000792677
0.000797707
0.000803098
0.000808687
0.000814333
0.00081992
0.000825356
0.000830567
0.000835496
0.000840103
0.00084436
0.00084825
0.000851766
0.000854906
0.000857676
0.000860088
0.000862155
0.000863893
0.000865322
0.000866461
0.00086733
0.000867952
0.000868346
0.000868534
0.000879754
0.000882379
0.000886005
0.00089039
0.000895319
0.000900605
0.000906086
0.000911626
0.000917112
0.000922452
0.000927573
0.00093242
0.000936952
0.000941142
0.000944972
0.000948435
0.00095153
0.000954262
0.00095664
0.000958679
0.000960395
0.000961806
0.000962931
0.00096379
0.000964405
0.000964794
0.00096498
0.000977359
0.000979936
0.000983497
0.000987805
0.000992649
0.000997845
0.00100324
0.00100869
0.00101409
0.00101935
0.00102439
0.00102917
0.00103364
0.00103777
0.00104155
0.00104497
0.00104802
0.00105072
0.00105307
0.00105509
0.00105678
0.00105818
0.00105929
0.00106014
0.00106075
0.00106113
0.00106132
0.00107445
0.00107699
0.0010805
0.00108474
0.00108951
0.00109464
0.00109995
0.00110533
0.00111066
0.00111585
0.00112083
0.00112555
0.00112996
0.00113405
0.00113778
0.00114116
0.00114419
0.00114685
0.00114918
0.00115118
0.00115285
0.00115424
0.00115534
0.00115618
0.00115678
0.00115716
0.00115735
0.00117094
0.00117344
0.00117691
0.0011811
0.00118581
0.00119087
0.00119613
0.00120144
0.00120671
0.00121184
0.00121677
0.00122144
0.00122581
0.00122985
0.00123355
0.0012369
0.00123989
0.00124254
0.00124484
0.00124682
0.00124848
0.00124985
0.00125094
0.00125178
0.00125238
0.00125275
0.00125293
0.00126678
0.00126926
0.00127268
0.00127683
0.0012815
0.00128651
0.00129171
0.00129697
0.00130219
0.00130727
0.00131215
0.00131678
0.00132111
0.00132511
0.00132878
0.0013321
0.00133507
0.00133769
0.00133998
0.00134194
0.00134359
0.00134495
0.00134603
0.00134686
0.00134745
0.00134783
0.00134801
0.00136196
0.00136441
0.00136781
0.00137192
0.00137654
0.00138151
0.00138666
0.00139188
0.00139705
0.00140209
0.00140693
0.00141152
0.00141582
0.00141979
0.00142343
0.00142673
0.00142967
0.00143227
0.00143454
0.00143649
0.00143813
0.00143948
0.00144055
0.00144138
0.00144196
0.00144234
0.00144251
0.00145648
0.00145891
0.00146228
0.00146636
0.00147095
0.00147587
0.00148099
0.00148617
0.0014913
0.00149631
0.00150111
0.00150567
0.00150993
0.00151388
0.00151749
0.00152076
0.00152369
0.00152627
0.00152853
0.00153046
0.00153209
0.00153343
0.0015345
0.00153531
0.0015359
0.00153627
0.00153645
0.00155036
0.00155278
0.00155612
0.00156017
0.00156473
0.00156962
0.0015747
0.00157984
0.00158494
0.00158991
0.00159469
0.00159921
0.00160345
0.00160737
0.00161096
0.00161421
0.00161712
0.00161969
0.00162193
0.00162385
0.00162546
0.0016268
0.00162786
0.00162867
0.00162925
0.00162962
0.0016298
0.00164362
0.00164602
0.00164935
0.00165337
0.0016579
0.00166276
0.00166781
0.00167292
0.00167799
0.00168293
0.00168767
0.00169217
0.00169638
0.00170028
0.00170385
0.00170708
0.00170997
0.00171252
0.00171475
0.00171666
0.00171826
0.00171959
0.00172064
0.00172145
0.00172203
0.0017224
0.00172257
0.00173628
0.00173867
0.00174197
0.00174597
0.00175047
0.00175531
0.00176033
0.00176541
0.00177045
0.00177536
0.00178008
0.00178455
0.00178874
0.00179262
0.00179617
0.00179938
0.00180225
0.00180479
0.001807
0.0018089
0.0018105
0.00181182
0.00181287
0.00181367
0.00181425
0.00181461
0.00181479
0.00182837
0.00183074
0.00183403
0.00183801
0.00184248
0.00184729
0.00185229
0.00185734
0.00186235
0.00186724
0.00187193
0.00187638
0.00188055
0.0018844
0.00188793
0.00189113
0.00189399
0.00189651
0.00189872
0.00190061
0.0019022
0.00190351
0.00190455
0.00190535
0.00190592
0.00190628
0.00190646
0.0019199
0.00192227
0.00192554
0.00192949
0.00193395
0.00193873
0.0019437
0.00194873
0.00195372
0.00195858
0.00196325
0.00196767
0.00197182
0.00197566
0.00197917
0.00198235
0.00198519
0.00198771
0.0019899
0.00199178
0.00199336
0.00199466
0.0019957
0.0019965
0.00199707
0.00199743
0.0019976
0.00201091
0.00201326
0.00201652
0.00202045
0.00202489
0.00202965
0.00203459
0.0020396
0.00204456
0.0020494
0.00205405
0.00205845
0.00206258
0.0020664
0.00206989
0.00207306
0.00207589
0.00207839
0.00208057
0.00208244
0.00208402
0.00208531
0.00208635
0.00208714
0.00208771
0.00208807
0.00208824
0.00210141
0.00210375
0.00210699
0.00211091
0.00211532
0.00212006
0.00212498
0.00212996
0.0021349
0.00213972
0.00214435
0.00214873
0.00215284
0.00215664
0.00216012
0.00216327
0.00216609
0.00216858
0.00217075
0.00217261
0.00217418
0.00217547
0.0021765
0.00217729
0.00217785
0.00217821
0.00217838
0.00219142
0.00219375
0.00219697
0.00220087
0.00220527
0.00220999
0.00221489
0.00221985
0.00222476
0.00222956
0.00223417
0.00223853
0.00224262
0.0022464
0.00224987
0.002253
0.00225581
0.00225829
0.00226045
0.0022623
0.00226387
0.00226515
0.00226618
0.00226696
0.00226752
0.00226788
0.00226805
0.00228095
0.00228327
0.00228648
0.00229037
0.00229474
0.00229944
0.00230432
0.00230926
0.00231415
0.00231893
0.00232352
0.00232786
0.00233193
0.0023357
0.00233915
0.00234227
0.00234507
0.00234753
0.00234969
0.00235153
0.00235309
0.00235437
0.00235539
0.00235617
0.00235673
0.00235708
0.00235725
0.00237002
0.00237233
0.00237553
0.0023794
0.00238375
0.00238843
0.00239329
0.00239821
0.00240309
0.00240784
0.00241241
0.00241674
0.00242079
0.00242454
0.00242798
0.00243108
0.00243387
0.00243632
0.00243847
0.0024403
0.00244185
0.00244313
0.00244414
0.00244492
0.00244548
0.00244583
0.002446
0.00245864
0.00246094
0.00246413
0.00246798
0.00247232
0.00247698
0.00248181
0.00248671
0.00249157
0.0024963
0.00250085
0.00250516
0.0025092
0.00251293
0.00251635
0.00251945
0.00252222
0.00252467
0.0025268
0.00252863
0.00253017
0.00253144
0.00253245
0.00253323
0.00253378
0.00253413
0.0025343
0.00254681
0.00254911
0.00255228
0.00255611
0.00256043
0.00256507
0.00256989
0.00257477
0.0025796
0.00258432
0.00258885
0.00259314
0.00259716
0.00260088
0.00260428
0.00260737
0.00261012
0.00261256
0.00261468
0.00261651
0.00261804
0.00261931
0.00262031
0.00262108
0.00262163
0.00262198
0.00262215
0.00263454
0.00263682
0.00263998
0.0026438
0.0026481
0.00265272
0.00265752
0.00266238
0.00266719
0.00267189
0.0026764
0.00268067
0.00268467
0.00268838
0.00269177
0.00269484
0.00269758
0.00270001
0.00270212
0.00270394
0.00270547
0.00270672
0.00270773
0.00270849
0.00270904
0.00270939
0.00270956
0.00272182
0.0027241
0.00272724
0.00273104
0.00273533
0.00273993
0.0027447
0.00274954
0.00275433
0.002759
0.00276349
0.00276775
0.00277173
0.00277542
0.0027788
0.00278185
0.00278459
0.002787
0.00278911
0.00279091
0.00279244
0.00279369
0.00279469
0.00279545
0.002796
0.00279634
0.00279651
0.00280865
0.00281091
0.00281404
0.00281783
0.00282209
0.00282667
0.00283142
0.00283623
0.00284101
0.00284566
0.00285013
0.00285436
0.00285833
0.002862
0.00286536
0.0028684
0.00287112
0.00287353
0.00287562
0.00287742
0.00287894
0.00288018
0.00288118
0.00288194
0.00288248
0.00288282
0.00288299
0.002895
0.00289725
0.00290036
0.00290413
0.00290838
0.00291293
0.00291767
0.00292245
0.0029272
0.00293183
0.00293628
0.0029405
0.00294444
0.00294809
0.00295144
0.00295446
0.00295717
0.00295956
0.00296165
0.00296344
0.00296495
0.00296618
0.00296717
0.00296793
0.00296847
0.00296881
0.00296898
0.00298085
0.00298309
0.00298619
0.00298994
0.00299416
0.0029987
0.0030034
0.00300817
0.00301289
0.0030175
0.00302192
0.00302612
0.00303004
0.00303367
0.003037
0.00304001
0.0030427
0.00304508
0.00304716
0.00304894
0.00305043
0.00305167
0.00305265
0.0030534
0.00305394
0.00305428
0.00305445
0.00306618
0.00306841
0.00307149
0.00307522
0.00307942
0.00308393
0.00308861
0.00309334
0.00309804
0.00310262
0.00310702
0.00311119
0.00311509
0.0031187
0.00312201
0.003125
0.00312768
0.00313004
0.00313211
0.00313387
0.00313536
0.00313659
0.00313757
0.00313832
0.00313885
0.00313919
0.00313935
0.00315094
0.00315315
0.00315622
0.00315992
0.00316409
0.00316857
0.00317322
0.00317793
0.0031826
0.00318715
0.00319152
0.00319566
0.00319954
0.00320313
0.00320641
0.00320939
0.00321205
0.0032144
0.00321644
0.0032182
0.00321968
0.0032209
0.00322187
0.00322261
0.00322314
0.00322348
0.00322364
0.00323507
0.00323727
0.00324031
0.00324399
0.00324813
0.00325258
0.0032572
0.00326187
0.00326651
0.00327102
0.00327536
0.00327947
0.00328332
0.00328689
0.00329015
0.0032931
0.00329574
0.00329807
0.0033001
0.00330185
0.00330332
0.00330453
0.00330549
0.00330623
0.00330675
0.00330709
0.00330725
0.0033185
0.00332068
0.0033237
0.00332735
0.00333146
0.00333587
0.00334045
0.00334509
0.00334969
0.00335417
0.00335847
0.00336255
0.00336636
0.0033699
0.00337313
0.00337606
0.00337868
0.00338099
0.00338301
0.00338473
0.00338619
0.00338739
0.00338835
0.00338908
0.0033896
0.00338993
0.00339009
0.00340115
0.00340331
0.0034063
0.00340992
0.00341399
0.00341836
0.0034229
0.00342749
0.00343205
0.00343648
0.00344075
0.00344478
0.00344857
0.00345207
0.00345527
0.00345817
0.00346076
0.00346305
0.00346505
0.00346676
0.0034682
0.00346939
0.00347033
0.00347106
0.00347157
0.0034719
0.00347206
0.0034829
0.00348504
0.003488
0.00349158
0.00349561
0.00349993
0.00350442
0.00350896
0.00351347
0.00351786
0.00352207
0.00352607
0.00352981
0.00353327
0.00353643
0.0035393
0.00354186
0.00354413
0.0035461
0.00354779
0.00354922
0.00355039
0.00355133
0.00355204
0.00355255
0.00355288
0.00355303
0.00356364
0.00356575
0.00356867
0.0035722
0.00357618
0.00358045
0.00358488
0.00358937
0.00359382
0.00359815
0.00360231
0.00360625
0.00360994
0.00361336
0.00361648
0.00361931
0.00362184
0.00362407
0.00362602
0.00362769
0.0036291
0.00363026
0.00363118
0.00363188
0.00363239
0.00363271
0.00363286
0.00364319
0.00364527
0.00364815
0.00365163
0.00365555
0.00365976
0.00366413
0.00366854
0.00367292
0.00367719
0.00368129
0.00368517
0.00368881
0.00369217
0.00369524
0.00369803
0.00370052
0.00370272
0.00370463
0.00370628
0.00370766
0.0037088
0.00370971
0.0037104
0.0037109
0.00371121
0.00371136
0.00372139
0.00372343
0.00372626
0.00372968
0.00373353
0.00373766
0.00374195
0.0037463
0.0037506
0.00375479
0.00375881
0.00376262
0.00376619
0.00376949
0.00377251
0.00377525
0.00377769
0.00377985
0.00378173
0.00378334
0.0037847
0.00378582
0.00378671
0.00378739
0.00378788
0.00378819
0.00378833
0.003798
0.00380001
0.00380278
0.00380613
0.0038099
0.00381395
0.00381815
0.0038224
0.00382661
0.00383071
0.00383465
0.00383838
0.00384187
0.0038451
0.00384805
0.00385072
0.00385311
0.00385523
0.00385706
0.00385864
0.00385997
0.00386106
0.00386193
0.0038626
0.00386308
0.00386338
0.00386352
0.00387279
0.00387475
0.00387745
0.00388072
0.0038844
0.00388835
0.00389245
0.00389659
0.00390069
0.00390469
0.00390853
0.00391217
0.00391557
0.00391871
0.00392159
0.00392419
0.00392652
0.00392858
0.00393037
0.0039319
0.0039332
0.00393426
0.00393511
0.00393576
0.00393622
0.00393651
0.00393665
0.00394548
0.00394738
0.00395
0.00395318
0.00395675
0.00396058
0.00396456
0.00396858
0.00397256
0.00397644
0.00398016
0.00398369
0.00398698
0.00399003
0.00399282
0.00399535
0.0039976
0.00399959
0.00400133
0.00400282
0.00400407
0.0040051
0.00400592
0.00400655
0.004007
0.00400728
0.00400742
0.00401574
0.00401757
0.00402011
0.00402317
0.00402662
0.00403032
0.00403415
0.00403803
0.00404188
0.00404562
0.0040492
0.0040526
0.00405578
0.00405872
0.00406141
0.00406384
0.00406601
0.00406793
0.0040696
0.00407103
0.00407224
0.00407323
0.00407402
0.00407462
0.00407505
0.00407533
0.00407546
0.00408322
0.00408498
0.00408741
0.00409035
0.00409366
0.0040972
0.00410088
0.0041046
0.00410828
0.00411186
0.0041153
0.00411855
0.00412159
0.0041244
0.00412697
0.0041293
0.00413137
0.00413321
0.0041348
0.00413617
0.00413732
0.00413827
0.00413903
0.0041396
0.00414002
0.00414028
0.0041404
0.00414755
0.00414923
0.00415154
0.00415434
0.00415748
0.00416085
0.00416435
0.00416788
0.00417138
0.00417478
0.00417804
0.00418113
0.00418401
0.00418668
0.00418912
0.00419132
0.00419329
0.00419503
0.00419655
0.00419784
0.00419893
0.00419983
0.00420055
0.00420109
0.00420148
0.00420173
0.00420185
0.00420833
0.00420991
0.00421209
0.00421473
0.00421769
0.00422086
0.00422416
0.00422748
0.00423077
0.00423397
0.00423704
0.00423994
0.00424265
0.00424516
0.00424745
0.00424952
0.00425136
0.00425299
0.00425441
0.00425563
0.00425665
0.00425749
0.00425817
0.00425868
0.00425904
0.00425928
0.00425939
0.00426516
0.00426663
0.00426866
0.00427112
0.00427388
0.00427683
0.0042799
0.00428299
0.00428605
0.00428903
0.00429188
0.00429457
0.00429709
0.00429942
0.00430154
0.00430346
0.00430518
0.00430669
0.004308
0.00430913
0.00431008
0.00431086
0.00431148
0.00431195
0.00431229
0.00431251
0.00431261
0.00431763
0.00431899
0.00432086
0.00432312
0.00432565
0.00432837
0.00433119
0.00433403
0.00433683
0.00433956
0.00434218
0.00434465
0.00434695
0.00434908
0.00435103
0.00435278
0.00435435
0.00435573
0.00435693
0.00435796
0.00435883
0.00435954
0.00436011
0.00436054
0.00436085
0.00436104
0.00436114
0.0043654
0.00436662
0.00436832
0.00437036
0.00437266
0.00437512
0.00437766
0.00438023
0.00438277
0.00438523
0.00438759
0.00438981
0.00439189
0.00439381
0.00439556
0.00439714
0.00439855
0.00439979
0.00440087
0.00440179
0.00440257
0.00440321
0.00440372
0.00440411
0.00440438
0.00440456
0.00440464
0.00440814
0.00440923
0.00441074
0.00441256
0.0044146
0.00441679
0.00441905
0.00442132
0.00442357
0.00442575
0.00442784
0.00442981
0.00443164
0.00443334
0.00443488
0.00443627
0.00443752
0.00443861
0.00443956
0.00444037
0.00444106
0.00444162
0.00444207
0.00444241
0.00444265
0.00444281
0.00444288
0.00444565
0.0044466
0.00444792
0.0044495
0.00445128
0.00445317
0.00445513
0.00445711
0.00445906
0.00446095
0.00446275
0.00446446
0.00446604
0.0044675
0.00446884
0.00447004
0.00447111
0.00447205
0.00447287
0.00447357
0.00447415
0.00447464
0.00447502
0.00447531
0.00447552
0.00447566
0.00447572
0.00447781
0.00447862
0.00447974
0.00448108
0.00448259
0.0044842
0.00448586
0.00448753
0.00448917
0.00449077
0.00449229
0.00449372
0.00449506
0.00449629
0.0044974
0.00449841
0.00449931
0.0045001
0.00450078
0.00450137
0.00450186
0.00450226
0.00450258
0.00450283
0.004503
0.00450311
0.00450316
0.00450467
0.00450534
0.00450626
0.00450736
0.0045086
0.00450992
0.00451129
0.00451266
0.00451401
0.00451531
0.00451655
0.00451772
0.00451881
0.00451981
0.00452072
0.00452154
0.00452227
0.00452291
0.00452346
0.00452394
0.00452433
0.00452466
0.00452492
0.00452511
0.00452526
0.00452534
0.00452539
0.0045264
0.00452693
0.00452767
0.00452855
0.00452953
0.00453058
0.00453166
0.00453275
0.00453381
0.00453484
0.00453582
0.00453674
0.00453759
0.00453838
0.00453909
0.00453973
0.0045403
0.0045408
0.00454123
0.0045416
0.00454191
0.00454216
0.00454236
0.00454251
0.00454262
0.00454269
0.00454272
0.00454337
0.00454377
0.00454433
0.00454501
0.00454576
0.00454655
0.00454737
0.0045482
0.004549
0.00454978
0.00455052
0.00455121
0.00455185
0.00455244
0.00455297
0.00455345
0.00455387
0.00455424
0.00455457
0.00455484
0.00455507
0.00455526
0.00455541
0.00455552
0.0045556
0.00455565
0.00455568
0.00455606
0.00455636
0.00455677
0.00455726
0.0045578
0.00455838
0.00455897
0.00455956
0.00456014
0.00456069
0.00456122
0.00456172
0.00456217
0.00456259
0.00456297
0.0045633
0.0045636
0.00456386
0.00456409
0.00456428
0.00456444
0.00456458
0.00456468
0.00456476
0.00456482
0.00456485
0.00456487
0.00456511
0.00456531
0.00456559
0.00456592
0.00456629
0.00456669
0.00456709
0.00456749
0.00456788
0.00456825
0.00456861
0.00456893
0.00456924
0.00456952
0.00456977
0.00456999
0.00457019
0.00457036
0.00457051
0.00457063
0.00457074
0.00457082
0.00457089
0.00457094
0.00457098
0.004571
0.00457101
0.00457119
0.00457132
0.0045715
0.00457171
0.00457194
0.00457219
0.00457244
0.00457269
0.00457293
0.00457316
0.00457338
0.00457358
0.00457377
0.00457394
0.00457409
0.00457422
0.00457434
0.00457445
0.00457453
0.00457461
0.00457467
0.00457472
0.00457476
0.00457479
0.00457482
0.00457483
0.00457484
0.00457501
0.00457508
0.00457518
0.0045753
0.00457543
0.00457557
0.00457571
0.00457585
0.00457599
0.00457612
0.00457624
0.00457635
0.00457645
0.00457654
0.00457662
0.00457669
0.00457676
0.00457681
0.00457686
0.0045769
0.00457693
0.00457696
0.00457698
0.00457699
0.004577
0.00457701
0.00457702
0.0045772
0.00457724
0.00457729
0.00457734
0.00457741
0.00457747
0.00457754
0.00457761
0.00457767
0.00457773
0.00457778
0.00457783
0.00457788
0.00457792
0.00457795
0.00457799
0.00457801
0.00457804
0.00457806
0.00457807
0.00457809
0.0045781
0.0045781
0.00457811
0.00457812
0.00457812
0.00457812
0.00457832
0.00457833
0.00457835
0.00457837
0.00457839
0.00457842
0.00457844
0.00457846
0.00457848
0.00457849
0.00457851
0.00457852
0.00457854
0.00457855
0.00457856
0.00457856
0.00457857
0.00457857
0.00457858
0.00457858
0.00457858
0.00457858
0.00457858
0.00457859
0.00457859
0.00457859
0.00457859
0.0045788
0.0045788
0.0045788
0.00457879
0.00457879