/*--------------------------------*- C++ -*----------------------------------*\
| =========                 |                                                 |
| \\      /  F ield         | OpenFOAM: The Open Source CFD Toolbox           |
|  \\    /   O peration     | Version:  2106                                  |
|   \\  /    A nd           | Website:  www.openfoam.com                      |
|    \\/     M anipulation  |                                                 |
\*---------------------------------------------------------------------------*/
FoamFile
{
    version     2.0;
    format      ascii;
    arch        "LSB;label=32;scalar=64";
    class       volScalarField;
    location    "49.99987";
    object      C4H6_0;
}
// * * * * * * * * * * * * * * * * * * * * * * * * * * * * * * * * * * * * * //

dimensions      [0 0 0 0 0 0 0];

internalField   nonuniform List<scalar> 
3360
(
4.66455e-19
4.81467e-19
5.02359e-19
5.27913e-19
5.57065e-19
5.88859e-19
6.2243e-19
6.57e-19
6.91874e-19
7.26439e-19
7.60164e-19
7.92597e-19
8.23367e-19
8.52176e-19
8.78799e-19
9.03078e-19
9.24917e-19
9.44273e-19
9.61155e-19
9.75612e-19
9.87732e-19
9.97631e-19
1.00545e-18
1.01135e-18
1.0155e-18
1.01808e-18
1.01928e-18
2.04632e-18
2.12155e-18
2.2277e-18
2.3599e-18
2.51408e-18
2.68673e-18
2.87469e-18
3.07506e-18
3.28517e-18
3.50247e-18
3.72452e-18
3.94896e-18
4.17345e-18
4.39567e-18
4.61337e-18
4.82429e-18
5.02627e-18
5.21717e-18
5.39497e-18
5.55776e-18
5.70379e-18
5.83152e-18
5.93963e-18
6.02707e-18
6.09306e-18
6.13712e-18
6.15909e-18
6.42089e-18
6.70273e-18
7.10323e-18
7.60649e-18
8.19933e-18
8.86989e-18
9.60692e-18
1.03993e-17
1.12358e-17
1.2105e-17
1.29951e-17
1.38944e-17
1.47916e-17
1.5675e-17
1.65339e-17
1.73576e-17
1.81366e-17
1.88622e-17
1.95267e-17
2.0124e-17
2.06493e-17
2.10991e-17
2.14715e-17
2.17658e-17
2.19828e-17
2.21243e-17
2.21931e-17
1.87005e-17
1.96295e-17
2.09585e-17
2.26399e-17
2.46341e-17
2.69037e-17
2.94116e-17
3.21192e-17
3.4986e-17
3.79695e-17
4.10258e-17
4.41102e-17
4.71781e-17
5.01865e-17
5.30942e-17
5.58635e-17
5.84611e-17
6.08586e-17
6.30332e-17
6.49677e-17
6.66509e-17
6.80769e-17
6.92448e-17
7.01582e-17
7.08248e-17
7.12552e-17
7.14628e-17
5.46389e-17
5.75698e-17
6.17705e-17
6.70976e-17
7.34292e-17
8.06485e-17
8.86352e-17
9.72616e-17
1.06392e-16
1.15883e-16
1.25587e-16
1.35353e-16
1.45036e-16
1.54496e-16
1.63603e-16
1.72241e-16
1.80309e-16
1.87725e-16
1.94426e-16
2.00364e-16
2.05513e-16
2.0986e-16
2.13409e-16
2.16178e-16
2.18193e-16
2.19491e-16
2.20116e-16
1.61117e-16
1.70119e-16
1.83037e-16
1.99432e-16
2.18931e-16
2.41168e-16
2.6577e-16
2.92335e-16
3.20435e-16
3.49621e-16
3.79429e-16
4.09392e-16
4.39055e-16
4.67986e-16
4.9579e-16
5.22113e-16
5.46657e-16
5.69176e-16
5.89484e-16
6.07451e-16
6.23003e-16
6.36114e-16
6.46802e-16
6.55127e-16
6.61179e-16
6.65073e-16
6.66946e-16
4.78633e-16
5.05988e-16
5.45241e-16
5.95065e-16
6.54314e-16
7.21872e-16
7.9658e-16
8.77203e-16
9.62427e-16
1.05087e-15
1.14111e-15
1.23174e-15
1.32137e-15
1.40871e-15
1.49257e-15
1.57189e-15
1.64578e-15
1.71354e-15
1.7746e-15
1.82859e-15
1.8753e-15
1.91466e-15
1.94674e-15
1.97172e-15
1.98987e-15
2.00155e-15
2.00716e-15
1.42664e-15
1.50895e-15
1.62714e-15
1.7772e-15
1.9557e-15
2.15926e-15
2.38437e-15
2.6273e-15
2.88405e-15
3.15043e-15
3.42215e-15
3.69494e-15
3.96463e-15
4.22731e-15
4.47941e-15
4.71777e-15
4.93973e-15
5.14315e-15
5.32639e-15
5.48834e-15
5.6284e-15
5.74636e-15
5.84247e-15
5.91727e-15
5.97162e-15
6.00657e-15
6.02336e-15
4.26356e-15
4.51098e-15
4.86613e-15
5.31703e-15
5.85329e-15
6.46474e-15
7.14078e-15
7.87011e-15
8.64069e-15
9.43991e-15
1.02549e-14
1.10728e-14
1.18811e-14
1.26681e-14
1.34232e-14
1.4137e-14
1.48015e-14
1.54104e-14
1.59588e-14
1.64435e-14
1.68626e-14
1.72155e-14
1.75031e-14
1.77269e-14
1.78895e-14
1.79941e-14
1.80443e-14
1.27427e-14
1.34839e-14
1.45479e-14
1.58989e-14
1.75057e-14
1.93377e-14
2.13632e-14
2.35482e-14
2.58565e-14
2.82503e-14
3.06909e-14
3.31398e-14
3.55595e-14
3.79152e-14
4.01748e-14
4.23102e-14
4.42979e-14
4.61187e-14
4.77582e-14
4.92068e-14
5.04591e-14
5.15136e-14
5.23724e-14
5.30407e-14
5.35262e-14
5.38383e-14
5.39883e-14
3.81041e-14
4.03231e-14
4.35082e-14
4.75515e-14
5.23594e-14
5.784e-14
6.38977e-14
7.04305e-14
7.73299e-14
8.44826e-14
9.17728e-14
9.90853e-14
1.06309e-13
1.13339e-13
1.2008e-13
1.26449e-13
1.32377e-13
1.37805e-13
1.42692e-13
1.47009e-13
1.50741e-13
1.53883e-13
1.56442e-13
1.58433e-13
1.59879e-13
1.60808e-13
1.61255e-13
1.13835e-13
1.20461e-13
1.29972e-13
1.42044e-13
1.56396e-13
1.72752e-13
1.90825e-13
2.1031e-13
2.30882e-13
2.52201e-13
2.73923e-13
2.95703e-13
3.17211e-13
3.38134e-13
3.5819e-13
3.77133e-13
3.94755e-13
4.10887e-13
4.25407e-13
4.38229e-13
4.49307e-13
4.58633e-13
4.66225e-13
4.72131e-13
4.7642e-13
4.79176e-13
4.80501e-13
3.39716e-13
3.5947e-13
3.87814e-13
4.23773e-13
4.66503e-13
5.15175e-13
5.68925e-13
6.26836e-13
6.87939e-13
7.51221e-13
8.15655e-13
8.80221e-13
9.43936e-13
1.00588e-12
1.06523e-12
1.12125e-12
1.17333e-12
1.22099e-12
1.26387e-12
1.30171e-12
1.3344e-12
1.36191e-12
1.3843e-12
1.40171e-12
1.41435e-12
1.42247e-12
1.42637e-12
1.01092e-12
1.06955e-12
1.15363e-12
1.26026e-12
1.38688e-12
1.53101e-12
1.69006e-12
1.86129e-12
2.04179e-12
2.22857e-12
2.41857e-12
2.60879e-12
2.79633e-12
2.97849e-12
3.15286e-12
3.31731e-12
3.47008e-12
3.60976e-12
3.73532e-12
3.84608e-12
3.94168e-12
4.02207e-12
4.08747e-12
4.1383e-12
4.17518e-12
4.19887e-12
4.21025e-12
2.99759e-12
3.17061e-12
3.4186e-12
3.73281e-12
4.10558e-12
4.52941e-12
4.99654e-12
5.49875e-12
6.02746e-12
6.57377e-12
7.12872e-12
7.6835e-12
8.22971e-12
8.75955e-12
9.26603e-12
9.74311e-12
1.01858e-11
1.05901e-11
1.09531e-11
1.1273e-11
1.15489e-11
1.17808e-11
1.19692e-11
1.21156e-11
1.22217e-11
1.22899e-11
1.23226e-11
8.83657e-12
9.34231e-12
1.00666e-11
1.09832e-11
1.20691e-11
1.33019e-11
1.46583e-11
1.61141e-11
1.76437e-11
1.92213e-11
2.08208e-11
2.24167e-11
2.39849e-11
2.55034e-11
2.69523e-11
2.83147e-11
2.95767e-11
3.07276e-11
3.17595e-11
3.26675e-11
3.34497e-11
3.4106e-11
3.4639e-11
3.50526e-11
3.53522e-11
3.55444e-11
3.56366e-11
2.58485e-11
2.73076e-11
2.93945e-11
3.20312e-11
3.51489e-11
3.86804e-11
4.25567e-11
4.67063e-11
5.10553e-11
5.55287e-11
6.00521e-11
6.45535e-11
6.89654e-11
7.32265e-11
7.72826e-11
8.10878e-11
8.46049e-11
8.78054e-11
9.06696e-11
9.31857e-11
9.53491e-11
9.7162e-11
9.8632e-11
9.97712e-11
1.00596e-10
1.01124e-10
1.01377e-10
7.48147e-11
7.89469e-11
8.48467e-11
9.2284e-11
1.01055e-10
1.1096e-10
1.21798e-10
1.33362e-10
1.45439e-10
1.57818e-10
1.70291e-10
1.82662e-10
1.94747e-10
2.06381e-10
2.17421e-10
2.27748e-10
2.37266e-10
2.45906e-10
2.53619e-10
2.60379e-10
2.66181e-10
2.71033e-10
2.74961e-10
2.78e-10
2.80197e-10
2.81603e-10
2.82276e-10
2.13538e-10
2.24953e-10
2.41213e-10
2.6165e-10
2.85668e-10
3.12688e-10
3.42131e-10
3.7341e-10
4.05936e-10
4.3913e-10
4.72434e-10
5.05324e-10
5.37323e-10
5.68008e-10
5.9702e-10
6.24063e-10
6.48909e-10
6.71392e-10
6.91408e-10
7.08907e-10
7.23888e-10
7.36391e-10
7.46493e-10
7.54297e-10
7.59928e-10
7.63528e-10
7.65249e-10
5.98407e-10
6.2893e-10
6.72286e-10
7.26583e-10
7.90124e-10
8.61274e-10
9.3842e-10
1.01996e-09
1.10431e-09
1.18995e-09
1.27545e-09
1.35948e-09
1.44084e-09
1.51853e-09
1.59167e-09
1.65959e-09
1.72176e-09
1.77783e-09
1.8276e-09
1.87098e-09
1.90803e-09
1.93888e-09
1.96375e-09
1.98293e-09
1.99675e-09
2.00557e-09
2.00978e-09
1.63808e-09
1.71648e-09
1.82748e-09
1.9659e-09
2.1271e-09
2.30665e-09
2.50024e-09
2.70367e-09
2.91293e-09
3.1242e-09
3.33397e-09
3.53904e-09
3.73665e-09
3.92443e-09
4.10046e-09
4.26325e-09
4.41172e-09
4.54516e-09
4.66322e-09
4.76586e-09
4.85327e-09
4.92589e-09
4.98433e-09
5.0293e-09
5.06164e-09
5.08226e-09
5.09209e-09
4.35448e-09
4.54653e-09
4.81748e-09
5.15387e-09
5.54359e-09
5.97523e-09
6.43791e-09
6.92126e-09
7.41554e-09
7.91172e-09
8.40165e-09
8.87815e-09
9.33504e-09
9.76722e-09
1.01706e-08
1.05422e-08
1.08799e-08
1.11824e-08
1.14492e-08
1.16806e-08
1.18771e-08
1.20401e-08
1.21709e-08
1.22714e-08
1.23436e-08
1.23896e-08
1.24114e-08
1.11759e-08
1.16224e-08
1.22502e-08
1.30261e-08
1.39205e-08
1.49058e-08
1.59559e-08
1.70468e-08
1.81562e-08
1.92639e-08
2.03521e-08
2.14053e-08
2.24106e-08
2.33575e-08
2.4238e-08
2.50461e-08
2.57781e-08
2.64319e-08
2.70071e-08
2.75045e-08
2.79262e-08
2.82751e-08
2.85548e-08
2.87693e-08
2.89232e-08
2.9021e-08
2.90675e-08
2.75587e-08
2.85423e-08
2.99209e-08
3.16182e-08
3.35659e-08
3.57011e-08
3.79657e-08
4.03066e-08
4.26756e-08
4.503e-08
4.73326e-08
4.9552e-08
5.16622e-08
5.36428e-08
5.54782e-08
5.71578e-08
5.86748e-08
6.00264e-08
6.12128e-08
6.22367e-08
6.31031e-08
6.38187e-08
6.43916e-08
6.48304e-08
6.51447e-08
6.53444e-08
6.54393e-08
6.51024e-08
6.71604e-08
7.00374e-08
7.35679e-08
7.76044e-08
8.20121e-08
8.6668e-08
9.14613e-08
9.62931e-08
1.01077e-07
1.05739e-07
1.10218e-07
1.14462e-07
1.18435e-07
1.22107e-07
1.25459e-07
1.28479e-07
1.31165e-07
1.33518e-07
1.35546e-07
1.37259e-07
1.38672e-07
1.39802e-07
1.40666e-07
1.41285e-07
1.41678e-07
1.41864e-07
1.47252e-07
1.51364e-07
1.57101e-07
1.64125e-07
1.72132e-07
1.80849e-07
1.90028e-07
1.99449e-07
2.08917e-07
2.18264e-07
2.27348e-07
2.36052e-07
2.44282e-07
2.51966e-07
2.59055e-07
2.65513e-07
2.71324e-07
2.76482e-07
2.80995e-07
2.84879e-07
2.88157e-07
2.90859e-07
2.93016e-07
2.94666e-07
2.95846e-07
2.96595e-07
2.9695e-07
3.19387e-07
3.27298e-07
3.38321e-07
3.51792e-07
3.67121e-07
3.83776e-07
4.0128e-07
4.1921e-07
4.37196e-07
4.54921e-07
4.7212e-07
4.88574e-07
5.04111e-07
5.186e-07
5.3195e-07
5.44101e-07
5.55023e-07
5.64711e-07
5.7318e-07
5.80463e-07
5.86606e-07
5.91665e-07
5.95703e-07
5.9879e-07
6.00996e-07
6.02395e-07
6.03059e-07
6.66154e-07
6.80985e-07
7.01638e-07
7.26861e-07
7.55541e-07
7.86678e-07
8.19378e-07
8.52849e-07
8.86403e-07
9.19451e-07
9.51498e-07
9.82143e-07
1.01107e-06
1.03803e-06
1.06287e-06
1.08546e-06
1.10577e-06
1.12378e-06
1.13952e-06
1.15305e-06
1.16446e-06
1.17386e-06
1.18136e-06
1.18709e-06
1.19119e-06
1.19378e-06
1.19502e-06
1.34123e-06
1.36863e-06
1.40678e-06
1.45339e-06
1.50641e-06
1.56399e-06
1.62449e-06
1.68647e-06
1.74865e-06
1.80994e-06
1.86944e-06
1.92639e-06
1.98021e-06
2.03044e-06
2.07676e-06
2.11897e-06
2.15694e-06
2.19066e-06
2.22017e-06
2.24557e-06
2.26702e-06
2.28471e-06
2.29884e-06
2.30966e-06
2.3174e-06
2.32231e-06
2.32464e-06
2.61199e-06
2.66213e-06
2.73205e-06
2.81758e-06
2.91503e-06
3.0211e-06
3.13283e-06
3.24758e-06
3.36304e-06
3.47722e-06
3.58844e-06
3.69528e-06
3.79662e-06
3.89157e-06
3.97948e-06
4.05989e-06
4.13253e-06
4.1973e-06
4.25421e-06
4.3034e-06
4.3451e-06
4.37961e-06
4.4073e-06
4.42856e-06
4.44383e-06
4.45355e-06
4.45818e-06
4.91525e-06
5.00583e-06
5.13233e-06
5.28743e-06
5.46465e-06
5.65816e-06
5.86275e-06
6.07371e-06
6.28691e-06
6.49873e-06
6.70603e-06
6.90617e-06
7.09697e-06
7.27666e-06
7.44388e-06
7.59763e-06
7.73725e-06
7.86235e-06
7.97283e-06
8.06879e-06
8.15053e-06
8.21849e-06
8.27325e-06
8.31549e-06
8.34595e-06
8.36543e-06
8.37475e-06
8.89699e-06
9.05478e-06
9.27544e-06
9.5464e-06
9.85661e-06
1.01961e-05
1.05558e-05
1.09277e-05
1.13046e-05
1.16799e-05
1.20482e-05
1.24047e-05
1.27454e-05
1.3067e-05
1.33671e-05
1.36435e-05
1.38951e-05
1.4121e-05
1.43209e-05
1.44948e-05
1.46432e-05
1.47668e-05
1.48665e-05
1.49436e-05
1.49993e-05
1.50349e-05
1.5052e-05
1.53505e-05
1.56055e-05
1.5962e-05
1.63994e-05
1.68998e-05
1.74469e-05
1.80259e-05
1.86237e-05
1.92285e-05
1.98299e-05
2.0419e-05
2.09882e-05
2.1531e-05
2.20424e-05
2.25185e-05
2.29563e-05
2.3354e-05
2.37103e-05
2.4025e-05
2.42983e-05
2.45312e-05
2.47248e-05
2.48809e-05
2.50012e-05
2.50881e-05
2.51436e-05
2.51702e-05
2.49379e-05
2.53067e-05
2.58212e-05
2.64506e-05
2.71682e-05
2.79495e-05
2.87729e-05
2.9619e-05
3.04708e-05
3.13136e-05
3.21351e-05
3.29247e-05
3.3674e-05
3.43766e-05
3.50274e-05
3.5623e-05
3.61615e-05
3.66418e-05
3.70642e-05
3.74296e-05
3.77397e-05
3.79966e-05
3.82029e-05
3.83616e-05
3.84757e-05
3.85484e-05
3.85832e-05
3.77767e-05
3.82475e-05
3.89021e-05
3.97e-05
4.06052e-05
4.15858e-05
4.26134e-05
4.3663e-05
4.47131e-05
4.57456e-05
4.67454e-05
4.77003e-05
4.8601e-05
4.94402e-05
5.02131e-05
5.09165e-05
5.15491e-05
5.21106e-05
5.2602e-05
5.30253e-05
5.3383e-05
5.36783e-05
5.39146e-05
5.40958e-05
5.42257e-05
5.43083e-05
5.43477e-05
5.32514e-05
5.37858e-05
5.45265e-05
5.54256e-05
5.64407e-05
5.75345e-05
5.86739e-05
5.9831e-05
6.09817e-05
6.21063e-05
6.3189e-05
6.42173e-05
6.51818e-05
6.60758e-05
6.68951e-05
6.76373e-05
6.83017e-05
6.88892e-05
6.94014e-05
6.9841e-05
7.02112e-05
7.05159e-05
7.07591e-05
7.0945e-05
7.1078e-05
7.11624e-05
7.12025e-05
7.01878e-05
7.07364e-05
7.14947e-05
7.24121e-05
7.3444e-05
7.4551e-05
7.56992e-05
7.68597e-05
7.80085e-05
7.91263e-05
8.01977e-05
8.12108e-05
8.21573e-05
8.30314e-05
8.38295e-05
8.45501e-05
8.51932e-05
8.57602e-05
8.62532e-05
8.66753e-05
8.70301e-05
8.73214e-05
8.75535e-05
8.77307e-05
8.78572e-05
8.79374e-05
8.79755e-05
8.72674e-05
8.77882e-05
8.85067e-05
8.93739e-05
9.03467e-05
9.13871e-05
9.24629e-05
9.35468e-05
9.46165e-05
9.5654e-05
9.66454e-05
9.75803e-05
9.84514e-05
9.92538e-05
9.99847e-05
0.000100643
0.00010123
0.000101746
0.000102194
0.000102577
0.000102899
0.000103163
0.000103372
0.000103532
0.000103647
0.000103719
0.000103753
0.000103391
0.000103857
0.000104499
0.000105273
0.00010614
0.000107065
0.00010802
0.000108979
0.000109925
0.00011084
0.000111712
0.000112534
0.000113298
0.000114001
0.00011464
0.000115215
0.000115727
0.000116177
0.000116567
0.0001169
0.000117179
0.000117408
0.000117591
0.000117729
0.000117828
0.000117891
0.000117921
0.000117825
0.000118224
0.000118773
0.000119434
0.000120174
0.000120962
0.000121774
0.00012259
0.000123392
0.000124168
0.000124906
0.000125601
0.000126246
0.000126839
0.000127378
0.000127863
0.000128293
0.000128672
0.000128999
0.000129279
0.000129514
0.000129706
0.000129859
0.000129975
0.000130058
0.000130111
0.000130136
0.000130191
0.00013052
0.000130973
0.000131518
0.000132127
0.000132776
0.000133443
0.000134113
0.000134771
0.000135407
0.000136012
0.00013658
0.000137108
0.000137592
0.000138032
0.000138427
0.000138778
0.000139086
0.000139353
0.000139581
0.000139772
0.000139928
0.000140052
0.000140147
0.000140214
0.000140257
0.000140277
0.00014038
0.000140643
0.000141004
0.000141439
0.000141925
0.000142442
0.000142973
0.000143506
0.000144029
0.000144534
0.000145014
0.000145464
0.000145882
0.000146265
0.000146613
0.000146926
0.000147203
0.000147446
0.000147657
0.000147836
0.000147987
0.00014811
0.000148208
0.000148282
0.000148335
0.000148369
0.000148385
0.000148461
0.000148665
0.000148944
0.00014928
0.000149654
0.000150052
0.000150462
0.000150871
0.000151273
0.00015166
0.000152028
0.000152373
0.000152693
0.000152985
0.000153251
0.000153489
0.0001537
0.000153886
0.000154046
0.000154182
0.000154297
0.00015439
0.000154464
0.000154521
0.000154561
0.000154587
0.000154599
0.000154607
0.000154758
0.000154966
0.000155215
0.000155492
0.000155787
0.000156089
0.000156391
0.000156687
0.000156972
0.000157242
0.000157495
0.000157728
0.000157942
0.000158136
0.00015831
0.000158464
0.000158598
0.000158714
0.000158814
0.000158896
0.000158964
0.000159018
0.000159059
0.000159088
0.000159106
0.000159115
0.000159038
0.000159144
0.00015929
0.000159464
0.000159658
0.000159864
0.000160075
0.000160285
0.00016049
0.000160687
0.000160874
0.000161048
0.000161208
0.000161355
0.000161487
0.000161605
0.00016171
0.000161801
0.00016188
0.000161947
0.000162003
0.000162049
0.000162085
0.000162112
0.000162132
0.000162144
0.00016215
0.000161985
0.000162053
0.000162147
0.000162259
0.000162383
0.000162514
0.000162647
0.00016278
0.000162909
0.000163032
0.000163147
0.000163255
0.000163354
0.000163443
0.000163524
0.000163596
0.000163659
0.000163713
0.000163761
0.000163801
0.000163834
0.000163861
0.000163882
0.000163898
0.00016391
0.000163917
0.00016392
0.000163674
0.000163711
0.000163761
0.000163821
0.000163886
0.000163955
0.000164024
0.000164092
0.000164157
0.000164218
0.000164275
0.000164327
0.000164374
0.000164417
0.000164454
0.000164487
0.000164515
0.00016454
0.000164561
0.000164578
0.000164592
0.000164604
0.000164613
0.00016462
0.000164624
0.000164627
0.000164629
0.000164313
0.000164324
0.000164338
0.000164354
0.000164372
0.000164389
0.000164405
0.000164419
0.000164431
0.000164442
0.00016445
0.000164457
0.000164461
0.000164464
0.000164466
0.000164467
0.000164467
0.000164466
0.000164466
0.000164464
0.000164463
0.000164462
0.00016446
0.000164459
0.000164459
0.000164458
0.000164458
0.000164085
0.000164075
0.00016406
0.000164041
0.000164018
0.000163993
0.000163966
0.000163936
0.000163906
0.000163874
0.000163843
0.000163812
0.000163782
0.000163753
0.000163726
0.000163701
0.000163678
0.000163657
0.000163638
0.000163622
0.000163607
0.000163596
0.000163586
0.000163579
0.000163574
0.00016357
0.000163569
0.000163151
0.000163123
0.000163085
0.000163037
0.000162983
0.000162924
0.000162861
0.000162796
0.00016273
0.000162666
0.000162602
0.000162541
0.000162483
0.000162428
0.000162377
0.000162331
0.000162289
0.000162251
0.000162218
0.00016219
0.000162165
0.000162145
0.000162129
0.000162117
0.000162108
0.000162102
0.000162099
0.000161649
0.000161607
0.000161549
0.000161479
0.000161399
0.000161312
0.000161221
0.000161128
0.000161034
0.000160942
0.000160853
0.000160768
0.000160687
0.000160612
0.000160542
0.000160479
0.000160422
0.000160371
0.000160327
0.000160288
0.000160256
0.000160229
0.000160207
0.000160191
0.000160179
0.000160171
0.000160168
0.000159693
0.000159641
0.000159568
0.000159479
0.000159379
0.00015927
0.000159157
0.000159041
0.000158925
0.000158812
0.000158703
0.000158598
0.0001585
0.000158408
0.000158324
0.000158247
0.000158178
0.000158117
0.000158063
0.000158017
0.000157978
0.000157946
0.00015792
0.000157901
0.000157887
0.000157878
0.000157873
0.000157384
0.000157322
0.000157238
0.000157135
0.000157018
0.000156893
0.000156762
0.000156628
0.000156496
0.000156366
0.00015624
0.000156121
0.000156009
0.000155904
0.000155808
0.000155721
0.000155643
0.000155574
0.000155513
0.000155461
0.000155417
0.000155381
0.000155352
0.00015533
0.000155314
0.000155304
0.000155299
0.000154801
0.000154733
0.000154639
0.000154525
0.000154396
0.000154258
0.000154113
0.000153966
0.00015382
0.000153678
0.00015354
0.000153409
0.000153287
0.000153172
0.000153068
0.000152973
0.000152888
0.000152812
0.000152746
0.00015269
0.000152642
0.000152603
0.000152571
0.000152547
0.00015253
0.000152519
0.000152514
0.000152012
0.00015194
0.000151839
0.000151716
0.000151579
0.00015143
0.000151276
0.000151119
0.000150963
0.000150811
0.000150664
0.000150525
0.000150394
0.000150273
0.000150162
0.000150061
0.000149971
0.000149891
0.000149821
0.000149761
0.00014971
0.000149669
0.000149635
0.00014961
0.000149592
0.00014958
0.000149575
0.000149075
0.000148998
0.000148892
0.000148764
0.00014862
0.000148464
0.000148302
0.000148138
0.000147976
0.000147816
0.000147663
0.000147518
0.000147382
0.000147255
0.00014714
0.000147035
0.000146941
0.000146858
0.000146785
0.000146723
0.00014667
0.000146627
0.000146592
0.000146566
0.000146547
0.000146535
0.000146529
0.000146034
0.000145955
0.000145846
0.000145713
0.000145564
0.000145404
0.000145237
0.000145068
0.000144901
0.000144737
0.00014458
0.00014443
0.00014429
0.000144161
0.000144042
0.000143934
0.000143838
0.000143752
0.000143678
0.000143614
0.00014356
0.000143516
0.00014348
0.000143453
0.000143434
0.000143422
0.000143416
0.000142928
0.000142848
0.000142736
0.000142601
0.00014245
0.000142286
0.000142117
0.000141945
0.000141774
0.000141608
0.000141448
0.000141296
0.000141154
0.000141022
0.000140901
0.000140792
0.000140694
0.000140608
0.000140532
0.000140467
0.000140413
0.000140368
0.000140332
0.000140305
0.000140285
0.000140273
0.000140267
0.000139789
0.000139707
0.000139595
0.000139459
0.000139305
0.000139141
0.00013897
0.000138796
0.000138624
0.000138457
0.000138295
0.000138143
0.000138
0.000137867
0.000137746
0.000137636
0.000137537
0.00013745
0.000137374
0.000137309
0.000137254
0.000137209
0.000137173
0.000137146
0.000137126
0.000137113
0.000137107
0.000136641
0.000136559
0.000136447
0.00013631
0.000136157
0.000135992
0.000135821
0.000135647
0.000135475
0.000135307
0.000135146
0.000134994
0.00013485
0.000134718
0.000134597
0.000134487
0.000134389
0.000134302
0.000134226
0.000134161
0.000134106
0.000134061
0.000134025
0.000133998
0.000133978
0.000133966
0.00013396
0.000133506
0.000133425
0.000133312
0.000133177
0.000133024
0.00013286
0.00013269
0.000132517
0.000132346
0.000132179
0.000132019
0.000131867
0.000131725
0.000131594
0.000131473
0.000131364
0.000131267
0.00013118
0.000131105
0.000131041
0.000130986
0.000130942
0.000130906
0.000130879
0.000130859
0.000130847
0.000130841
0.0001304
0.00013032
0.000130209
0.000130075
0.000129923
0.000129761
0.000129592
0.000129422
0.000129253
0.000129088
0.000128929
0.000128779
0.000128639
0.000128509
0.000128389
0.000128282
0.000128185
0.0001281
0.000128026
0.000127962
0.000127909
0.000127865
0.000127829
0.000127802
0.000127783
0.000127771
0.000127765
0.000127339
0.00012726
0.00012715
0.000127018
0.000126869
0.000126709
0.000126542
0.000126374
0.000126208
0.000126045
0.000125889
0.000125742
0.000125603
0.000125475
0.000125358
0.000125252
0.000125157
0.000125073
0.000125
0.000124938
0.000124885
0.000124842
0.000124807
0.00012478
0.000124762
0.00012475
0.000124744
0.000124332
0.000124254
0.000124147
0.000124017
0.000123871
0.000123714
0.00012355
0.000123386
0.000123222
0.000123063
0.00012291
0.000122765
0.000122629
0.000122504
0.000122389
0.000122285
0.000122192
0.00012211
0.000122038
0.000121977
0.000121925
0.000121883
0.000121849
0.000121823
0.000121804
0.000121792
0.000121787
0.00012139
0.000121314
0.000121209
0.000121082
0.000120939
0.000120785
0.000120626
0.000120464
0.000120304
0.000120149
0.000119999
0.000119857
0.000119725
0.000119602
0.00011949
0.000119388
0.000119298
0.000119217
0.000119147
0.000119087
0.000119037
0.000118995
0.000118962
0.000118937
0.000118919
0.000118907
0.000118902
0.000118521
0.000118447
0.000118344
0.00011822
0.000118081
0.000117931
0.000117775
0.000117618
0.000117462
0.00011731
0.000117165
0.000117026
0.000116897
0.000116778
0.000116668
0.00011657
0.000116481
0.000116403
0.000116335
0.000116277
0.000116227
0.000116187
0.000116155
0.00011613
0.000116112
0.000116101
0.000116096
0.000115731
0.000115659
0.000115559
0.000115438
0.000115303
0.000115157
0.000115006
0.000114853
0.000114701
0.000114554
0.000114412
0.000114278
0.000114153
0.000114037
0.00011393
0.000113834
0.000113748
0.000113673
0.000113607
0.00011355
0.000113502
0.000113463
0.000113432
0.000113408
0.000113391
0.00011338
0.000113374
0.000113026
0.000112956
0.000112859
0.000112742
0.000112611
0.000112469
0.000112323
0.000112175
0.000112028
0.000111885
0.000111748
0.000111618
0.000111496
0.000111384
0.000111281
0.000111188
0.000111105
0.000111032
0.000110968
0.000110913
0.000110866
0.000110829
0.000110798
0.000110775
0.000110758
0.000110748
0.000110743
0.000110411
0.000110343
0.00011025
0.000110137
0.00011001
0.000109873
0.000109732
0.000109588
0.000109447
0.000109309
0.000109176
0.000109051
0.000108933
0.000108825
0.000108725
0.000108636
0.000108555
0.000108485
0.000108423
0.00010837
0.000108325
0.000108289
0.000108259
0.000108237
0.000108221
0.000108211
0.000108206
0.000107891
0.000107826
0.000107736
0.000107627
0.000107504
0.000107373
0.000107236
0.000107099
0.000106962
0.000106829
0.000106702
0.000106581
0.000106468
0.000106363
0.000106268
0.000106182
0.000106104
0.000106036
0.000105977
0.000105926
0.000105883
0.000105848
0.00010582
0.000105798
0.000105783
0.000105773
0.000105768
0.000105471
0.000105408
0.000105322
0.000105217
0.000105099
0.000104973
0.000104842
0.00010471
0.000104579
0.000104452
0.000104329
0.000104213
0.000104105
0.000104005
0.000103913
0.000103831
0.000103756
0.000103691
0.000103634
0.000103585
0.000103544
0.000103511
0.000103484
0.000103463
0.000103448
0.000103439
0.000103435
0.000103155
0.000103095
0.000103012
0.000102912
0.000102799
0.000102679
0.000102554
0.000102427
0.000102302
0.00010218
0.000102063
0.000101953
0.000101849
0.000101754
0.000101666
0.000101587
0.000101516
0.000101454
0.0001014
0.000101353
0.000101314
0.000101282
0.000101256
0.000101236
0.000101222
0.000101213
0.000101209
0.000100947
0.00010089
0.000100812
0.000100716
0.000100609
0.000100495
0.000100376
0.000100255
0.000100136
0.00010002
9.9909e-05
9.98038e-05
9.97054e-05
9.96145e-05
9.95314e-05
9.94562e-05
9.93891e-05
9.93298e-05
9.92782e-05
9.92339e-05
9.91967e-05
9.91661e-05
9.91417e-05
9.9123e-05
9.91097e-05
9.91012e-05
9.90972e-05
9.88544e-05
9.88004e-05
9.87258e-05
9.86356e-05
9.85342e-05
9.84254e-05
9.83127e-05
9.81988e-05
9.80861e-05
9.79764e-05
9.78712e-05
9.77717e-05
9.76787e-05
9.75927e-05
9.75141e-05
9.74431e-05
9.73796e-05
9.73236e-05
9.72748e-05
9.7233e-05
9.71979e-05
9.71689e-05
9.71459e-05
9.71282e-05
9.71156e-05
9.71077e-05
9.71039e-05
9.68806e-05
9.68298e-05
9.67595e-05
9.66745e-05
9.6579e-05
9.64767e-05
9.63706e-05
9.62635e-05
9.61574e-05
9.60542e-05
9.59554e-05
9.58618e-05
9.57744e-05
9.56936e-05
9.56198e-05
9.5553e-05
9.54934e-05
9.54408e-05
9.5395e-05
9.53558e-05
9.53228e-05
9.52956e-05
9.5274e-05
9.52575e-05
9.52456e-05
9.52381e-05
9.52346e-05
9.50315e-05
9.49839e-05
9.49182e-05
9.48387e-05
9.47495e-05
9.46538e-05
9.45547e-05
9.44546e-05
9.43556e-05
9.42592e-05
9.41669e-05
9.40796e-05
9.39981e-05
9.39227e-05
9.38539e-05
9.37917e-05
9.37361e-05
9.36871e-05
9.36444e-05
9.36079e-05
9.35771e-05
9.35519e-05
9.35317e-05
9.35163e-05
9.35053e-05
9.34983e-05
9.3495e-05
9.33126e-05
9.32684e-05
9.32075e-05
9.31338e-05
9.30511e-05
9.29624e-05
9.28706e-05
9.27779e-05
9.26862e-05
9.2597e-05
9.25116e-05
9.24308e-05
9.23554e-05
9.22857e-05
9.22221e-05
9.21646e-05
9.21133e-05
9.20681e-05
9.20287e-05
9.19949e-05
9.19665e-05
9.19432e-05
9.19246e-05
9.19104e-05
9.19002e-05
9.18938e-05
9.18907e-05
9.17295e-05
9.16889e-05
9.16329e-05
9.15653e-05
9.14893e-05
9.1408e-05
9.13237e-05
9.12387e-05
9.11547e-05
9.1073e-05
9.09948e-05
9.09208e-05
9.08518e-05
9.07881e-05
9.07299e-05
9.06773e-05
9.06304e-05
9.05891e-05
9.05531e-05
9.05222e-05
9.04963e-05
9.0475e-05
9.0458e-05
9.04451e-05
9.04358e-05
9.04299e-05
9.04271e-05
9.02873e-05
9.02504e-05
9.01996e-05
9.01382e-05
9.00693e-05
8.99956e-05
8.99192e-05
8.98422e-05
8.97661e-05
8.96922e-05
8.96214e-05
8.95545e-05
8.94921e-05
8.94345e-05
8.9382e-05
8.93345e-05
8.92922e-05
8.92549e-05
8.92224e-05
8.91946e-05
8.91712e-05
8.9152e-05
8.91367e-05
8.91251e-05
8.91167e-05
8.91114e-05
8.91089e-05
8.89904e-05
8.89574e-05
8.89119e-05
8.8857e-05
8.87954e-05
8.87294e-05
8.86612e-05
8.85924e-05
8.85245e-05
8.84585e-05
8.83954e-05
8.83358e-05
8.82803e-05
8.8229e-05
8.81822e-05
8.814e-05
8.81024e-05
8.80692e-05
8.80404e-05
8.80157e-05
8.79949e-05
8.79779e-05
8.79643e-05
8.79539e-05
8.79465e-05
8.79418e-05
8.79396e-05
8.78421e-05
8.7813e-05
8.77729e-05
8.77246e-05
8.76704e-05
8.76124e-05
8.75524e-05
8.7492e-05
8.74324e-05
8.73746e-05
8.73193e-05
8.72671e-05
8.72184e-05
8.71736e-05
8.71327e-05
8.70958e-05
8.70629e-05
8.7034e-05
8.70088e-05
8.69873e-05
8.69692e-05
8.69543e-05
8.69425e-05
8.69334e-05
8.6927e-05
8.69229e-05
8.69209e-05
8.68435e-05
8.68184e-05
8.67838e-05
8.67421e-05
8.66953e-05
8.66453e-05
8.65937e-05
8.65417e-05
8.64904e-05
8.64407e-05
8.63932e-05
8.63484e-05
8.63067e-05
8.62683e-05
8.62333e-05
8.62017e-05
8.61736e-05
8.61488e-05
8.61273e-05
8.61089e-05
8.60935e-05
8.60808e-05
8.60707e-05
8.6063e-05
8.60575e-05
8.6054e-05
8.60524e-05
8.59937e-05
8.59725e-05
8.59433e-05
8.59081e-05
8.58687e-05
8.58266e-05
8.57832e-05
8.57395e-05
8.56964e-05
8.56547e-05
8.56149e-05
8.55774e-05
8.55425e-05
8.55104e-05
8.54811e-05
8.54548e-05
8.54314e-05
8.54107e-05
8.53928e-05
8.53775e-05
8.53646e-05
8.53541e-05
8.53457e-05
8.53393e-05
8.53347e-05
8.53318e-05
8.53304e-05
8.52886e-05
8.52712e-05
8.52472e-05
8.52183e-05
8.5186e-05
8.51516e-05
8.51161e-05
8.50804e-05
8.50453e-05
8.50113e-05
8.49789e-05
8.49485e-05
8.49201e-05
8.48941e-05
8.48704e-05
8.48491e-05
8.48302e-05
8.48135e-05
8.47991e-05
8.47867e-05
8.47764e-05
8.47679e-05
8.47611e-05
8.4756e-05
8.47523e-05
8.47499e-05
8.47488e-05
8.47209e-05
8.47071e-05
8.46881e-05
8.46652e-05
8.46396e-05
8.46123e-05
8.45842e-05
8.45561e-05
8.45284e-05
8.45016e-05
8.44762e-05
8.44522e-05
8.443e-05
8.44096e-05
8.43911e-05
8.43744e-05
8.43596e-05
8.43465e-05
8.43353e-05
8.43256e-05
8.43176e-05
8.43109e-05
8.43057e-05
8.43017e-05
8.42988e-05
8.4297e-05
8.42961e-05
8.4279e-05
8.42683e-05
8.42537e-05
8.42362e-05
8.42166e-05
8.41957e-05
8.41742e-05
8.41527e-05
8.41316e-05
8.41112e-05
8.40919e-05
8.40737e-05
8.40568e-05
8.40413e-05
8.40273e-05
8.40147e-05
8.40035e-05
8.39936e-05
8.39851e-05
8.39778e-05
8.39718e-05
8.39668e-05
8.39628e-05
8.39598e-05
8.39576e-05
8.39563e-05
8.39556e-05
8.39462e-05
8.39383e-05
8.39274e-05
8.39144e-05
8.38999e-05
8.38844e-05
8.38685e-05
8.38526e-05
8.38371e-05
8.3822e-05
8.38078e-05
8.37944e-05
8.3782e-05
8.37707e-05
8.37604e-05
8.37511e-05
8.37429e-05
8.37358e-05
8.37295e-05
8.37242e-05
8.37198e-05
8.37161e-05
8.37132e-05
8.3711e-05
8.37095e-05
8.37085e-05
8.3708e-05
8.37035e-05
8.36978e-05
8.369e-05
8.36806e-05
8.36702e-05
8.36591e-05
8.36477e-05
8.36363e-05
8.36251e-05
8.36144e-05
8.36042e-05
8.35946e-05
8.35858e-05
8.35777e-05
8.35703e-05
8.35638e-05
8.35579e-05
8.35528e-05
8.35484e-05
8.35446e-05
8.35414e-05
8.35389e-05
8.35368e-05
8.35352e-05
8.35341e-05
8.35334e-05
8.35331e-05
8.35314e-05
8.35274e-05
8.35219e-05
8.35153e-05
8.3508e-05
8.35002e-05
8.34922e-05
8.34842e-05
8.34763e-05
8.34688e-05
8.34616e-05
8.34549e-05
8.34487e-05
8.3443e-05
8.34379e-05
8.34333e-05
8.34292e-05
8.34256e-05
8.34225e-05
8.34198e-05
8.34176e-05
8.34158e-05
8.34143e-05
8.34133e-05
8.34125e-05
8.3412e-05
8.34117e-05
8.34115e-05
8.34087e-05
8.34049e-05
8.34003e-05
8.33952e-05
8.33897e-05
8.33841e-05
8.33785e-05
8.3373e-05
8.33678e-05
8.33628e-05
8.33581e-05
8.33537e-05
8.33497e-05
8.33461e-05
8.33429e-05
8.334e-05
8.33375e-05
8.33353e-05
8.33335e-05
8.33319e-05
8.33306e-05
8.33296e-05
8.33288e-05
8.33283e-05
8.33279e-05
8.33278e-05
8.33282e-05
8.33262e-05
8.33235e-05
8.33203e-05
8.33167e-05
8.33129e-05
8.33089e-05
8.3305e-05
8.33011e-05
8.32974e-05
8.32938e-05
8.32905e-05
8.32874e-05
8.32846e-05
8.3282e-05