/*--------------------------------*- C++ -*----------------------------------*\
| =========                 |                                                 |
| \\      /  F ield         | OpenFOAM: The Open Source CFD Toolbox           |
|  \\    /   O peration     | Version:  2106                                  |
|   \\  /    A nd           | Website:  www.openfoam.com                      |
|    \\/     M anipulation  |                                                 |
\*---------------------------------------------------------------------------*/
FoamFile
{
    version     2.0;
    format      ascii;
    arch        "LSB;label=32;scalar=64";
    class       volScalarField;
    location    "49.99987";
    object      I-C4H51;
}
// * * * * * * * * * * * * * * * * * * * * * * * * * * * * * * * * * * * * * //

dimensions      [0 0 0 0 0 0 0];

internalField   nonuniform List<scalar> 
3360
(
8.84824e-21
9.13302e-21
9.52931e-21
1.00141e-20
1.0567e-20
1.11702e-20
1.1807e-20
1.24627e-20
1.31243e-20
1.37799e-20
1.44197e-20
1.50349e-20
1.56186e-20
1.6165e-20
1.66701e-20
1.71306e-20
1.75449e-20
1.7912e-20
1.82323e-20
1.85065e-20
1.87364e-20
1.89242e-20
1.90725e-20
1.91844e-20
1.92631e-20
1.93121e-20
1.93348e-20
3.8817e-20
4.0244e-20
4.22576e-20
4.47652e-20
4.769e-20
5.0965e-20
5.45304e-20
5.83313e-20
6.23169e-20
6.64388e-20
7.0651e-20
7.49084e-20
7.91667e-20
8.33821e-20
8.75116e-20
9.15127e-20
9.5344e-20
9.89652e-20
1.02338e-19
1.05426e-19
1.08196e-19
1.10619e-19
1.1267e-19
1.14328e-19
1.1558e-19
1.16416e-19
1.16833e-19
1.21799e-19
1.27145e-19
1.34742e-19
1.44288e-19
1.55534e-19
1.68254e-19
1.82235e-19
1.97266e-19
2.13134e-19
2.29621e-19
2.46505e-19
2.63565e-19
2.80583e-19
2.97342e-19
3.13634e-19
3.2926e-19
3.44036e-19
3.57799e-19
3.70405e-19
3.81736e-19
3.91699e-19
4.00232e-19
4.07295e-19
4.12878e-19
4.16994e-19
4.19678e-19
4.20985e-19
3.54732e-19
3.72355e-19
3.97565e-19
4.2946e-19
4.67287e-19
5.1034e-19
5.57912e-19
6.09273e-19
6.63654e-19
7.2025e-19
7.78225e-19
8.36732e-19
8.94928e-19
9.51994e-19
1.00715e-18
1.05968e-18
1.10896e-18
1.15444e-18
1.19569e-18
1.23238e-18
1.26431e-18
1.29136e-18
1.31351e-18
1.33084e-18
1.34348e-18
1.35165e-18
1.35559e-18
1.03645e-18
1.09205e-18
1.17173e-18
1.27278e-18
1.39289e-18
1.52983e-18
1.68133e-18
1.84497e-18
2.01816e-18
2.1982e-18
2.38227e-18
2.56753e-18
2.75122e-18
2.93066e-18
3.10341e-18
3.26726e-18
3.42031e-18
3.56099e-18
3.68809e-18
3.80073e-18
3.8984e-18
3.98086e-18
4.04819e-18
4.10071e-18
4.13894e-18
4.16356e-18
4.17541e-18
3.05625e-18
3.22701e-18
3.47205e-18
3.78306e-18
4.15292e-18
4.57476e-18
5.04143e-18
5.54534e-18
6.07838e-18
6.63201e-18
7.19743e-18
7.7658e-18
8.32849e-18
8.87729e-18
9.4047e-18
9.90404e-18
1.03696e-17
1.07968e-17
1.1182e-17
1.15228e-17
1.18178e-17
1.20665e-17
1.22693e-17
1.24272e-17
1.2542e-17
1.26159e-17
1.26514e-17
9.07926e-18
9.59815e-18
1.03427e-17
1.12879e-17
1.24118e-17
1.36933e-17
1.51104e-17
1.66398e-17
1.82564e-17
1.99341e-17
2.16459e-17
2.33651e-17
2.50653e-17
2.6722e-17
2.83127e-17
2.98173e-17
3.12191e-17
3.25043e-17
3.36626e-17
3.46868e-17
3.55728e-17
3.63194e-17
3.6928e-17
3.74018e-17
3.77461e-17
3.79677e-17
3.80742e-17
2.70621e-17
2.86235e-17
3.08654e-17
3.3712e-17
3.70979e-17
4.09593e-17
4.52295e-17
4.98376e-17
5.47079e-17
5.97609e-17
6.49153e-17
7.00899e-17
7.52057e-17
8.01885e-17
8.49705e-17
8.9492e-17
9.37024e-17
9.7561e-17
1.01037e-16
1.04109e-16
1.06766e-16
1.09004e-16
1.10827e-16
1.12246e-16
1.13276e-16
1.13939e-16
1.14258e-16
8.08761e-17
8.55694e-17
9.23064e-17
1.00859e-16
1.11032e-16
1.22631e-16
1.35455e-16
1.49289e-16
1.63906e-16
1.79067e-16
1.94526e-16
2.10041e-16
2.25374e-16
2.40303e-16
2.54627e-16
2.68167e-16
2.80773e-16
2.92323e-16
3.02726e-16
3.11919e-16
3.19869e-16
3.26564e-16
3.32019e-16
3.36264e-16
3.39348e-16
3.41332e-16
3.42285e-16
2.41719e-16
2.55777e-16
2.75961e-16
3.01588e-16
3.32067e-16
3.6682e-16
4.05242e-16
4.46689e-16
4.90475e-16
5.35884e-16
5.8218e-16
6.28633e-16
6.74534e-16
7.19218e-16
7.62081e-16
8.02589e-16
8.40293e-16
8.74831e-16
9.05932e-16
9.33411e-16
9.57165e-16
9.77168e-16
9.9346e-16
1.00614e-15
1.01534e-15
1.02127e-15
1.02411e-15
7.22801e-16
7.64894e-16
8.25313e-16
9.02011e-16
9.93212e-16
1.09718e-15
1.21208e-15
1.33601e-15
1.46688e-15
1.60256e-15
1.74085e-15
1.87956e-15
2.01659e-15
2.14994e-15
2.27781e-15
2.39864e-15
2.51107e-15
2.61404e-15
2.70675e-15
2.78864e-15
2.85942e-15
2.91902e-15
2.96756e-15
3.00533e-15
3.03276e-15
3.0504e-15
3.05887e-15
2.15934e-15
2.28504e-15
2.46546e-15
2.69445e-15
2.96669e-15
3.27696e-15
3.61979e-15
3.9894e-15
4.37963e-15
4.78404e-15
5.19609e-15
5.60924e-15
6.01721e-15
6.4141e-15
6.79456e-15
7.15389e-15
7.48816e-15
7.79418e-15
8.0696e-15
8.31282e-15
8.52298e-15
8.69987e-15
8.84389e-15
8.95592e-15
9.03727e-15
9.08956e-15
9.11468e-15
6.44412e-15
6.81884e-15
7.35649e-15
8.03862e-15
8.84917e-15
9.77243e-15
1.0792e-14
1.18905e-14
1.30496e-14
1.425e-14
1.54723e-14
1.6697e-14
1.79056e-14
1.90807e-14
2.02065e-14
2.12691e-14
2.22571e-14
2.31612e-14
2.39745e-14
2.46924e-14
2.53125e-14
2.58343e-14
2.62589e-14
2.65892e-14
2.68289e-14
2.6983e-14
2.7057e-14
1.91764e-14
2.02884e-14
2.18834e-14
2.3906e-14
2.6308e-14
2.9042e-14
3.20591e-14
3.53071e-14
3.87311e-14
4.22741e-14
4.58783e-14
4.94865e-14
5.30439e-14
5.64994e-14
5.9807e-14
6.29265e-14
6.58243e-14
6.8474e-14
7.08558e-14
7.29567e-14
7.47702e-14
7.62952e-14
7.75357e-14
7.84999e-14
7.91995e-14
7.9649e-14
7.98648e-14
5.68618e-14
6.01438e-14
6.4848e-14
7.08083e-14
7.78794e-14
8.59191e-14
9.478e-14
1.04307e-13
1.14336e-13
1.24699e-13
1.35226e-13
1.45749e-13
1.5611e-13
1.66161e-13
1.75769e-13
1.84818e-13
1.93215e-13
2.00884e-13
2.07771e-13
2.13839e-13
2.19073e-13
2.23471e-13
2.27045e-13
2.29822e-13
2.31836e-13
2.33129e-13
2.33749e-13
1.67623e-13
1.77216e-13
1.90955e-13
2.08342e-13
2.28941e-13
2.52326e-13
2.78056e-13
3.0567e-13
3.34686e-13
3.64612e-13
3.94952e-13
4.25225e-13
4.54973e-13
4.83777e-13
5.11261e-13
5.37105e-13
5.61045e-13
5.82875e-13
6.02449e-13
6.19674e-13
6.3451e-13
6.46961e-13
6.57071e-13
6.64916e-13
6.706e-13
6.74246e-13
6.75995e-13
4.90328e-13
5.18006e-13
5.57593e-13
6.07608e-13
6.66747e-13
7.33735e-13
8.07266e-13
8.8598e-13
9.68476e-13
1.05333e-12
1.13913e-12
1.22452e-12
1.30821e-12
1.38904e-12
1.46598e-12
1.53816e-12
1.60488e-12
1.66559e-12
1.71992e-12
1.76765e-12
1.80868e-12
1.84307e-12
1.87096e-12
1.89257e-12
1.90821e-12
1.91823e-12
1.92303e-12
1.4192e-12
1.49759e-12
1.6095e-12
1.75057e-12
1.91695e-12
2.10484e-12
2.31042e-12
2.52976e-12
2.75885e-12
2.99366e-12
3.23027e-12
3.46493e-12
3.69416e-12
3.91484e-12
4.12425e-12
4.32014e-12
4.5007e-12
4.66458e-12
4.81089e-12
4.93912e-12
5.04917e-12
5.14121e-12
5.21571e-12
5.27336e-12
5.31503e-12
5.34171e-12
5.35447e-12
4.05086e-12
4.26738e-12
4.5758e-12
4.96345e-12
5.41902e-12
5.93154e-12
6.49002e-12
7.08331e-12
7.70026e-12
8.32989e-12
8.96159e-12
9.58545e-12
1.01924e-11
1.07744e-11
1.13247e-11
1.18377e-11
1.2309e-11
1.27354e-11
1.31151e-11
1.3447e-11
1.37311e-11
1.39683e-11
1.41599e-11
1.43079e-11
1.44147e-11
1.4483e-11
1.45157e-11
1.13528e-11
1.19317e-11
1.27541e-11
1.37839e-11
1.4989e-11
1.63385e-11
1.78016e-11
1.93481e-11
2.09479e-11
2.25722e-11
2.41938e-11
2.57874e-11
2.73306e-11
2.88039e-11
3.01911e-11
3.14792e-11
3.26583e-11
3.37217e-11
3.46656e-11
3.54884e-11
3.6191e-11
3.67761e-11
3.72478e-11
3.76116e-11
3.78736e-11
3.80409e-11
3.81207e-11
3.10829e-11
3.25696e-11
3.46746e-11
3.72995e-11
4.03563e-11
4.3761e-11
4.74318e-11
5.12893e-11
5.52571e-11
5.9263e-11
6.32401e-11
6.71284e-11
7.0875e-11
7.44353e-11
7.77728e-11
8.08592e-11
8.3674e-11
8.62039e-11
8.84423e-11
9.03881e-11
9.20454e-11
9.34223e-11
9.45301e-11
9.53827e-11
9.59959e-11
9.63868e-11
9.65732e-11
8.26612e-11
8.6302e-11
9.14384e-11
9.78149e-11
1.05202e-10
1.13383e-10
1.22152e-10
1.31312e-10
1.40679e-10
1.50081e-10
1.59365e-10
1.68393e-10
1.77049e-10
1.85237e-10
1.9288e-10
1.9992e-10
2.06317e-10
2.12047e-10
2.17102e-10
2.21484e-10
2.25208e-10
2.28294e-10
2.30773e-10
2.32677e-10
2.34044e-10
2.34915e-10
2.3533e-10
2.1234e-10
2.20799e-10
2.32692e-10
2.4739e-10
2.64331e-10
2.82989e-10
3.02874e-10
3.23527e-10
3.44526e-10
3.65491e-10
3.86083e-10
4.06011e-10
4.25031e-10
4.42944e-10
4.59599e-10
4.74885e-10
4.88729e-10
5.01093e-10
5.1197e-10
5.21377e-10
5.29352e-10
5.3595e-10
5.41238e-10
5.45296e-10
5.48205e-10
5.50055e-10
5.50935e-10
5.24554e-10
5.43182e-10
5.69286e-10
6.01416e-10
6.38275e-10
6.78671e-10
7.21501e-10
7.65757e-10
8.10531e-10
8.55014e-10
8.98506e-10
9.40414e-10
9.8025e-10
1.01763e-09
1.05226e-09
1.08395e-09
1.11257e-09
1.13806e-09
1.16044e-09
1.17974e-09
1.19608e-09
1.20958e-09
1.22038e-09
1.22865e-09
1.23458e-09
1.23835e-09
1.24014e-09
1.24368e-09
1.28271e-09
1.33727e-09
1.4042e-09
1.48067e-09
1.56414e-09
1.65226e-09
1.74292e-09
1.83426e-09
1.92465e-09
2.01269e-09
2.09722e-09
2.1773e-09
2.25222e-09
2.32144e-09
2.3846e-09
2.44151e-09
2.4921e-09
2.53642e-09
2.5746e-09
2.60686e-09
2.63347e-09
2.65474e-09
2.67102e-09
2.68267e-09
2.69007e-09
2.69358e-09
2.8332e-09
2.91202e-09
3.02198e-09
3.15654e-09
3.30988e-09
3.47675e-09
3.65241e-09
3.83263e-09
4.01369e-09
4.19239e-09
4.36601e-09
4.53234e-09
4.6896e-09
4.83643e-09
4.97186e-09
5.09525e-09
5.20626e-09
5.30481e-09
5.39103e-09
5.46523e-09
5.52786e-09
5.57946e-09
5.62068e-09
5.65221e-09
5.67475e-09
5.68905e-09
5.69584e-09
6.23173e-09
6.38908e-09
6.60845e-09
6.87673e-09
7.18228e-09
7.51457e-09
7.86416e-09
8.2226e-09
8.58251e-09
8.9375e-09
9.28219e-09
9.61215e-09
9.92386e-09
1.02146e-08
1.04826e-08
1.07264e-08
1.09455e-08
1.11397e-08
1.13093e-08
1.14551e-08
1.15779e-08
1.16789e-08
1.17595e-08
1.18209e-08
1.18648e-08
1.18925e-08
1.19057e-08
1.33599e-08
1.3682e-08
1.41319e-08
1.46831e-08
1.53125e-08
1.59989e-08
1.67233e-08
1.74686e-08
1.82197e-08
1.89633e-08
1.96882e-08
2.0385e-08
2.1046e-08
2.16651e-08
2.22381e-08
2.27617e-08
2.32341e-08
2.36545e-08
2.4023e-08
2.43404e-08
2.46084e-08
2.4829e-08
2.5005e-08
2.51391e-08
2.52348e-08
2.52952e-08
2.53238e-08
2.82078e-08
2.89033e-08
2.98788e-08
3.10814e-08
3.24647e-08
3.39866e-08
3.56087e-08
3.72956e-08
3.90146e-08
4.07358e-08
4.24326e-08
4.40814e-08
4.56627e-08
4.71614e-08
4.85671e-08
4.98727e-08
5.1072e-08
5.21594e-08
5.31295e-08
5.39771e-08
5.46978e-08
5.5288e-08
5.57454e-08
5.60691e-08
5.62597e-08
5.63538e-08
5.6387e-08
5.92645e-08
6.08302e-08
6.3027e-08
6.57351e-08
6.88469e-08
7.22634e-08
7.58937e-08
7.96444e-08
8.34069e-08
8.70515e-08
9.0424e-08
9.33456e-08
9.56146e-08
9.70097e-08
9.75838e-08
9.75501e-08
9.70785e-08
9.63071e-08
9.53494e-08
9.42985e-08
9.32313e-08
9.22104e-08
9.12862e-08
9.0499e-08
8.98799e-08
8.94524e-08
8.92332e-08
1.21373e-07
1.24421e-07
1.28479e-07
1.33033e-07
1.37458e-07
1.40965e-07
1.43398e-07
1.44971e-07
1.45805e-07
1.45988e-07
1.45596e-07
1.44709e-07
1.43408e-07
1.4178e-07
1.39916e-07
1.37902e-07
1.3582e-07
1.3374e-07
1.31723e-07
1.29822e-07
1.28078e-07
1.26527e-07
1.25196e-07
1.24108e-07
1.23278e-07
1.22718e-07
1.22434e-07
1.75824e-07
1.76932e-07
1.78305e-07
1.79716e-07
1.80969e-07
1.81925e-07
1.82514e-07
1.82722e-07
1.82561e-07
1.82063e-07
1.81268e-07
1.80225e-07
1.78983e-07
1.77591e-07
1.76097e-07
1.74545e-07
1.72977e-07
1.71431e-07
1.6994e-07
1.68535e-07
1.67245e-07
1.66093e-07
1.65101e-07
1.64283e-07
1.63653e-07
1.63223e-07
1.63004e-07
2.0257e-07
2.03496e-07
2.04699e-07
2.06034e-07
2.07382e-07
2.08647e-07
2.09763e-07
2.10686e-07
2.11391e-07
2.1187e-07
2.12123e-07
2.12161e-07
2.12e-07
2.1166e-07
2.11164e-07
2.10537e-07
2.09806e-07
2.08995e-07
2.08133e-07
2.0726e-07
2.06415e-07
2.05631e-07
2.04929e-07
2.04334e-07
2.03865e-07
2.0354e-07
2.03372e-07
2.2747e-07
2.28588e-07
2.30079e-07
2.31796e-07
2.33614e-07
2.35425e-07
2.37144e-07
2.38708e-07
2.40068e-07
2.41192e-07
2.42058e-07
2.42656e-07
2.42981e-07
2.43074e-07
2.42975e-07
2.42723e-07
2.42352e-07
2.41896e-07
2.41385e-07
2.40848e-07
2.40314e-07
2.39807e-07
2.39341e-07
2.38937e-07
2.38613e-07
2.38385e-07
2.38266e-07
2.54661e-07
2.55707e-07
2.57095e-07
2.58678e-07
2.60325e-07
2.61917e-07
2.63369e-07
2.64661e-07
2.65777e-07
2.66708e-07
2.67452e-07
2.68013e-07
2.68401e-07
2.68632e-07
2.68723e-07
2.68694e-07
2.68566e-07
2.6836e-07
2.68098e-07
2.678e-07
2.67487e-07
2.67176e-07
2.66887e-07
2.66636e-07
2.66429e-07
2.66281e-07
2.66201e-07
2.77402e-07
2.78095e-07
2.79019e-07
2.80084e-07
2.81211e-07
2.82336e-07
2.83411e-07
2.84403e-07
2.85288e-07
2.86052e-07
2.8669e-07
2.87201e-07
2.8759e-07
2.87863e-07
2.88032e-07
2.88109e-07
2.88107e-07
2.88041e-07
2.87924e-07
2.87772e-07
2.87598e-07
2.87416e-07
2.87239e-07
2.87078e-07
2.86944e-07
2.86847e-07
2.86795e-07
2.93437e-07
2.939e-07
2.94519e-07
2.95237e-07
2.96003e-07
2.96775e-07
2.97522e-07
2.98218e-07
2.98846e-07
2.99397e-07
2.99864e-07
3.00248e-07
3.00549e-07
3.00773e-07
3.00926e-07
3.01016e-07
3.01052e-07
3.01044e-07
3.00999e-07
3.00929e-07
3.00841e-07
3.00744e-07
3.00648e-07
3.00558e-07
3.00483e-07
3.00427e-07
3.00397e-07
3.03458e-07
3.0373e-07
3.04094e-07
3.04514e-07
3.04961e-07
3.05409e-07
3.0584e-07
3.06239e-07
3.06597e-07
3.06907e-07
3.07167e-07
3.07377e-07
3.0754e-07
3.07658e-07
3.07737e-07
3.0778e-07
3.07793e-07
3.07782e-07
3.07752e-07
3.07709e-07
3.07657e-07
3.07602e-07
3.07547e-07
3.07497e-07
3.07455e-07
3.07424e-07
3.07408e-07
3.07915e-07
3.08026e-07
3.08171e-07
3.08335e-07
3.08504e-07
3.08665e-07
3.08812e-07
3.08938e-07
3.09041e-07
3.09119e-07
3.09173e-07
3.09205e-07
3.09216e-07
3.0921e-07
3.0919e-07
3.09158e-07
3.09118e-07
3.09073e-07
3.09024e-07
3.08975e-07
3.08927e-07
3.08883e-07
3.08843e-07
3.08809e-07
3.08783e-07
3.08765e-07
3.08756e-07
3.07539e-07
3.07521e-07
3.0749e-07
3.07446e-07
3.07386e-07
3.07311e-07
3.07222e-07
3.0712e-07
3.07007e-07
3.06886e-07
3.0676e-07
3.06632e-07
3.06504e-07
3.06381e-07
3.06263e-07
3.06152e-07
3.0605e-07
3.05958e-07
3.05877e-07
3.05806e-07
3.05745e-07
3.05696e-07
3.05656e-07
3.05626e-07
3.05604e-07
3.0559e-07
3.05584e-07
3.0328e-07
3.03163e-07
3.02998e-07
3.02795e-07
3.02562e-07
3.02306e-07
3.02035e-07
3.01755e-07
3.01473e-07
3.01195e-07
3.00925e-07
3.00668e-07
3.00427e-07
3.00205e-07
3.00003e-07
2.99822e-07
2.99663e-07
2.99526e-07
2.99409e-07
2.99312e-07
2.99234e-07
2.99172e-07
2.99125e-07
2.99091e-07
2.99069e-07
2.99055e-07
2.99049e-07
2.96131e-07
2.95944e-07
2.95684e-07
2.95367e-07
2.95009e-07
2.94623e-07
2.9422e-07
2.93812e-07
2.93407e-07
2.93014e-07
2.92638e-07
2.92285e-07
2.91959e-07
2.91661e-07
2.91394e-07
2.91158e-07
2.90953e-07
2.90778e-07
2.90631e-07
2.9051e-07
2.90413e-07
2.90338e-07
2.90282e-07
2.90242e-07
2.90216e-07
2.902e-07
2.90194e-07
2.87003e-07
2.86769e-07
2.86445e-07
2.86053e-07
2.85612e-07
2.85139e-07
2.84648e-07
2.84154e-07
2.83667e-07
2.83196e-07
2.82748e-07
2.8233e-07
2.81944e-07
2.81594e-07
2.81281e-07
2.81005e-07
2.80766e-07
2.80562e-07
2.80391e-07
2.80251e-07
2.80139e-07
2.80052e-07
2.79987e-07
2.79941e-07
2.7991e-07
2.79893e-07
2.79886e-07
2.76657e-07
2.76395e-07
2.76032e-07
2.75595e-07
2.75103e-07
2.74578e-07
2.74034e-07
2.73488e-07
2.72951e-07
2.72433e-07
2.71941e-07
2.71482e-07
2.7106e-07
2.70677e-07
2.70335e-07
2.70033e-07
2.69771e-07
2.69548e-07
2.69361e-07
2.69207e-07
2.69084e-07
2.68988e-07
2.68916e-07
2.68864e-07
2.6883e-07
2.68811e-07
2.68802e-07
2.65688e-07
2.65411e-07
2.65029e-07
2.64569e-07
2.64052e-07
2.635e-07
2.62931e-07
2.62359e-07
2.61796e-07
2.61255e-07
2.60741e-07
2.60262e-07
2.5982e-07
2.5942e-07
2.59063e-07
2.58747e-07
2.58473e-07
2.58238e-07
2.58041e-07
2.57879e-07
2.57749e-07
2.57647e-07
2.57569e-07
2.57514e-07
2.57477e-07
2.57456e-07
2.57446e-07
2.54535e-07
2.54254e-07
2.53867e-07
2.534e-07
2.52876e-07
2.52317e-07
2.51741e-07
2.51162e-07
2.50593e-07
2.50045e-07
2.49526e-07
2.49041e-07
2.48594e-07
2.48189e-07
2.47826e-07
2.47506e-07
2.47227e-07
2.46988e-07
2.46787e-07
2.4662e-07
2.46486e-07
2.4638e-07
2.463e-07
2.46242e-07
2.46204e-07
2.4618e-07
2.4617e-07
2.43508e-07
2.4323e-07
2.42846e-07
2.42384e-07
2.41866e-07
2.41314e-07
2.40743e-07
2.40171e-07
2.39609e-07
2.39067e-07
2.38553e-07
2.38073e-07
2.37631e-07
2.37229e-07
2.36869e-07
2.36551e-07
2.36273e-07
2.36035e-07
2.35833e-07
2.35666e-07
2.35531e-07
2.35424e-07
2.35343e-07
2.35284e-07
2.35243e-07
2.3522e-07
2.35209e-07
2.3281e-07
2.32539e-07
2.32167e-07
2.31717e-07
2.31213e-07
2.30676e-07
2.30121e-07
2.29564e-07
2.29017e-07
2.2849e-07
2.27989e-07
2.27522e-07
2.2709e-07
2.26698e-07
2.26346e-07
2.26034e-07
2.25762e-07
2.25527e-07
2.25329e-07
2.25164e-07
2.2503e-07
2.24923e-07
2.24842e-07
2.24782e-07
2.24742e-07
2.24718e-07
2.24707e-07
2.22568e-07
2.22308e-07
2.21949e-07
2.21517e-07
2.21033e-07
2.20516e-07
2.19982e-07
2.19447e-07
2.1892e-07
2.18412e-07
2.1793e-07
2.1748e-07
2.17064e-07
2.16685e-07
2.16344e-07
2.16042e-07
2.15778e-07
2.1555e-07
2.15357e-07
2.15195e-07
2.15064e-07
2.14959e-07
2.14879e-07
2.1482e-07
2.14779e-07
2.14755e-07
2.14744e-07
2.12851e-07
2.12603e-07
2.12261e-07
2.11849e-07
2.11387e-07
2.10893e-07
2.10385e-07
2.09873e-07
2.09371e-07
2.08886e-07
2.08425e-07
2.07993e-07
2.07595e-07
2.07232e-07
2.06905e-07
2.06615e-07
2.0636e-07
2.06141e-07
2.05954e-07
2.05797e-07
2.05669e-07
2.05567e-07
2.05489e-07
2.05431e-07
2.05391e-07
2.05367e-07
2.05356e-07
2.03688e-07
2.03453e-07
2.03129e-07
2.02738e-07
2.023e-07
2.01832e-07
2.01349e-07
2.00863e-07
2.00386e-07
1.99925e-07
1.99487e-07
1.99076e-07
1.98697e-07
1.98351e-07
1.98039e-07
1.97761e-07
1.97518e-07
1.97307e-07
1.97127e-07
1.96976e-07
1.96853e-07
1.96754e-07
1.96678e-07
1.96621e-07
1.96582e-07
1.96558e-07
1.96547e-07
1.95084e-07
1.94862e-07
1.94555e-07
1.94186e-07
1.93772e-07
1.93329e-07
1.92872e-07
1.92413e-07
1.91961e-07
1.91525e-07
1.9111e-07
1.9072e-07
1.9036e-07
1.90031e-07
1.89734e-07
1.8947e-07
1.89238e-07
1.89036e-07
1.88864e-07
1.8872e-07
1.88601e-07
1.88506e-07
1.88432e-07
1.88377e-07
1.88339e-07
1.88315e-07
1.88305e-07
1.87022e-07
1.86813e-07
1.86524e-07
1.86176e-07
1.85785e-07
1.85368e-07
1.84937e-07
1.84504e-07
1.84077e-07
1.83664e-07
1.83272e-07
1.82904e-07
1.82563e-07
1.82251e-07
1.81969e-07
1.81718e-07
1.81497e-07
1.81305e-07
1.8114e-07
1.81002e-07
1.80888e-07
1.80797e-07
1.80726e-07
1.80673e-07
1.80636e-07
1.80613e-07
1.80603e-07
1.7948e-07
1.79283e-07
1.79011e-07
1.78683e-07
1.78315e-07
1.77922e-07
1.77516e-07
1.77108e-07
1.76705e-07
1.76316e-07
1.75945e-07
1.75597e-07
1.75275e-07
1.7498e-07
1.74713e-07
1.74475e-07
1.74264e-07
1.74082e-07
1.73925e-07
1.73793e-07
1.73684e-07
1.73597e-07
1.73528e-07
1.73477e-07
1.73441e-07
1.73419e-07
1.73409e-07
1.72427e-07
1.72242e-07
1.71986e-07
1.71677e-07
1.71331e-07
1.70961e-07
1.70579e-07
1.70194e-07
1.69814e-07
1.69447e-07
1.69098e-07
1.68769e-07
1.68464e-07
1.68185e-07
1.67932e-07
1.67706e-07
1.67507e-07
1.67333e-07
1.67184e-07
1.67058e-07
1.66954e-07
1.6687e-07
1.66805e-07
1.66756e-07
1.66721e-07
1.667e-07
1.6669e-07
1.6583e-07
1.65656e-07
1.65415e-07
1.65125e-07
1.64799e-07
1.64451e-07
1.64091e-07
1.63728e-07
1.63371e-07
1.63025e-07
1.62695e-07
1.62384e-07
1.62096e-07
1.61832e-07
1.61593e-07
1.61379e-07
1.6119e-07
1.61025e-07
1.60883e-07
1.60763e-07
1.60664e-07
1.60584e-07
1.60521e-07
1.60474e-07
1.60441e-07
1.6042e-07
1.60411e-07
1.59658e-07
1.59494e-07
1.59267e-07
1.58994e-07
1.58687e-07
1.58359e-07
1.5802e-07
1.57678e-07
1.57341e-07
1.57015e-07
1.56703e-07
1.5641e-07
1.56138e-07
1.55889e-07
1.55662e-07
1.55459e-07
1.5528e-07
1.55123e-07
1.54988e-07
1.54874e-07
1.5478e-07
1.54703e-07
1.54643e-07
1.54597e-07
1.54566e-07
1.54546e-07
1.54537e-07
1.53876e-07
1.53722e-07
1.53509e-07
1.53252e-07
1.52963e-07
1.52654e-07
1.52334e-07
1.52012e-07
1.51694e-07
1.51386e-07
1.51092e-07
1.50815e-07
1.50558e-07
1.50322e-07
1.50107e-07
1.49915e-07
1.49745e-07
1.49596e-07
1.49468e-07
1.49359e-07
1.49269e-07
1.49196e-07
1.49138e-07
1.49095e-07
1.49064e-07
1.49045e-07
1.49036e-07
1.48457e-07
1.48311e-07
1.48111e-07
1.47868e-07
1.47596e-07
1.47304e-07
1.47003e-07
1.46699e-07
1.46399e-07
1.46108e-07
1.4583e-07
1.45569e-07
1.45325e-07
1.45102e-07
1.44899e-07
1.44716e-07
1.44555e-07
1.44414e-07
1.44292e-07
1.44188e-07
1.44102e-07
1.44032e-07
1.43977e-07
1.43936e-07
1.43906e-07
1.43888e-07
1.43879e-07
1.4337e-07
1.43233e-07
1.43044e-07
1.42815e-07
1.42558e-07
1.42283e-07
1.41999e-07
1.41712e-07
1.41428e-07
1.41153e-07
1.40891e-07
1.40643e-07
1.40413e-07
1.40201e-07
1.40009e-07
1.39836e-07
1.39683e-07
1.39548e-07
1.39432e-07
1.39334e-07
1.39252e-07
1.39185e-07
1.39132e-07
1.39093e-07
1.39064e-07
1.39047e-07
1.39039e-07
1.38591e-07
1.38461e-07
1.38282e-07
1.38066e-07
1.37824e-07
1.37564e-07
1.37295e-07
1.37024e-07
1.36757e-07
1.36497e-07
1.36248e-07
1.36014e-07
1.35796e-07
1.35595e-07
1.35413e-07
1.35248e-07
1.35103e-07
1.34975e-07
1.34865e-07
1.34771e-07
1.34693e-07
1.34629e-07
1.34579e-07
1.34541e-07
1.34514e-07
1.34497e-07
1.34489e-07
1.34094e-07
1.33972e-07
1.33803e-07
1.33599e-07
1.3337e-07
1.33124e-07
1.3287e-07
1.32614e-07
1.3236e-07
1.32114e-07
1.31879e-07
1.31657e-07
1.3145e-07
1.3126e-07
1.31087e-07
1.30931e-07
1.30793e-07
1.30671e-07
1.30566e-07
1.30477e-07
1.30402e-07
1.30341e-07
1.30293e-07
1.30257e-07
1.30231e-07
1.30215e-07
1.30207e-07
1.29859e-07
1.29743e-07
1.29584e-07
1.29391e-07
1.29174e-07
1.28942e-07
1.28701e-07
1.28459e-07
1.28219e-07
1.27986e-07
1.27763e-07
1.27552e-07
1.27356e-07
1.27176e-07
1.27011e-07
1.26863e-07
1.26732e-07
1.26616e-07
1.26516e-07
1.26431e-07
1.2636e-07
1.26302e-07
1.26256e-07
1.26221e-07
1.26196e-07
1.2618e-07
1.26173e-07
1.25866e-07
1.25757e-07
1.25605e-07
1.25423e-07
1.25218e-07
1.24998e-07
1.2477e-07
1.2454e-07
1.24313e-07
1.24092e-07
1.2388e-07
1.23681e-07
1.23495e-07
1.23323e-07
1.23167e-07
1.23026e-07
1.22901e-07
1.22791e-07
1.22696e-07
1.22614e-07
1.22546e-07
1.22491e-07
1.22447e-07
1.22414e-07
1.2239e-07
1.22375e-07
1.22368e-07
1.22097e-07
1.21993e-07
1.2185e-07
1.21677e-07
1.21483e-07
1.21274e-07
1.21058e-07
1.2084e-07
1.20625e-07
1.20415e-07
1.20215e-07
1.20025e-07
1.19848e-07
1.19685e-07
1.19537e-07
1.19403e-07
1.19284e-07
1.19179e-07
1.19088e-07
1.19011e-07
1.18946e-07
1.18893e-07
1.18851e-07
1.18819e-07
1.18796e-07
1.18782e-07
1.18775e-07
1.18536e-07
1.18438e-07
1.18302e-07
1.18138e-07
1.17954e-07
1.17756e-07
1.17551e-07
1.17345e-07
1.1714e-07
1.16941e-07
1.1675e-07
1.1657e-07
1.16402e-07
1.16247e-07
1.16106e-07
1.15979e-07
1.15865e-07
1.15765e-07
1.15679e-07
1.15605e-07
1.15543e-07
1.15492e-07
1.15452e-07
1.15421e-07
1.154e-07
1.15386e-07
1.15379e-07
1.15169e-07
1.15076e-07
1.14947e-07
1.14792e-07
1.14617e-07
1.14429e-07
1.14235e-07
1.14038e-07
1.13844e-07
1.13655e-07
1.13474e-07
1.13303e-07
1.13143e-07
1.12995e-07
1.12861e-07
1.12739e-07
1.12631e-07
1.12536e-07
1.12453e-07
1.12383e-07
1.12324e-07
1.12275e-07
1.12237e-07
1.12208e-07
1.12187e-07
1.12174e-07
1.12167e-07
1.11983e-07
1.11895e-07
1.11773e-07
1.11625e-07
1.11459e-07
1.1128e-07
1.11096e-07
1.10909e-07
1.10724e-07
1.10544e-07
1.10372e-07
1.10209e-07
1.10057e-07
1.09917e-07
1.09789e-07
1.09673e-07
1.0957e-07
1.09479e-07
1.094e-07
1.09333e-07
1.09276e-07
1.0923e-07
1.09193e-07
1.09165e-07
1.09145e-07
1.09133e-07
1.09127e-07
1.08966e-07
1.08882e-07
1.08766e-07
1.08626e-07
1.08468e-07
1.08298e-07
1.08123e-07
1.07945e-07
1.07769e-07
1.07598e-07
1.07434e-07
1.07279e-07
1.07134e-07
1.07e-07
1.06878e-07
1.06768e-07
1.0667e-07
1.06583e-07
1.06508e-07
1.06443e-07
1.06389e-07
1.06345e-07
1.0631e-07
1.06283e-07
1.06264e-07
1.06252e-07
1.06246e-07
1.06108e-07
1.06028e-07
1.05918e-07
1.05784e-07
1.05634e-07
1.05472e-07
1.05305e-07
1.05136e-07
1.04969e-07
1.04806e-07
1.0465e-07
1.04502e-07
1.04364e-07
1.04236e-07
1.04119e-07
1.04014e-07
1.0392e-07
1.03837e-07
1.03765e-07
1.03704e-07
1.03652e-07
1.0361e-07
1.03576e-07
1.0355e-07
1.03532e-07
1.0352e-07
1.03515e-07
1.03398e-07
1.03322e-07
1.03217e-07
1.03089e-07
1.02946e-07
1.02793e-07
1.02634e-07
1.02472e-07
1.02313e-07
1.02158e-07
1.02009e-07
1.01868e-07
1.01736e-07
1.01614e-07
1.01502e-07
1.01402e-07
1.01312e-07
1.01233e-07
1.01164e-07
1.01105e-07
1.01056e-07
1.01015e-07
1.00983e-07
1.00958e-07
1.0094e-07
1.00929e-07
1.00924e-07
1.00827e-07
1.00755e-07
1.00654e-07
1.00533e-07
1.00397e-07
1.0025e-07
1.00098e-07
9.99448e-08
9.97925e-08
9.96442e-08
9.95019e-08
9.93672e-08
9.92411e-08
9.91246e-08
9.90182e-08
9.89219e-08
9.88359e-08
9.87601e-08
9.86941e-08
9.86376e-08
9.85901e-08
9.85511e-08
9.852e-08
9.84964e-08
9.84795e-08
9.84688e-08
9.84637e-08
9.83866e-08
9.83175e-08
9.82218e-08
9.81061e-08
9.79758e-08
9.7836e-08
9.76909e-08
9.7544e-08
9.73985e-08
9.72566e-08
9.71205e-08
9.69916e-08
9.6871e-08
9.67594e-08
9.66574e-08
9.65651e-08
9.64826e-08
9.64099e-08
9.63465e-08
9.62923e-08
9.62466e-08
9.62091e-08
9.61793e-08
9.61565e-08
9.61402e-08
9.61299e-08
9.6125e-08
9.60673e-08
9.60012e-08
9.59097e-08
9.5799e-08
9.56744e-08
9.55406e-08
9.54017e-08
9.52611e-08
9.51216e-08
9.49857e-08
9.48552e-08
9.47316e-08
9.46158e-08
9.45087e-08
9.44107e-08
9.4322e-08
9.42428e-08
9.41728e-08
9.41118e-08
9.40596e-08
9.40156e-08
9.39795e-08
9.39507e-08
9.39287e-08
9.3913e-08
9.3903e-08
9.38983e-08
9.38598e-08
9.37964e-08
9.37088e-08
9.36026e-08
9.34831e-08
9.33547e-08
9.32213e-08
9.30862e-08
9.29523e-08
9.28216e-08
9.26961e-08
9.25771e-08
9.24657e-08
9.23625e-08
9.22681e-08
9.21826e-08
9.21061e-08
9.20386e-08
9.19797e-08
9.19292e-08
9.18868e-08
9.18518e-08
9.1824e-08
9.18027e-08
9.17875e-08
9.17778e-08
9.17732e-08
9.17538e-08
9.16929e-08
9.16085e-08
9.15063e-08
9.13912e-08
9.12675e-08
9.11389e-08
9.10087e-08
9.08794e-08
9.07533e-08
9.06321e-08
9.05171e-08
9.04093e-08
9.03095e-08
9.02181e-08
9.01353e-08
9.00612e-08
8.99957e-08
8.99386e-08
8.98896e-08
8.98484e-08
8.98144e-08
8.97874e-08
8.97667e-08
8.97519e-08
8.97425e-08
8.9738e-08
8.97375e-08
8.96785e-08
8.95969e-08
8.9498e-08
8.93866e-08
8.92668e-08
8.91422e-08
8.90159e-08
8.88905e-08
8.8768e-08
8.86502e-08
8.85384e-08
8.84336e-08
8.83365e-08
8.82474e-08
8.81668e-08
8.80945e-08
8.80306e-08
8.79749e-08
8.79271e-08
8.78868e-08
8.78536e-08
8.78272e-08
8.78069e-08
8.77924e-08
8.77833e-08
8.77789e-08
8.77967e-08
8.77393e-08
8.76598e-08
8.75634e-08
8.74548e-08
8.73379e-08
8.72162e-08
8.70928e-08
8.69702e-08
8.68504e-08
8.67351e-08
8.66256e-08
8.65228e-08
8.64275e-08
8.63401e-08
8.62609e-08
8.61899e-08
8.61271e-08
8.60723e-08
8.60253e-08
8.59856e-08
8.5953e-08
8.59269e-08
8.5907e-08
8.58927e-08
8.58837e-08
8.58794e-08
8.59145e-08
8.58581e-08
8.57799e-08
8.56851e-08
8.55782e-08
8.5463e-08
8.53431e-08
8.52214e-08
8.51003e-08
8.4982e-08
8.4868e-08
8.47596e-08
8.46579e-08
8.45635e-08
8.44769e-08
8.43983e-08
8.43279e-08
8.42656e-08
8.42112e-08
8.41645e-08
8.41251e-08
8.40927e-08
8.40668e-08
8.4047e-08
8.40328e-08
8.40239e-08
8.40196e-08
8.40704e-08
8.40143e-08
8.39365e-08
8.38422e-08
8.37356e-08
8.36209e-08
8.35012e-08
8.33797e-08
8.32588e-08
8.31405e-08
8.30264e-08
8.29179e-08
8.2816e-08
8.27214e-08
8.26346e-08
8.25558e-08
8.24852e-08
8.24227e-08
8.23681e-08
8.23213e-08
8.22818e-08
8.22493e-08
8.22234e-08
8.22035e-08
8.21894e-08
8.21804e-08
8.21761e-08
8.22401e-08
8.21835e-08
8.21051e-08
8.20099e-08
8.19023e-08
8.17864e-08
8.16654e-08
8.15425e-08
8.142e-08
8.13001e-08
8.11845e-08
8.10744e-08
8.09711e-08
8.08751e-08
8.0787e-08
8.0707e-08
8.06354e-08
8.0572e-08
8.05167e-08
8.04692e-08
8.04293e-08
8.03964e-08
8.03702e-08
8.03502e-08
8.0336e-08
8.03269e-08
8.03226e-08
8.03965e-08
8.03387e-08
8.02584e-08
8.01609e-08
8.00508e-08
7.99319e-08
7.98078e-08
7.96816e-08
7.95558e-08
7.94327e-08
7.93138e-08
7.92007e-08
7.90945e-08
7.89958e-08
7.89053e-08
7.88233e-08
7.87498e-08
7.86849e-08
7.86283e-08
7.85798e-08
7.8539e-08
7.85056e-08
7.8479e-08
7.84588e-08
7.84443e-08
7.84352e-08
7.84309e-08
7.85106e-08
7.84505e-08
7.83671e-08
7.82656e-08
7.81508e-08
7.80268e-08
7.78973e-08
7.77653e-08
7.76336e-08
7.75044e-08
7.73797e-08
7.72609e-08
7.71491e-08
7.70453e-08
7.69501e-08
7.68638e-08
7.67866e-08
7.67184e-08
7.66591e-08
7.66085e-08
7.6566e-08
7.65313e-08
7.65037e-08
7.64828e-08
7.6468e-08
7.64587e-08
7.64544e-08
7.65385e-08
7.64738e-08
7.63839e-08
7.62743e-08
7.61499e-08
7.60148e-08
7.58728e-08
7.57269e-08
7.558e-08
7.5434e-08
7.52907e-08
7.51516e-08
7.50176e-08
7.4891e-08
7.47732e-08
7.46653e-08
7.45679e-08
7.44811e-08
7.44051e-08
7.43397e-08
7.42845e-08
7.42391e-08
7.42029e-08
7.41753e-08
7.41556e-08
7.41432e-08
7.41374e-08
7.43036e-08
7.42235e-08
7.41121e-08
7.39762e-08
7.38219e-08
7.36546e-08
7.3479e-08
7.32993e-08
7.31192e-08
7.29417e-08
7.27695e-08
7.26048e-08
7.24493e-08
7.23043e-08
7.21708e-08
7.20494e-08
7.19406e-08
7.18443e-08
7.17605e-08
7.16887e-08
7.16285e-08
7.15793e-08
7.15402e-08
7.15107e-08
7.14897e-08
7.14766e-08
7.14705e-08
7.16702e-08
7.15816e-08
7.14586e-08
7.13087e-08
7.11389e-08
7.09552e-08
7.07629e-08
7.05668e-08
7.0371e-08
7.01789e-08
6.99934e-08
6.98167e-08
6.96508e-08
6.9497e-08
6.93562e-08
6.92289e-08
6.91155e-08
6.90158e-08
6.89295e-08
6.88562e-08
6.87952e-08
6.87457e-08
6.87069e-08
6.86777e-08
6.86573e-08
6.86446e-08
6.86388e-08
6.88192e-08
6.87256e-08
6.85956e-08
6.84377e-08
6.8259e-08
6.80663e-08
6.78651e-08
6.76607e-08
6.74573e-08
6.72586e-08
6.70676e-08
6.68866e-08
6.67176e-08
6.65619e-08
6.64203e-08
6.62933e-08
6.6181e-08
6.60832e-08
6.59995e-08
6.59291e-08
6.58712e-08
6.58249e-08
6.5789e-08
6.57626e-08
6.57444e-08
6.57333e-08
6.57283e-08
6.58381e-08
6.57424e-08
6.56098e-08
6.5449e-08
6.52677e-08
6.50727e-08
6.487e-08
6.46649e-08
6.4462e-08
6.42648e-08
6.40765e-08
6.38994e-08
6.37354e-08
6.35856e-08
6.34507e-08
6.33312e-08
6.32268e-08
6.31372e-08
6.30616e-08
6.29992e-08
6.2949e-08
6.29097e-08
6.28801e-08
6.28589e-08
6.28449e-08
6.28367e-08
6.28332e-08
6.28143e-08
6.27204e-08
6.25906e-08
6.24337e-08
6.22575e-08
6.20688e-08
6.18739e-08
6.1678e-08
6.14854e-08
6.12999e-08
6.11244e-08
6.09611e-08
6.08117e-08
6.0677e-08
6.05576e-08
6.04536e-08
6.03645e-08
6.02898e-08
6.02285e-08
6.01795e-08
6.01414e-08
6.0113e-08
6.00928e-08
6.00793e-08
6.00711e-08
6.00669e-08
6.00654e-08
5.98539e-08
5.97662e-08
5.96453e-08
5.94998e-08
5.93371e-08
5.91641e-08
5.89865e-08
5.88095e-08
5.86371e-08
5.84728e-08
5.83193e-08
5.81784e-08
5.80514e-08
5.79391e-08
5.78417e-08
5.77589e-08
5.76902e-08
5.76346e-08
5.7591e-08
5.75581e-08
5.75344e-08
5.75185e-08
5.75088e-08
5.75037e-08
5.75019e-08
5.7502e-08
5.75026e-08
5.70465e-08
5.69673e-08
5.68585e-08
5.67277e-08
5.65821e-08
5.64278e-08
5.62701e-08
5.61136e-08
5.59622e-08
5.58189e-08
5.5686e-08
5.55652e-08
5.54576e-08
5.53637e-08
5.52837e-08
5.52171e-08
5.51633e-08