/*--------------------------------*- C++ -*----------------------------------*\
| =========                 |                                                 |
| \\      /  F ield         | OpenFOAM: The Open Source CFD Toolbox           |
|  \\    /   O peration     | Version:  2106                                  |
|   \\  /    A nd           | Website:  www.openfoam.com                      |
|    \\/     M anipulation  |                                                 |
\*---------------------------------------------------------------------------*/
FoamFile
{
    version     2.0;
    format      ascii;
    arch        "LSB;label=32;scalar=64";
    class       surfaceScalarField;
    location    "49.99987";
    object      phi_0;
}
// * * * * * * * * * * * * * * * * * * * * * * * * * * * * * * * * * * * * * //

dimensions      [1 0 -1 0 0 0 0];

oriented        oriented;

internalField   nonuniform List<scalar> 
6572
(
-1.49016e-10
4.14368e-10
3.9014e-11
-3.19768e-10
6.41475e-10
-5.42005e-10
8.33295e-10
-8.06998e-10
9.93392e-10
-1.10614e-09
1.1246e-09
-1.43071e-09
1.22921e-09
-1.77176e-09
1.30918e-09
-2.12011e-09
1.36618e-09
-2.46641e-09
1.40179e-09
-2.80131e-09
1.41753e-09
-3.11553e-09
1.41484e-09
-3.39983e-09
1.39499e-09
-3.64563e-09
1.3597e-09
-3.845e-09
1.31059e-09
-3.99059e-09
1.2491e-09
-4.07577e-09
1.17669e-09
-4.09467e-09
1.09482e-09
-4.0423e-09
1.00492e-09
-3.9146e-09
9.08466e-10
-3.70848e-09
8.0689e-10
-3.42184e-09
7.01579e-10
-3.05351e-09
5.93809e-10
-2.60316e-09
4.84743e-10
-2.07124e-09
3.75428e-10
-1.45891e-09
2.66798e-10
-7.6791e-10
1.59652e-10
5.41827e-11
-1.01075e-10
4.88334e-10
2.71081e-11
-2.11691e-10
7.52091e-10
-3.48561e-10
9.70165e-10
-5.0133e-10
1.14616e-09
-6.60091e-10
1.28336e-09
-8.15662e-10
1.38478e-09
-9.59847e-10
1.45336e-09
-1.08565e-09
1.49199e-09
-1.18743e-09
1.50357e-09
-1.26109e-09
1.4912e-09
-1.30524e-09
1.459e-09
-1.31962e-09
1.40937e-09
-1.30471e-09
1.34479e-09
-1.26188e-09
1.26776e-09
-1.19352e-09
1.18075e-09
-1.10293e-09
1.0861e-09
-9.94158e-10
9.86043e-10
-8.71837e-10
8.82603e-10
-7.41005e-10
7.77634e-10
-6.06888e-10
6.72772e-10
-4.74749e-10
5.6944e-10
-3.49782e-10
4.68841e-10
-2.37007e-10
3.71969e-10
-1.41284e-10
2.79705e-10
-6.70888e-11
1.92603e-10
-1.84958e-11
1.11059e-10
3.56869e-11
-8.01559e-11
5.47295e-10
2.11955e-11
-1.66985e-10
8.3892e-10
-2.71333e-10
1.07451e-09
-3.83416e-10
1.25824e-09
-4.94524e-10
1.39446e-09
-5.97332e-10
1.48759e-09
-6.8631e-10
1.54234e-09
-7.57612e-10
1.56329e-09
-8.09001e-10
1.55496e-09
-8.39541e-10
1.52174e-09
-8.48427e-10
1.46788e-09
-8.36404e-10
1.39735e-09
-8.05115e-10
1.3135e-09
-7.56917e-10
1.21956e-09
-6.94768e-10
1.1186e-09
-6.22042e-10
1.01338e-09
-5.42324e-10
9.06325e-10
-4.59213e-10
7.99492e-10
-3.76156e-10
6.94576e-10
-2.9628e-10
5.92897e-10
-2.22318e-10
4.95478e-10
-1.56571e-10
4.03094e-10
-1.00898e-10
3.16296e-10
-5.66405e-11
2.35447e-10
-2.47816e-11
1.60744e-10
-5.97432e-12
9.22514e-11
2.97126e-11
-3.7732e-11
5.74607e-10
1.042e-11
-7.68874e-11
8.78075e-10
-1.22644e-10
1.12027e-09
-1.70034e-10
1.30563e-09
-2.14789e-10
1.43922e-09
-2.53656e-10
1.52646e-09
-2.8426e-10
1.57294e-09
-3.05237e-10
1.58427e-09
-3.16084e-10
1.5658e-09
-3.17025e-10
1.52268e-09
-3.08901e-10
1.45976e-09
-2.92942e-10
1.38139e-09
-2.70853e-10
1.29141e-09
-2.44499e-10
1.19321e-09
-2.15642e-10
1.08974e-09
-1.85823e-10
9.83558e-10
-1.56314e-10
8.76817e-10
-1.28113e-10
7.71292e-10
-1.01953e-10
6.68417e-10
-7.83731e-11
5.69317e-10
-5.77402e-11
4.74845e-10
-4.02677e-11
3.85621e-10
-2.60332e-11
3.02062e-10
-1.50032e-11
2.24417e-10
-7.0572e-12
1.52798e-10
-2.00718e-12
8.72014e-11
2.77054e-11
-1.90954e-11
5.88723e-10
4.9786e-12
-3.92478e-11
8.98228e-10
-6.21793e-11
1.1432e-09
-8.51093e-11
1.32856e-09
-1.05965e-10
1.46008e-09
-1.23397e-10
1.54389e-09
-1.36566e-10
1.58611e-09
-1.45089e-10
1.59279e-09
-1.48986e-10
1.5697e-09
-1.48566e-10
1.52226e-09
-1.44244e-10
1.45543e-09
-1.36559e-10
1.3737e-09
-1.26174e-10
1.28102e-09
-1.13821e-10
1.18085e-09
-1.00231e-10
1.07615e-09
-8.60851e-11
9.69412e-10
-7.19793e-11
8.62711e-10
-5.84135e-11
7.57726e-10
-4.57894e-11
6.55793e-10
-3.4415e-11
5.57942e-10
-2.45124e-11
4.64943e-10
-1.62281e-11
3.77337e-10
-9.64453e-12
2.95478e-10
-4.79051e-12
2.19563e-10
-1.65184e-12
1.49659e-10
-1.80445e-13
8.573e-11
2.7525e-11
-9.34702e-12
5.95356e-10
2.71398e-12
-1.84064e-11
9.07287e-10
-2.83929e-11
1.15319e-09
-3.79761e-11
1.33815e-09
-4.61658e-11
1.46827e-09
-5.23611e-11
1.55009e-09
-5.62981e-11
1.59005e-09
-5.79708e-11
1.59446e-09
-5.75648e-11
1.56929e-09
-5.5394e-11
1.52009e-09
-5.18384e-11
1.45188e-09
-4.72966e-11
1.36916e-09
-4.215e-11
1.27588e-09
-3.67389e-11
1.17544e-09
-3.13475e-11
1.07076e-09
-2.61969e-11
9.64262e-10
-2.1445e-11
8.57959e-10
-1.71912e-11
7.53472e-10
-1.34841e-11
6.52086e-10
-1.03311e-11
5.5479e-10
-7.70788e-12
4.6232e-10
-5.56741e-12
3.75196e-10
-3.84779e-12
2.93759e-10
-2.47914e-12
2.18195e-10
-1.3891e-12
1.48569e-10
-5.06901e-13
8.48478e-11
2.70181e-11
-4.77938e-12
5.98969e-10
1.16665e-12
-1.01048e-11
9.12613e-10
-1.63414e-11
1.15942e-09
-2.27677e-11
1.34457e-09
-2.87458e-11
1.47424e-09
-3.37308e-11
1.55507e-09
-3.7422e-11
1.59374e-09
-3.97074e-11
1.59675e-09
-4.06147e-11
1.5702e-09
-4.02655e-11
1.51974e-09
-3.88374e-11
1.45045e-09
-3.65345e-11
1.36686e-09
-3.3567e-11
1.27291e-09
-3.0137e-11
1.17201e-09
-2.64301e-11
1.06705e-09
-2.26112e-11
9.60443e-10
-1.88227e-11
8.5417e-10
-1.51849e-11
7.49834e-10
-1.17971e-11
6.48698e-10
-8.73969e-12
5.51732e-10
-6.07596e-12
4.59656e-10
-3.85386e-12
3.72974e-10
-2.10779e-12
2.92012e-10
-8.60174e-13
2.16947e-10
-1.22805e-13
1.47832e-10
1.01799e-13
8.46232e-11
2.71199e-11
-1.83369e-12
6.00209e-10
5.9357e-13
-3.46922e-12
9.14248e-10
-5.2537e-12
1.16121e-09
-6.93991e-12
1.34626e-09
-8.32759e-12
1.47563e-09
-9.28521e-12
1.55603e-09
-9.75973e-12
1.59422e-09
-9.7658e-12
1.59675e-09
-9.36685e-12
1.5698e-09
-8.65492e-12
1.51903e-09
-7.73281e-12
1.44953e-09
-6.70053e-12
1.36582e-09
-5.64606e-12
1.27185e-09
-4.63996e-12
1.171e-09
-3.73319e-12
1.06614e-09
-2.95719e-12
9.59667e-10
-2.32559e-12
8.53539e-10
-1.83678e-12
7.49345e-10
-1.47701e-12
6.48338e-10
-1.22353e-12
5.51479e-10
-1.04763e-12
4.5948e-10
-9.17379e-13
3.72844e-10
-7.99867e-13
2.91895e-10
-6.6316e-13
2.1681e-10
-4.7774e-13
1.47646e-10
-2.17512e-13
8.4363e-11
2.69024e-11
-1.81905e-12
6.01608e-10
4.20677e-13
-3.8854e-12
9.16314e-10
-6.28179e-12
1.16361e-09
-8.72393e-12
1.3487e-09
-1.0987e-11
1.47789e-09
-1.291e-11
1.55795e-09
-1.43932e-11
1.5957e-09
-1.53902e-11
1.59775e-09
-1.58966e-11
1.57031e-09
-1.59389e-11
1.51907e-09
-1.55638e-11
1.44915e-09
-1.48309e-11
1.36509e-09
-1.38058e-11
1.27083e-09
-1.25564e-11
1.16976e-09
-1.11492e-11
1.06474e-09
-9.6483e-12
9.58166e-10
-8.11327e-12
8.52004e-10
-6.59891e-12
7.47831e-10
-5.1546e-12
6.46894e-10
-3.82392e-12
5.50148e-10
-2.64456e-12
4.58301e-10
-1.64818e-12
3.71848e-10
-8.60416e-13
2.91107e-10
-3.01051e-13
2.16251e-10
1.58547e-14
1.4733e-10
8.1605e-14
8.42972e-11
2.6984e-11
-6.66353e-13
6.02037e-10
2.3712e-13
-1.20544e-12
9.16853e-10
-1.78038e-12
1.16418e-09
-2.31255e-12
1.34923e-09
-2.74018e-12
1.47832e-09
-3.0257e-12
1.55824e-09
-3.15579e-12
1.59583e-09
-3.13741e-12
1.59773e-09
-2.99213e-12
1.57016e-09
-2.75015e-12
1.51883e-09
-2.44507e-12
1.44885e-09
-2.1097e-12
1.36476e-09
-1.77304e-12
1.27049e-09
-1.45847e-12
1.16944e-09
-1.18271e-12
1.06446e-09
-9.55702e-13
9.57939e-10
-7.80963e-13
8.51829e-10
-6.56276e-13
7.47706e-10
-5.74679e-13
6.46812e-10
-5.25568e-13
5.50099e-10
-4.95829e-13
4.58271e-10
-4.70903e-13
3.71823e-10
-4.35751e-13
2.91072e-10
-3.75683e-13
2.16191e-10
-2.77035e-13
1.47231e-10
-1.27663e-13
8.41479e-11
2.68563e-11
-1.0143e-12
6.0282e-10
2.31191e-13
-2.1821e-12
9.18021e-10
-3.55177e-12
1.16555e-09
-4.97032e-12
1.35065e-09
-6.31515e-12
1.47967e-09
-7.49516e-12
1.55942e-09
-8.44908e-12
1.59678e-09
-9.14179e-12
1.59842e-09
-9.55995e-12
1.57058e-09
-9.7073e-12
1.51898e-09
-9.60047e-12
1.44874e-09
-9.26535e-12
1.36442e-09
-8.73408e-12
1.26996e-09
-8.04267e-12
1.16875e-09
-7.22909e-12
1.06365e-09
-6.33184e-12
9.57042e-10
-5.38848e-12
8.50886e-10
-4.43629e-12
7.46754e-10
-3.51028e-12
6.45886e-10
-2.64257e-12
5.49231e-10
-1.86169e-12
4.5749e-10
-1.19205e-12
3.71153e-10
-6.53713e-13
2.90534e-10
-2.62342e-13
2.15799e-10
-2.92689e-14
1.46998e-10
3.82768e-14
8.40803e-11
2.68946e-11
-6.34761e-13
6.0325e-10
2.05162e-13
-1.21479e-12
9.18601e-10
-1.87556e-12
1.16621e-09
-2.54425e-12
1.35132e-09
-3.15897e-12
1.48028e-09
-3.67411e-12
1.55993e-09
-4.06136e-12
1.59717e-09
-4.30828e-12
1.59867e-09
-4.41559e-12
1.57069e-09
-4.39391e-12
1.51895e-09
-4.26056e-12
1.44861e-09
-4.03664e-12
1.3642e-09
-3.74458e-12
1.26967e-09
-3.40625e-12
1.16841e-09
-3.04159e-12
1.06328e-09
-2.66773e-12
9.56668e-10
-2.29916e-12
8.50517e-10
-1.94588e-12
7.46401e-10
-1.61617e-12
6.45556e-10
-1.31529e-12
5.4893e-10
-1.04559e-12
4.5722e-10
-8.06874e-13
3.70914e-10
-5.96831e-13
2.90324e-10
-4.11574e-13
2.15614e-10
-2.46133e-13
1.46832e-10
-9.49087e-14
8.39291e-11
2.67997e-11
-1.62056e-12
6.04459e-10
4.10814e-13
-3.39532e-12
9.20376e-10
-5.48507e-12
1.1683e-09
-7.66552e-12
1.3535e-09
-9.74771e-12
1.48236e-09
-1.15841e-11
1.56177e-09
-1.30698e-11
1.59866e-09
-1.41412e-11
1.59974e-09
-1.47706e-11
1.57132e-09
-1.49617e-11
1.51914e-09
-1.47427e-11
1.44839e-09
-1.41602e-11
1.36361e-09
-1.32735e-11
1.26878e-09
-1.21489e-11
1.16729e-09
-1.08552e-11
1.06199e-09
-9.46023e-12
9.55273e-10
-8.02715e-12
8.49084e-10
-6.6127e-12
7.44986e-10
-5.26376e-12
6.44207e-10
-4.01903e-12
5.47686e-10
-2.90964e-12
4.56111e-10
-1.95973e-12
3.69964e-10
-1.18706e-12
2.89551e-10
-6.03632e-13
2.15031e-10
-2.16306e-13
1.46445e-10
-2.74447e-14
8.37402e-11
2.67723e-11
-1.76215e-12
6.05727e-10
4.94473e-13
-3.56724e-12
9.22181e-10
-5.66768e-12
1.1704e-09
-7.83364e-12
1.35567e-09
-9.86967e-12
1.4844e-09
-1.16255e-11
1.56352e-09
-1.29989e-11
1.60003e-09
-1.3934e-11
1.60068e-09
-1.44151e-11
1.5718e-09
-1.44602e-11
1.51919e-09
-1.41123e-11
1.44804e-09
-1.34307e-11
1.36293e-09
-1.24838e-11
1.26784e-09
-1.13425e-11
1.16614e-09
-1.0076e-11
1.06072e-09
-8.74856e-12
9.53945e-10
-7.41679e-12
8.47752e-10
-6.12748e-12
7.43697e-10
-4.91784e-12
6.42998e-10
-3.81587e-12
5.46584e-10
-2.84116e-12
4.55136e-10
-2.00599e-12
3.69129e-10
-1.31636e-12
2.88861e-10
-7.73115e-13
2.14487e-10
-3.72978e-13
1.46045e-10
-1.09507e-13
8.34767e-11
2.66627e-11
-2.8917e-12
6.07856e-10
7.6317e-13
-5.99338e-12
9.25282e-10
-9.65698e-12
1.17406e-09
-1.35039e-11
1.35951e-09
-1.72112e-11
1.48811e-09
-2.05235e-11
1.56684e-09
-2.32566e-11
1.60276e-09
-2.52943e-11
1.60271e-09
-2.65811e-11
1.57309e-09
-2.71128e-11
1.51972e-09
-2.69264e-11
1.44786e-09
-2.60901e-11
1.3621e-09
-2.46952e-11
1.26644e-09
-2.28464e-11
1.1643e-09
-2.06548e-11
1.05853e-09
-1.82322e-11
9.51523e-10
-1.56858e-11
8.45206e-10
-1.31166e-11
7.41128e-10
-1.0616e-11
6.40497e-10
-8.26422e-12
5.44232e-10
-6.12835e-12
4.53e-10
-4.26242e-12
3.67263e-10
-2.70754e-12
2.87306e-10
-1.49266e-12
2.13273e-10
-6.35648e-13
1.45188e-10
-1.44597e-13
8.29857e-11
2.65182e-11
-3.68465e-12
6.10536e-10
1.00445e-12
-7.54556e-12
9.29143e-10
-1.20747e-11
1.17859e-09
-1.67926e-11
1.36423e-09
-2.12904e-11
1.49261e-09
-2.52488e-11
1.57079e-09
-2.84434e-11
1.60596e-09
-3.07407e-11
1.60501e-09
-3.20872e-11
1.57443e-09
-3.24964e-11
1.52013e-09
-3.20334e-11
1.44739e-09
-3.08017e-11
1.36087e-09
-2.89295e-11
1.26457e-09
-2.65581e-11
1.16192e-09
-2.38317e-11
1.0558e-09
-2.08898e-11
9.48581e-10
-1.78612e-11
8.42177e-10
-1.48608e-11
7.38127e-10
-1.19869e-11
6.37623e-10
-9.32067e-12
5.41566e-10
-6.92601e-12
4.50606e-10
-4.85056e-12
3.65188e-10
-3.12708e-12
2.85583e-10
-1.77513e-12
2.11921e-10
-8.0291e-13
1.44216e-10
-2.09138e-13
8.23919e-11
2.6309e-11
-4.72607e-12
6.13998e-10
1.26416e-12
-9.71914e-12
9.34136e-10
-1.55472e-11
1.18442e-09
-2.15714e-11
1.37026e-09
-2.72568e-11
1.49829e-09
-3.21951e-11
1.57573e-09
-3.61089e-11
1.60987e-09
-3.88435e-11
1.60775e-09
-4.03506e-11
1.57594e-09
-4.06678e-11
1.52045e-09
-3.98977e-11
1.44662e-09
-3.81866e-11
1.35915e-09
-3.57062e-11
1.26209e-09
-3.26385e-11
1.15886e-09
-2.91652e-11
1.05233e-09
-2.5458e-11
9.44874e-10
-2.16736e-11
8.38393e-10
-1.79496e-11
7.34403e-10
-1.44029e-11
6.34077e-10
-1.11292e-11
5.38292e-10
-8.204e-12
4.4768e-10
-5.68331e-12
3.62667e-10
-3.60599e-12
2.83506e-10
-1.99546e-12
2.1031e-10
-8.61855e-13
1.43082e-10
-2.04115e-13
8.17342e-11
2.61049e-11
-5.53903e-12
6.18032e-10
1.50439e-12
-1.13153e-11
9.39913e-10
-1.80165e-11
1.19112e-09
-2.48927e-11
1.37713e-09
-3.13225e-11
1.50472e-09
-3.6841e-11
1.58125e-09
-4.11425e-11
1.61417e-09
-4.40683e-11
1.61067e-09
-4.55833e-11
1.57745e-09
-4.57503e-11
1.52061e-09
-4.47025e-11
1.44557e-09
-4.26191e-11
1.35707e-09
-3.97038e-11
1.25917e-09
-3.61683e-11
1.15532e-09
-3.22188e-11
1.04838e-09
-2.80471e-11
9.40702e-10
-2.38247e-11
8.3417e-10
-1.96996e-11
7.30278e-10
-1.57948e-11
6.30172e-10
-1.22088e-11
5.34706e-10
-9.01683e-12
4.44488e-10
-6.273e-12
3.59923e-10
-4.01248e-12
2.81245e-10
-2.25422e-12
2.08552e-10
-1.00339e-12
1.41831e-10
-2.53881e-13
8.09847e-11
2.5851e-11
-6.21524e-12
6.22574e-10
1.67328e-12
-1.27065e-11
9.46404e-10
-2.01922e-11
1.19861e-09
-2.7809e-11
1.38475e-09
-3.48548e-11
1.51177e-09
-4.08178e-11
1.58721e-09
-4.53754e-11
1.61873e-09
-4.83746e-11
1.61367e-09
-4.98022e-11
1.57888e-09
-4.97512e-11
1.52056e-09
-4.83885e-11
1.44421e-09
-4.59261e-11
1.35461e-09
-4.25972e-11
1.25584e-09
-3.86381e-11
1.15136e-09
-3.42745e-11
1.04402e-09
-2.97127e-11
9.3614e-10
-2.51342e-11
8.29592e-10
-2.06932e-11
7.25837e-10
-1.6516e-11
6.25995e-10
-1.27022e-11
5.30892e-10
-9.32662e-12
4.41113e-10
-6.44167e-12
3.57038e-10
-4.08039e-12
2.78884e-10
-2.25919e-12
2.06731e-10
-9.8061e-13
1.40553e-10
-2.35918e-13
8.024e-11
2.56151e-11
-6.32642e-12
6.27181e-10
1.71989e-12
-1.28639e-11
9.52941e-10
-2.03468e-11
1.20609e-09
-2.78902e-11
1.39229e-09
-3.47862e-11
1.51866e-09
-4.05332e-11
1.59296e-09
-4.48304e-11
1.62303e-09
-4.75525e-11
1.61639e-09
-4.87143e-11
1.58004e-09
-4.8433e-11
1.52028e-09
-4.68936e-11
1.44267e-09
-4.4319e-11
1.35203e-09
-4.09461e-11
1.25247e-09
-3.7009e-11
1.14743e-09
-3.27262e-11
1.03974e-09
-2.82938e-11
9.31708e-10
-2.38808e-11
8.25179e-10
-1.96283e-11
7.21585e-10
-1.565e-11
6.22016e-10
-1.20333e-11
5.27275e-10
-8.84257e-12
4.37922e-10
-6.1213e-12
3.54317e-10
-3.89534e-12
2.76658e-10
-2.17564e-12
2.05011e-10
-9.60926e-13
1.39338e-10
-2.40129e-13
7.95192e-11
2.5375e-11
-5.96225e-12
6.31531e-10
1.61221e-12
-1.2119e-11
9.59098e-10
-1.9122e-11
1.21309e-09
-2.61218e-11
1.39929e-09
-3.24532e-11
1.52499e-09
-3.76581e-11
1.59817e-09
-4.14757e-11
1.62685e-09
-4.38126e-11
1.61873e-09
-4.47048e-11
1.58094e-09
-4.42797e-11
1.51986e-09
-4.27218e-11
1.44111e-09
-4.02452e-11
1.34956e-09
-3.70715e-11
1.2493e-09
-3.34153e-11
1.14377e-09
-2.94742e-11
1.03579e-09
-2.54229e-11
9.27656e-10
-2.14104e-11
8.21167e-10
-1.756e-11
7.17734e-10
-1.397e-11
6.18426e-10
-1.07157e-11
5.24021e-10
-7.85203e-12
4.35058e-10
-5.41578e-12
3.51881e-10
-3.42863e-12
2.74671e-10
-1.89946e-12
2.03482e-10
-8.26731e-13
1.38265e-10
-2.00535e-13
7.8893e-11
2.51744e-11
-4.99498e-12
6.35165e-10
1.36092e-12
-1.01105e-11
9.64214e-10
-1.58971e-11
1.21888e-09
-2.16434e-11
1.40504e-09
-2.68007e-11
1.53015e-09
-3.10002e-11
1.60237e-09
-3.40413e-11
1.62989e-09
-3.58623e-11
1.62055e-09
-3.65063e-11
1.58158e-09
-3.60875e-11
1.51944e-09
-3.47632e-11
1.43979e-09
-3.27104e-11
1.3475e-09
-3.01093e-11
1.2467e-09
-2.71321e-11
1.14079e-09
-2.39357e-11
1.0326e-09
-2.06578e-11
9.24378e-10
-1.74155e-11
8.17924e-10
-1.43051e-11
7.14624e-10
-1.14037e-11
6.15525e-10
-8.77048e-12
5.21388e-10
-6.44871e-12
4.32737e-10
-4.468e-12
3.499e-10
-2.84621e-12
2.73049e-10
-1.5914e-12
2.02227e-10
-7.03534e-13
1.37377e-10
-1.76035e-13
7.83655e-11
2.49984e-11
-3.7099e-12
6.3787e-10
1.00445e-12
-7.5202e-12
9.68024e-10
-1.18241e-11
1.22318e-09
-1.60912e-11
1.40931e-09
-1.99172e-11
1.53398e-09
-2.3034e-11
1.60548e-09
-2.52982e-11
1.63215e-09
-2.66679e-11
1.62192e-09
-2.71759e-11
1.58209e-09
-2.69056e-11
1.51917e-09
-2.59699e-11
1.43885e-09
-2.44952e-11
1.34603e-09
-2.261e-11
1.24481e-09
-2.04374e-11
1.13862e-09
-1.80902e-11
1.03025e-09
-1.56681e-11
9.21956e-10
-1.32571e-11
8.15513e-10
-1.09295e-11
7.12296e-10
-8.74419e-12
6.1334e-10
-6.74794e-12
5.19392e-10
-4.97656e-12
4.30965e-10
-3.45609e-12
3.4838e-10
-2.20419e-12
2.71797e-10
-1.2312e-12
2.01254e-10
-5.41289e-13
1.36687e-10
-1.33478e-13
7.79577e-11
2.48649e-11
-2.21757e-12
6.39484e-10
6.04275e-13
-4.49083e-12
9.70297e-10
-7.06922e-12
1.22576e-09
-9.64391e-12
1.41188e-09
-1.19786e-11
1.53631e-09
-1.39148e-11
1.60742e-09
-1.5365e-11
1.6336e-09
-1.62985e-11
1.62285e-09
-1.6727e-11
1.58252e-09
-1.66908e-11
1.51913e-09
-1.62478e-11
1.43841e-09
-1.5465e-11
1.34525e-09
-1.44121e-11
1.24376e-09
-1.31579e-11
1.13737e-09
-1.17674e-11
1.02886e-09
-1.03002e-11
9.20489e-10
-8.80988e-12
8.14023e-10
-7.34341e-12
7.1083e-10
-5.94133e-12
6.11938e-10
-4.63784e-12
5.18088e-10
-3.4612e-12
4.29789e-10
-2.43405e-12
3.47352e-10
-1.57389e-12
2.70937e-10
-8.93539e-13
2.00574e-10
-4.01566e-13
1.36195e-10
-1.02764e-13
7.76589e-11
2.47621e-11
-7.51593e-13
6.40035e-10
2.00135e-13
-1.54676e-12
9.71092e-10
-2.47497e-12
1.22669e-09
-3.4396e-12
1.41285e-09
-4.36378e-12
1.53724e-09
-5.19105e-12
1.60825e-09
-5.88326e-12
1.63429e-09
-6.41731e-12
1.62339e-09
-6.78201e-12
1.58288e-09
-6.97532e-12
1.51933e-09
-7.00239e-12
1.43844e-09
-6.87391e-12
1.34512e-09
-6.60496e-12
1.24349e-09
-6.21403e-12
1.13697e-09
-5.72214e-12
1.02837e-09
-5.15203e-12
9.19919e-10
-4.52742e-12
8.13398e-10
-3.8723e-12
7.10175e-10
-3.21029e-12
6.11276e-10
-2.56404e-12
5.17442e-10
-1.95476e-12
4.29179e-10
-1.40181e-12
3.468e-10
-9.22427e-13
2.70457e-10
-5.31493e-13
2.00183e-10
-2.41448e-13
1.35905e-10
-6.22312e-14
7.74797e-11
2.46999e-11
6.5433e-13
6.3956e-10
-1.78894e-13
1.30277e-12
9.70444e-10
1.9967e-12
1.226e-09
2.62765e-12
1.41221e-09
3.11781e-12
1.53675e-09
3.42298e-12
1.60794e-09
3.52969e-12
1.63419e-09
3.44904e-12
1.62347e-09
3.20933e-12
1.58312e-09
2.8488e-12
1.51969e-09
2.40947e-12
1.43888e-09
1.9323e-12
1.3456e-09
1.45379e-12
1.24397e-09
1.00394e-12
1.13742e-09
6.05281e-13
1.02877e-09
2.72662e-13
9.20252e-10
1.37774e-14
8.13657e-10
-1.70032e-13
7.10359e-10
-2.82718e-13
6.11388e-10
-3.32388e-13
5.17492e-10
-3.3019e-13
4.29177e-10
-2.89271e-13
3.46759e-10
-2.23851e-13
2.70392e-10
-1.48441e-13
2.00107e-10
-7.72072e-14
1.35834e-10
-2.34543e-14
7.74259e-11
2.46765e-11
1.93684e-12
6.38152e-10
-5.29332e-13
3.89985e-12
9.68481e-10
6.08779e-12
1.22381e-09
8.21306e-12
1.41009e-09
1.00581e-11
1.5349e-09
1.1483e-11
1.60652e-09
1.24197e-11
1.63325e-09
1.28591e-11
1.62303e-09
1.28359e-11
1.58314e-09
1.24132e-11
1.52011e-09
1.16699e-11
1.43962e-09
1.06898e-11
1.34658e-09
9.55452e-12
1.2451e-09
8.33829e-12
1.13864e-09
7.10486e-12
1.03e-09
5.90618e-12
9.2145e-10
4.78222e-12
8.14781e-10
3.76158e-12
7.11379e-10
2.86258e-12
6.12287e-10
2.09472e-12
5.18259e-10
1.46012e-12
4.29812e-10
9.55089e-13
3.47264e-10
5.71486e-13
2.70776e-10
2.97994e-13
2.00381e-10
1.21223e-13
1.36011e-10
2.66452e-14
7.75205e-11
2.47031e-11
3.11762e-12
6.35881e-10
-8.46517e-13
6.31611e-12
9.65282e-10
9.93051e-12
1.2202e-09
1.35111e-11
1.40651e-09
1.67098e-11
1.5317e-09
1.9292e-11
1.60393e-09
2.11295e-11
1.63141e-09
2.21837e-11
1.62198e-09
2.24844e-11
1.58284e-09
2.21087e-11
1.52048e-09
2.11624e-11
1.44057e-09
1.97652e-11
1.34797e-09
1.80386e-11
1.24683e-09
1.60985e-11
1.14058e-09
1.40493e-11
1.03205e-09
1.19814e-11
9.23518e-10
9.96975e-12
8.16793e-10
8.07368e-12
7.13275e-10
6.338e-12
6.14023e-10
4.79484e-12
5.19803e-10
3.46334e-12
4.31143e-10
2.35357e-12
3.48373e-10
1.46742e-12
2.71662e-10
8.00326e-13
2.01048e-10
3.42703e-13
1.36469e-10
8.13297e-14
7.77819e-11
2.47844e-11
4.15502e-12
6.32853e-10
-1.12708e-12
8.44483e-12
9.60993e-10
1.33385e-11
1.2153e-09
1.82512e-11
1.4016e-09
2.27206e-11
1.52723e-09
2.64243e-11
1.60023e-09
2.91726e-11
1.62866e-09
3.08909e-11
1.62026e-09
3.15944e-11
1.58214e-09
3.13633e-11
1.52072e-09
3.03228e-11
1.44161e-09
2.86164e-11
1.34968e-09
2.63988e-11
1.24905e-09
2.38221e-11
1.14316e-09
2.10284e-11
1.03484e-09
1.81449e-11
9.26402e-10
1.52813e-11
8.19656e-10
1.2529e-11
7.16028e-10
9.96118e-12
6.16591e-10
7.63408e-12
5.2213e-10
5.58833e-12
4.33189e-10
3.85074e-12
3.50111e-10
2.43636e-12
2.73076e-10
1.35024e-12
2.02134e-10
5.89305e-13
1.3723e-10
1.43988e-13
7.82272e-11
2.49284e-11
5.00747e-12
6.292e-10
-1.35456e-12
1.02103e-11
9.5579e-10
1.61902e-11
1.20932e-09
2.22545e-11
1.39553e-09
2.78469e-11
1.52164e-09
3.25682e-11
1.59551e-09
3.6172e-11
1.62506e-09
3.85453e-11
1.61788e-09
3.96831e-11
1.581e-09
3.96608e-11
1.52074e-09
3.86089e-11
1.44266e-09
3.66913e-11
1.3516e-09
3.40878e-11
1.25165e-09
3.09803e-11
1.14626e-09
2.75432e-11
1.03828e-09
2.39369e-11
9.30008e-10
2.03038e-11
8.2329e-10
1.67658e-11
7.19566e-10
1.34245e-11
6.19932e-10
1.03606e-11
5.25194e-10
7.63698e-12
4.35913e-10
5.29869e-12
3.52449e-10
3.37537e-12
2.75e-10
1.88336e-12
2.03626e-10
8.27678e-13
1.38285e-10
2.03989e-13
7.88509e-11
2.51324e-11
5.58298e-12
6.25126e-10
-1.50897e-12
1.14071e-11
9.49966e-10
1.81396e-11
1.20259e-09
2.50193e-11
1.38865e-09
3.14272e-11
1.51523e-09
3.69092e-11
1.59003e-09
4.11748e-11
1.62079e-09
4.40782e-11
1.61498e-09
4.55936e-11
1.57949e-09
4.57865e-11
1.52054e-09
4.47854e-11
1.44366e-09
4.27653e-11
1.35362e-09
3.9921e-11
1.25449e-09
3.64542e-11
1.14973e-09
3.25624e-11
1.04217e-09
2.84306e-11
9.3414e-10
2.42261e-11
8.27494e-10
2.00953e-11
7.23697e-10
1.61622e-11
6.23865e-10
1.2529e-11
5.28827e-10
9.27616e-12
4.39165e-10
6.46443e-12
3.55261e-10
4.13643e-12
2.77328e-10
2.31884e-12
2.05444e-10
1.02448e-12
1.3958e-10
2.5441e-13
7.96209e-11
2.53868e-11
5.80365e-12
6.20889e-10
-1.56642e-12
1.18782e-11
9.43891e-10
1.89276e-11
1.19554e-09
2.61681e-11
1.38141e-09
3.29562e-11
1.50844e-09
3.88133e-11
1.58417e-09
4.34256e-11
1.61618e-09
4.66274e-11
1.61178e-09
4.83775e-11
1.57774e-09
4.87309e-11
1.52019e-09
4.78135e-11
1.44458e-09
4.57973e-11
1.35563e-09
4.28814e-11
1.25741e-09
3.92748e-11
1.15334e-09
3.51853e-11
1.04626e-09
3.08095e-11
9.38515e-10
2.63275e-11
8.31976e-10
2.18988e-11
7.28125e-10
1.76604e-11
6.28103e-10
1.37264e-11
5.32761e-10
1.01888e-11
4.42703e-10
7.11817e-12
3.58332e-10
4.56581e-12
2.7988e-10
2.5656e-12
2.07444e-10
1.13616e-12
1.41009e-10
2.82937e-13
8.04742e-11
2.56698e-11
5.6233e-12
6.16783e-10
-1.51736e-12
1.15186e-11
9.37996e-10
1.83761e-11
1.18868e-09
2.54412e-11
1.37435e-09
3.20906e-11
1.50179e-09
3.7857e-11
1.5784e-09
4.24292e-11
1.61161e-09
4.56386e-11
1.60857e-09
4.74365e-11
1.57594e-09
4.78689e-11
1.51976e-09
4.70513e-11
1.4454e-09
4.51466e-11
1.35754e-09
4.23451e-11
1.26021e-09
3.88494e-11
1.15683e-09
3.48618e-11
1.05025e-09
3.05758e-11
9.42802e-10
2.61693e-11
8.36383e-10
2.1801e-11
7.32494e-10
1.76084e-11
6.32296e-10
1.37066e-11
5.36663e-10
1.01893e-11
4.4622e-10
7.12918e-12
3.61392e-10
4.57986e-12
2.82429e-10
2.57769e-12
2.09446e-10
1.14368e-12
1.42443e-10
2.85608e-13
8.13322e-11
2.59554e-11
5.0867e-12
6.13068e-10
-1.37193e-12
1.04247e-11
9.32658e-10
1.66403e-11
1.18247e-09
2.30525e-11
1.36793e-09
2.90969e-11
1.49575e-09
3.43488e-11
1.57315e-09
3.85236e-11
1.60744e-09
4.14654e-11
1.60563e-09
4.31269e-11
1.57428e-09
4.3547e-11
1.51934e-09
4.28287e-11
1.44611e-09
4.11181e-11
1.35925e-09
3.85872e-11
1.26274e-09
3.54197e-11
1.16e-09
3.17996e-11
1.05387e-09
2.79029e-11
9.46698e-10
2.38921e-11
8.40393e-10
1.99123e-11
7.36473e-10
1.60894e-11
6.36119e-10
1.25291e-11
5.40223e-10
9.31746e-12
4.49432e-10
6.52151e-12
3.64188e-10
4.19092e-12
2.8476e-10
2.35952e-12
2.11277e-10
1.04717e-12
1.43755e-10
2.61598e-13
8.21178e-11
2.6217e-11
4.30097e-12
6.09928e-10
-1.16035e-12
8.81342e-12
9.28145e-10
1.4067e-11
1.17721e-09
1.94855e-11
1.36252e-09
2.45913e-11
1.49064e-09
2.90247e-11
1.56872e-09
3.25452e-11
1.60391e-09
3.50212e-11
1.60315e-09
3.64133e-11
1.57289e-09
3.67555e-11
1.519e-09
3.61355e-11
1.44673e-09
3.46781e-11
1.36071e-09
3.25298e-11
1.26489e-09
2.98464e-11
1.16268e-09
2.67839e-11
1.05693e-09
2.34912e-11
9.49991e-10
2.01055e-11
8.43779e-10
1.67491e-11
7.3983e-10
1.35277e-11
6.3934e-10
1.05299e-11
5.43221e-10
7.82774e-12
4.52134e-10
5.47692e-12
3.66539e-10
3.51861e-12
2.86718e-10
1.98061e-12
2.12815e-10
8.78991e-13
1.44857e-10
2.19678e-13
8.27771e-11
2.64367e-11
3.41601e-12
6.07433e-10
-9.21709e-13
6.99771e-12
9.24564e-10
1.11637e-11
1.17305e-09
1.54546e-11
1.35822e-09
1.94904e-11
1.48661e-09
2.29859e-11
1.56522e-09
2.57514e-11
1.60115e-09
2.76845e-11
1.60122e-09
2.87562e-11
1.57181e-09
2.8996e-11
1.51876e-09
2.84759e-11
1.44725e-09
2.72969e-11
1.36188e-09
2.55767e-11
1.26661e-09
2.34397e-11
1.16482e-09
2.101e-11
1.05936e-09
1.84056e-11
9.52595e-10
1.57346e-11
8.4645e-10
1.30927e-11
7.42472e-10
1.05624e-11
6.41871e-10
8.21251e-12
5.4557e-10
6.09819e-12
4.54249e-10
4.26207e-12
3.68375e-10
2.73512e-12
2.88245e-10
1.53786e-12
2.14013e-10
6.81685e-13
1.45713e-10
1.70129e-13
8.32887e-11
2.66068e-11
2.56667e-12
6.0556e-10
-6.92976e-13
5.25455e-12
9.21876e-10
8.37638e-12
1.16993e-09
1.15856e-11
1.35502e-09
1.45961e-11
1.4836e-09
1.71942e-11
1.56262e-09
1.92391e-11
1.5991e-09
2.06559e-11
1.5998e-09
2.14256e-11
1.57104e-09
2.15729e-11
1.51861e-09
2.11543e-11
1.44767e-09
2.02476e-11
1.36279e-09
1.89423e-11
1.26792e-09
1.73327e-11
1.16643e-09
1.5512e-11
1.06118e-09
1.35682e-11
9.54539e-10
1.15815e-11
8.48437e-10
9.62256e-12
7.44431e-10
7.75159e-12
6.43742e-10
6.01845e-12
5.47304e-10
4.46285e-12
4.55804e-10
3.11501e-12
3.69723e-10
1.99652e-12
2.89364e-10
1.12129e-12
2.14888e-10
4.96549e-13
1.46338e-10
1.23839e-13
8.36614e-11
2.67306e-11
1.84364e-12
6.04214e-10
-4.97864e-13
3.77227e-12
9.19947e-10
6.00863e-12
1.16769e-09
8.30243e-12
1.35272e-09
1.04479e-11
1.48145e-09
1.2292e-11
1.56078e-09
1.37351e-11
1.59766e-09
1.47251e-11
1.59881e-09
1.52507e-11
1.57052e-09
1.53315e-11
1.51853e-09
1.50099e-11
1.44799e-09
1.43432e-11
1.36346e-09
1.33966e-11
1.26886e-09
1.22382e-11
1.16759e-09
1.09347e-11
1.06249e-09
9.54905e-12
9.55925e-10
8.13781e-12
8.49848e-10
6.75064e-12
7.45818e-10
5.42962e-12
6.45063e-10
4.20918e-12
5.48524e-10
3.11652e-12
4.56897e-10
2.17204e-12
3.70667e-10
1.39006e-12
2.90146e-10
7.79485e-13
2.15498e-10
3.44604e-13
1.46773e-10
8.57622e-14
8.39202e-11
2.68164e-11
1.27736e-12
6.03282e-10
-3.45232e-13
2.61162e-12
9.18613e-10
4.15643e-12
1.16614e-09
5.73763e-12
1.35114e-09
7.2125e-12
1.47998e-09
8.47555e-12
1.55952e-09
9.45855e-12
1.59668e-09
1.01269e-11
1.59814e-09
1.04738e-11
1.57017e-09
1.05144e-11
1.51849e-09
1.02791e-11
1.44823e-09
9.80834e-12
1.36393e-09
9.14778e-12
1.26952e-09
8.34476e-12
1.16839e-09
7.44543e-12
1.06339e-09
6.49286e-12
9.56877e-10
5.52575e-12
8.50815e-10
4.57776e-12
7.46766e-10
3.67722e-12
6.45963e-10
2.84717e-12
5.49354e-10
2.10559e-12
4.57638e-10
1.46586e-12
3.71307e-10
9.37158e-13
2.90674e-10
5.2505e-13
2.15911e-10
2.31964e-13
1.47066e-10
5.77136e-14
8.40945e-11
2.68741e-11
8.61673e-13
6.02653e-10
-2.32827e-13
1.7612e-12
9.17713e-10
2.80121e-12
1.1651e-09
3.86378e-12
1.35008e-09
4.85251e-12
1.47899e-09
5.69652e-12
1.55867e-09
6.35033e-12
1.59602e-09
6.79132e-12
1.5977e-09
7.01576e-12
1.56995e-09
7.03453e-12
1.51847e-09
6.86878e-12
1.4484e-09
6.54623e-12
1.36425e-09
6.09795e-12
1.26997e-09
5.55595e-12
1.16893e-09
4.95127e-12
1.06399e-09
4.31273e-12
9.57516e-10
3.66611e-12
8.51462e-10
3.0337e-12
7.47398e-10
2.43418e-12
6.46563e-10
1.88263e-12
5.49906e-10
1.39074e-12
4.5813e-10
9.67119e-13
3.7173e-10
6.17588e-13
2.91024e-10
3.45571e-13
2.16183e-10
1.52436e-13
1.47259e-10
3.78408e-14
8.42091e-11
2.69119e-11
5.68495e-13
6.02238e-10
-1.53773e-13
1.16108e-12
9.17121e-10
1.84546e-12
1.16442e-09
2.54358e-12
1.34938e-09
3.19184e-12
1.47834e-09
3.74365e-12
1.55812e-09
4.16937e-12
1.5956e-09
4.45448e-12
1.59742e-09
4.597e-12
1.5698e-09
4.60449e-12
1.51846e-09
4.49126e-12
1.44851e-09
4.27584e-12
1.36447e-09
3.97887e-12
1.27027e-09
3.62146e-12
1.16929e-09
3.22404e-12
1.06439e-09
2.80547e-12
9.57934e-10
2.38254e-12
8.51885e-10
1.96973e-12
7.47811e-10
1.57907e-12
6.46953e-10
1.22026e-12
5.50264e-10
9.00748e-13
4.5845e-10
6.25952e-13
3.72005e-10
3.99502e-13
2.9125e-10
2.23462e-13
2.16359e-10
9.85764e-14
1.47384e-10
2.44913e-14
8.42832e-11
2.69364e-11
3.67892e-13
6.0197e-10
-9.9439e-14
7.51252e-13
9.16737e-10
1.19346e-12
1.16398e-09
1.64376e-12
1.34893e-09
2.06094e-12
1.47792e-09
2.41496e-12
1.55777e-09
2.68685e-12
1.59533e-09
2.8675e-12
1.59724e-09
2.95594e-12
1.56972e-09
2.95736e-12
1.51846e-09
2.88127e-12
1.44858e-09
2.73982e-12
1.36461e-09
2.54649e-12
1.27046e-09
2.31497e-12
1.16952e-09
2.05846e-12
1.06464e-09
1.78906e-12
9.58204e-10
1.51754e-12
8.52156e-10
1.2531e-12
7.48075e-10
1.00336e-12
6.47203e-10
7.74417e-13
5.50493e-10
5.70921e-13
4.58653e-10
3.96219e-13
3.7218e-10
2.52509e-13
2.91394e-10
1.40996e-13
2.1647e-10
6.2052e-14
1.47463e-10
1.53576e-14
8.43299e-11
2.69518e-11
2.33732e-13
6.01799e-10
-6.32732e-14
4.76803e-13
9.16494e-10
7.56665e-13
1.1637e-09
1.04102e-12
1.34865e-09
1.30372e-12
1.47766e-09
1.52582e-12
1.55755e-09
1.69546e-12
1.59516e-09
1.80713e-12
1.59713e-09
1.86044e-12
1.56966e-09
1.85891e-12
1.51846e-09
1.80872e-12
1.44863e-09
1.71772e-12
1.3647e-09
1.59448e-12
1.27059e-09
1.44772e-12
1.16967e-09
1.28575e-12
1.06481e-09
1.11617e-12
9.58373e-10
9.45704e-13
8.52327e-10
7.8007e-13
7.48241e-10
6.23976e-13
6.47359e-10
4.81156e-13
5.50636e-10
3.54435e-13
4.5878e-10
2.45818e-13
3.72288e-10
1.56597e-13
2.91483e-10
8.74451e-14
2.16539e-10
3.85212e-14
1.47512e-10
9.56204e-15
8.43588e-11
2.69613e-11
1.36944e-13
6.01699e-10
-3.70754e-14
2.79157e-13
9.16352e-10
4.42501e-13
1.16353e-09
6.07847e-13
1.34848e-09
7.59777e-13
1.47751e-09
8.87202e-13
1.55742e-09
9.83306e-13
1.59506e-09
1.04506e-12
1.59706e-09
1.0725e-12
1.56964e-09
1.06799e-12
1.51847e-09
1.0354e-12
1.44867e-09
9.79573e-13
1.36475e-09
9.05695e-13
1.27066e-09
8.18961e-13
1.16976e-09
7.2427e-13
1.0649e-09
6.26039e-13
9.58472e-10
5.28103e-13
8.52425e-10
4.33672e-13
7.48335e-10
3.45329e-13
6.47448e-10
2.65068e-13
5.50717e-10
1.94343e-13
4.58851e-10
1.34134e-13
3.72349e-10
8.50101e-14
2.91532e-10
4.71974e-14
2.16577e-10
2.06423e-14
1.47538e-10
5.06763e-15
8.43744e-11
2.69664e-11
7.66651e-14
6.01644e-10
-2.07784e-14
1.56066e-13
9.16273e-10
2.46775e-13
1.16344e-09
3.37937e-13
1.34839e-09
4.20853e-13
1.47743e-09