/*--------------------------------*- C++ -*----------------------------------*\
| =========                 |                                                 |
| \\      /  F ield         | OpenFOAM: The Open Source CFD Toolbox           |
|  \\    /   O peration     | Version:  2106                                  |
|   \\  /    A nd           | Website:  www.openfoam.com                      |
|    \\/     M anipulation  |                                                 |
\*---------------------------------------------------------------------------*/
FoamFile
{
    version     2.0;
    format      ascii;
    arch        "LSB;label=32;scalar=64";
    class       volScalarField;
    location    "49.99987";
    object      SC3H5;
}
// * * * * * * * * * * * * * * * * * * * * * * * * * * * * * * * * * * * * * //

dimensions      [0 0 0 0 0 0 0];

internalField   nonuniform List<scalar> 
3360
(
1.0675e-18
1.10186e-18
1.14968e-18
1.20816e-18
1.27489e-18
1.34765e-18
1.42449e-18
1.50361e-18
1.58343e-18
1.66254e-18
1.73972e-18
1.81396e-18
1.88438e-18
1.95032e-18
2.01125e-18
2.06682e-18
2.1168e-18
2.1611e-18
2.19974e-18
2.23283e-18
2.26057e-18
2.28323e-18
2.30112e-18
2.31462e-18
2.32412e-18
2.33003e-18
2.33277e-18
4.68333e-18
4.85551e-18
5.09847e-18
5.40105e-18
5.75396e-18
6.14912e-18
6.57932e-18
7.03795e-18
7.51885e-18
8.01621e-18
8.52445e-18
9.03816e-18
9.55197e-18
1.00606e-17
1.05589e-17
1.10416e-17
1.15039e-17
1.19409e-17
1.23478e-17
1.27204e-17
1.30547e-17
1.3347e-17
1.35945e-17
1.37946e-17
1.39456e-17
1.40465e-17
1.40968e-17
1.46964e-17
1.53415e-17
1.62583e-17
1.74102e-17
1.87672e-17
2.03022e-17
2.19893e-17
2.38031e-17
2.57179e-17
2.77074e-17
2.97448e-17
3.18036e-17
3.38571e-17
3.58795e-17
3.78454e-17
3.9731e-17
4.15142e-17
4.3175e-17
4.46962e-17
4.60635e-17
4.72658e-17
4.82955e-17
4.91478e-17
4.98215e-17
5.03182e-17
5.06421e-17
5.07998e-17
4.28068e-17
4.49336e-17
4.7976e-17
5.18252e-17
5.63903e-17
6.15861e-17
6.73274e-17
7.35259e-17
8.00889e-17
8.69191e-17
9.39159e-17
1.00977e-16
1.08e-16
1.14887e-16
1.21544e-16
1.27884e-16
1.33831e-16
1.3932e-16
1.44298e-16
1.48727e-16
1.5258e-16
1.55845e-16
1.58518e-16
1.6061e-16
1.62135e-16
1.63121e-16
1.63596e-16
1.25088e-16
1.31798e-16
1.41416e-16
1.53612e-16
1.68109e-16
1.84638e-16
2.02924e-16
2.22675e-16
2.4358e-16
2.6531e-16
2.87527e-16
3.09889e-16
3.3206e-16
3.53719e-16
3.74571e-16
3.94348e-16
4.12821e-16
4.29802e-16
4.45143e-16
4.5874e-16
4.70528e-16
4.80482e-16
4.88609e-16
4.94948e-16
4.99562e-16
5.02535e-16
5.03965e-16
3.68902e-16
3.89514e-16
4.19094e-16
4.56637e-16
5.01286e-16
5.52207e-16
6.08541e-16
6.69371e-16
7.33718e-16
8.00551e-16
8.68808e-16
9.3742e-16
1.00535e-15
1.0716e-15
1.13527e-15
1.19554e-15
1.25175e-15
1.30332e-15
1.34982e-15
1.39097e-15
1.42658e-15
1.4566e-15
1.48108e-15
1.50014e-15
1.514e-15
1.52292e-15
1.5272e-15
1.09605e-15
1.1587e-15
1.24859e-15
1.3627e-15
1.49839e-15
1.65311e-15
1.8242e-15
2.00884e-15
2.20402e-15
2.40658e-15
2.61325e-15
2.82081e-15
3.02609e-15
3.22612e-15
3.41816e-15
3.59983e-15
3.76907e-15
3.92424e-15
4.06409e-15
4.18774e-15
4.29472e-15
4.38487e-15
4.45834e-15
4.51555e-15
4.55713e-15
4.58387e-15
4.59673e-15
3.26739e-15
3.45594e-15
3.72663e-15
4.07035e-15
4.47919e-15
4.94544e-15
5.46107e-15
6.0175e-15
6.60558e-15
7.21573e-15
7.83813e-15
8.46296e-15
9.0807e-15
9.68238e-15
1.02598e-14
1.08058e-14
1.13142e-14
1.17802e-14
1.21999e-14
1.25709e-14
1.28917e-14
1.31619e-14
1.3382e-14
1.35534e-14
1.36779e-14
1.37579e-14
1.37964e-14
9.7661e-15
1.03329e-14
1.11465e-14
1.21794e-14
1.34078e-14
1.48085e-14
1.63572e-14
1.8028e-14
1.97933e-14
2.16242e-14
2.34911e-14
2.53648e-14
2.72165e-14
2.90195e-14
3.07494e-14
3.23846e-14
3.3907e-14
3.53019e-14
3.65582e-14
3.76686e-14
3.86286e-14
3.94372e-14
4.0096e-14
4.06087e-14
4.09812e-14
4.12208e-14
4.13359e-14
2.91926e-14
3.08906e-14
3.33284e-14
3.64236e-14
4.01049e-14
4.43024e-14
4.89431e-14
5.39492e-14
5.92379e-14
6.47225e-14
7.03143e-14
7.59251e-14
8.14693e-14
8.68666e-14
9.20437e-14
9.69365e-14
1.01491e-13
1.05662e-13
1.09419e-13
1.12738e-13
1.15607e-13
1.18023e-13
1.19991e-13
1.21523e-13
1.22635e-13
1.2335e-13
1.23694e-13
8.73056e-14
9.23902e-14
9.96887e-14
1.08954e-13
1.19971e-13
1.32529e-13
1.4641e-13
1.6138e-13
1.7719e-13
1.9358e-13
2.10286e-13
2.27042e-13
2.43595e-13
2.59704e-13
2.75152e-13
2.89748e-13
3.0333e-13
3.1577e-13
3.26969e-13
3.36862e-13
3.45413e-13
3.52613e-13
3.58477e-13
3.63039e-13
3.66353e-13
3.68483e-13
3.69507e-13
2.60859e-13
2.76045e-13
2.97842e-13
3.25508e-13
3.58399e-13
3.95885e-13
4.37305e-13
4.81961e-13
5.29107e-13
5.77968e-13
6.27751e-13
6.77668e-13
7.26959e-13
7.74912e-13
8.20879e-13
8.64294e-13
9.0468e-13
9.41654e-13
9.74931e-13
1.00432e-12
1.02971e-12
1.05108e-12
1.06848e-12
1.08202e-12
1.09185e-12
1.09817e-12
1.1012e-12
7.78585e-13
8.23864e-13
8.88831e-13
9.71256e-13
1.0692e-12
1.18076e-12
1.30397e-12
1.43671e-12
1.57677e-12
1.72182e-12
1.86952e-12
2.01751e-12
2.16356e-12
2.30556e-12
2.44159e-12
2.57e-12
2.68939e-12
2.79864e-12
2.89692e-12
2.98367e-12
3.05861e-12
3.12166e-12
3.17298e-12
3.21288e-12
3.24186e-12
3.26048e-12
3.26942e-12
2.31719e-12
2.45159e-12
2.64435e-12
2.88879e-12
3.17909e-12
3.50952e-12
3.87415e-12
4.2667e-12
4.68052e-12
5.10872e-12
5.54432e-12
5.98041e-12
6.41036e-12
6.828e-12
7.22776e-12
7.60478e-12
7.95502e-12
8.27526e-12
8.56312e-12
8.81705e-12
9.03623e-12
9.22054e-12
9.37047e-12
9.487e-12
9.57156e-12
9.62589e-12
9.65197e-12
6.87147e-12
7.26821e-12
7.83686e-12
8.55735e-12
9.41213e-12
1.0384e-11
1.14551e-11
1.26068e-11
1.38191e-11
1.50719e-11
1.63444e-11
1.76166e-11
1.88691e-11
2.00841e-11
2.12455e-11
2.23395e-11
2.33546e-11
2.42816e-11
2.51141e-11
2.58478e-11
2.64805e-11
2.70121e-11
2.74442e-11
2.77798e-11
2.80232e-11
2.81795e-11
2.82546e-11
2.02558e-11
2.14158e-11
2.3077e-11
2.51794e-11
2.76703e-11
3.0498e-11
3.36093e-11
3.69483e-11
4.0457e-11
4.40757e-11
4.77445e-11
5.14052e-11
5.50025e-11
5.84855e-11
6.1809e-11
6.49341e-11
6.7829e-11
7.04688e-11
7.28357e-11
7.49186e-11
7.67126e-11
7.82182e-11
7.94406e-11
8.03893e-11
8.10765e-11
8.15175e-11
8.17289e-11
5.92342e-11
6.25824e-11
6.73711e-11
7.34216e-11
8.05759e-11
8.86799e-11
9.75755e-11
1.07098e-10
1.17079e-10
1.27345e-10
1.37726e-10
1.48056e-10
1.58182e-10
1.67961e-10
1.77269e-10
1.86002e-10
1.94074e-10
2.01419e-10
2.07992e-10
2.13766e-10
2.18731e-10
2.22891e-10
2.26264e-10
2.28879e-10
2.30771e-10
2.31983e-10
2.32564e-10
1.71287e-10
1.80775e-10
1.94323e-10
2.11402e-10
2.31544e-10
2.54294e-10
2.79187e-10
3.05746e-10
3.33488e-10
3.61924e-10
3.90578e-10
4.18997e-10
4.46758e-10
4.73485e-10
4.98847e-10
5.2257e-10
5.44437e-10
5.64284e-10
5.82003e-10
5.97533e-10
6.10859e-10
6.22005e-10
6.31026e-10
6.38008e-10
6.43053e-10
6.46283e-10
6.47829e-10
4.87752e-10
5.13988e-10
5.51366e-10
5.98354e-10
6.53586e-10
7.15735e-10
7.83469e-10
8.55439e-10
9.30293e-10
1.00669e-09
1.08336e-09
1.15908e-09
1.23275e-09
1.30341e-09
1.37021e-09
1.43248e-09
1.48969e-09
1.54146e-09
1.58755e-09
1.62785e-09
1.66234e-09
1.69113e-09
1.71438e-09
1.73235e-09
1.74531e-09
1.7536e-09
1.75756e-09
1.35953e-09
1.42976e-09
1.52956e-09
1.65462e-09
1.80105e-09
1.96512e-09
2.14313e-09
2.33138e-09
2.52626e-09
2.72423e-09
2.92195e-09
3.11637e-09
3.30471e-09
3.48459e-09
3.65399e-09
3.81133e-09
3.95538e-09
4.08532e-09
4.20065e-09
4.3012e-09
4.38705e-09
4.45855e-09
4.51618e-09
4.56062e-09
4.59262e-09
4.61305e-09
4.6228e-09
3.67945e-09
3.85973e-09
4.11526e-09
4.43438e-09
4.80661e-09
5.22195e-09
5.67064e-09
6.1431e-09
6.63004e-09
7.12262e-09
7.61262e-09
8.09254e-09
8.55579e-09
8.99672e-09
9.41069e-09
9.79406e-09
1.01441e-08
1.04592e-08
1.07382e-08
1.0981e-08
1.1188e-08
1.13601e-08
1.14986e-08
1.16052e-08
1.16819e-08
1.17308e-08
1.17542e-08
9.56956e-09
1.0007e-08
1.06257e-08
1.13961e-08
1.22921e-08
1.32889e-08
1.43629e-08
1.5491e-08
1.66514e-08
1.78234e-08
1.89878e-08
2.01273e-08
2.12266e-08
2.22728e-08
2.32552e-08
2.41657e-08
2.49987e-08
2.57504e-08
2.64185e-08
2.70026e-08
2.75031e-08
2.79217e-08
2.82609e-08
2.85239e-08
2.87145e-08
2.88369e-08
2.88958e-08
2.36901e-08
2.46714e-08
2.60548e-08
2.77712e-08
2.97595e-08
3.19639e-08
3.43344e-08
3.68254e-08
3.9394e-08
4.19988e-08
4.45984e-08
4.71507e-08
4.96121e-08
5.19363e-08
5.40745e-08
5.60069e-08
5.77359e-08
5.92652e-08
6.06002e-08
6.17474e-08
6.2715e-08
6.35124e-08
6.41496e-08
6.46373e-08
6.49865e-08
6.52084e-08
6.5314e-08
5.5734e-08
5.77362e-08
6.0533e-08
6.39421e-08
6.77642e-08
7.17562e-08
7.57529e-08
7.96863e-08
8.3484e-08
8.70791e-08
9.04155e-08
9.3451e-08
9.61574e-08
9.85211e-08
1.00542e-07
1.02231e-07
1.03608e-07
1.04702e-07
1.05544e-07
1.06169e-07
1.06611e-07
1.06907e-07
1.07088e-07
1.07185e-07
1.07226e-07
1.07234e-07
1.07229e-07
1.18068e-07
1.20142e-07
1.22854e-07
1.25866e-07
1.28858e-07
1.31541e-07
1.33669e-07
1.3505e-07
1.35548e-07
1.35083e-07
1.33634e-07
1.31238e-07
1.27985e-07
1.24005e-07
1.19462e-07
1.14537e-07
1.09415e-07
1.04276e-07
9.92812e-08
9.45701e-08
9.02582e-08
8.64363e-08
8.31729e-08
8.05171e-08
7.85025e-08
7.71503e-08
7.6472e-08
1.84823e-07
1.83203e-07
1.80398e-07
1.76116e-07
1.70144e-07
1.62417e-07
1.53055e-07
1.42357e-07
1.30764e-07
1.18789e-07
1.06935e-07
9.56293e-08
8.51791e-08
7.5763e-08
6.74466e-08
6.0213e-08
5.39947e-08
4.87e-08
4.42315e-08
4.04961e-08
3.74111e-08
3.49048e-08
3.29168e-08
3.1397e-08
3.03038e-08
2.96026e-08
2.92643e-08
1.3798e-07
1.3137e-07
1.22456e-07
1.12092e-07
1.0107e-07
9.00636e-08
7.95724e-08
6.99088e-08
6.12236e-08
5.35509e-08
4.68533e-08
4.10576e-08
3.60785e-08
3.18252e-08
2.82085e-08
2.51456e-08
2.25622e-08
2.03933e-08
1.85829e-08
1.70838e-08
1.58563e-08
1.48672e-08
1.40891e-08
1.34992e-08
1.30784e-08
1.28107e-08
1.26827e-08
5.87269e-08
5.57389e-08
5.18218e-08
4.73992e-08
4.28136e-08
3.83188e-08
3.40833e-08
3.02039e-08
2.67235e-08
2.36474e-08
2.09581e-08
1.86255e-08
1.66142e-08
1.48876e-08
1.3411e-08
1.21525e-08
1.1084e-08
1.0181e-08
9.42248e-09
8.79073e-09
8.27074e-09
7.84991e-09
7.51764e-09
7.26498e-09
7.08436e-09
6.96931e-09
6.91422e-09
2.58286e-08
2.47525e-08
2.33331e-08
2.17163e-08
2.00206e-08
1.83349e-08
1.67203e-08
1.52147e-08
1.3838e-08
1.25969e-08
1.14902e-08
1.05111e-08
9.65027e-09
8.89723e-09
8.24139e-09
7.67269e-09
7.18191e-09
6.76082e-09
6.40216e-09
6.09962e-09
5.84775e-09
5.64183e-09
5.47778e-09
5.35207e-09
5.26159e-09
5.20362e-09
5.17573e-09
1.37512e-08
1.33719e-08
1.28655e-08
1.22795e-08
1.16535e-08
1.10184e-08
1.03969e-08
9.80439e-09
9.25047e-09
8.74028e-09
8.27576e-09
7.85674e-09
7.48157e-09
7.14784e-09
6.85267e-09
6.59308e-09
6.36616e-09
6.16917e-09
5.99959e-09
5.85516e-09
5.73385e-09
5.63387e-09
5.55361e-09
5.49168e-09
5.44681e-09
5.41789e-09
5.40389e-09
9.27734e-09
9.16518e-09
9.01439e-09
8.83858e-09
8.64939e-09
8.45639e-09
8.26689e-09
8.08615e-09
7.9177e-09
7.76362e-09
7.62486e-09
7.50153e-09
7.39313e-09
7.29876e-09
7.21729e-09
7.14746e-09
7.08802e-09
7.03775e-09
6.99554e-09
6.96037e-09
6.93138e-09
6.90784e-09
6.88912e-09
6.87475e-09
6.86434e-09
6.85761e-09
6.85432e-09
7.82183e-09
7.82933e-09
7.84112e-09
7.8578e-09
7.88001e-09
7.90828e-09
7.94289e-09
7.98382e-09
8.03072e-09
8.08293e-09
8.13956e-09
8.19948e-09
8.26148e-09
8.32427e-09
8.38657e-09
8.4472e-09
8.50506e-09
8.5592e-09
8.60884e-09
8.65337e-09
8.69236e-09
8.72554e-09
8.75279e-09
8.77409e-09
8.78959e-09
8.79954e-09
8.8043e-09
7.78249e-09
7.84642e-09
7.93582e-09
8.04571e-09
8.17188e-09
8.31061e-09
8.4586e-09
8.61291e-09
8.77082e-09
8.92984e-09
9.08771e-09
9.24235e-09
9.39188e-09
9.53466e-09
9.66926e-09
9.79451e-09
9.90948e-09
1.00134e-08
1.0106e-08
1.01869e-08
1.02563e-08
1.03145e-08
1.03615e-08
1.03979e-08
1.04243e-08
1.04412e-08
1.04493e-08
8.40638e-09
8.48832e-09
8.60215e-09
8.7408e-09
8.89811e-09
9.06868e-09
9.24776e-09
9.43121e-09
9.61545e-09
9.79739e-09
9.9744e-09
1.01443e-08
1.03052e-08
1.0456e-08
1.05957e-08
1.07238e-08
1.08399e-08
1.09436e-08
1.10351e-08
1.11144e-08
1.11819e-08
1.1238e-08
1.12831e-08
1.13178e-08
1.13427e-08
1.13586e-08
1.13661e-08
9.17018e-09
9.24367e-09
9.34509e-09
9.46753e-09
9.60491e-09
9.75191e-09
9.90401e-09
1.00577e-08
1.02101e-08
1.03586e-08
1.05015e-08
1.0637e-08
1.07642e-08
1.0882e-08
1.09901e-08
1.10881e-08
1.1176e-08
1.12537e-08
1.13215e-08
1.13798e-08
1.14289e-08
1.14693e-08
1.15016e-08
1.15264e-08
1.1544e-08
1.15552e-08
1.15605e-08
9.70342e-09
9.75482e-09
9.82542e-09
9.91014e-09
1.00045e-08
1.01048e-08
1.02077e-08
1.03107e-08
1.04116e-08
1.05087e-08
1.06009e-08
1.06873e-08
1.07673e-08
1.08404e-08
1.09066e-08
1.09659e-08
1.10183e-08
1.10641e-08
1.11036e-08
1.11371e-08
1.1165e-08
1.11877e-08
1.12056e-08
1.12191e-08
1.12287e-08
1.12346e-08
1.12374e-08
9.87668e-09
9.90519e-09
9.94407e-09
9.99024e-09
1.00411e-08
1.00943e-08
1.0148e-08
1.02009e-08
1.02517e-08
1.02997e-08
1.03443e-08
1.03852e-08
1.04223e-08
1.04555e-08
1.04849e-08
1.05106e-08
1.05329e-08
1.05519e-08
1.0568e-08
1.05813e-08
1.05922e-08
1.06008e-08
1.06075e-08
1.06125e-08
1.06159e-08
1.0618e-08
1.06189e-08
9.71628e-09
9.72587e-09
9.73864e-09
9.7533e-09
9.76878e-09
9.78419e-09
9.79883e-09
9.81225e-09
9.82415e-09
9.83436e-09
9.84287e-09
9.84972e-09
9.85505e-09
9.85899e-09
9.86175e-09
9.8635e-09
9.86443e-09
9.86472e-09
9.86453e-09
9.864e-09
9.86327e-09
9.86243e-09
9.86159e-09
9.86083e-09
9.86019e-09
9.85973e-09
9.85949e-09
9.30681e-09
9.30303e-09
9.29742e-09
9.29005e-09
9.28099e-09
9.27035e-09
9.25829e-09
9.24504e-09
9.23085e-09
9.21601e-09
9.20079e-09
9.18548e-09
9.17035e-09
9.15563e-09
9.14154e-09
9.12825e-09
9.11591e-09
9.10463e-09
9.09449e-09
9.08554e-09
9.07781e-09
9.07129e-09
9.06598e-09
9.06183e-09
9.05881e-09
9.05686e-09
9.05592e-09
8.74268e-09
8.73062e-09
8.71368e-09
8.69279e-09
8.66877e-09
8.64237e-09
8.61429e-09
8.58518e-09
8.55563e-09
8.52614e-09
8.4972e-09
8.46918e-09
8.44242e-09
8.4172e-09
8.3937e-09
8.37209e-09
8.35247e-09
8.3349e-09
8.31938e-09
8.30592e-09
8.29446e-09
8.28494e-09
8.27727e-09
8.27136e-09
8.26711e-09
8.26439e-09
8.26309e-09
8.10255e-09
8.08604e-09
8.06306e-09
8.03502e-09
8.00314e-09
7.96854e-09
7.93221e-09
7.89502e-09
7.85773e-09
7.82097e-09
7.78528e-09
7.75111e-09
7.71879e-09
7.6886e-09
7.66072e-09
7.63529e-09
7.61236e-09
7.59196e-09
7.57407e-09
7.55863e-09
7.54556e-09
7.53476e-09
7.5261e-09
7.51946e-09
7.51469e-09
7.51166e-09
7.51021e-09
7.44223e-09
7.42387e-09
7.39839e-09
7.36743e-09
7.33241e-09
7.2946e-09
7.25512e-09
7.21492e-09
7.17483e-09
7.13552e-09
7.09755e-09
7.06137e-09
7.02732e-09
6.99564e-09
6.96651e-09
6.94003e-09
6.91625e-09
6.89516e-09
6.87672e-09
6.86085e-09
6.84746e-09
6.83641e-09
6.82758e-09
6.82082e-09
6.81598e-09
6.81291e-09
6.81145e-09
6.79707e-09
6.77845e-09
6.75267e-09
6.7214e-09
6.68612e-09
6.64814e-09
6.60859e-09
6.56845e-09
6.52852e-09
6.4895e-09
6.45191e-09
6.41618e-09
6.38264e-09
6.35151e-09
6.32295e-09
6.29704e-09
6.27382e-09
6.25327e-09
6.23533e-09
6.21991e-09
6.20692e-09
6.19622e-09
6.18768e-09
6.18115e-09
6.17648e-09
6.17352e-09
6.17211e-09
6.18715e-09
6.1692e-09
6.14435e-09
6.11426e-09
6.08036e-09
6.04392e-09
6.00605e-09
5.96767e-09
5.92956e-09
5.89238e-09
5.85662e-09
5.82269e-09
5.79088e-09
5.76141e-09
5.7344e-09
5.70994e-09
5.68803e-09
5.66867e-09
5.65178e-09
5.63728e-09
5.62508e-09
5.61504e-09
5.60702e-09
5.6009e-09
5.59653e-09
5.59376e-09
5.59244e-09
5.6223e-09
5.60548e-09
5.58222e-09
5.55406e-09
5.52238e-09
5.48836e-09
5.45304e-09
5.41728e-09
5.38182e-09
5.34725e-09
5.31404e-09
5.28256e-09
5.25307e-09
5.22578e-09
5.20079e-09
5.17817e-09
5.15793e-09
5.14005e-09
5.12447e-09
5.1111e-09
5.09985e-09
5.0906e-09
5.08322e-09
5.07759e-09
5.07357e-09
5.07102e-09
5.06981e-09
5.1059e-09
5.09042e-09
5.06902e-09
5.04314e-09
5.01403e-09
4.98279e-09
4.95037e-09
4.91757e-09
4.88508e-09
4.85341e-09
4.82302e-09
4.79423e-09
4.76728e-09
4.74234e-09
4.71952e-09
4.69888e-09
4.68042e-09
4.66412e-09
4.64991e-09
4.63774e-09
4.62749e-09
4.61907e-09
4.61236e-09
4.60723e-09
4.60357e-09
4.60125e-09
4.60015e-09
4.63758e-09
4.62349e-09
4.60402e-09
4.58047e-09
4.554e-09
4.5256e-09
4.49615e-09
4.46637e-09
4.43687e-09
4.40814e-09
4.38057e-09
4.35447e-09
4.33004e-09
4.30745e-09
4.28679e-09
4.2681e-09
4.25139e-09
4.23664e-09
4.2238e-09
4.21279e-09
4.20352e-09
4.19591e-09
4.18985e-09
4.18521e-09
4.18191e-09
4.17981e-09
4.17882e-09
4.21491e-09
4.20217e-09
4.18457e-09
4.16329e-09
4.13937e-09
4.11372e-09
4.08712e-09
4.06023e-09
4.03361e-09
4.00769e-09
3.98282e-09
3.95928e-09
3.93726e-09
3.9169e-09
3.89828e-09
3.88144e-09
3.86639e-09
3.85311e-09
3.84154e-09
3.83163e-09
3.82329e-09
3.81644e-09
3.81098e-09
3.80681e-09
3.80383e-09
3.80195e-09
3.80105e-09
3.83447e-09
3.823e-09
3.80715e-09
3.78799e-09
3.76646e-09
3.74337e-09
3.71944e-09
3.69525e-09
3.6713e-09
3.64798e-09
3.62562e-09
3.60446e-09
3.58467e-09
3.56637e-09
3.54963e-09
3.5345e-09
3.52098e-09
3.50905e-09
3.49866e-09
3.48976e-09
3.48227e-09
3.47612e-09
3.47121e-09
3.46747e-09
3.4648e-09
3.46311e-09
3.4623e-09
3.49248e-09
3.48217e-09
3.46793e-09
3.45072e-09
3.43137e-09
3.41063e-09
3.38913e-09
3.36741e-09
3.3459e-09
3.32497e-09
3.30489e-09
3.28589e-09
3.26813e-09
3.2517e-09
3.23669e-09
3.22311e-09
3.21098e-09
3.20027e-09
3.19095e-09
3.18297e-09
3.17625e-09
3.17073e-09
3.16633e-09
3.16297e-09
3.16058e-09
3.15906e-09
3.15834e-09
3.18514e-09
3.17589e-09
3.1631e-09
3.14765e-09
3.13029e-09
3.11167e-09
3.09237e-09
3.07288e-09
3.05357e-09
3.03479e-09
3.01678e-09
2.99973e-09
2.98379e-09
2.96906e-09
2.95559e-09
2.94341e-09
2.93253e-09
2.92293e-09
2.91457e-09
2.9074e-09
2.90138e-09
2.89643e-09
2.89248e-09
2.88947e-09
2.88732e-09
2.88596e-09
2.88531e-09
2.90887e-09
2.90056e-09
2.88908e-09
2.87521e-09
2.85962e-09
2.84291e-09
2.82559e-09
2.80809e-09
2.79077e-09
2.77391e-09
2.75775e-09
2.74245e-09
2.72815e-09
2.71493e-09
2.70284e-09
2.69191e-09
2.68215e-09
2.67353e-09
2.66603e-09
2.65961e-09
2.6542e-09
2.64976e-09
2.64622e-09
2.64352e-09
2.64159e-09
2.64037e-09
2.63979e-09
2.66033e-09
2.65287e-09
2.64256e-09
2.6301e-09
2.6161e-09
2.6011e-09
2.58554e-09
2.56983e-09
2.55427e-09
2.53913e-09
2.52462e-09
2.51088e-09
2.49804e-09
2.48617e-09
2.47531e-09
2.4655e-09
2.45674e-09
2.449e-09
2.44227e-09
2.4365e-09
2.43164e-09
2.42765e-09
2.42448e-09
2.42205e-09
2.42032e-09
2.41922e-09
2.4187e-09
2.43652e-09
2.42981e-09
2.42055e-09
2.40935e-09
2.39677e-09
2.38328e-09
2.3693e-09
2.35517e-09
2.34119e-09
2.32759e-09
2.31454e-09
2.30219e-09
2.29065e-09
2.27998e-09
2.27023e-09
2.26141e-09
2.25353e-09
2.24658e-09
2.24052e-09
2.23534e-09
2.23097e-09
2.22739e-09
2.22453e-09
2.22235e-09
2.22079e-09
2.21981e-09
2.21934e-09
2.23474e-09
2.2287e-09
2.22037e-09
2.21029e-09
2.19897e-09
2.18683e-09
2.17425e-09
2.16155e-09
2.14896e-09
2.13672e-09
2.12498e-09
2.11388e-09
2.10349e-09
2.09389e-09
2.08511e-09
2.07718e-09
2.07009e-09
2.06383e-09
2.05838e-09
2.05372e-09
2.04979e-09
2.04656e-09
2.04399e-09
2.04203e-09
2.04063e-09
2.03974e-09
2.03932e-09
2.05259e-09
2.04715e-09
2.03964e-09
2.03057e-09
2.02037e-09
2.00943e-09
1.9981e-09
1.98665e-09
1.97532e-09
1.96429e-09
1.95372e-09
1.94371e-09
1.93435e-09
1.9257e-09
1.91779e-09
1.91064e-09
1.90426e-09
1.89862e-09
1.89371e-09
1.88951e-09
1.88597e-09
1.88306e-09
1.88074e-09
1.87897e-09
1.87771e-09
1.87691e-09
1.87653e-09
1.88794e-09
1.88304e-09
1.87627e-09
1.86808e-09
1.85888e-09
1.84902e-09
1.8388e-09
1.82847e-09
1.81824e-09
1.80829e-09
1.79875e-09
1.78973e-09
1.78128e-09
1.77348e-09
1.76635e-09
1.7599e-09
1.75414e-09
1.74905e-09
1.74462e-09
1.74083e-09
1.73763e-09
1.73501e-09
1.73292e-09
1.73132e-09
1.73018e-09
1.72946e-09
1.72912e-09
1.73892e-09
1.73449e-09
1.72837e-09
1.72098e-09
1.71267e-09
1.70376e-09
1.69453e-09
1.6852e-09
1.67596e-09
1.66698e-09
1.65836e-09
1.6502e-09
1.64258e-09
1.63553e-09
1.62908e-09
1.62325e-09
1.61805e-09
1.61345e-09
1.60945e-09
1.60602e-09
1.60314e-09
1.60077e-09
1.59888e-09
1.59743e-09
1.5964e-09
1.59575e-09
1.59544e-09
1.60385e-09
1.59985e-09
1.59431e-09
1.58762e-09
1.58011e-09
1.57205e-09
1.5637e-09
1.55526e-09
1.54691e-09
1.53878e-09
1.53098e-09
1.5236e-09
1.5167e-09
1.51032e-09
1.50449e-09
1.49922e-09
1.49451e-09
1.49035e-09
1.48673e-09
1.48363e-09
1.48102e-09
1.47887e-09
1.47716e-09
1.47586e-09
1.47492e-09
1.47433e-09
1.47405e-09
1.48127e-09
1.47764e-09
1.47263e-09
1.46657e-09
1.45976e-09
1.45246e-09
1.4449e-09
1.43725e-09
1.42969e-09
1.42232e-09
1.41526e-09
1.40857e-09
1.40232e-09
1.39654e-09
1.39126e-09
1.38648e-09
1.38222e-09
1.37845e-09
1.37517e-09
1.37235e-09
1.36999e-09
1.36804e-09
1.36649e-09
1.36531e-09
1.36447e-09
1.36393e-09
1.36368e-09
1.36986e-09
1.36657e-09
1.36203e-09
1.35653e-09
1.35036e-09
1.34374e-09
1.33687e-09
1.32994e-09
1.32307e-09
1.31639e-09
1.30998e-09
1.30392e-09
1.29825e-09
1.293e-09
1.28821e-09
1.28387e-09
1.28e-09
1.27658e-09
1.2736e-09
1.27105e-09
1.2689e-09
1.26714e-09
1.26573e-09
1.26466e-09
1.26389e-09
1.2634e-09
1.26317e-09
1.26848e-09
1.26549e-09
1.26136e-09
1.25637e-09
1.25076e-09
1.24475e-09
1.23852e-09
1.23221e-09
1.22598e-09
1.21991e-09
1.21408e-09
1.20857e-09
1.20342e-09
1.19865e-09
1.1943e-09
1.19036e-09
1.18684e-09
1.18373e-09
1.18102e-09
1.1787e-09
1.17675e-09
1.17515e-09
1.17387e-09
1.17289e-09
1.17219e-09
1.17175e-09
1.17154e-09
1.1761e-09
1.17338e-09
1.16962e-09
1.16508e-09
1.15998e-09
1.15451e-09
1.14884e-09
1.1431e-09
1.13743e-09
1.1319e-09
1.1266e-09
1.12159e-09
1.1169e-09
1.11256e-09
1.10859e-09
1.10501e-09
1.1018e-09
1.09897e-09
1.09651e-09
1.0944e-09
1.09262e-09
1.09116e-09
1.08999e-09
1.0891e-09
1.08847e-09
1.08807e-09
1.08787e-09
1.0918e-09
1.08932e-09
1.0859e-09
1.08176e-09
1.07711e-09
1.07213e-09
1.06696e-09
1.06173e-09
1.05656e-09
1.05152e-09
1.04669e-09
1.04212e-09
1.03785e-09
1.03389e-09
1.03028e-09
1.02701e-09
1.02408e-09
1.0215e-09
1.01926e-09
1.01733e-09
1.01571e-09
1.01438e-09
1.01331e-09
1.0125e-09
1.01192e-09
1.01156e-09
1.01138e-09
1.01476e-09
1.0125e-09
1.00938e-09
1.0056e-09
1.00136e-09
9.9681e-10
9.92092e-10
9.87323e-10
9.826e-10
9.78003e-10
9.73594e-10
9.69419e-10
9.65515e-10
9.61904e-10
9.58602e-10
9.55615e-10
9.52946e-10
9.50589e-10
9.48536e-10
9.46776e-10
9.45295e-10
9.44077e-10
9.43106e-10
9.42364e-10
9.41834e-10
9.41498e-10
9.41339e-10
9.44265e-10
9.42199e-10
9.39345e-10
9.35894e-10
9.32014e-10
9.27854e-10
9.2354e-10
9.1918e-10
9.14861e-10
9.10657e-10
9.06624e-10
9.02805e-10
8.99233e-10
8.95929e-10
8.92907e-10
8.90175e-10
8.87732e-10
8.85574e-10
8.83695e-10
8.82084e-10
8.80728e-10
8.79613e-10
8.78724e-10
8.78045e-10
8.7756e-10
8.77252e-10
8.77106e-10
8.79652e-10
8.7776e-10
8.75146e-10
8.71986e-10
8.68433e-10
8.64623e-10
8.60671e-10
8.56676e-10
8.52719e-10
8.48866e-10
8.4517e-10
8.4167e-10
8.38396e-10
8.35367e-10
8.32597e-10
8.30091e-10
8.27851e-10
8.25872e-10
8.24148e-10
8.22671e-10
8.21427e-10
8.20404e-10
8.19588e-10
8.18965e-10
8.1852e-10
8.18237e-10
8.18103e-10
8.20333e-10
8.18598e-10
8.162e-10
8.133e-10
8.10039e-10
8.06542e-10
8.02914e-10
7.99247e-10
7.95614e-10
7.92076e-10
7.88682e-10
7.85467e-10
7.82459e-10
7.79676e-10
7.7713e-10
7.74827e-10
7.72768e-10
7.70949e-10
7.69365e-10
7.68006e-10
7.66862e-10
7.65921e-10
7.65171e-10
7.64598e-10
7.64188e-10
7.63929e-10
7.63805e-10
7.65778e-10
7.64182e-10
7.61977e-10
7.5931e-10
7.56311e-10
7.53094e-10
7.49757e-10
7.46382e-10
7.43039e-10
7.39782e-10
7.36657e-10
7.33697e-10
7.30927e-10
7.28364e-10
7.26019e-10
7.23897e-10
7.21999e-10
7.20323e-10
7.18863e-10
7.1761e-10
7.16555e-10
7.15688e-10
7.14996e-10
7.14468e-10
7.1409e-10
7.1385e-10
7.13737e-10
7.15503e-10
7.14032e-10
7.11999e-10
7.09541e-10
7.06775e-10
7.03809e-10
7.0073e-10
6.97617e-10
6.94532e-10
6.91527e-10
6.88642e-10
6.85909e-10
6.83351e-10
6.80983e-10
6.78817e-10
6.76856e-10
6.75103e-10
6.73553e-10
6.72203e-10
6.71045e-10
6.7007e-10
6.69268e-10
6.68628e-10
6.68139e-10
6.67789e-10
6.67568e-10
6.67462e-10
6.69069e-10
6.67709e-10
6.6583e-10
6.63557e-10
6.61e-10
6.58256e-10
6.55408e-10
6.52528e-10
6.49673e-10
6.46891e-10
6.44219e-10
6.41688e-10
6.39318e-10
6.37125e-10
6.35117e-10
6.33299e-10
6.31673e-10
6.30236e-10
6.28984e-10
6.27909e-10
6.27004e-10
6.2626e-10
6.25666e-10
6.25212e-10
6.24888e-10
6.24682e-10
6.24584e-10
6.26071e-10
6.24811e-10
6.23068e-10
6.2096e-10
6.18588e-10
6.16041e-10
6.13398e-10
6.10724e-10
6.08072e-10
6.05488e-10
6.03006e-10
6.00653e-10
5.9845e-10
5.96409e-10
5.94541e-10
5.9285e-10
5.91337e-10
5.89999e-10
5.88833e-10
5.87832e-10
5.86989e-10
5.86296e-10
5.85742e-10
5.85319e-10
5.85017e-10
5.84825e-10
5.84734e-10
5.86139e-10
5.84966e-10
5.83344e-10
5.81381e-10
5.79172e-10
5.76801e-10
5.74338e-10
5.71845e-10
5.69373e-10
5.66962e-10
5.64646e-10
5.6245e-10
5.60393e-10
5.58488e-10
5.56742e-10
5.55162e-10
5.53747e-10
5.52496e-10
5.51406e-10
5.50469e-10
5.49681e-10
5.49032e-10
5.48514e-10
5.48118e-10
5.47835e-10
5.47655e-10
5.4757e-10
5.48927e-10
5.47831e-10
5.46315e-10
5.44479e-10
5.42413e-10
5.40194e-10
5.37889e-10
5.35555e-10
5.3324e-10
5.30981e-10
5.2881e-10
5.2675e-10
5.2482e-10
5.23032e-10
5.21393e-10
5.19909e-10
5.1858e-10
5.17404e-10
5.16379e-10
5.15499e-10
5.14757e-10
5.14147e-10
5.13659e-10
5.13287e-10
5.13021e-10
5.12852e-10
5.12771e-10
5.14112e-10
5.13082e-10
5.11658e-10
5.09933e-10
5.07991e-10
5.05904e-10
5.03736e-10
5.01539e-10
4.99359e-10
4.97231e-10
4.95185e-10
4.93243e-10
4.91422e-10
4.89735e-10
4.88188e-10
4.86786e-10
4.8553e-10
4.84419e-10
4.8345e-10
4.82617e-10
4.81916e-10
4.81338e-10
4.80877e-10
4.80525e-10
4.80273e-10
4.80113e-10
4.80037e-10
4.81389e-10
4.80416e-10
4.7907e-10
4.7744e-10
4.75604e-10
4.73631e-10
4.71579e-10
4.69499e-10
4.67434e-10
4.65417e-10
4.63477e-10
4.61635e-10
4.59907e-10
4.58305e-10
4.56835e-10
4.55503e-10
4.54309e-10
4.53252e-10
4.5233e-10
4.51538e-10
4.50871e-10
4.50321e-10
4.49882e-10
4.49547e-10
4.49306e-10
4.49154e-10
4.49082e-10
4.5047e-10
4.49545e-10
4.48266e-10
4.46716e-10
4.44969e-10
4.4309e-10
4.41136e-10
4.39154e-10
4.37184e-10
4.35261e-10
4.33409e-10
4.31649e-10
4.29998e-10
4.28466e-10
4.27061e-10
4.25786e-10
4.24643e-10
4.23632e-10
4.22749e-10
4.2199e-10
4.2135e-10
4.20823e-10
4.20403e-10
4.20081e-10
4.19851e-10
4.19705e-10
4.19636e-10
4.21081e-10
4.20196e-10
4.18972e-10
4.17487e-10
4.15813e-10
4.14012e-10
4.12138e-10
4.10236e-10
4.08345e-10
4.06496e-10
4.04716e-10
4.03024e-10
4.01434e-10
3.99959e-10
3.98605e-10
3.97377e-10
3.96275e-10
3.953e-10
3.94448e-10
3.93716e-10
3.93099e-10
3.92591e-10
3.92186e-10
3.91875e-10
3.91654e-10
3.91513e-10
3.91446e-10
3.92966e-10
3.92113e-10
3.90932e-10
3.895e-10
3.87884e-10
3.86145e-10
3.84334e-10
3.82495e-10
3.80666e-10
3.78877e-10
3.77152e-10
3.75513e-10
3.73972e-10
3.72541e-10
3.71228e-10
3.70036e-10
3.68966e-10
3.68019e-10
3.67193e-10
3.66482e-10
3.65883e-10
3.65389e-10
3.64996e-10
3.64695e-10
3.64479e-10
3.64343e-10
3.64278e-10
3.65887e-10
3.65058e-10
3.63911e-10
3.62519e-10
3.60948e-10
3.59256e-10
3.57494e-10
3.55703e-10
3.53921e-10
3.52177e-10
3.50495e-10
3.48895e-10
3.47392e-10
3.45995e-10
3.44712e-10
3.43548e-10
3.42503e-10
3.41578e-10
3.4077e-10
3.40076e-10
3.39491e-10
3.3901e-10
3.38625e-10
3.38332e-10
3.38122e-10
3.37989e-10
3.37926e-10
3.39631e-10
3.38821e-10
3.37699e-10
3.36338e-10
3.348e-10
3.33144e-10
3.31417e-10
3.29662e-10
3.27915e-10
3.26204e-10
3.24555e-10
3.22985e-10
3.21509e-10
3.20138e-10
3.18878e-10
3.17735e-10
3.1671e-10
3.15802e-10
3.1501e-10
3.14329e-10
3.13756e-10
3.13284e-10
3.12908e-10
3.12621e-10
3.12416e-10
3.12286e-10
3.12225e-10
3.14028e-10
3.13231e-10
3.12128e-10
3.10789e-10
3.09276e-10
3.07646e-10
3.05947e-10
3.04219e-10
3.02498e-10
3.00813e-10
2.99188e-10
2.97641e-10
2.96187e-10
2.94836e-10
2.93596e-10
2.92471e-10
2.91462e-10
2.90569e-10
2.8979e-10
2.89122e-10
2.88559e-10
2.88097e-10
2.87729e-10
2.87448e-10
2.87248e-10
2.87122e-10
2.87062e-10
2.88955e-10
2.88169e-10
2.8708e-10
2.85759e-10
2.84266e-10
2.82656e-10
2.80978e-10
2.79271e-10
2.77571e-10
2.75906e-10
2.743e-10
2.72772e-10
2.71336e-10
2.70002e-10
2.68778e-10
2.67668e-10
2.66674e-10
2.65795e-10
2.65029e-10
2.64373e-10
2.63821e-10
2.63369e-10
2.63009e-10
2.62736e-10
2.62541e-10
2.62419e-10
2.62361e-10
2.64328e-10
2.6355e-10
2.62471e-10
2.61161e-10
2.59681e-10
2.58084e-10
2.56417e-10
2.54721e-10
2.5303e-10
2.51371e-10
2.49769e-10
2.48241e-10
2.46801e-10
2.45462e-10
2.44232e-10
2.43116e-10
2.42116e-10
2.41232e-10
2.40462e-10
2.39803e-10
2.39249e-10
2.38796e-10
2.38436e-10
2.38162e-10
2.37968e-10
2.37846e-10
2.37789e-10
2.39926e-10
2.39143e-10
2.38057e-10
2.36738e-10
2.35248e-10
2.33641e-10
2.31965e-10
2.30262e-10
2.28565e-10
2.26903e-10
2.25302e-10
2.23779e-10
2.2235e-10
2.21024e-10
2.1981e-10
2.18711e-10
2.17729e-10
2.16864e-10
2.16113e-10
2.15471e-10
2.14935e-10
2.14496e-10
2.1415e-10
2.13888e-10
2.13703e-10
2.13587e-10
2.13532e-10
2.15744e-10
2.14975e-10
2.13909e-10
2.12616e-10
2.11156e-10
2.09584e-10
2.07947e-10
2.06285e-10
2.04632e-10
2.03018e-10
2.01465e-10
1.99993e-10
1.98614e-10
1.97339e-10
1.96175e-10
1.95125e-10
1.94191e-10
1.93371e-10
1.92662e-10
1.92059e-10
1.91557e-10
1.9115e-10
1.9083e-10
1.9059e-10
1.90421e-10
1.90316e-10
1.90267e-10
1.92401e-10
1.91664e-10
1.90645e-10
1.8941e-10
1.88018e-10
1.86521e-10
1.84965e-10
1.83389e-10
1.81826e-10
1.80304e-10
1.78844e-10
1.77464e-10
1.76177e-10
1.74992e-10
1.73916e-10
1.7295e-10
1.72094e-10
1.71348e-10
1.70708e-10
1.70168e-10
1.69722e-10
1.69363e-10
1.69084e-10
1.68877e-10
1.68733e-10
1.68645e-10
1.68605e-10
1.70467e-10
1.69785e-10
1.68841e-10
1.67699e-10
1.66415e-10
1.65038e-10
1.63611e-10
1.6217e-10
1.60747e-10
1.59367e-10
1.58051e-10
1.56813e-10
1.55666e-10
1.54617e-10
1.53671e-10
1.5283e-10
1.52092e-10
1.51456e-10
1.50916e-10
1.50467e-10
1.50102e-10
1.49814e-10
1.49594e-10
1.49434e-10
1.49326e-10
1.49262e-10
1.49234e-10
1.50561e-10
1.49957e-10
1.49122e-10
1.48116e-10
1.46988e-10
1.45784e-10
1.44542e-10
1.43296e-10
1.42074e-10
1.40898e-10
1.39785e-10
1.3875e-10
1.37801e-10
1.36945e-10
1.36184e-10
1.35519e-10
1.34948e-10
1.34465e-10
1.34067e-10
1.33746e-10
1.33494e-10
1.33304e-10
1.33166e-10
1.33072e-10
1.33014e-10
1.32983e-10
1.32971e-10
1.33381e-10
1.32883e-10
1.32199e-10
1.31378e-10
1.30465e-10
1.29498e-10
1.28511e-10
1.27533e-10
1.26586e-10
1.2569e-10
1.24859e-10
1.24102e-10
1.23426e-10
1.22835e-10
1.2233e-10
1.21907e-10
1.21564e-10
1.21294e-10
1.21091e-10
1.20946e-10
1.20851e-10
1.20796e-10
1.20772e-10
1.2077e-10
1.2078e-10
1.20795e-10
1.20806e-10
1.19719e-10
1.19364e-10
1.1888e-10
1.18308e-10
1.17682e-10
1.17034e-10
1.16389e-10
1.15771e-10
1.15196e-10
1.14679e-10
1.14229e-10
1.13851e-10
1.13549e-10
1.13322e-10
1.13167e-10
1.13079e-10