/*--------------------------------*- C++ -*----------------------------------*\
| =========                 |                                                 |
| \\      /  F ield         | OpenFOAM: The Open Source CFD Toolbox           |
|  \\    /   O peration     | Version:  2106                                  |
|   \\  /    A nd           | Website:  www.openfoam.com                      |
|    \\/     M anipulation  |                                                 |
\*---------------------------------------------------------------------------*/
FoamFile
{
    version     2.0;
    format      ascii;
    arch        "LSB;label=32;scalar=64";
    class       volScalarField;
    location    "110.00000";
    object      A1C2H_0;
}
// * * * * * * * * * * * * * * * * * * * * * * * * * * * * * * * * * * * * * //

dimensions      [0 0 0 0 0 0 0];

internalField   nonuniform List<scalar> 
3360
(
1.15886e-19
1.19615e-19
1.24806e-19
1.31155e-19
1.38397e-19
1.46296e-19
1.54637e-19
1.63225e-19
1.7189e-19
1.80477e-19
1.88855e-19
1.96913e-19
2.04558e-19
2.11715e-19
2.18329e-19
2.24361e-19
2.29786e-19
2.34595e-19
2.38789e-19
2.42381e-19
2.45392e-19
2.47851e-19
2.49794e-19
2.51259e-19
2.5229e-19
2.52931e-19
2.53229e-19
5.0838e-19
5.27069e-19
5.53442e-19
5.86285e-19
6.24591e-19
6.67485e-19
7.14181e-19
7.63963e-19
8.16163e-19
8.7015e-19
9.25318e-19
9.81078e-19
1.03685e-18
1.09206e-18
1.14614e-18
1.19854e-18
1.24872e-18
1.29615e-18
1.34032e-18
1.38076e-18
1.41704e-18
1.44878e-18
1.47563e-18
1.49736e-18
1.51375e-18
1.5247e-18
1.53016e-18
1.5952e-18
1.66523e-18
1.76472e-18
1.88975e-18
2.03704e-18
2.20363e-18
2.38673e-18
2.58359e-18
2.79141e-18
3.00734e-18
3.22847e-18
3.45191e-18
3.67478e-18
3.89427e-18
4.10764e-18
4.31229e-18
4.50582e-18
4.68607e-18
4.85116e-18
4.99956e-18
5.13005e-18
5.2418e-18
5.3343e-18
5.40742e-18
5.46133e-18
5.49648e-18
5.51359e-18
4.64597e-18
4.87677e-18
5.20693e-18
5.62466e-18
6.12007e-18
6.68392e-18
7.30697e-18
7.97963e-18
8.69184e-18
9.43305e-18
1.01923e-17
1.09586e-17
1.17208e-17
1.24681e-17
1.31905e-17
1.38785e-17
1.45238e-17
1.51195e-17
1.56597e-17
1.61403e-17
1.65585e-17
1.69127e-17
1.72029e-17
1.74298e-17
1.75954e-17
1.77023e-17
1.77539e-17
1.35746e-17
1.43028e-17
1.53464e-17
1.66698e-17
1.82429e-17
2.00364e-17
2.20205e-17
2.41636e-17
2.64319e-17
2.87898e-17
3.12005e-17
3.36268e-17
3.60324e-17
3.83825e-17
4.06448e-17
4.27907e-17
4.47951e-17
4.66375e-17
4.8302e-17
4.97773e-17
5.10563e-17
5.21363e-17
5.30181e-17
5.37059e-17
5.42065e-17
5.45291e-17
5.46843e-17
4.00275e-17
4.22638e-17
4.5473e-17
4.95462e-17
5.43902e-17
5.99148e-17
6.60266e-17
7.26261e-17
7.96072e-17
8.68579e-17
9.4263e-17
1.01707e-16
1.09076e-16
1.16263e-16
1.2317e-16
1.2971e-16
1.35807e-16
1.41402e-16
1.46447e-16
1.5091e-16
1.54774e-16
1.58031e-16
1.60686e-16
1.62754e-16
1.64258e-16
1.65225e-16
1.6569e-16
1.1891e-16
1.25706e-16
1.35457e-16
1.47835e-16
1.62555e-16
1.79338e-16
1.97897e-16
2.17927e-16
2.39098e-16
2.61069e-16
2.83488e-16
3.06002e-16
3.28268e-16
3.49964e-16
3.70795e-16
3.905e-16
4.08857e-16
4.25688e-16
4.40856e-16
4.54268e-16
4.65871e-16
4.75649e-16
4.83618e-16
4.89823e-16
4.94332e-16
4.97233e-16
4.98628e-16
3.54416e-16
3.74865e-16
4.04225e-16
4.41505e-16
4.85847e-16
5.36416e-16
5.92339e-16
6.52686e-16
7.16465e-16
7.82638e-16
8.50137e-16
9.179e-16
9.84892e-16
1.05014e-15
1.11276e-15
1.17197e-15
1.22711e-15
1.27763e-15
1.32315e-15
1.36338e-15
1.39816e-15
1.42747e-15
1.45134e-15
1.46992e-15
1.48342e-15
1.4921e-15
1.49627e-15
1.05914e-15
1.1206e-15
1.20882e-15
1.32083e-15
1.45404e-15
1.60593e-15
1.77386e-15
1.95502e-15
2.14642e-15
2.34494e-15
2.54737e-15
2.75051e-15
2.95127e-15
3.14675e-15
3.33429e-15
3.51157e-15
3.67661e-15
3.82783e-15
3.96403e-15
4.0844e-15
4.18847e-15
4.27613e-15
4.34754e-15
4.40312e-15
4.44349e-15
4.46946e-15
4.48194e-15
3.16519e-15
3.34927e-15
3.61356e-15
3.94912e-15
4.3482e-15
4.80323e-15
5.3063e-15
5.84895e-15
6.42223e-15
7.01672e-15
7.62281e-15
8.23094e-15
8.83183e-15
9.41678e-15
9.97785e-15
1.05081e-14
1.10016e-14
1.14537e-14
1.18608e-14
1.22204e-14
1.25313e-14
1.27931e-14
1.30063e-14
1.31723e-14
1.32928e-14
1.33703e-14
1.34075e-14
9.46323e-15
1.00143e-14
1.08053e-14
1.18093e-14
1.30032e-14
1.43642e-14
1.58683e-14
1.74904e-14
1.92034e-14
2.09792e-14
2.27891e-14
2.46044e-14
2.63976e-14
2.81426e-14
2.98159e-14
3.13968e-14
3.28679e-14
3.42151e-14
3.5428e-14
3.64994e-14
3.74254e-14
3.82051e-14
3.884e-14
3.9334e-14
3.96928e-14
3.99235e-14
4.00343e-14
2.82642e-14
2.99093e-14
3.22705e-14
3.52673e-14
3.88299e-14
4.28899e-14
4.73759e-14
5.22119e-14
5.73173e-14
6.2608e-14
6.79981e-14
7.34024e-14
7.87384e-14
8.39292e-14
8.89048e-14
9.36037e-14
9.79745e-14
1.01976e-13
1.05577e-13
1.08757e-13
1.11504e-13
1.13816e-13
1.15699e-13
1.17163e-13
1.18227e-13
1.1891e-13
1.19239e-13
8.43173e-14
8.92194e-14
9.62526e-14
1.05175e-13
1.15777e-13
1.27852e-13
1.41186e-13
1.5555e-13
1.70705e-13
1.86399e-13
2.02377e-13
2.18385e-13
2.34182e-13
2.49538e-13
2.64248e-13
2.78133e-13
2.9104e-13
3.0285e-13
3.13474e-13
3.22851e-13
3.30949e-13
3.37764e-13
3.43309e-13
3.47622e-13
3.50752e-13
3.52764e-13
3.5373e-13
2.50766e-13
2.65304e-13
2.86153e-13
3.12591e-13
3.43984e-13
3.79715e-13
4.19138e-13
4.61575e-13
5.06306e-13
5.52585e-13
5.99656e-13
6.46774e-13
6.93222e-13
7.38334e-13
7.81509e-13
8.22222e-13
8.60039e-13
8.94613e-13
9.25688e-13
9.53096e-13
9.76751e-13
9.96642e-13
1.01282e-12
1.02539e-12
1.03452e-12
1.04038e-12
1.04319e-12
7.42971e-13
7.85835e-13
8.47268e-13
9.25097e-13
1.01742e-12
1.12238e-12
1.23804e-12
1.36237e-12
1.49324e-12
1.62845e-12
1.76577e-12
1.90303e-12
2.03814e-12
2.16919e-12
2.29443e-12
2.41239e-12
2.52181e-12
2.62174e-12
2.71146e-12
2.79052e-12
2.85868e-12
2.91596e-12
2.9625e-12
2.99866e-12
3.02487e-12
3.0417e-12
3.04978e-12
2.18797e-12
2.31311e-12
2.49231e-12
2.71906e-12
2.98768e-12
3.29257e-12
3.62799e-12
3.9879e-12
4.36601e-12
4.75591e-12
5.15113e-12
5.5454e-12
5.93276e-12
6.30775e-12
6.6655e-12
7.00184e-12
7.31334e-12
7.59735e-12
7.85195e-12
8.07598e-12
8.26891e-12
8.4308e-12
8.56222e-12
8.6642e-12
8.73808e-12
8.78547e-12
8.80819e-12
6.39224e-12
6.75277e-12
7.26835e-12
7.9197e-12
8.68976e-12
9.56188e-12
1.0519e-11
1.15434e-11
1.26169e-11
1.37208e-11
1.48369e-11
1.59473e-11
1.70354e-11
1.80862e-11
1.90862e-11
2.00241e-11
2.08909e-11
2.16796e-11
2.23853e-11
2.30051e-11
2.35379e-11
2.39844e-11
2.43464e-11
2.46269e-11
2.48298e-11
2.49599e-11
2.50223e-11
1.84743e-11
1.94937e-11
2.09492e-11
2.27837e-11
2.49469e-11
2.73896e-11
3.0062e-11
3.29127e-11
3.58896e-11
3.89405e-11
4.20142e-11
4.50621e-11
4.8039e-11
5.09044e-11
5.36231e-11
5.61659e-11
5.85093e-11
6.0636e-11
6.25344e-11
6.41981e-11
6.56256e-11
6.68195e-11
6.77857e-11
6.85334e-11
6.90736e-11
6.94195e-11
6.9585e-11
5.26451e-11
5.54575e-11
5.94636e-11
6.44985e-11
7.04154e-11
7.70716e-11
8.4324e-11
9.20281e-11
1.00039e-10
1.08214e-10
1.16415e-10
1.24513e-10
1.32392e-10
1.39947e-10
1.47089e-10
1.53746e-10
1.59861e-10
1.65395e-10
1.70321e-10
1.74627e-10
1.78314e-10
1.8139e-10
1.83875e-10
1.85795e-10
1.8718e-10
1.88066e-10
1.88489e-10
1.47295e-10
1.5481e-10
1.65486e-10
1.78856e-10
1.94504e-10
2.12026e-10
2.31027e-10
2.5111e-10
2.71889e-10
2.92987e-10
3.1405e-10
3.34752e-10
3.54801e-10
3.73943e-10
3.91966e-10
4.08702e-10
4.24023e-10
4.37841e-10
4.50105e-10
4.60797e-10
4.69927e-10
4.7753e-10
4.83659e-10
4.88385e-10
4.91789e-10
4.93963e-10
4.95e-10
4.02687e-10
4.22001e-10
4.4935e-10
4.83463e-10
5.23198e-10
5.67466e-10
6.15208e-10
6.65393e-10
7.17028e-10
7.69173e-10
8.20959e-10
8.716e-10
9.20408e-10
9.66798e-10
1.01029e-09
1.05053e-09
1.08722e-09
1.12021e-09
1.1494e-09
1.17477e-09
1.19639e-09
1.21435e-09
1.22879e-09
1.23992e-09
1.24791e-09
1.25301e-09
1.25544e-09
1.06986e-09
1.11728e-09
1.18421e-09
1.26732e-09
1.36366e-09
1.47041e-09
1.58489e-09
1.70455e-09
1.82696e-09
1.94991e-09
2.07137e-09
2.18955e-09
2.30291e-09
2.41018e-09
2.51034e-09
2.60263e-09
2.68652e-09
2.76169e-09
2.82801e-09
2.88552e-09
2.93439e-09
2.97491e-09
3.00744e-09
3.03244e-09
3.0504e-09
3.06183e-09
3.06727e-09
2.74767e-09
2.85843e-09
3.01423e-09
3.2069e-09
3.42913e-09
3.6741e-09
3.93539e-09
4.20702e-09
4.48344e-09
4.75962e-09
5.03111e-09
5.29403e-09
5.54514e-09
5.7818e-09
6.00195e-09
6.20411e-09
6.38728e-09
6.55094e-09
6.69496e-09
6.81956e-09
6.92521e-09
7.01264e-09
7.08273e-09
7.1365e-09
7.17507e-09
7.1996e-09
7.21127e-09
6.79156e-09
7.03731e-09
7.38195e-09
7.80654e-09
8.29414e-09
8.82914e-09
9.39707e-09
9.98462e-09
1.05798e-08
1.11717e-08
1.17511e-08
1.231e-08
1.28417e-08
1.33411e-08
1.38042e-08
1.42282e-08
1.46113e-08
1.49528e-08
1.52527e-08
1.55115e-08
1.57307e-08
1.59117e-08
1.60567e-08
1.61677e-08
1.62473e-08
1.62978e-08
1.63219e-08
1.61151e-08
1.66341e-08
1.73603e-08
1.8252e-08
1.92725e-08
2.03878e-08
2.15671e-08
2.27824e-08
2.40087e-08
2.5224e-08
2.64093e-08
2.7549e-08
2.863e-08
2.96425e-08
3.05789e-08
3.14342e-08
3.22055e-08
3.28916e-08
3.3493e-08
3.40115e-08
3.44496e-08
3.48112e-08
3.51003e-08
3.53217e-08
3.54801e-08
3.55806e-08
3.56284e-08
3.66932e-08
3.77422e-08
3.92068e-08
4.10011e-08
4.30487e-08
4.52801e-08
4.76326e-08
5.00497e-08
5.24815e-08
5.48849e-08
5.7223e-08
5.94655e-08
6.15879e-08
6.35715e-08
6.54025e-08
6.70721e-08
6.85752e-08
6.99104e-08
7.10792e-08
7.20856e-08
7.29353e-08
7.36357e-08
7.41954e-08
7.46234e-08
7.49296e-08
7.51239e-08
7.52161e-08
8.03071e-08
8.23497e-08
8.51974e-08
8.86803e-08
9.26472e-08
9.69614e-08
1.015e-07
1.06154e-07
1.10827e-07
1.15436e-07
1.19912e-07
1.24198e-07
1.28249e-07
1.32029e-07
1.35514e-07
1.38687e-07
1.41542e-07
1.44075e-07
1.4629e-07
1.48196e-07
1.49804e-07
1.51129e-07
1.52187e-07
1.52996e-07
1.53574e-07
1.53941e-07
1.54115e-07
1.69468e-07
1.7333e-07
1.78709e-07
1.85281e-07
1.92758e-07
2.00878e-07
2.0941e-07
2.18148e-07
2.26911e-07
2.35545e-07
2.43921e-07
2.51933e-07
2.59498e-07
2.66552e-07
2.7305e-07
2.78965e-07
2.84281e-07
2.88995e-07
2.93117e-07
2.96662e-07
2.99651e-07
3.02113e-07
3.04078e-07
3.0558e-07
3.06654e-07
3.07335e-07
3.07658e-07
3.46116e-07
3.53258e-07
3.63203e-07
3.75346e-07
3.89152e-07
4.04137e-07
4.19872e-07
4.35976e-07
4.52118e-07
4.68015e-07
4.83429e-07
4.98167e-07
5.12077e-07
5.25044e-07
5.36986e-07
5.47852e-07
5.57616e-07
5.66275e-07
5.73843e-07
5.8035e-07
5.85838e-07
5.90357e-07
5.93964e-07
5.9672e-07
5.98691e-07
5.9994e-07
6.00533e-07
6.864e-07
6.99396e-07
7.17491e-07
7.39581e-07
7.64692e-07
7.91947e-07
8.20562e-07
8.49847e-07
8.792e-07
9.08107e-07
9.36138e-07
9.62942e-07
9.88241e-07
1.01183e-06
1.03355e-06
1.05332e-06
1.07109e-06
1.08685e-06
1.10062e-06
1.11246e-06
1.12245e-06
1.13068e-06
1.13725e-06
1.14227e-06
1.14586e-06
1.14813e-06
1.14921e-06
1.32381e-06
1.34713e-06
1.3796e-06
1.41926e-06
1.46434e-06
1.51329e-06
1.56471e-06
1.61735e-06
1.67014e-06
1.72215e-06
1.77261e-06
1.8209e-06
1.86649e-06
1.90902e-06
1.94822e-06
1.98391e-06
2.016e-06
2.04447e-06
2.06937e-06
2.09078e-06
2.10886e-06
2.12374e-06
2.13563e-06
2.14472e-06
2.15122e-06
2.15534e-06
2.1573e-06
2.47981e-06
2.5209e-06
2.57813e-06
2.64805e-06
2.72759e-06
2.81401e-06
2.90485e-06
2.99792e-06
3.09134e-06
3.18347e-06
3.27294e-06
3.35861e-06
3.4396e-06
3.51522e-06
3.58497e-06
3.64853e-06
3.70572e-06
3.75652e-06
3.80097e-06
3.83923e-06
3.87154e-06
3.89816e-06
3.91944e-06
3.93571e-06
3.94735e-06
3.95473e-06
3.95823e-06
4.49154e-06
4.5617e-06
4.65946e-06
4.77893e-06
4.91491e-06
5.0627e-06
5.21812e-06
5.37747e-06
5.53751e-06
5.69543e-06
5.8489e-06
5.99596e-06
6.13507e-06
6.26505e-06
6.38502e-06
6.49441e-06
6.59291e-06
6.68043e-06
6.75706e-06
6.82307e-06
6.87881e-06
6.92478e-06
6.96152e-06
6.98964e-06
7.00975e-06
7.02251e-06
7.02857e-06
7.81361e-06
7.92755e-06
8.08625e-06
8.28013e-06
8.5007e-06
8.74034e-06
8.99225e-06
9.25039e-06
9.50953e-06
9.76513e-06
1.00134e-05
1.02512e-05
1.04761e-05
1.06861e-05
1.08798e-05
1.10565e-05
1.12154e-05
1.13567e-05
1.14803e-05
1.15868e-05
1.16767e-05
1.17508e-05
1.181e-05
1.18553e-05
1.18878e-05
1.19083e-05
1.19181e-05
1.29702e-05
1.31432e-05
1.3384e-05
1.36778e-05
1.40115e-05
1.43737e-05
1.47537e-05
1.51426e-05
1.55322e-05
1.5916e-05
1.62881e-05
1.66441e-05
1.69801e-05
1.72935e-05
1.75823e-05
1.78452e-05
1.80817e-05
1.82915e-05
1.8475e-05
1.86329e-05
1.87662e-05
1.8876e-05
1.89638e-05
1.90309e-05
1.90789e-05
1.91093e-05
1.91238e-05
2.04594e-05
2.07034e-05
2.10426e-05
2.14559e-05
2.19245e-05
2.2432e-05
2.29634e-05
2.3506e-05
2.40486e-05
2.45818e-05
2.50978e-05
2.55904e-05
2.60546e-05
2.64869e-05
2.68845e-05
2.72461e-05
2.75709e-05
2.78588e-05
2.81103e-05
2.83267e-05
2.85091e-05
2.86594e-05
2.87794e-05
2.88712e-05
2.89368e-05
2.89784e-05
2.89982e-05
3.06506e-05
3.09718e-05
3.14176e-05
3.19601e-05
3.25741e-05
3.32377e-05
3.39313e-05
3.4638e-05
3.53433e-05
3.60351e-05
3.67034e-05
3.73402e-05
3.79394e-05
3.84965e-05
3.90085e-05
3.94735e-05
3.98907e-05
4.02602e-05
4.0583e-05
4.08603e-05
4.10942e-05
4.12867e-05
4.14405e-05
4.1558e-05
4.16421e-05
4.16955e-05
4.17208e-05
4.37257e-05
4.41243e-05
4.4677e-05
4.53486e-05
4.61079e-05
4.69272e-05
4.77822e-05
4.8652e-05
4.95187e-05
5.03675e-05
5.11864e-05
5.19658e-05
5.26983e-05
5.33787e-05
5.40034e-05
5.45703e-05
5.50787e-05
5.55288e-05
5.59217e-05
5.62592e-05
5.65438e-05
5.67781e-05
5.69651e-05
5.71081e-05
5.72105e-05
5.72754e-05
5.73062e-05
5.96789e-05
6.01507e-05
6.08048e-05
6.15988e-05
6.24955e-05
6.3462e-05
6.44696e-05
6.54934e-05
6.65125e-05
6.75096e-05
6.84706e-05
6.93845e-05
7.02428e-05
7.10394e-05
7.17705e-05
7.24336e-05
7.3028e-05
7.35541e-05
7.40132e-05
7.44076e-05
7.47401e-05
7.50138e-05
7.52324e-05
7.53995e-05
7.55191e-05
7.5595e-05
7.56311e-05
7.83558e-05
7.88946e-05
7.9641e-05
8.05466e-05
8.15686e-05
8.26693e-05
8.38159e-05
8.49801e-05
8.61382e-05
8.72704e-05
8.83609e-05
8.93974e-05
9.03703e-05
9.1273e-05
9.2101e-05
9.28518e-05
9.35247e-05
9.41201e-05
9.46397e-05
9.5086e-05
9.54622e-05
9.57719e-05
9.60192e-05
9.62084e-05
9.63437e-05
9.64296e-05
9.64704e-05
9.95057e-05
0.000100104
0.000100932
0.000101937
0.00010307
0.000104289
0.000105559
0.000106848
0.000108129
0.000109381
0.000110587
0.000111732
0.000112806
0.000113803
0.000114717
0.000115546
0.000116288
0.000116945
0.000117518
0.00011801
0.000118425
0.000118767
0.000119039
0.000119248
0.000119397
0.000119492
0.000119537
0.000122827
0.000123476
0.000124375
0.000125466
0.000126695
0.000128018
0.000129395
0.000130791
0.000132179
0.000133535
0.00013484
0.000136079
0.000137242
0.000138319
0.000139308
0.000140203
0.000141006
0.000141716
0.000142335
0.000142867
0.000143315
0.000143685
0.000143979
0.000144205
0.000144366
0.000144469
0.000144517
0.000148001
0.000148694
0.000149654
0.000150817
0.000152128
0.000153538
0.000155006
0.000156494
0.000157972
0.000159416
0.000160805
0.000162124
0.00016336
0.000164507
0.000165558
0.00016651
0.000167364
0.000168118
0.000168777
0.000169342
0.000169818
0.000170211
0.000170524
0.000170764
0.000170935
0.000171044
0.000171096
0.000174718
0.000175447
0.000176457
0.000177681
0.00017906
0.000180543
0.000182086
0.00018365
0.000185203
0.00018672
0.000188178
0.000189563
0.000190861
0.000192065
0.000193167
0.000194167
0.000195062
0.000195853
0.000196544
0.000197136
0.000197636
0.000198047
0.000198376
0.000198627
0.000198807
0.000198921
0.000198975
0.000202688
0.000203447
0.000204498
0.000205771
0.000207205
0.000208748
0.000210352
0.000211977
0.000213591
0.000215167
0.000216682
0.00021812
0.000219467
0.000220717
0.000221861
0.000222898
0.000223827
0.000224648
0.000225364
0.000225979
0.000226497
0.000226924
0.000227264
0.000227525
0.000227711
0.00022783
0.000227886
0.00023165
0.000232433
0.000233517
0.000234829
0.000236307
0.000237897
0.000239549
0.000241223
0.000242885
0.000244507
0.000246066
0.000247546
0.000248933
0.000250218
0.000251395
0.000252462
0.000253417
0.000254261
0.000254997
0.00025563
0.000256162
0.000256601
0.000256951
0.000257219
0.00025741
0.000257532
0.00025759
0.000261376
0.000262177
0.000263285
0.000264628
0.00026614
0.000267765
0.000269455
0.000271166
0.000272865
0.000274522
0.000276116
0.000277627
0.000279044
0.000280356
0.000281558
0.000282647
0.000283622
0.000284484
0.000285235
0.00028588
0.000286424
0.000286871
0.000287229
0.000287502
0.000287697
0.000287822
0.000287881
0.000291666
0.00029248
0.000293607
0.000294972
0.000296509
0.000298161
0.000299877
0.000301616
0.000303342
0.000305025
0.000306643
0.000308178
0.000309616
0.000310948
0.000312168
0.000313273
0.000314262
0.000315137
0.000315899
0.000316554
0.000317105
0.000317559
0.000317922
0.000318199
0.000318397
0.000318523
0.000318583
0.00032235
0.000323174
0.000324314
0.000325694
0.000327249
0.000328919
0.000330654
0.000332412
0.000334156
0.000335857
0.000337492
0.000339043
0.000340495
0.000341841
0.000343073
0.000344189
0.000345187
0.00034607
0.00034684
0.000347501
0.000348058
0.000348516
0.000348881
0.000349161
0.000349361
0.000349488
0.000349549
0.000353286
0.000354116
0.000355264
0.000356654
0.000358219
0.000359901
0.000361648
0.000363417
0.000365172
0.000366884
0.000368529
0.000370089
0.000371551
0.000372904
0.000374143
0.000375265
0.00037627
0.000377158
0.000377932
0.000378596
0.000379156
0.000379616
0.000379984
0.000380265
0.000380466
0.000380594
0.000380655
0.000384353
0.000385186
0.000386338
0.000387733
0.000389304
0.000390991
0.000392743
0.000394518
0.000396278
0.000397995
0.000399645
0.000401209
0.000402674
0.00040403
0.000405273
0.000406397
0.000407404
0.000408294
0.000409069
0.000409735
0.000410296
0.000410757
0.000411126
0.000411407
0.000411609
0.000411737
0.000411798
0.000415452
0.000416285
0.000417438
0.000418833
0.000420404
0.000422092
0.000423845
0.00042562
0.00042738
0.000429097
0.000430746
0.00043231
0.000433775
0.000435131
0.000436372
0.000437496
0.000438502
0.000439392
0.000440167
0.000440832
0.000441392
0.000441853
0.000442221
0.000442503
0.000442704
0.000442832
0.000442893
0.000446497
0.000447329
0.00044848
0.000449872
0.00045144
0.000453124
0.000454873
0.000456644
0.0004584
0.000460113
0.000461758
0.000463318
0.000464779
0.000466131
0.000467369
0.00046849
0.000469493
0.00047038
0.000471152
0.000471816
0.000472374
0.000472834
0.000473201
0.000473481
0.000473682
0.00047381
0.00047387
0.000477422
0.000478251
0.000479397
0.000480784
0.000482345
0.000484022
0.000485764
0.000487527
0.000489276
0.00049098
0.000492618
0.000494171
0.000495625
0.000496971
0.000498203
0.000499319
0.000500317
0.000501199
0.000501968
0.000502628
0.000503183
0.000503641
0.000504006
0.000504285
0.000504485
0.000504612
0.000504672
0.00050817
0.000508993
0.000510133
0.000511512
0.000513064
0.000514731
0.000516462
0.000518215
0.000519953
0.000521647
0.000523275
0.000524818
0.000526262
0.0005276
0.000528824
0.000529933
0.000530924
0.000531801
0.000532565
0.00053322
0.000533772
0.000534227
0.000534589
0.000534867
0.000535065
0.000535191
0.000535251
0.000538693
0.000539511
0.000540642
0.000542011
0.000543552
0.000545206
0.000546925
0.000548664
0.000550389
0.000552071
0.000553686
0.000555217
0.000556651
0.000557978
0.000559193
0.000560293
0.000561277
0.000562146
0.000562904
0.000563554
0.000564102
0.000564553
0.000564912
0.000565188
0.000565384
0.000565509
0.000565569
0.000568954
0.000569765
0.000570886
0.000572243
0.000573771
0.000575412
0.000577115
0.00057884
0.00058055
0.000582217
0.000583818
0.000585335
0.000586756
0.000588072
0.000589276
0.000590365
0.00059134
0.000592202
0.000592953
0.000593597
0.00059414
0.000594587
0.000594943
0.000595216
0.000595411
0.000595534
0.000595593
0.000598921
0.000599724
0.000600835
0.000602179
0.000603692
0.000605317
0.000607004
0.000608712
0.000610405
0.000612056
0.000613641
0.000615144
0.000616551
0.000617853
0.000619045
0.000620124
0.000621089
0.000621942
0.000622686
0.000623323
0.000623861
0.000624303
0.000624656
0.000624925
0.000625118
0.000625241
0.000625299
0.000628569
0.000629364
0.000630463
0.000631793
0.000633291
0.000634898
0.000636567
0.000638257
0.000639932
0.000641565
0.000643134
0.00064462
0.000646012
0.0006473
0.000648479
0.000649546
0.000650501
0.000651345
0.00065208
0.000652711
0.000653242
0.000653679
0.000654028
0.000654295
0.000654486
0.000654607
0.000654665
0.000657877
0.000658663
0.000659749
0.000661065
0.000662545
0.000664134
0.000665785
0.000667455
0.000669111
0.000670725
0.000672275
0.000673745
0.00067512
0.000676394
0.000677559
0.000678614
0.000679557
0.000680391
0.000681118
0.000681741
0.000682267
0.000682699
0.000683043
0.000683307
0.000683496
0.000683615
0.000683672
0.000686826
0.000687603
0.000688676
0.000689976
0.000691438
0.000693008
0.000694639
0.000696289
0.000697925
0.000699519
0.000701051
0.000702502
0.000703861
0.000705118
0.000706269
0.000707311
0.000708243
0.000709067
0.000709784
0.0007104
0.000710919
0.000711346
0.000711686
0.000711946
0.000712133
0.000712251
0.000712307
0.000715402
0.000716169
0.000717229
0.000718512
0.000719956
0.000721506
0.000723116
0.000724745
0.00072636
0.000727934
0.000729446
0.000730878
0.00073222
0.000733461
0.000734597
0.000735625
0.000736545
0.000737358
0.000738066
0.000738674
0.000739186
0.000739607
0.000739943
0.0007402
0.000740384
0.000740501
0.000740556
0.000743592
0.000744349
0.000745395
0.000746661
0.000748086
0.000749615
0.000751203
0.00075281
0.000754404
0.000755957
0.000757448
0.000758861
0.000760185
0.000761409
0.00076253
0.000763544
0.000764452
0.000765253
0.000765952
0.000766552
0.000767056
0.000767472
0.000767803
0.000768057
0.000768238
0.000768353
0.000768408
0.000771384
0.00077213
0.000773162
0.00077441
0.000775815
0.000777323
0.000778889
0.000780474
0.000782045
0.000783576
0.000785047
0.00078644
0.000787744
0.000788952
0.000790057
0.000791057
0.000791951
0.000792741
0.00079343
0.000794021
0.000794519
0.000794928
0.000795255
0.000795505
0.000795684
0.000795797
0.000795851
0.000798767
0.000799502
0.000800519
0.000801749
0.000803133
0.000804619
0.000806163
0.000807724
0.000809272
0.000810781
0.00081223
0.000813603
0.000814888
0.000816078
0.000817166
0.000818151
0.000819033
0.000819811
0.00082049
0.000821072
0.000821562
0.000821966
0.000822288
0.000822534
0.00082271
0.000822821
0.000822874
0.000825728
0.000826452
0.000827454
0.000828665
0.000830029
0.000831492
0.000833012
0.00083455
0.000836074
0.00083756
0.000838986
0.000840338
0.000841604
0.000842775
0.000843847
0.000844817
0.000845684
0.000846451
0.000847119
0.000847692
0.000848175
0.000848572
0.000848889
0.000849131
0.000849304
0.000849414
0.000849467
0.000852257
0.000852969
0.000853955
0.000855147
0.000856489
0.000857929
0.000859424
0.000860938
0.000862438
0.0008639
0.000865303
0.000866633
0.000867878
0.000869031
0.000870085
0.000871039
0.000871893
0.000872647
0.000873304
0.000873868
0.000874343
0.000874734
0.000875045
0.000875284
0.000875454
0.000875562
0.000875614
0.000878338
0.000879039
0.000880008
0.00088118
0.000882499
0.000883916
0.000885386
0.000886874
0.000888349
0.000889786
0.000891166
0.000892473
0.000893698
0.00089483
0.000895867
0.000896805
0.000897644
0.000898385
0.000899031
0.000899585
0.000900052
0.000900436
0.000900742
0.000900977
0.000901144
0.000901251
0.000901301
0.000903956
0.000904644
0.000905596
0.000906748
0.000908044
0.000909436
0.00091088
0.000912341
0.00091379
0.000915202
0.000916557
0.000917841
0.000919043
0.000920156
0.000921174
0.000922095
0.000922919
0.000923647
0.000924281
0.000924825
0.000925284
0.000925661
0.000925961
0.000926191
0.000926356
0.00092646
0.00092651
0.000929092
0.000929768
0.000930702
0.000931832
0.000933104
0.000934469
0.000935886
0.00093732
0.000938741
0.000940126
0.000941456
0.000942716
0.000943895
0.000944986
0.000945985
0.000946888
0.000947697
0.00094841
0.000949033
0.000949566
0.000950016
0.000950386
0.000950681
0.000950906
0.000951067
0.00095117
0.000951219
0.000953723
0.000954385
0.0009553
0.000956408
0.000957654
0.000958992
0.000960381
0.000961786
0.000963178
0.000964535
0.000965838
0.000967072
0.000968227
0.000969296
0.000970274
0.000971159
0.000971951
0.00097265
0.000973259
0.000973782
0.000974222
0.000974584
0.000974873
0.000975094
0.000975252
0.000975352
0.0009754
0.000977821
0.000978469
0.000979364
0.000980448
0.000981668
0.000982976
0.000984335
0.000985709
0.000987072
0.000988399
0.000989673
0.00099088
0.00099201
0.000993055
0.000994011
0.000994877
0.000995651
0.000996334
0.00099693
0.000997441
0.000997871
0.000998225
0.000998508
0.000998724
0.000998878
0.000998976
0.000999023
0.00100135
0.00100199
0.00100286
0.00100392
0.00100511
0.00100639
0.00100771
0.00100906
0.00101039
0.00101168
0.00101292
0.0010141
0.00101521
0.00101623
0.00101716
0.001018
0.00101876
0.00101943
0.00102001
0.00102051
0.00102092
0.00102127
0.00102155
0.00102176
0.00102191
0.001022
0.00102205
0.00102428
0.0010249
0.00102575
0.00102678
0.00102794
0.00102918
0.00103048
0.00103178
0.00103308
0.00103434
0.00103555
0.0010367
0.00103777
0.00103876
0.00103967
0.00104049
0.00104123
0.00104188
0.00104244
0.00104293
0.00104334
0.00104367
0.00104394
0.00104415
0.00104429
0.00104439
0.00104443
0.00104655
0.00104715
0.00104798
0.00104898
0.00105011
0.00105132
0.00105257
0.00105384
0.0010551
0.00105633
0.0010575
0.00105861
0.00105966
0.00106062
0.0010615
0.0010623
0.00106301
0.00106364
0.00106419
0.00106466
0.00106506
0.00106538
0.00106564
0.00106584
0.00106599
0.00106608
0.00106612
0.00106812
0.0010687
0.0010695
0.00107047
0.00107157
0.00107274
0.00107395
0.00107518
0.00107639
0.00107758
0.00107872
0.00107979
0.0010808
0.00108173
0.00108259
0.00108336
0.00108405
0.00108465
0.00108519
0.00108564
0.00108602
0.00108634
0.00108659
0.00108678
0.00108692
0.00108701
0.00108705
0.00108892
0.00108948
0.00109026
0.00109119
0.00109224
0.00109337
0.00109454
0.00109572
0.00109689
0.00109804
0.00109913
0.00110017
0.00110114
0.00110204
0.00110286
0.0011036
0.00110426
0.00110485
0.00110536
0.0011058
0.00110617
0.00110647
0.00110671
0.0011069
0.00110703
0.00110711
0.00110715
0.00110888
0.00110942
0.00111016
0.00111106
0.00111207
0.00111315
0.00111427
0.00111541
0.00111653
0.00111762
0.00111867
0.00111967
0.0011206
0.00112146
0.00112224
0.00112295
0.00112359
0.00112415
0.00112464
0.00112506
0.00112541
0.0011257
0.00112593
0.00112611
0.00112623
0.00112631
0.00112635
0.00112793
0.00112844
0.00112915
0.00113
0.00113097
0.001132
0.00113307
0.00113415
0.00113522
0.00113626
0.00113726
0.00113821
0.00113909
0.00113991
0.00114066
0.00114133
0.00114194
0.00114247
0.00114294
0.00114334
0.00114367
0.00114395
0.00114417
0.00114433
0.00114446
0.00114453
0.00114457
0.00114598
0.00114646
0.00114713
0.00114794
0.00114885
0.00114983
0.00115084
0.00115187
0.00115288
0.00115386
0.00115481
0.0011557
0.00115654
0.00115731
0.00115802
0.00115866
0.00115923
0.00115973
0.00116017
0.00116055
0.00116087
0.00116113
0.00116133
0.00116149
0.00116161
0.00116168
0.00116171
0.00116295
0.0011634
0.00116403
0.00116479
0.00116565
0.00116656
0.00116751
0.00116847
0.00116942
0.00117035
0.00117124
0.00117207
0.00117286
0.00117358
0.00117425
0.00117484
0.00117538
0.00117585
0.00117626
0.00117661
0.00117691
0.00117715
0.00117735
0.0011775
0.0011776
0.00117767
0.0011777
0.00117875
0.00117918
0.00117976
0.00118047
0.00118127
0.00118212
0.001183
0.0011839
0.00118478
0.00118564
0.00118646
0.00118724
0.00118797
0.00118864
0.00118925
0.00118981
0.00119031
0.00119074
0.00119112
0.00119145
0.00119173
0.00119195
0.00119213
0.00119227
0.00119237
0.00119243
0.00119246
0.00119332
0.00119371
0.00119425
0.00119491
0.00119564
0.00119642
0.00119724
0.00119806
0.00119887
0.00119966
0.00120042
0.00120113
0.0012018
0.00120242
0.00120298
0.00120349
0.00120395
0.00120435
0.0012047
0.001205
0.00120525
0.00120545
0.00120562
0.00120575
0.00120584
0.00120589
0.00120592
0.0012066
0.00120695
0.00120745
0.00120804
0.00120871
0.00120942
0.00121016
0.00121091
0.00121164
0.00121236
0.00121305
0.0012137
0.00121431
0.00121487
0.00121538
0.00121584
0.00121625
0.00121662
0.00121693
0.0012172
0.00121743
0.00121762
0.00121777
0.00121788
0.00121796
0.00121802
0.00121804
0.00121854
0.00121886
0.0012193
0.00121984
0.00122044
0.00122108
0.00122174
0.00122241
0.00122308
0.00122372
0.00122434
0.00122492
0.00122546
0.00122596
0.00122642
0.00122683
0.0012272
0.00122753
0.00122781
0.00122806
0.00122826
0.00122843
0.00122856
0.00122866
0.00122874
0.00122878
0.0012288
0.00122914
0.00122943
0.00122982
0.0012303
0.00123083
0.0012314
0.00123199
0.00123258
0.00123317
0.00123374
0.00123428
0.0012348
0.00123528
0.00123572
0.00123613
0.00123649
0.00123682
0.0012371
0.00123735
0.00123757
0.00123775
0.0012379
0.00123802
0.00123811
0.00123817
0.00123821
0.00123823
0.00123843
0.00123868
0.00123902
0.00123944
0.0012399
0.0012404
0.00124092
0.00124144
0.00124195
0.00124245
0.00124293
0.00124338
0.0012438
0.00124418
0.00124454
0.00124486
0.00124514
0.00124539
0.00124561
0.0012458
0.00124595
0.00124608
0.00124618
0.00124626
0.00124632
0.00124635
0.00124637
0.00124646
0.00124667
0.00124697
0.00124733
0.00124773
0.00124816
0.00124861
0.00124906
0.0012495
0.00124993
0.00125035
0.00125073
0.0012511
0.00125143
0.00125174
0.00125201
0.00125226
0.00125247
0.00125266
0.00125282
0.00125296
0.00125307
0.00125316
0.00125323
0.00125327
0.0012533
0.00125332
0.00125332
0.0012535
0.00125376
0.00125407
0.00125441
0.00125478
0.00125516
0.00125555
0.00125593
0.0012563
0.00125665
0.00125698
0.00125729
0.00125758
0.00125784
0.00125807
0.00125828
0.00125847
0.00125863
0.00125877
0.00125888
0.00125898
0.00125905
0.00125911
0.00125915
0.00125918
0.00125919
0.00125912
0.00125928
0.0012595
0.00125976
0.00126006
0.00126037
0.0012607
0.00126102
0.00126135
0.00126166
0.00126196
0.00126224
0.0012625
0.00126275
0.00126297
0.00126317
0.00126335
0.00126351
0.00126364
0.00126376
0.00126386
0.00126394
0.001264
0.00126405
0.00126409
0.00126411
0.00126412
0.00126401
0.00126415
0.00126433
0.00126455
0.0012648
0.00126507
0.00126534
0.00126562
0.0012659
0.00126616
0.00126642
0.00126666
0.00126688
0.00126709
0.00126727
0.00126744
0.00126759
0.00126773
0.00126784
0.00126794
0.00126803
0.00126809
0.00126815
0.00126819
0.00126822
0.00126824
0.00126825
0.00126812
0.00126823
0.00126839
0.00126858
0.00126879
0.00126901
0.00126925
0.00126948
0.00126971
0.00126994
0.00127015
0.00127036
0.00127055
0.00127072
0.00127088
0.00127103
0.00127115
0.00127127
0.00127137
0.00127145
0.00127152
0.00127158
0.00127163
0.00127166
0.00127169
0.0012717
0.00127171
0.00127156
0.00127166
0.00127179
0.00127195
0.00127213
0.00127232
0.00127252
0.00127272