/*--------------------------------*- C++ -*----------------------------------*\
| =========                 |                                                 |
| \\      /  F ield         | OpenFOAM: The Open Source CFD Toolbox           |
|  \\    /   O peration     | Version:  2106                                  |
|   \\  /    A nd           | Website:  www.openfoam.com                      |
|    \\/     M anipulation  |                                                 |
\*---------------------------------------------------------------------------*/
FoamFile
{
    version     2.0;
    format      ascii;
    arch        "LSB;label=32;scalar=64";
    class       volScalarField;
    location    "110.00000";
    object      AC3H5;
}
// * * * * * * * * * * * * * * * * * * * * * * * * * * * * * * * * * * * * * //

dimensions      [0 0 0 0 0 0 0];

internalField   nonuniform List<scalar> 
3360
(
1.02912e-30
1.06251e-30
1.109e-30
1.16591e-30
1.2309e-30
1.30186e-30
1.37688e-30
1.45423e-30
1.53238e-30
1.60996e-30
1.68576e-30
1.75878e-30
1.82816e-30
1.89322e-30
1.95344e-30
2.00844e-30
2.05798e-30
2.10194e-30
2.14034e-30
2.17326e-30
2.20088e-30
2.22347e-30
2.24132e-30
2.2548e-30
2.26428e-30
2.27019e-30
2.27293e-30
4.58081e-30
4.75354e-30
4.99777e-30
5.30274e-30
5.65957e-30
6.06054e-30
6.49872e-30
6.96773e-30
7.46152e-30
7.97428e-30
8.50033e-30
9.03403e-30
9.56972e-30
1.01017e-29
1.06244e-29
1.1132e-29
1.16192e-29
1.20804e-29
1.25104e-29
1.29046e-29
1.32583e-29
1.35677e-29
1.38294e-29
1.4041e-29
1.42006e-29
1.4307e-29
1.436e-29
1.49683e-29
1.56729e-29
1.66805e-29
1.7957e-29
1.94753e-29
2.12113e-29
2.31418e-29
2.52428e-29
2.74884e-29
2.98509e-29
3.22999e-29
3.48036e-29
3.73289e-29
3.98415e-29
4.23071e-29
4.46919e-29
4.69637e-29
4.90929e-29
5.10534e-29
5.28228e-29
5.43836e-29
5.57229e-29
5.68328e-29
5.77103e-29
5.83567e-29
5.87777e-29
5.89822e-29
4.8585e-29
5.14483e-29
5.56102e-29
6.09859e-29
6.7518e-29
7.51556e-29
8.38404e-29
9.34988e-29
1.04035e-28
1.15328e-28
1.27232e-28
1.39577e-28
1.52174e-28
1.64822e-28
1.77312e-28
1.89439e-28
2.01008e-28
2.11842e-28
2.2179e-28
2.30729e-28
2.38566e-28
2.45243e-28
2.50732e-28
2.55032e-28
2.5817e-28
2.60192e-28
2.61165e-28
1.85094e-28
1.99138e-28
2.19911e-28
2.47333e-28
2.81471e-28
3.22399e-28
3.70112e-28
4.2445e-28
4.85048e-28
5.5131e-28
6.22399e-28
6.97255e-28
7.74635e-28
8.53161e-28
9.31389e-28
1.00787e-27
1.08123e-27
1.1502e-27
1.21371e-27
1.27086e-27
1.32102e-27
1.36374e-27
1.39883e-27
1.42628e-27
1.44626e-27
1.45911e-27
1.46527e-27
9.24315e-28
1.01309e-27
1.14651e-27
1.32595e-27
1.55383e-27
1.83257e-27
2.16381e-27
2.54782e-27
2.98305e-27
3.46581e-27
3.99024e-27
4.54841e-27
5.13062e-27
5.72593e-27
6.32262e-27
6.90888e-27
7.47336e-27
8.00567e-27
8.49682e-27
8.93951e-27
9.32826e-27
9.65952e-27
9.93151e-27
1.01442e-26
1.02989e-26
1.03982e-26
1.04457e-26
6.10112e-27
6.78366e-27
7.81834e-27
9.22439e-27
1.10293e-26
1.32602e-26
1.59369e-26
1.9067e-26
2.26413e-26
2.66317e-26
3.099e-26
3.56497e-26
4.05284e-26
4.5532e-26
5.05596e-26
5.5509e-26
6.02819e-26
6.47883e-26
6.895e-26
7.27035e-26
7.60013e-26
7.88121e-26
8.11203e-26
8.29248e-26
8.42373e-26
8.50798e-26
8.54827e-26
4.80165e-26
5.37715e-26
6.2531e-26
7.44888e-26
8.99103e-26
1.09055e-25
1.32119e-25
1.59184e-25
1.90183e-25
2.24876e-25
2.62848e-25
3.03513e-25
3.46144e-25
3.89911e-25
4.3392e-25
4.77269e-25
5.19087e-25
5.58576e-25
5.95047e-25
6.2794e-25
6.56834e-25
6.81455e-25
7.01668e-25
7.17465e-25
7.28949e-25
7.36318e-25
7.39842e-25
4.0927e-25
4.59661e-25
5.36446e-25
6.41411e-25
7.76962e-25
9.45445e-25
1.14862e-24
1.38723e-24
1.66067e-24
1.96683e-24
2.30198e-24
2.66092e-24
3.03722e-24
3.42349e-24
3.81184e-24
4.19428e-24
4.56312e-24
4.91134e-24
5.23286e-24
5.52275e-24
5.77734e-24
5.99422e-24
6.17222e-24
6.3113e-24
6.41239e-24
6.47723e-24
6.50822e-24
3.58283e-24
4.02743e-24
4.70513e-24
5.6318e-24
6.82871e-24
8.31652e-24
1.01106e-23
1.22172e-23
1.46308e-23
1.73321e-23
2.0288e-23
2.34521e-23
2.67674e-23
3.01685e-23
3.35857e-23
3.69487e-23
4.01899e-23
4.32477e-23
4.60691e-23
4.86112e-23
5.08421e-23
5.27413e-23
5.42988e-23
5.55149e-23
5.63982e-23
5.69643e-23
5.72348e-23
3.15848e-23
3.55046e-23
4.14768e-23
4.96378e-23
6.01707e-23
7.3252e-23
8.90102e-23
1.07493e-22
1.28645e-22
1.52289e-22
1.78128e-22
2.05753e-22
2.3466e-22
2.64278e-22
2.93999e-22
3.23212e-22
3.51334e-22
3.77834e-22
4.02258e-22
4.24239e-22
4.43509e-22
4.59896e-22
4.73322e-22
4.83793e-22
4.91391e-22
4.96256e-22
4.98577e-22
2.77312e-22
3.11548e-22
3.63665e-22
4.348e-22
5.26483e-22
6.4017e-22
7.76889e-22
9.3696e-22
1.11979e-21
1.32378e-21
1.54626e-21
1.78365e-21
2.03156e-21
2.28507e-21
2.53896e-21
2.78804e-21
3.02734e-21
3.25243e-21
3.45949e-21
3.6455e-21
3.80827e-21
3.94643e-21
4.05942e-21
4.14739e-21
4.21109e-21
4.25181e-21
4.2712e-21
2.41156e-21
2.70653e-21
3.15484e-21
3.76554e-21
4.55081e-21
5.52203e-21
6.68674e-21
8.04639e-21
9.59466e-21
1.13167e-20
1.31891e-20
1.51806e-20
1.72541e-20
1.93678e-20
2.14785e-20
2.3543e-20
2.55208e-20
2.73758e-20
2.90775e-20
3.0602e-20
3.19324e-20
3.30586e-20
3.39771e-20
3.46902e-20
3.52051e-20
3.55333e-20
3.56891e-20
2.06182e-20
2.31029e-20
2.68712e-20
3.19903e-20
3.85512e-20
4.66362e-20
5.6294e-20
6.75218e-20
8.02531e-20
9.43519e-20
1.09615e-19
1.25778e-19
1.42533e-19
1.5954e-19
1.76449e-19
1.92919e-19
2.08632e-19
2.23309e-19
2.36718e-19
2.48682e-19
2.5908e-19
2.67846e-19
2.74966e-19
2.8047e-19
2.84427e-19
2.86937e-19
2.88123e-19
1.72249e-19
1.92564e-19
2.23279e-19
2.64838e-19
3.17854e-19
3.82848e-19
4.60059e-19
5.49302e-19
6.49894e-19
7.60619e-19
8.79757e-19
1.00516e-18
1.13437e-18
1.26475e-18
1.39363e-18
1.51843e-18
1.63682e-18
1.74679e-18
1.84669e-18
1.93534e-18
2.01195e-18
2.07618e-18
2.12803e-18
2.16788e-18
2.19634e-18
2.21428e-18
2.22269e-18
1.39329e-18
1.55262e-18
1.79251e-18
2.11538e-18
2.52472e-18
3.02314e-18
3.61093e-18
4.28521e-18
5.03934e-18
5.86295e-18
6.7422e-18
7.6605e-18
8.59938e-18
9.53954e-18
1.04619e-17
1.13485e-17
1.21835e-17
1.29533e-17
1.36477e-17
1.42594e-17
1.47841e-17
1.52205e-17
1.55702e-17
1.58366e-17
1.60252e-17
1.61429e-17
1.61975e-17
1.08143e-17
1.19994e-17
1.3774e-17
1.6146e-17
1.91293e-17
2.27299e-17
2.69368e-17
3.17163e-17
3.70096e-17
4.27338e-17
4.87851e-17
5.50442e-17
6.13827e-17
6.76708e-17
7.37833e-17
7.96063e-17
8.50412e-17
9.00085e-17
9.44493e-17
9.8326e-17
1.01621e-16
1.04336e-16
1.06489e-16
1.08112e-16
1.09248e-16
1.09947e-16
1.10267e-16
7.97242e-17
8.79723e-17
1.00241e-16
1.16501e-16
1.3675e-16
1.60927e-16
1.88859e-16
2.20226e-16
2.54561e-16
2.91261e-16
3.29614e-16
3.68839e-16
4.08129e-16
4.4669e-16
4.83786e-16
5.18766e-16
5.51089e-16
5.80338e-16
6.06229e-16
6.28603e-16
6.47423e-16
6.62761e-16
6.74782e-16
6.83728e-16
6.89898e-16
6.93636e-16
6.95313e-16
5.53167e-16
6.06259e-16
6.84606e-16
7.87392e-16
9.13935e-16
1.06317e-15
1.23335e-15
1.42198e-15
1.62578e-15
1.84084e-15
2.0628e-15
2.28709e-15
2.50915e-15
2.72468e-15
2.9298e-15
3.12122e-15
3.29632e-15
3.45321e-15
3.59072e-15
3.70836e-15
3.80631e-15
3.88526e-15
3.94643e-15
3.99135e-15
4.02188e-15
4.04006e-15
4.04805e-15
3.58994e-15
3.90377e-15
4.3629e-15
4.95875e-15
5.68341e-15
6.52696e-15
7.47629e-15
8.51476e-15
9.62253e-15
1.07774e-14
1.19557e-14
1.31337e-14
1.42885e-14
1.53992e-14
1.64474e-14
1.7418e-14
1.82996e-14
1.90842e-14
1.97674e-14
2.03484e-14
2.08291e-14
2.12142e-14
2.15105e-14
2.17266e-14
2.18722e-14
2.19582e-14
2.19955e-14
2.1814e-14
2.35334e-14
2.60301e-14
2.92411e-14
3.31087e-14
3.7568e-14
4.25428e-14
4.79441e-14
5.36723e-14
5.96205e-14
6.56787e-14
7.17378e-14
7.76934e-14
8.34489e-14
8.89184e-14
9.40283e-14
9.87189e-14
1.02945e-13
1.06677e-13
1.09899e-13
1.12611e-13
1.14823e-13
1.1656e-13
1.17854e-13
1.18749e-13
1.19292e-13
1.19536e-13
1.25941e-13
1.35167e-13
1.48577e-13
1.65874e-13
1.86835e-13
2.11254e-13
2.38918e-13
2.69595e-13
3.03032e-13
3.38947e-13
3.77023e-13
4.16898e-13
4.58156e-13
5.00316e-13
5.42832e-13
5.85092e-13
6.26438e-13
6.6618e-13
7.03637e-13
7.38158e-13
7.69163e-13
7.96167e-13
8.18799e-13
8.36825e-13
8.5015e-13
8.58816e-13
8.63002e-13
7.24225e-13
7.81395e-13
8.66724e-13
9.81021e-13
1.12645e-12
1.30621e-12
1.5243e-12
1.78524e-12
2.09375e-12
2.45438e-12
2.87095e-12
3.34601e-12
3.88022e-12
4.47175e-12
5.11586e-12
5.80465e-12
6.52653e-12
7.2666e-12
8.00765e-12
8.73094e-12
9.417e-12
1.00466e-11
1.06017e-11
1.10662e-11
1.14265e-11
1.16723e-11
1.17968e-11
4.73675e-12
5.24882e-12
6.0485e-12
7.18296e-12
8.72372e-12
1.07643e-11
1.34178e-11
1.68084e-11
2.10629e-11
2.63063e-11
3.26509e-11
4.01834e-11
4.89527e-11
5.89582e-11
7.01411e-11
8.23786e-11
9.5483e-11
1.09204e-10
1.23237e-10
1.37231e-10
1.50803e-10
1.63551e-10
1.75069e-10
1.8496e-10
1.92848e-10
1.98392e-10
2.0129e-10
4.36727e-11
4.99481e-11
5.99046e-11
7.42544e-11
9.39869e-11
1.20302e-10
1.54539e-10
1.98082e-10
2.52249e-10
3.1815e-10
3.96548e-10
4.87723e-10
5.91359e-10
7.06484e-10
8.31458e-10
9.64037e-10
1.10148e-09
1.2407e-09
1.37844e-09
1.5114e-09
1.6364e-09
1.75045e-09
1.85079e-09
1.93497e-09
2.00077e-09
2.04626e-09
2.06974e-09
5.18491e-10
5.88383e-10
6.96669e-10
8.47606e-10
1.04635e-09
1.2975e-09
1.60372e-09
1.96451e-09
2.37549e-09
2.82835e-09
3.31162e-09
3.8121e-09
4.31645e-09
4.81267e-09
5.29089e-09
5.7437e-09
6.16586e-09
6.55386e-09
6.90537e-09
7.2189e-09
7.49345e-09
7.72841e-09
7.92347e-09
8.07858e-09
8.19396e-09
8.27008e-09
8.30767e-09
4.68531e-09
5.08785e-09
5.66937e-09
6.41024e-09
7.29018e-09
8.28711e-09
9.37835e-09
1.05424e-08
1.17602e-08
1.30144e-08
1.42892e-08
1.55689e-08
1.68377e-08
1.80797e-08
1.92796e-08
2.04239e-08
2.15e-08
2.24975e-08
2.34074e-08
2.42228e-08
2.49386e-08
2.55513e-08
2.60591e-08
2.64616e-08
2.67596e-08
2.69552e-08
2.70511e-08
2.0131e-08
2.12119e-08
2.27615e-08
2.47253e-08
2.70558e-08
2.97062e-08
3.26308e-08
3.57805e-08
3.91039e-08
4.25474e-08
4.60574e-08
4.95806e-08
5.30661e-08
5.64664e-08
5.97382e-08
6.28433e-08
6.57488e-08
6.84276e-08
7.08584e-08
7.30251e-08
7.4917e-08
7.6528e-08
7.78561e-08
7.89034e-08
7.9675e-08
8.01786e-08
8.04245e-08
6.26067e-08
6.55426e-08
6.97458e-08
7.50638e-08
8.13636e-08
8.85167e-08
9.63922e-08
1.04855e-07
1.13764e-07
1.22977e-07
1.32352e-07
1.41749e-07
1.51034e-07
1.60084e-07
1.68786e-07
1.77039e-07
1.84758e-07
1.91872e-07
1.98325e-07
2.04075e-07
2.09092e-07
2.13362e-07
2.1688e-07
2.19651e-07
2.21691e-07
2.23021e-07
2.23669e-07
1.67578e-07
1.74946e-07
1.85494e-07
1.98844e-07
2.14669e-07
2.3266e-07
2.52504e-07
2.73879e-07
2.96453e-07
3.19885e-07
3.4383e-07
3.67947e-07
3.91902e-07
4.15379e-07
4.38081e-07
4.59742e-07
4.80122e-07
4.99017e-07
5.16257e-07
5.31707e-07
5.45266e-07
5.56866e-07
5.66472e-07
5.74076e-07
5.79696e-07
5.83375e-07
5.85176e-07
3.92387e-07
4.0896e-07
4.32702e-07
4.62781e-07
4.98492e-07
5.39172e-07
5.84154e-07
6.32754e-07
6.84257e-07
7.37925e-07
7.92998e-07
8.4871e-07
9.04302e-07
9.59034e-07
1.0122e-06
1.06315e-06
1.1113e-06
1.15611e-06
1.19716e-06
1.23408e-06
1.26659e-06
1.29448e-06
1.31765e-06
1.33603e-06
1.34965e-06
1.35859e-06
1.36297e-06
8.08761e-07
8.40858e-07
8.86765e-07
9.44803e-07
1.01354e-06
1.09163e-06
1.17772e-06
1.27045e-06
1.36838e-06
1.47008e-06
1.57406e-06
1.67886e-06
1.78303e-06
1.8852e-06
1.98407e-06
2.07846e-06
2.16731e-06
2.24972e-06
2.32492e-06
2.39231e-06
2.45144e-06
2.50202e-06
2.54389e-06
2.57701e-06
2.60148e-06
2.61749e-06
2.62532e-06
1.47573e-06
1.52738e-06
1.60085e-06
1.69308e-06
1.8014e-06
1.92331e-06
2.05637e-06
2.19816e-06
2.34631e-06
2.49845e-06
2.65228e-06
2.8056e-06
2.95635e-06
3.10262e-06
3.24269e-06
3.37507e-06
3.49848e-06
3.61188e-06
3.71446e-06
3.80561e-06
3.88497e-06
3.95234e-06
4.00772e-06
4.05126e-06
4.08322e-06
4.10402e-06
4.11415e-06
2.38921e-06
2.4572e-06
2.55319e-06
2.6725e-06
2.81101e-06
2.9649e-06
3.13058e-06
3.30463e-06
3.48382e-06
3.66516e-06
3.84585e-06
4.02338e-06
4.1955e-06
4.36027e-06
4.51602e-06
4.66141e-06
4.79536e-06
4.91707e-06
5.02602e-06
5.12189e-06
5.20458e-06
5.27419e-06
5.33094e-06
5.37523e-06
5.40753e-06
5.42841e-06
5.43852e-06
3.44687e-06
3.52085e-06
3.62448e-06
3.75198e-06
3.89824e-06
4.05861e-06
4.22885e-06
4.40511e-06
4.58392e-06
4.76221e-06
4.93729e-06
5.10688e-06
5.26906e-06
5.42225e-06
5.56525e-06
5.69712e-06
5.81725e-06
5.92523e-06
6.02092e-06
6.10433e-06
6.17565e-06
6.23518e-06
6.28335e-06
6.32067e-06
6.3477e-06
6.36507e-06
6.37342e-06
4.48281e-06
4.551e-06
4.64583e-06
4.76144e-06
4.89267e-06
5.03487e-06
5.18395e-06
5.3363e-06
5.48885e-06
5.63898e-06
5.78451e-06
5.92371e-06
6.05521e-06
6.17799e-06
6.29131e-06
6.39472e-06
6.48798e-06
6.57102e-06
6.64396e-06
6.70702e-06
6.76052e-06
6.80486e-06
6.84051e-06
6.86795e-06
6.88772e-06
6.90036e-06
6.90641e-06
5.35016e-06
5.40479e-06
5.48031e-06
5.57169e-06
5.67447e-06
5.78474e-06
5.89912e-06
6.01473e-06
6.1292e-06
6.24059e-06
6.34739e-06
6.44844e-06
6.54289e-06
6.63019e-06
6.71e-06
6.78215e-06
6.84666e-06
6.90364e-06
6.95331e-06
6.99593e-06
7.03186e-06
7.06146e-06
7.08511e-06
7.10323e-06
7.11622e-06
7.12448e-06
7.12842e-06
5.97503e-06
6.01376e-06
6.06703e-06
6.13104e-06
6.20248e-06
6.27845e-06
6.35652e-06
6.43465e-06
6.51124e-06
6.58502e-06
6.65504e-06
6.72064e-06
6.78136e-06
6.83696e-06
6.88734e-06
6.93249e-06
6.97253e-06
7.00762e-06
7.03799e-06
7.06388e-06
7.08556e-06
7.10332e-06
7.11743e-06
7.12819e-06
7.13587e-06
7.14073e-06
7.14304e-06
6.35493e-06
6.3792e-06
6.4124e-06
6.45203e-06
6.4959e-06
6.54213e-06
6.58916e-06
6.63574e-06
6.6809e-06
6.72392e-06
6.76429e-06
6.80168e-06
6.83591e-06
6.86691e-06
6.89468e-06
6.91933e-06
6.94096e-06
6.95974e-06
6.97584e-06
6.98945e-06
7.00076e-06
7.00995e-06
7.01721e-06
7.0227e-06
7.0266e-06
7.02906e-06
7.03022e-06
6.52894e-06
6.5418e-06
6.55927e-06
6.57991e-06
6.60248e-06
6.62593e-06
6.64943e-06
6.6723e-06
6.69408e-06
6.71443e-06
6.73314e-06
6.75011e-06
6.76532e-06
6.7788e-06
6.79061e-06
6.80085e-06
6.80965e-06
6.81713e-06
6.8234e-06
6.82859e-06
6.83282e-06
6.83619e-06
6.83881e-06
6.84075e-06
6.84211e-06
6.84295e-06
6.84335e-06
6.54921e-06
6.55387e-06
6.56005e-06
6.56714e-06
6.57459e-06
6.58198e-06
6.58898e-06
6.59535e-06
6.60094e-06
6.60571e-06
6.60963e-06
6.61274e-06
6.61511e-06
6.61682e-06
6.61797e-06
6.61865e-06
6.61895e-06
6.61898e-06
6.6188e-06
6.61849e-06
6.6181e-06
6.61769e-06
6.61729e-06
6.61694e-06
6.61665e-06
6.61646e-06
6.61636e-06
6.46423e-06
6.46335e-06
6.46195e-06
6.45996e-06
6.45734e-06
6.45406e-06
6.45015e-06
6.44565e-06
6.44066e-06
6.43527e-06
6.42959e-06
6.42375e-06
6.41786e-06
6.41204e-06
6.40638e-06
6.40098e-06
6.3959e-06
6.39122e-06
6.38698e-06
6.38321e-06
6.37992e-06
6.37715e-06
6.37487e-06
6.37308e-06
6.37178e-06
6.37094e-06
6.37053e-06
6.31243e-06
6.30803e-06
6.30181e-06
6.29406e-06
6.28505e-06
6.27505e-06
6.26428e-06
6.25299e-06
6.2414e-06
6.2297e-06
6.2181e-06
6.20674e-06
6.19579e-06
6.18537e-06
6.17557e-06
6.16647e-06
6.15814e-06
6.15062e-06
6.14393e-06
6.13808e-06
6.13307e-06
6.12887e-06
6.12547e-06
6.12283e-06
6.12092e-06
6.11969e-06
6.1191e-06
6.12165e-06
6.11512e-06
6.10599e-06
6.09478e-06
6.08196e-06
6.06795e-06
6.05312e-06
6.03782e-06
6.02234e-06
6.00696e-06
5.9919e-06
5.97735e-06
5.96347e-06
5.9504e-06
5.93823e-06
5.92703e-06
5.91685e-06
5.90772e-06
5.89965e-06
5.89263e-06
5.88664e-06
5.88165e-06
5.87763e-06
5.87451e-06
5.87226e-06
5.87082e-06
5.87013e-06
5.91081e-06
5.90309e-06
5.89234e-06
5.87922e-06
5.86429e-06
5.84808e-06
5.83103e-06
5.81355e-06
5.79598e-06
5.77863e-06
5.76173e-06
5.7455e-06
5.73009e-06
5.71565e-06
5.70225e-06
5.68997e-06
5.67886e-06
5.66892e-06
5.66015e-06
5.65255e-06
5.64608e-06
5.6407e-06
5.63636e-06
5.63302e-06
5.6306e-06
5.62906e-06
5.62832e-06
5.69225e-06
5.68396e-06
5.67242e-06
5.65838e-06
5.64245e-06
5.6252e-06
5.60712e-06
5.58864e-06
5.57014e-06
5.55191e-06
5.53421e-06
5.51726e-06
5.50122e-06
5.48621e-06
5.47232e-06
5.45962e-06
5.44814e-06
5.43789e-06
5.42887e-06
5.42105e-06
5.41441e-06
5.40889e-06
5.40445e-06
5.40102e-06
5.39855e-06
5.39697e-06
5.39621e-06
5.4737e-06
5.46521e-06
5.45342e-06
5.43908e-06
5.42285e-06
5.4053e-06
5.38694e-06
5.36821e-06
5.34948e-06
5.33107e-06
5.31322e-06
5.29616e-06
5.28003e-06
5.26496e-06
5.25103e-06
5.23831e-06
5.22682e-06
5.21658e-06
5.20757e-06
5.19977e-06
5.19314e-06
5.18764e-06
5.18322e-06
5.17981e-06
5.17735e-06
5.17577e-06
5.17502e-06
5.25979e-06
5.25134e-06
5.23962e-06
5.22537e-06
5.20926e-06
5.19186e-06
5.17368e-06
5.15515e-06
5.13665e-06
5.11847e-06
5.10087e-06
5.08406e-06
5.06818e-06
5.05335e-06
5.03967e-06
5.02717e-06
5.01589e-06
5.00584e-06
4.99701e-06
4.98936e-06
4.98287e-06
4.97748e-06
4.97314e-06
4.9698e-06
4.9674e-06
4.96586e-06
4.96512e-06
5.05313e-06
5.04487e-06
5.03341e-06
5.01949e-06
5.00376e-06
4.98678e-06
4.96905e-06
4.95099e-06
4.93297e-06
4.91527e-06
4.89815e-06
4.8818e-06
4.86637e-06
4.85197e-06
4.83869e-06
4.82656e-06
4.81562e-06
4.80587e-06
4.7973e-06
4.78989e-06
4.78359e-06
4.77837e-06
4.77417e-06
4.77093e-06
4.7686e-06
4.76711e-06
4.7664e-06
4.85509e-06
4.84709e-06
4.83601e-06
4.82255e-06
4.80734e-06
4.79093e-06
4.77381e-06
4.75637e-06
4.73897e-06
4.7219e-06
4.70538e-06
4.68962e-06
4.67474e-06
4.66087e-06
4.64806e-06
4.63638e-06
4.62584e-06
4.61646e-06
4.60821e-06
4.60107e-06
4.59501e-06
4.58999e-06
4.58594e-06
4.58283e-06
4.58058e-06
4.57915e-06
4.57846e-06
4.66622e-06
4.65853e-06
4.64788e-06
4.63495e-06
4.62034e-06
4.60458e-06
4.58814e-06
4.5714e-06
4.5547e-06
4.53831e-06
4.52247e-06
4.50735e-06
4.49308e-06
4.47977e-06
4.4675e-06
4.4563e-06
4.44619e-06
4.4372e-06
4.42929e-06
4.42245e-06
4.41664e-06
4.41182e-06
4.40795e-06
4.40496e-06
4.40281e-06
4.40143e-06
4.40077e-06
4.4866e-06
4.47925e-06
4.46905e-06
4.45668e-06
4.4427e-06
4.42762e-06
4.41189e-06
4.39588e-06
4.3799e-06
4.36423e-06
4.34909e-06
4.33462e-06
4.32098e-06
4.30826e-06
4.29653e-06
4.28582e-06
4.27616e-06
4.26756e-06
4.26e-06
4.25346e-06
4.24791e-06
4.2433e-06
4.2396e-06
4.23675e-06
4.23469e-06
4.23337e-06
4.23274e-06
4.31605e-06
4.30902e-06
4.29929e-06
4.28748e-06
4.27413e-06
4.25974e-06
4.24472e-06
4.22944e-06
4.21419e-06
4.19924e-06
4.18478e-06
4.17098e-06
4.15796e-06
4.14582e-06
4.13462e-06
4.1244e-06
4.11519e-06
4.10698e-06
4.09976e-06
4.09352e-06
4.08822e-06
4.08383e-06
4.08029e-06
4.07757e-06
4.0756e-06
4.07435e-06
4.07375e-06
4.15419e-06
4.14749e-06
4.13821e-06
4.12695e-06
4.11423e-06
4.1005e-06
4.08619e-06
4.07162e-06
4.05708e-06
4.04283e-06
4.02905e-06
4.01589e-06
4.00348e-06
3.99191e-06
3.98123e-06
3.97149e-06
3.9627e-06
3.95487e-06
3.94799e-06
3.94204e-06
3.93699e-06
3.9328e-06
3.92942e-06
3.92682e-06
3.92495e-06
3.92375e-06
3.92318e-06
4.00059e-06
3.99421e-06
3.98537e-06
3.97464e-06
3.96251e-06
3.94944e-06
3.9358e-06
3.92192e-06
3.90807e-06
3.89449e-06
3.88136e-06
3.86882e-06
3.857e-06
3.84597e-06
3.83579e-06
3.82651e-06
3.81813e-06
3.81067e-06
3.80411e-06
3.79844e-06
3.79362e-06
3.78963e-06
3.78641e-06
3.78393e-06
3.78214e-06
3.781e-06
3.78045e-06
3.85477e-06
3.84869e-06
3.84027e-06
3.83005e-06
3.8185e-06
3.80605e-06
3.79306e-06
3.77983e-06
3.76664e-06
3.7537e-06
3.74119e-06
3.72924e-06
3.71798e-06
3.70747e-06
3.69777e-06
3.68892e-06
3.68094e-06
3.67383e-06
3.66758e-06
3.66217e-06
3.65758e-06
3.65377e-06
3.6507e-06
3.64834e-06
3.64663e-06
3.64554e-06
3.64502e-06
3.71625e-06
3.71046e-06
3.70244e-06
3.6927e-06
3.6817e-06
3.66984e-06
3.65746e-06
3.64486e-06
3.63229e-06
3.61996e-06
3.60803e-06
3.59665e-06
3.58591e-06
3.57589e-06
3.56665e-06
3.55822e-06
3.55061e-06
3.54383e-06
3.53787e-06
3.53271e-06
3.52833e-06
3.5247e-06
3.52178e-06
3.51952e-06
3.5179e-06
3.51686e-06
3.51636e-06
3.58455e-06
3.57903e-06
3.57139e-06
3.56211e-06
3.55162e-06
3.54032e-06
3.52852e-06
3.51651e-06
3.50453e-06
3.49277e-06
3.4814e-06
3.47055e-06
3.46031e-06
3.45076e-06
3.44195e-06
3.43391e-06
3.42665e-06
3.42018e-06
3.4145e-06
3.40958e-06
3.4054e-06
3.40194e-06
3.39915e-06
3.397e-06
3.39544e-06
3.39445e-06
3.39398e-06
3.4592e-06
3.45394e-06
3.44666e-06
3.43781e-06
3.42781e-06
3.41703e-06
3.40578e-06
3.39432e-06
3.38289e-06
3.37168e-06
3.36084e-06
3.35049e-06
3.34072e-06
3.33161e-06
3.3232e-06
3.31552e-06
3.3086e-06
3.30243e-06
3.297e-06
3.29231e-06
3.28832e-06
3.28501e-06
3.28235e-06
3.2803e-06
3.27881e-06
3.27787e-06
3.27741e-06
3.33977e-06
3.33475e-06
3.3278e-06
3.31936e-06
3.30982e-06
3.29953e-06
3.28879e-06
3.27786e-06
3.26695e-06
3.25625e-06
3.2459e-06
3.23602e-06
3.22669e-06
3.21799e-06
3.20996e-06
3.20263e-06
3.19602e-06
3.19013e-06
3.18495e-06
3.18046e-06
3.17665e-06
3.17349e-06
3.17095e-06
3.16899e-06
3.16757e-06
3.16667e-06
3.16623e-06
3.22582e-06
3.22103e-06
3.21439e-06
3.20633e-06
3.19722e-06
3.18739e-06
3.17713e-06
3.16669e-06
3.15627e-06
3.14605e-06
3.13616e-06
3.12672e-06
3.11781e-06
3.1095e-06
3.10182e-06
3.09482e-06
3.0885e-06
3.08287e-06
3.07791e-06
3.07363e-06
3.06998e-06
3.06696e-06
3.06453e-06
3.06265e-06
3.0613e-06
3.06043e-06
3.06002e-06
3.11694e-06
3.11236e-06
3.10601e-06
3.09831e-06
3.0896e-06
3.0802e-06
3.0704e-06
3.06041e-06
3.05045e-06
3.04068e-06
3.03122e-06
3.02219e-06
3.01367e-06
3.00572e-06
2.99838e-06
2.99167e-06
2.98563e-06
2.98024e-06
2.9755e-06
2.9714e-06
2.96791e-06
2.96502e-06
2.96269e-06
2.96089e-06
2.9596e-06
2.95877e-06
2.95837e-06
3.01273e-06
3.00835e-06
3.00228e-06
2.9949e-06
2.98657e-06
2.97758e-06
2.96819e-06
2.95863e-06
2.9491e-06
2.93974e-06
2.93068e-06
2.92204e-06
2.91388e-06
2.90626e-06
2.89923e-06
2.89281e-06
2.88702e-06
2.88186e-06
2.87732e-06
2.87339e-06
2.87005e-06
2.86728e-06
2.86504e-06
2.86332e-06
2.86208e-06
2.86129e-06
2.86091e-06
2.91281e-06
2.90861e-06
2.90279e-06
2.89572e-06
2.88773e-06
2.87912e-06
2.87012e-06
2.86096e-06
2.85182e-06
2.84285e-06
2.83417e-06
2.82588e-06
2.81805e-06
2.81075e-06
2.80401e-06
2.79785e-06
2.79229e-06
2.78734e-06
2.78299e-06
2.77921e-06
2.77601e-06
2.77335e-06
2.77121e-06
2.76956e-06
2.76837e-06
2.7676e-06
2.76724e-06
2.81678e-06
2.81275e-06
2.80716e-06
2.80038e-06
2.79271e-06
2.78444e-06
2.77581e-06
2.76701e-06
2.75824e-06
2.74962e-06
2.74129e-06
2.73333e-06
2.72581e-06
2.71879e-06
2.71232e-06
2.7064e-06
2.70107e-06
2.69631e-06
2.69212e-06
2.6885e-06
2.68542e-06
2.68286e-06
2.6808e-06
2.67921e-06
2.67807e-06
2.67733e-06
2.67698e-06
2.72426e-06
2.72038e-06
2.71501e-06
2.70849e-06
2.70112e-06
2.69317e-06
2.68486e-06
2.6764e-06
2.66796e-06
2.65967e-06
2.65166e-06
2.64399e-06
2.63676e-06
2.63001e-06
2.62378e-06
2.61808e-06
2.61294e-06
2.60836e-06
2.60433e-06
2.60084e-06
2.59788e-06
2.59541e-06
2.59343e-06
2.5919e-06
2.5908e-06
2.59009e-06
2.58975e-06
2.63485e-06
2.63112e-06
2.62595e-06
2.61966e-06
2.61256e-06
2.60489e-06
2.59689e-06
2.58874e-06
2.5806e-06
2.57261e-06
2.56487e-06
2.55748e-06
2.55051e-06
2.544e-06
2.53798e-06
2.53249e-06
2.52753e-06
2.52311e-06
2.51922e-06
2.51585e-06
2.51299e-06
2.51061e-06
2.5087e-06
2.50722e-06
2.50615e-06
2.50547e-06
2.50514e-06
2.54815e-06
2.54455e-06
2.53955e-06
2.53348e-06
2.52661e-06
2.51921e-06
2.51147e-06
2.50359e-06
2.49573e-06
2.488e-06
2.48052e-06
2.47338e-06
2.46663e-06
2.46033e-06
2.45452e-06
2.4492e-06
2.4444e-06
2.44012e-06
2.43636e-06
2.4331e-06
2.43033e-06
2.42803e-06
2.42617e-06
2.42474e-06
2.42371e-06
2.42305e-06
2.42273e-06
2.46373e-06
2.46023e-06
2.45539e-06
2.44951e-06
2.44286e-06
2.43568e-06
2.42818e-06
2.42054e-06
2.41291e-06
2.40542e-06
2.39817e-06
2.39124e-06
2.38469e-06
2.37858e-06
2.37293e-06
2.36777e-06
2.36311e-06
2.35896e-06
2.3553e-06
2.35214e-06
2.34944e-06
2.34721e-06
2.34541e-06
2.34402e-06
2.34301e-06
2.34237e-06
2.34206e-06
2.38112e-06
2.37773e-06
2.37302e-06
2.3673e-06
2.36083e-06
2.35384e-06
2.34655e-06
2.33911e-06
2.33169e-06
2.32439e-06
2.31733e-06
2.31058e-06
2.30421e-06
2.29825e-06
2.29275e-06
2.28772e-06
2.28318e-06
2.27913e-06
2.27556e-06
2.27247e-06
2.26985e-06
2.26767e-06
2.26591e-06
2.26455e-06
2.26358e-06
2.26295e-06
2.26265e-06
2.29984e-06
2.29653e-06
2.29193e-06
2.28634e-06
2.28002e-06
2.27319e-06
2.26606e-06
2.2588e-06
2.25154e-06
2.24441e-06
2.2375e-06
2.23089e-06
2.22465e-06
2.21883e-06
2.21344e-06
2.20852e-06
2.20407e-06
2.2001e-06
2.19661e-06
2.19358e-06
2.19101e-06
2.18887e-06
2.18715e-06
2.18582e-06
2.18486e-06
2.18424e-06
2.18395e-06
2.21935e-06
2.21609e-06
2.21158e-06
2.20609e-06
2.19989e-06
2.19318e-06
2.18618e-06
2.17904e-06
2.17191e-06
2.16489e-06
2.1581e-06
2.15161e-06
2.14547e-06
2.13973e-06
2.13443e-06
2.12958e-06
2.1252e-06
2.1213e-06
2.11785e-06
2.11487e-06
2.11234e-06
2.11023e-06
2.10853e-06
2.10722e-06
2.10627e-06
2.10567e-06
2.10538e-06
2.13904e-06
2.13583e-06
2.13137e-06
2.12596e-06
2.11983e-06
2.11321e-06
2.10629e-06
2.09923e-06
2.09217e-06
2.08524e-06
2.07852e-06
2.07209e-06
2.06602e-06
2.06034e-06
2.05508e-06
2.05028e-06
2.04594e-06
2.04207e-06
2.03866e-06
2.0357e-06
2.03318e-06
2.03109e-06
2.02941e-06
2.02811e-06
2.02717e-06
2.02657e-06
2.02628e-06
2.05828e-06
2.05509e-06
2.05066e-06
2.04527e-06
2.03918e-06
2.0326e-06
2.02571e-06
2.01869e-06
2.01166e-06
2.00476e-06
1.99807e-06
1.99166e-06
1.9856e-06
1.97994e-06
1.9747e-06
1.96991e-06
1.96558e-06
1.96171e-06
1.9583e-06
1.95535e-06
1.95284e-06
1.95075e-06
1.94906e-06
1.94776e-06
1.94682e-06
1.94622e-06
1.94593e-06
1.97634e-06
1.97314e-06
1.96871e-06
1.96332e-06
1.95721e-06
1.95062e-06
1.94372e-06
1.93667e-06
1.92963e-06
1.9227e-06
1.91598e-06
1.90955e-06
1.90346e-06
1.89777e-06
1.89251e-06
1.88769e-06
1.88333e-06
1.87944e-06
1.87601e-06
1.87304e-06
1.87051e-06
1.8684e-06
1.8667e-06
1.86539e-06
1.86445e-06
1.86384e-06
1.86355e-06
1.89243e-06
1.88921e-06
1.88474e-06
1.87929e-06
1.87313e-06
1.86647e-06
1.8595e-06
1.85238e-06
1.84525e-06
1.83825e-06
1.83145e-06
1.82493e-06
1.81877e-06
1.81301e-06
1.80767e-06
1.80278e-06
1.79836e-06
1.79442e-06
1.79094e-06
1.78792e-06
1.78535e-06
1.78321e-06
1.78148e-06
1.78015e-06
1.77919e-06
1.77857e-06
1.77827e-06
1.80572e-06
1.80244e-06
1.79789e-06
1.79235e-06
1.78608e-06
1.77929e-06
1.77219e-06
1.76493e-06
1.75767e-06
1.75052e-06
1.74358e-06
1.73693e-06
1.73064e-06
1.72475e-06
1.71929e-06
1.7143e-06
1.70978e-06
1.70574e-06
1.70218e-06
1.69908e-06
1.69645e-06
1.69426e-06
1.69249e-06
1.69113e-06
1.69014e-06
1.68951e-06
1.6892e-06
1.71531e-06
1.71194e-06
1.70727e-06
1.70159e-06
1.69515e-06
1.68818e-06
1.68088e-06
1.67343e-06
1.66596e-06
1.65861e-06
1.65147e-06
1.64463e-06
1.63815e-06
1.63208e-06
1.62646e-06
1.62131e-06
1.61665e-06
1.61248e-06
1.6088e-06
1.60561e-06
1.60289e-06
1.60063e-06
1.59881e-06
1.59739e-06
1.59637e-06
1.59572e-06
1.59541e-06
1.62028e-06
1.6168e-06
1.61197e-06
1.60609e-06
1.59943e-06
1.59222e-06
1.58467e-06
1.57695e-06
1.56922e-06
1.5616e-06
1.5542e-06
1.54711e-06
1.54039e-06
1.53409e-06
1.52826e-06
1.52291e-06
1.51807e-06
1.51374e-06
1.50992e-06
1.5066e-06
1.50378e-06
1.50142e-06
1.49952e-06
1.49805e-06
1.49699e-06
1.49631e-06
1.49598e-06
1.51976e-06
1.51614e-06
1.51112e-06
1.505e-06
1.49807e-06
1.49056e-06
1.4827e-06
1.47466e-06
1.4666e-06
1.45866e-06
1.45095e-06
1.44355e-06
1.43654e-06
1.42997e-06
1.42388e-06
1.41829e-06
1.41324e-06
1.40871e-06
1.40472e-06
1.40125e-06
1.3983e-06
1.39584e-06
1.39385e-06
1.39231e-06
1.3912e-06
1.39049e-06
1.39014e-06
1.41299e-06
1.40921e-06
1.40396e-06
1.39757e-06
1.39032e-06
1.38247e-06
1.37425e-06
1.36584e-06
1.35741e-06
1.34911e-06
1.34103e-06
1.33329e-06
1.32595e-06
1.31907e-06
1.31269e-06
1.30684e-06
1.30155e-06
1.29681e-06
1.29262e-06
1.28899e-06
1.28589e-06
1.28331e-06
1.28122e-06
1.27961e-06
1.27844e-06
1.27769e-06
1.27734e-06
1.29944e-06
1.29549e-06
1.28999e-06
1.2833e-06
1.27572e-06
1.2675e-06
1.25889e-06
1.25009e-06
1.24127e-06
1.23257e-06
1.22412e-06
1.21601e-06
1.20832e-06
1.20112e-06
1.19444e-06
1.18831e-06
1.18277e-06
1.1778e-06
1.17342e-06
1.16961e-06
1.16636e-06
1.16365e-06
1.16147e-06
1.15978e-06
1.15856e-06
1.15777e-06
1.15739e-06
1.17899e-06
1.17486e-06
1.16912e-06
1.16213e-06
1.15421e-06
1.14563e-06
1.13664e-06
1.12745e-06
1.11824e-06
1.10917e-06
1.10035e-06
1.09189e-06
1.08387e-06
1.07636e-06
1.06939e-06
1.06301e-06
1.05722e-06
1.05204e-06
1.04747e-06
1.0435e-06
1.04012e-06
1.0373e-06
1.03502e-06
1.03326e-06
1.03198e-06
1.03116e-06
1.03077e-06
1.0521e-06
1.04781e-06
1.04185e-06
1.0346e-06
1.02638e-06
1.01749e-06
1.00818e-06
9.98659e-07
9.89125e-07
9.79732e-07
9.70609e-07
9.61862e-07
9.53574e-07
9.45809e-07
9.38613e-07
9.32019e-07
9.26045e-07
9.207e-07
9.15983e-07
9.11884e-07
9.0839e-07
9.0548e-07
9.03129e-07
9.01311e-07
8.99995e-07
8.9915e-07
8.98744e-07
9.20032e-07
9.15634e-07
9.09527e-07
9.02099e-07
8.93686e-07
8.84586e-07
8.75061e-07
8.65336e-07
8.55601e-07
8.46016e-07
8.36715e-07
8.27802e-07
8.19363e-07
8.11461e-07
8.04143e-07
7.9744e-07
7.91371e-07
7.85942e-07
7.81153e-07
7.76994e-07
7.73449e-07
7.70497e-07
7.68113e-07
7.66268e-07
7.64934e-07
7.64077e-07
7.63665e-07
7.8507e-07
7.80643e-07
7.74501e-07
7.67034e-07
7.58585e-07
7.49456e-07
7.39909e-07
7.30172e-07
7.20437e-07
7.10863e-07
7.01581e-07
6.92697e-07
6.84294e-07
6.76432e-07
6.69158e-07
6.62501e-07
6.56478e-07
6.51095e-07
6.46348e-07
6.42228e-07
6.38718e-07
6.35796e-07
6.33436e-07
6.31612e-07
6.30292e-07
6.29445e-07
6.29037e-07
6.50575e-07
6.46234e-07
6.40216e-07
6.32908e-07
6.2465e-07
6.15738e-07
6.06433e-07
5.96956e-07
5.87496e-07
5.78207e-07
5.69215e-07
5.60622e-07
5.52504e-07
5.44921e-07
5.37913e-07
5.31507e-07
5.25717e-07
5.20547e-07
5.15993e-07
5.12043e-07
5.0868e-07
5.05882e-07
5.03624e-07
5.01878e-07
5.00616e-07
4.99806e-07
4.99416e-07
5.20878e-07
5.16766e-07
5.11072e-07
5.04166e-07
4.96375e-07
4.87983e-07
4.79238e-07
4.70349e-07
4.61494e-07
4.52817e-07
4.44435e-07
4.3644e-07
4.28903e-07
4.21874e-07
4.15389e-07
4.09471e-07
4.0413e-07
3.99367e-07
3.95177e-07
3.91546e-07
3.88457e-07
3.85889e-07
3.83819e-07
3.82219e-07
3.81063e-07
3.80321e-07
3.79964e-07
4.00862e-07
3.97133e-07
3.91976e-07
3.85733e-07
3.78703e-07
3.71149e-07
3.63296e-07
3.55336e-07
3.47426e-07
3.39696e-07
3.32248e-07
3.25162e-07
3.18498e-07
3.12298e-07
3.06591e-07
3.01393e-07
2.96711e-07
2.92542e-07
2.88881e-07
2.85712e-07
2.8302e-07
2.80785e-07
2.78984e-07
2.77593e-07
2.76588e-07
2.75944e-07
2.75635e-07
2.95223e-07
2.92015e-07
2.87585e-07
2.82234e-07
2.76224e-07
2.69784e-07
2.6311e-07
2.56366e-07
2.49687e-07
2.43181e-07
2.36932e-07
2.31006e-07
2.25449e-07
2.20294e-07
2.15562e-07
2.11263e-07
2.07399e-07
2.03967e-07
2.00957e-07
1.98357e-07
1.96152e-07
1.94323e-07
1.92851e-07
1.91715e-07
1.90896e-07
1.9037e-07
1.90118e-07
2.07531e-07
2.04935e-07
2.01357e-07
1.97047e-07
1.9222e-07
1.87066e-07
1.81743e-07
1.76384e-07
1.71097e-07
1.65966e-07
1.61058e-07
1.56419e-07
1.52086e-07
1.48079e-07
1.44412e-07
1.41091e-07