/*--------------------------------*- C++ -*----------------------------------*\
| =========                 |                                                 |
| \\      /  F ield         | OpenFOAM: The Open Source CFD Toolbox           |
|  \\    /   O peration     | Version:  2106                                  |
|   \\  /    A nd           | Website:  www.openfoam.com                      |
|    \\/     M anipulation  |                                                 |
\*---------------------------------------------------------------------------*/
FoamFile
{
    version     2.0;
    format      ascii;
    arch        "LSB;label=32;scalar=64";
    class       volScalarField;
    location    "110.00000";
    object      C2H2;
}
// * * * * * * * * * * * * * * * * * * * * * * * * * * * * * * * * * * * * * //

dimensions      [0 0 0 0 0 0 0];

internalField   nonuniform List<scalar> 
3360
(
0.334007
0.334007
0.334007
0.334007
0.334007
0.334007
0.334007
0.334007
0.334007
0.334007
0.334007
0.334007
0.334007
0.334007
0.334007
0.334007
0.334007
0.334007
0.334007
0.334007
0.334007
0.334007
0.334007
0.334007
0.334007
0.334007
0.334007
0.334007
0.334007
0.334007
0.334007
0.334007
0.334007
0.334007
0.334007
0.334007
0.334007
0.334007
0.334007
0.334007
0.334007
0.334007
0.334007
0.334007
0.334007
0.334007
0.334007
0.334007
0.334007
0.334007
0.334007
0.334007
0.334007
0.334007
0.334007
0.334007
0.334007
0.334007
0.334007
0.334007
0.334007
0.334007
0.334007
0.334007
0.334007
0.334007
0.334007
0.334007
0.334007
0.334007
0.334007
0.334007
0.334007
0.334007
0.334007
0.334007
0.334007
0.334007
0.334007
0.334007
0.334007
0.334007
0.334007
0.334007
0.334007
0.334007
0.334007
0.334007
0.334007
0.334007
0.334007
0.334007
0.334007
0.334007
0.334007
0.334007
0.334007
0.334007
0.334007
0.334007
0.334007
0.334007
0.334007
0.334007
0.334007
0.334007
0.334007
0.334007
0.334007
0.334007
0.334007
0.334007
0.334007
0.334007
0.334007
0.334007
0.334007
0.334007
0.334007
0.334007
0.334007
0.334007
0.334007
0.334007
0.334007
0.334007
0.334007
0.334007
0.334007
0.334007
0.334007
0.334007
0.334007
0.334007
0.334007
0.334007
0.334007
0.334007
0.334007
0.334007
0.334007
0.334007
0.334007
0.334007
0.334007
0.334007
0.334007
0.334007
0.334007
0.334007
0.334007
0.334007
0.334007
0.334007
0.334007
0.334007
0.334007
0.334007
0.334007
0.334007
0.334007
0.334007
0.334007
0.334007
0.334007
0.334007
0.334007
0.334007
0.334007
0.334007
0.334007
0.334007
0.334007
0.334007
0.334007
0.334007
0.334007
0.334007
0.334007
0.334007
0.334007
0.334007
0.334007
0.334007
0.334007
0.334007
0.334007
0.334007
0.334007
0.334007
0.334007
0.334007
0.334007
0.334007
0.334007
0.334007
0.334007
0.334007
0.334007
0.334007
0.334007
0.334007
0.334007
0.334007
0.334007
0.334007
0.334007
0.334007
0.334007
0.334007
0.334007
0.334007
0.334007
0.334007
0.334007
0.334007
0.334007
0.334007
0.334007
0.334007
0.334007
0.334007
0.334007
0.334007
0.334007
0.334007
0.334007
0.334007
0.334007
0.334007
0.334007
0.334007
0.334007
0.334007
0.334007
0.334007
0.334007
0.334007
0.334007
0.334007
0.334007
0.334007
0.334007
0.334007
0.334007
0.334007
0.334007
0.334007
0.334007
0.334007
0.334007
0.334007
0.334007
0.334007
0.334007
0.334007
0.334007
0.334007
0.334007
0.334007
0.334007
0.334007
0.334007
0.334007
0.334007
0.334007
0.334007
0.334007
0.334007
0.334007
0.334007
0.334007
0.334007
0.334007
0.334007
0.334007
0.334007
0.334007
0.334007
0.334007
0.334007
0.334007
0.334007
0.334007
0.334007
0.334007
0.334007
0.334007
0.334007
0.334007
0.334007
0.334007
0.334007
0.334007
0.334007
0.334007
0.334007
0.334007
0.334007
0.334007
0.334007
0.334007
0.334007
0.334007
0.334007
0.334007
0.334007
0.334007
0.334007
0.334007
0.334007
0.334007
0.334007
0.334007
0.334007
0.334007
0.334007
0.334007
0.334007
0.334007
0.334007
0.334007
0.334007
0.334007
0.334007
0.334007
0.334007
0.334007
0.334007
0.334007
0.334007
0.334007
0.334007
0.334007
0.334007
0.334007
0.334007
0.334007
0.334007
0.334007
0.334007
0.334007
0.334007
0.334007
0.334007
0.334007
0.334007
0.334007
0.334007
0.334007
0.334007
0.334007
0.334007
0.334007
0.334007
0.334007
0.334007
0.334007
0.334007
0.334007
0.334007
0.334007
0.334007
0.334007
0.334007
0.334007
0.334007
0.334007
0.334007
0.334007
0.334007
0.334007
0.334007
0.334007
0.334007
0.334007
0.334007
0.334007
0.334007
0.334007
0.334007
0.334007
0.334007
0.334007
0.334007
0.334007
0.334007
0.334007
0.334007
0.334007
0.334007
0.334007
0.334007
0.334007
0.334007
0.334007
0.334007
0.334007
0.334007
0.334007
0.334007
0.334007
0.334007
0.334007
0.334007
0.334007
0.334007
0.334007
0.334007
0.334007
0.334007
0.334007
0.334007
0.334007
0.334007
0.334007
0.334007
0.334007
0.334007
0.334007
0.334007
0.334007
0.334007
0.334007
0.334007
0.334007
0.334007
0.334007
0.334007
0.334007
0.334007
0.334007
0.334007
0.334007
0.334007
0.334007
0.334007
0.334007
0.334007
0.334007
0.334007
0.334007
0.334007
0.334007
0.334007
0.334007
0.334007
0.334007
0.334007
0.334007
0.334007
0.334007
0.334007
0.334007
0.334007
0.334007
0.334007
0.334007
0.334007
0.334007
0.334007
0.334007
0.334007
0.334007
0.334007
0.334007
0.334007
0.334007
0.334007
0.334007
0.334007
0.334007
0.334007
0.334007
0.334007
0.334007
0.334007
0.334007
0.334007
0.334007
0.334007
0.334007
0.334007
0.334007
0.334007
0.334007
0.334007
0.334007
0.334007
0.334007
0.334007
0.334007
0.334007
0.334007
0.334007
0.334007
0.334007
0.334007
0.334007
0.334007
0.334007
0.334007
0.334007
0.334007
0.334007
0.334007
0.334007
0.334007
0.334007
0.334007
0.334007
0.334007
0.334007
0.334007
0.334007
0.334007
0.334007
0.334007
0.334007
0.334007
0.334007
0.334007
0.334007
0.334007
0.334007
0.334007
0.334007
0.334007
0.334007
0.334007
0.334007
0.334007
0.334007
0.334007
0.334007
0.334007
0.334007
0.334007
0.334007
0.334007
0.334007
0.334007
0.334007
0.334007
0.334007
0.334006
0.334006
0.334006
0.334006
0.334006
0.334006
0.334006
0.334006
0.334006
0.334006
0.334006
0.334006
0.334006
0.334006
0.334006
0.334006
0.334006
0.334006
0.334006
0.334006
0.334006
0.334006
0.334006
0.334006
0.334006
0.334006
0.334006
0.334006
0.334006
0.334005
0.334005
0.334005
0.334005
0.334005
0.334005
0.334005
0.334005
0.334005
0.334005
0.334004
0.334004
0.334004
0.334004
0.334004
0.334004
0.334004
0.334004
0.334004
0.334004
0.334004
0.334004
0.334004
0.334004
0.334004
0.334004
0.334003
0.334003
0.334003
0.334003
0.334002
0.334002
0.334002
0.334002
0.334001
0.334001
0.334001
0.334001
0.334001
0.334001
0.334001
0.334001
0.334
0.334
0.334
0.334
0.334
0.334001
0.334001
0.334
0.334
0.334
0.333999
0.333999
0.333998
0.333998
0.333997
0.333996
0.333996
0.333995
0.333995
0.333995
0.333994
0.333994
0.333994
0.333993
0.333993
0.333993
0.333993
0.333993
0.333992
0.333992
0.333992
0.333992
0.333993
0.333993
0.333992
0.333991
0.33399
0.333989
0.333988
0.333987
0.333986
0.333985
0.333984
0.333983
0.333982
0.333981
0.333981
0.33398
0.333979
0.333979
0.333978
0.333978
0.333977
0.333977
0.333977
0.333977
0.333976
0.333976
0.333976
0.333977
0.333976
0.333975
0.333973
0.333972
0.33397
0.333968
0.333966
0.333964
0.333962
0.333961
0.333959
0.333957
0.333956
0.333954
0.333953
0.333952
0.333951
0.33395
0.333949
0.333948
0.333948
0.333947
0.333947
0.333947
0.333947
0.333947
0.333946
0.333944
0.333942
0.33394
0.333937
0.333934
0.333931
0.333927
0.333924
0.333921
0.333918
0.333915
0.333912
0.33391
0.333907
0.333905
0.333903
0.333901
0.3339
0.333899
0.333898
0.333897
0.333896
0.333895
0.333895
0.333895
0.333895
0.33389
0.333888
0.333884
0.33388
0.333876
0.333871
0.333865
0.33386
0.333855
0.333849
0.333844
0.333839
0.333835
0.33383
0.333826
0.333823
0.33382
0.333817
0.333814
0.333812
0.33381
0.333809
0.333808
0.333807
0.333806
0.333806
0.333806
0.333796
0.333792
0.333787
0.33378
0.333772
0.333764
0.333756
0.333747
0.333738
0.333729
0.333721
0.333713
0.333705
0.333698
0.333692
0.333686
0.33368
0.333676
0.333672
0.333668
0.333665
0.333663
0.333661
0.333659
0.333658
0.333657
0.333657
0.333643
0.333637
0.333628
0.333618
0.333606
0.333593
0.333579
0.333565
0.333551
0.333537
0.333524
0.333511
0.333499
0.333488
0.333477
0.333468
0.333459
0.333452
0.333445
0.333439
0.333434
0.33343
0.333427
0.333425
0.333423
0.333422
0.333421
0.333409
0.333399
0.333386
0.33337
0.333352
0.333332
0.333312
0.333291
0.333269
0.333248
0.333228
0.333209
0.33319
0.333173
0.333158
0.333143
0.33313
0.333119
0.333109
0.3331
0.333093
0.333087
0.333082
0.333078
0.333075
0.333074
0.333073
0.333071
0.333057
0.333039
0.333016
0.332991
0.332963
0.332934
0.332904
0.332875
0.332845
0.332817
0.33279
0.332764
0.332741
0.332719
0.332699
0.332681
0.332665
0.332651
0.332639
0.332629
0.33262
0.332614
0.332609
0.332605
0.332603
0.332601
0.332618
0.3326
0.332576
0.332547
0.332514
0.332478
0.33244
0.332402
0.332364
0.332326
0.33229
0.332256
0.332223
0.332193
0.332165
0.33214
0.332117
0.332097
0.33208
0.332065
0.332052
0.332041
0.332033
0.332027
0.332022
0.332019
0.332018
0.332052
0.332031
0.332002
0.331967
0.331928
0.331885
0.33184
0.331795
0.33175
0.331705
0.331663
0.331623
0.331585
0.331549
0.331517
0.331488
0.331462
0.331439
0.331419
0.331401
0.331387
0.331375
0.331365
0.331358
0.331353
0.33135
0.331348
0.33139
0.331367
0.331334
0.331295
0.331251
0.331204
0.331154
0.331104
0.331055
0.331006
0.33096
0.330916
0.330874
0.330836
0.330801
0.33077
0.330742
0.330717
0.330695
0.330677
0.330661
0.330648
0.330638
0.33063
0.330625
0.330621
0.33062
0.330656
0.330631
0.330597
0.330556
0.33051
0.33046
0.330408
0.330356
0.330304
0.330254
0.330206
0.33016
0.330118
0.330078
0.330042
0.33001
0.329981
0.329955
0.329933
0.329914
0.329898
0.329885
0.329875
0.329867
0.329861
0.329858
0.329856
0.329875
0.32985
0.329816
0.329774
0.329727
0.329677
0.329625
0.329573
0.329521
0.32947
0.329422
0.329376
0.329334
0.329294
0.329258
0.329226
0.329197
0.329172
0.32915
0.329131
0.329115
0.329102
0.329091
0.329083
0.329078
0.329074
0.329073
0.329071
0.329046
0.329012
0.328971
0.328925
0.328875
0.328824
0.328772
0.328721
0.328672
0.328624
0.328579
0.328537
0.328499
0.328463
0.328432
0.328403
0.328378
0.328356
0.328338
0.328322
0.328309
0.328299
0.328291
0.328286
0.328282
0.328281
0.328258
0.328234
0.328201
0.328161
0.328116
0.328068
0.328018
0.327968
0.327918
0.32787
0.327823
0.32778
0.327739
0.327701
0.327667
0.327636
0.327608
0.327584
0.327563
0.327544
0.327529
0.327517
0.327507
0.327499
0.327494
0.32749
0.327489
0.327448
0.327425
0.327393
0.327354
0.32731
0.327264
0.327216
0.327167
0.327119
0.327072
0.327027
0.326985
0.326945
0.326909
0.326875
0.326845
0.326818
0.326795
0.326774
0.326756
0.326742
0.326729
0.32672
0.326712
0.326707
0.326704
0.326702
0.326648
0.326625
0.326594
0.326557
0.326515
0.32647
0.326423
0.326376
0.326329
0.326284
0.326241
0.3262
0.326161
0.326126
0.326093
0.326064
0.326038
0.326015
0.325995
0.325978
0.325963
0.325951
0.325942
0.325935
0.32593
0.325926
0.325925
0.325861
0.325839
0.325809
0.325773
0.325732
0.325689
0.325644
0.325598
0.325553
0.325509
0.325467
0.325427
0.32539
0.325355
0.325324
0.325295
0.32527
0.325248
0.325228
0.325211
0.325197
0.325186
0.325177
0.325169
0.325164
0.325161
0.32516
0.325089
0.325068
0.325039
0.325004
0.324965
0.324923
0.324879
0.324835
0.324791
0.324748
0.324707
0.324669
0.324632
0.324599
0.324568
0.324541
0.324516
0.324494
0.324475
0.324459
0.324445
0.324434
0.324425
0.324418
0.324413
0.32441
0.324409
0.324334
0.324314
0.324286
0.324252
0.324214
0.324173
0.32413
0.324087
0.324045
0.324003
0.323963
0.323926
0.32389
0.323858
0.323828
0.323801
0.323777
0.323756
0.323737
0.323721
0.323708
0.323697
0.323688
0.323681
0.323677
0.323674
0.323672
0.323596
0.323576
0.323549
0.323516
0.323479
0.323439
0.323397
0.323356
0.323314
0.323274
0.323235
0.323198
0.323164
0.323132
0.323103
0.323077
0.323053
0.323033
0.323015
0.322999
0.322986
0.322975
0.322967
0.32296
0.322955
0.322953
0.322951
0.322874
0.322855
0.322828
0.322796
0.32276
0.322721
0.322681
0.32264
0.322599
0.32256
0.322522
0.322486
0.322453
0.322422
0.322394
0.322368
0.322345
0.322325
0.322307
0.322292
0.322279
0.322269
0.32226
0.322254
0.32225
0.322247
0.322245
0.322168
0.32215
0.322124
0.322092
0.322057
0.322019
0.32198
0.32194
0.3219
0.321862
0.321825
0.32179
0.321757
0.321727
0.321699
0.321674
0.321652
0.321632
0.321615
0.3216
0.321588
0.321578
0.321569
0.321563
0.321559
0.321556
0.321555
0.321478
0.32146
0.321435
0.321404
0.321369
0.321332
0.321294
0.321255
0.321217
0.321179
0.321143
0.321109
0.321077
0.321047
0.32102
0.320996
0.320974
0.320955
0.320938
0.320923
0.320911
0.320901
0.320893
0.320887
0.320883
0.32088
0.320879
0.320804
0.320786
0.320761
0.320731
0.320697
0.320661
0.320623
0.320585
0.320548
0.320511
0.320476
0.320442
0.320411
0.320382
0.320356
0.320332
0.32031
0.320292
0.320275
0.320261
0.320249
0.320239
0.320231
0.320225
0.320221
0.320218
0.320217
0.320143
0.320126
0.320101
0.320072
0.320039
0.320004
0.319967
0.31993
0.319893
0.319857
0.319823
0.31979
0.319759
0.319731
0.319705
0.319682
0.319661
0.319642
0.319626
0.319612
0.319601
0.319591
0.319584
0.319578
0.319574
0.319571
0.31957
0.319497
0.31948
0.319456
0.319428
0.319395
0.319361
0.319325
0.319288
0.319252
0.319217
0.319183
0.319151
0.319121
0.319094
0.319068
0.319046
0.319025
0.319007
0.318991
0.318978
0.318966
0.318957
0.318949
0.318944
0.31894
0.318937
0.318936
0.318865
0.318848
0.318825
0.318796
0.318765
0.318731
0.318696
0.31866
0.318625
0.31859
0.318557
0.318526
0.318497
0.31847
0.318445
0.318422
0.318402
0.318385
0.318369
0.318356
0.318345
0.318336
0.318328
0.318323
0.318319
0.318316
0.318315
0.318245
0.318229
0.318206
0.318178
0.318147
0.318114
0.31808
0.318045
0.31801
0.317977
0.317944
0.317913
0.317885
0.317858
0.317834
0.317812
0.317792
0.317775
0.31776
0.317747
0.317736
0.317727
0.31772
0.317714
0.31771
0.317708
0.317707
0.317638
0.317622
0.3176
0.317573
0.317543
0.31751
0.317476
0.317442
0.317408
0.317375
0.317343
0.317313
0.317285
0.317259
0.317235
0.317214
0.317194
0.317177
0.317163
0.31715
0.317139
0.31713
0.317123
0.317118
0.317114
0.317112
0.31711
0.317044
0.317028
0.317006
0.31698
0.31695
0.316918
0.316885
0.316851
0.316818
0.316786
0.316754
0.316725
0.316697
0.316672
0.316649
0.316627
0.316609
0.316592
0.316577
0.316565
0.316554
0.316546
0.316539
0.316533
0.31653
0.316527
0.316526
0.316461
0.316445
0.316424
0.316398
0.316369
0.316337
0.316305
0.316272
0.316239
0.316208
0.316177
0.316148
0.316121
0.316096
0.316073
0.316053
0.316034
0.316018
0.316003
0.315991
0.315981
0.315972
0.315966
0.31596
0.315957
0.315954
0.315953
0.315889
0.315874
0.315853
0.315827
0.315799
0.315768
0.315736
0.315704
0.315672
0.315641
0.315611
0.315583
0.315556
0.315532
0.315509
0.315489
0.315471
0.315454
0.31544
0.315428
0.315418
0.31541
0.315403
0.315398
0.315395
0.315392
0.315391
0.315329
0.315314
0.315293
0.315268
0.31524
0.31521
0.315179
0.315147
0.315115
0.315085
0.315056
0.315028
0.315002
0.314978
0.314956
0.314936
0.314918
0.314902
0.314888
0.314876
0.314866
0.314858
0.314852
0.314847
0.314843
0.314841
0.31484
0.314779
0.314764
0.314744
0.314719
0.314692
0.314662
0.314631
0.3146
0.314569
0.314539
0.314511
0.314483
0.314458
0.314434
0.314412
0.314393
0.314375
0.31436
0.314346
0.314335
0.314325
0.314317
0.314311
0.314306
0.314302
0.3143
0.314299
0.314239
0.314224
0.314205
0.31418
0.314153
0.314124
0.314094
0.314064
0.314033
0.314004
0.313976
0.313949
0.313924
0.313901
0.313879
0.31386
0.313843
0.313828
0.313814
0.313803
0.313794
0.313786
0.313779
0.313775
0.313771
0.313769
0.313768
0.313709
0.313695
0.313675
0.313652
0.313625
0.313597
0.313567
0.313537
0.313507
0.313478
0.313451
0.313424
0.3134
0.313377
0.313356
0.313337
0.31332
0.313305
0.313292
0.313281
0.313272
0.313264
0.313258
0.313253
0.31325
0.313248
0.313247
0.313189
0.313175
0.313156
0.313133
0.313107
0.313079
0.31305
0.31302
0.312991
0.312963
0.312935
0.312909
0.312885
0.312863
0.312842
0.312824
0.312807
0.312792
0.31278
0.312769
0.31276
0.312752
0.312746
0.312741
0.312738
0.312736
0.312735
0.312678
0.312665
0.312646
0.312623
0.312598
0.31257
0.312541
0.312513
0.312484
0.312456
0.312429
0.312404
0.31238
0.312358
0.312338
0.31232
0.312303
0.312289
0.312276
0.312266
0.312257
0.312249
0.312243
0.312239
0.312235
0.312233
0.312232
0.312177
0.312164
0.312145
0.312123
0.312098
0.312071
0.312043
0.312014
0.311986
0.311959
0.311932
0.311907
0.311884
0.311862
0.311843
0.311825
0.311809
0.311795
0.311782
0.311772
0.311763
0.311755
0.31175
0.311745
0.311742
0.31174
0.311739
0.311685
0.311672
0.311654
0.311632
0.311607
0.31158
0.311553
0.311525
0.311497
0.31147
0.311444
0.31142
0.311397
0.311376
0.311356
0.311339
0.311323
0.311309
0.311297
0.311287
0.311278
0.311271
0.311265
0.31126
0.311257
0.311255
0.311254
0.311202
0.311189
0.311171
0.311149
0.311125
0.311099
0.311072
0.311044
0.311017
0.310991
0.310965
0.310941
0.310919
0.310898
0.310879
0.310862
0.310846
0.310832
0.310821
0.31081
0.310802
0.310795
0.310789
0.310785
0.310782
0.31078
0.310779
0.310727
0.310714
0.310697
0.310676
0.310652
0.310626
0.3106
0.310573
0.310546
0.31052
0.310495
0.310471
0.310449
0.310429
0.31041
0.310393
0.310378
0.310365
0.310353
0.310343
0.310334
0.310328
0.310322
0.310318
0.310315
0.310313
0.310312
0.310261
0.310249
0.310232
0.310211
0.310188
0.310162
0.310136
0.31011
0.310084
0.310058
0.310034
0.310011
0.309989
0.309969
0.30995
0.309934
0.309919
0.309906
0.309894
0.309884
0.309876
0.309869
0.309864
0.30986
0.309857
0.309855
0.309854
0.309805
0.309792
0.309776
0.309755
0.309732
0.309708
0.309682
0.309656
0.30963
0.309605
0.309581
0.309558
0.309537
0.309517
0.309499
0.309483
0.309468
0.309456
0.309444
0.309435
0.309426
0.30942
0.309414
0.30941
0.309407
0.309406
0.309405
0.309357
0.309345
0.309328
0.309308
0.309286
0.309262
0.309236
0.309211
0.309186
0.309161
0.309138
0.309115
0.309094
0.309075
0.309057
0.309041
0.309027
0.309014
0.309003
0.308994
0.308986
0.308979
0.308974
0.30897
0.308967
0.308965
0.308965
0.308918
0.308906
0.30889
0.30887
0.308848
0.308825
0.3088
0.308775
0.30875
0.308726
0.308703
0.308681
0.308661
0.308642
0.308625
0.308609
0.308595
0.308583
0.308572
0.308562
0.308555
0.308548
0.308543
0.308539
0.308536
0.308535
0.308534
0.308489
0.308477
0.308461
0.308442
0.30842
0.308397
0.308373
0.308349
0.308325
0.308301
0.308278
0.308257
0.308237
0.308218
0.308201
0.308186
0.308172
0.30816
0.30815
0.308141
0.308133
0.308127
0.308122
0.308118
0.308115
0.308113
0.308113
0.308069
0.308058
0.308042
0.308023
0.308002
0.307979
0.307956
0.307932
0.307908
0.307885
0.307863
0.307842
0.307823
0.307805
0.307788
0.307773
0.30776
0.307748
0.307738
0.307729
0.307721
0.307715
0.30771
0.307706
0.307704
0.307702
0.307701
0.307659
0.307648
0.307633
0.307615
0.307594
0.307572
0.307549
0.307526
0.307503
0.30748
0.307459
0.307438
0.307419
0.307402
0.307385
0.307371
0.307358
0.307346
0.307336
0.307327
0.30732
0.307314
0.307309
0.307306
0.307303
0.307301
0.307301
0.30726
0.30725
0.307235
0.307217
0.307197
0.307175
0.307153
0.30713
0.307108
0.307086
0.307065
0.307045
0.307027
0.307009
0.306994
0.306979
0.306967
0.306956
0.306946
0.306937
0.30693
0.306924
0.30692
0.306916
0.306914
0.306912
0.306911
0.306873
0.306862
0.306848
0.306831
0.306811
0.30679
0.306769
0.306747
0.306725
0.306704
0.306683
0.306664
0.306646
0.306629
0.306614
0.3066
0.306588
0.306577
0.306568
0.306559
0.306553
0.306547
0.306542
0.306539
0.306536
0.306535
0.306534
0.306498
0.306488
0.306474
0.306457
0.306438
0.306418
0.306397
0.306376
0.306355
0.306334
0.306314
0.306296
0.306278
0.306262
0.306247
0.306234
0.306222
0.306212
0.306202
0.306195
0.306188
0.306183
0.306178
0.306175
0.306172
0.306171
0.30617
0.306136
0.306126
0.306113
0.306097
0.306079
0.306059
0.306039
0.306018
0.305998
0.305978
0.305959
0.305942
0.305925
0.305909
0.305895
0.305882
0.305871
0.305861
0.305852
0.305844
0.305838
0.305833
0.305828
0.305825
0.305823
0.305821
0.305821
0.305789
0.30578
0.305767
0.305751
0.305734
0.305715
0.305696
0.305676
0.305657
0.305638
0.30562
0.305603
0.305586
0.305572
0.305558
0.305546
0.305535
0.305525
0.305517
0.305509
0.305503
0.305498
0.305494
0.305491
0.305489
0.305488
0.305487
0.305458
0.305449
0.305437
0.305422
0.305405
0.305388
0.305369
0.30535
0.305332
0.305314
0.305297
0.30528
0.305265
0.305251
0.305238
0.305226
0.305216
0.305207
0.305199
0.305192
0.305186
0.305181
0.305177
0.305174
0.305172
0.305171
0.30517
0.305144
0.305136
0.305124
0.30511
0.305095
0.305078
0.30506
0.305043
0.305025
0.305008
0.304992
0.304977
0.304962
0.304949
0.304937
0.304926
0.304916
0.304907
0.3049
0.304893
0.304888
0.304883
0.304879
0.304877
0.304875
0.304874
0.304873
0.30485
0.304842
0.304831
0.304818
0.304804
0.304788
0.304771
0.304755
0.304738
0.304723
0.304707
0.304693
0.304679
0.304667
0.304656
0.304645
0.304636
0.304628
0.304621
0.304615
0.30461
0.304606
0.304602
0.3046
0.304598
0.304597
0.304596
0.304577
0.304569
0.304559
0.304547
0.304533
0.304519
0.304504
0.304488
0.304473
0.304458
0.304444
0.304431
0.304419
0.304407
0.304397
0.304387
0.304379
0.304371
0.304365
0.304359
0.304354
0.30435
0.304347
0.304345
0.304343
0.304342
0.304342
0.304325
0.304319
0.30431
0.304299
0.304286
0.304273
0.304259
0.304245
0.304231
0.304218
0.304205
0.304193
0.304181
0.304171
0.304161
0.304153
0.304145
0.304138
0.304132
0.304127
0.304123
0.304119
0.304116
0.304114
0.304113
0.304112
0.304111
0.304098
0.304092
0.304084
0.304074
0.304063
0.304051
0.304038
0.304026
0.304013
0.304001
0.30399
0.303979
0.303969
0.303959
0.303951
0.303943
0.303936
0.30393
0.303925
0.30392
0.303916
0.303913
0.303911
0.303909
0.303907
0.303907
0.303906
0.303897
0.303891
0.303884
0.303875
0.303865
0.303855
0.303844
0.303833
0.303822
0.303811
0.303801
0.303791
0.303782
0.303774
0.303767
0.30376
0.303754
0.303748
0.303744
0.30374
0.303736
0.303734
0.303731
0.30373
0.303729
0.303728
0.303727
0.303721
0.303716
0.30371
0.303702
0.303694
0.303685
0.303675
0.303666
0.303656
0.303647
0.303638
0.30363
0.303622
0.303615
0.303609
0.303603
0.303598
0.303593
0.303589
0.303586
0.303583
0.303581
0.303579
0.303577
0.303576
0.303576
0.303575
0.303572
0.303568
0.303562
0.303556
0.303549
0.303541
0.303533
0.303525
0.303517
0.303509
0.303502
0.303495
0.303489
0.303483
0.303477
0.303472
0.303468
0.303464
0.303461
0.303458
0.303456
0.303454
0.303452
0.303451
0.30345
0.30345
0.303449
0.303448
0.303445
0.30344
0.303435
0.303429
0.303423
0.303416
0.30341
0.303403
0.303397
0.303391
0.303386
0.30338
0.303376
0.303371
0.303367
0.303364
0.303361
0.303358
0.303356
0.303354
0.303352
0.303351
0.30335
0.303349
0.303349
0.303349
0.303349
0.303346
0.303343
0.303339
0.303334
0.303329
0.303324
0.303319
0.303314
0.303309
0.303304
0.3033
0.303296
0.303292
0.303289
0.303286
0.303283
0.303281
0.303278
0.303277
0.303275
0.303274
0.303273
0.303272
0.303272
0.303271
0.303271
0.303272
0.30327
0.303268
0.303265
0.303261
0.303257
0.303253
0.30325
0.303246
0.303242
0.303239
0.303235
0.303232
0.303229
0.303227
0.303225
0.303223
0.303221
0.303219
0.303218
0.303217
0.303216
0.303215
0.303215
0.303214
0.303214
0.303214
0.303216
0.303214
0.303212
0.30321
0.303207
0.303205
0.303202
0.303199
0.303196
0.303194
0.303191
0.303189
0.303187
0.303185
0.303183
0.303181
0.30318
0.303179
0.303178
0.303177
0.303176
0.303175
0.303175
0.303174
0.303174
0.303174
0.303174
0.303175
0.303174
0.303173
0.303171
0.30317
0.303168
0.303166
0.303164
0.303162
0.30316
0.303159
0.303157
0.303156
0.303154
0.303153
0.303152
0.303151
0.30315
0.30315
0.303149
0.303149
0.303148
0.303148
0.303148
0.303147
0.303147
0.303147
0.303148
0.303148
0.303147
0.303146
0.303145
0.303143
0.303142
0.303141
0.30314
0.303139
0.303138
0.303137
0.303136
0.303135
0.303134
0.303134
0.303133
0.303132
0.303132
0.303132
0.303131
0.303131
0.303131
0.303131
0.303131
0.30313
0.30313
0.303131
0.303131
0.30313
0.30313
0.303129
0.303128
0.303127
0.303127
0.303126
0.303125
0.303125
0.303124
0.303123
0.303123
0.303123
0.303122
0.303122
0.303122
0.303121
0.303121
0.303121
0.303121
0.303121
0.30312
0.30312
0.30312
0.30312
0.303121
0.30312
0.30312
0.30312
0.303119
0.303119
0.303118
0.303118
0.303118
0.303117
0.303117
0.303117
0.303116
0.303116
0.303116
0.303115
0.303115
0.303115
0.303115
0.303115
0.303115
0.303115
0.303115
0.303114
0.303114
0.303114
0.303114
0.303114
0.303114
0.303114
0.303114
0.303114
0.303113
0.303113
0.303113
0.303113
0.303112
0.303112
0.303112
0.303112
0.303112
0.303112
0.303111
0.303111
0.303111
0.303111
0.303111
0.303111
0.303111
0.303111
0.303111
0.303111
0.303111
0.303111
0.303111
0.303111
0.30311
0.30311
0.30311
0.30311
0.30311
0.30311
0.30311
0.30311
0.303109
0.303109
0.303109
0.303109
0.303109
0.303109
0.303109
0.303109
0.303109
0.303109
0.303109
0.303108
0.303108
0.303108
0.303108
0.303108
0.303108
0.303108
0.303108
0.303108
0.303108
0.303108
0.303108
0.303108
0.303108
0.303108
0.303107
0.303107
0.303107
0.303107
0.303107
0.303107
0.303107
0.303107
0.303107
0.303107
0.303107
0.303107
0.303107
0.303107
0.303107
0.303107
0.303107
0.303107
0.303107
0.303107
0.303107
0.303106
0.303106
0.303106
0.303106
0.303106
0.303106
0.303106
0.303106
0.303106
0.303106
0.303106
0.303106
0.303106
0.303105
0.303105
0.303105
0.303105
0.303105
0.303105
0.303105
0.303105
0.303105
0.303105
0.303105
0.303105
0.303105
0.303105
0.303105
0.303105
0.303105
0.303105
0.303105
0.303105
0.303105
0.303105
0.303105
0.303105
0.303104
0.303104
0.303104
0.303104
0.303104
0.303104
0.303104
0.303104
0.303104
0.303104
0.303104
0.303104
0.303104
0.303104
0.303104
0.303104
0.303104
0.303104
0.303104
0.303104
0.303104
0.303104
0.303104
0.303104
0.303104
0.303104
0.303104
0.303103
0.303103
0.303103
0.303103
0.303103
0.303103
0.303103
0.303103
0.303103
0.303103
0.303103
0.303103
0.303103
0.303103
0.303103
0.303103
0.303103
0.303103
0.303103
0.303103
0.303103
0.303103
0.303103
0.303103
0.303103
0.303103
0.303103
0.303103
0.303103
0.303103
0.303103
0.303103
0.303103
0.303103
0.303103
0.303103
0.303103
0.303103
0.303103
0.303103
0.303103
0.303103
0.303103
0.303103
0.303103
0.303103
0.303102
0.303102
0.303102
0.303102
0.303102
0.303102
0.303102
0.303102
0.303102
0.303102
0.303102
0.303102
0.303102
0.303102
0.303102
0.303102
0.303102
0.303102
0.303102
0.303102
0.303102
0.303102
0.303102
0.303102
0.303102
0.303102
0.303102
0.303102
0.303102
0.303102
0.303102
0.303102
0.303102
0.303102
0.303102
0.303102
0.303102
0.303102
0.303102
0.303102
0.303102
0.303102
0.303102
0.303102
0.303102
0.303102
0.303102
0.303102
0.303102
0.303102
0.303102
0.303102
0.303102
0.303102
0.303102
0.303102
0.303102
0.303102
0.303102
0.303102
0.303102
0.303102
0.303102
0.303102
0.303102
0.303101
0.303101
0.303101
0.303101
0.303101
0.303101
0.303101
0.303101
0.303101
0.303101
0.303101
0.303101
0.303101
0.303101
0.303101
0.303101
0.303101
0.303101
0.303101
0.303101
0.303101
0.303101
0.303101
0.303101
0.303101
0.303101
0.303101
0.303101
0.303101
0.303101
0.303101
0.303101
0.303101
0.303101
0.303101
0.303101
0.303101
0.303101
0.303101
0.303101
0.303101
0.303101
0.303101
0.303101
0.303101
0.303101
0.303101
0.303101
0.303101
0.303101
0.303101
0.303101
0.303101
0.303101
0.303101
0.303101
0.303101
0.303101
0.303101
0.303101
0.303101
0.303101
0.303101
0.303101
0.303101
0.303101
0.303101
0.303101
0.303101
0.303101
0.303101
0.303101
0.303101
0.303101
0.303101
0.303101
0.303101
0.303101
0.303101
0.303101
0.303101
0.303101
0.303101
0.303101
0.303101
0.303101
0.303101
0.303101
0.303101
0.303101
0.303101
0.303101
0.303101
0.303101
0.303101
0.303101
0.303101
0.303101
0.303101
0.303101
0.303101
0.303101
0.303101
0.303101
0.303101
0.303101
0.303101
0.303101
0.303101
0.303101
0.303101
0.303101
0.303101
0.303101
0.303101
0.303101
0.303101
0.303101
0.303101
0.303101
0.303101
0.303101
0.303101
0.303101
0.303101
0.303101
0.303101
0.303101
0.303101
0.303101
0.303101
0.303101
0.303101
0.303101
0.303101
0.303101
0.303101
0.303101
0.303101
0.303101
0.303101
0.303101
0.303101
0.303101
0.303101
0.303101
0.303101
0.303101
0.303101
0.303101
0.303101
0.303101
0.303101
0.303101
0.303101
0.303101
0.303101
0.303101
0.303101
0.303101
0.303101
0.303101
0.303101
0.303101
0.303101
0.303101
0.303101
0.303101
0.303101
0.303101
0.303101
0.303101
0.303101
0.303101
0.303101
0.303101
0.303101
0.303101
0.303101
0.303101
0.303101
0.303101
0.303101
0.303101
0.303101
0.303101
0.303101
0.303101
0.303101
0.303101
0.303101
0.303101
0.303101
0.303101
0.303101
0.303101
0.303101
0.303101
0.303101
0.303101
0.303101
0.303101
0.303101
0.303101
0.303101
0.303101
0.303101
0.303101
0.303101
0.303101
0.303101
0.303101
0.303101
0.303101
0.303101
0.303101
0.303101
0.303101
0.303101
0.303101
0.303101
0.303101
0.303101
0.303101
0.303101
0.303101
0.303101
0.303101
0.303101
0.303101
0.303101
0.303101
0.303101
0.303101
0.303101
0.303101
0.303101
0.303101
0.303101
0.303101
0.303101
0.303101
0.303101
0.303101
0.303101
0.303101
0.303101
0.303101
0.303101
0.303101
0.303101
0.303101
0.303101
0.303101
0.303101
0.303101
0.303101
0.303101
0.303101
0.303101
0.303101
0.303101
0.303101
0.303101
0.303101
0.303101
0.303101
0.303101
0.303101
0.303101
0.303101
0.303101
0.303101
0.303101
0.303101
0.303101
0.303101
0.303101
0.303101
0.303101
0.303101
0.303101
0.303101
0.303101
0.303101
0.303101
0.303101
0.303101
0.303101
0.303101
0.303101
0.303101
0.303101
0.303101
0.303101
0.303101
0.303101
0.303101
0.303101
0.303101
0.303101
0.303101
0.303101
0.303101
0.303101
0.303101
0.303101
0.303101
0.303101
0.303101
0.303101
0.303101
0.303101
0.303101
0.303101
0.303101
0.303101
0.303101
0.303101
0.303101
0.303101
0.303101
0.303101
0.303101
0.303101
0.303101
0.303101
0.303101
0.303101
0.303101
0.303101
0.303101
0.303101
0.303101
0.303101
0.303101
0.303101
0.303101
0.303101
0.303101
0.303101
0.303101
0.303101
0.303101
0.303101
0.303101
0.303101
0.303101
0.303101
0.303101
0.303101
0.303101
0.303101
0.303101
0.303101
0.303101
0.303101
0.303101
0.303101
0.303101
0.303101
0.303101
0.303101
0.303101
0.303101
0.303101
0.303101
0.303101
0.303101
0.303101
0.303101
0.303101
0.303101
0.303101
0.303101
0.303101
0.303101
0.303101
0.303101
0.303101
0.303101
0.303101
0.303101
0.303101
0.303101
0.303101
0.303101
0.303101
0.303101
0.334007
0.334007
0.334007
0.334007
0.334007
0.334007
0.334007
0.334007
0.334007
0.334007
0.334007
0.334007
0.334007
0.334007
0.334007
0.334007
0.334007
0.334007
0.334007
0.334007