/*--------------------------------*- C++ -*----------------------------------*\
| =========                 |                                                 |
| \\      /  F ield         | OpenFOAM: The Open Source CFD Toolbox           |
|  \\    /   O peration     | Version:  2106                                  |
|   \\  /    A nd           | Website:  www.openfoam.com                      |
|    \\/     M anipulation  |                                                 |
\*---------------------------------------------------------------------------*/
FoamFile
{
    version     2.0;
    format      ascii;
    arch        "LSB;label=32;scalar=64";
    class       volScalarField;
    location    "110.00000";
    object      C4H61;
}
// * * * * * * * * * * * * * * * * * * * * * * * * * * * * * * * * * * * * * //

dimensions      [0 0 0 0 0 0 0];

internalField   nonuniform List<scalar> 
3360
(
3.06569e-20
3.16436e-20
3.30167e-20
3.46962e-20
3.66122e-20
3.87019e-20
4.09083e-20
4.31804e-20
4.54724e-20
4.77442e-20
4.99607e-20
5.20923e-20
5.41146e-20
5.6008e-20
5.77578e-20
5.93535e-20
6.07888e-20
6.20609e-20
6.31704e-20
6.41206e-20
6.49171e-20
6.55677e-20
6.60815e-20
6.64692e-20
6.67419e-20
6.69115e-20
6.69902e-20
1.34489e-19
1.39433e-19
1.4641e-19
1.55098e-19
1.65232e-19
1.7658e-19
1.88933e-19
2.02102e-19
2.15912e-19
2.30193e-19
2.44788e-19
2.59539e-19
2.74293e-19
2.88898e-19
3.03206e-19
3.17068e-19
3.30343e-19
3.42889e-19
3.54575e-19
3.65274e-19
3.74871e-19
3.83266e-19
3.90371e-19
3.96118e-19
4.00454e-19
4.0335e-19
4.04794e-19
4.22002e-19
4.40526e-19
4.66848e-19
4.99923e-19
5.38887e-19
5.82958e-19
6.31397e-19
6.83475e-19
7.38452e-19
7.95575e-19
8.54074e-19
9.13183e-19
9.72144e-19
1.03021e-18
1.08665e-18
1.14079e-18
1.19199e-18
1.23967e-18
1.28335e-18
1.32261e-18
1.35713e-18
1.38669e-18
1.41116e-18
1.4305e-18
1.44476e-18
1.45406e-18
1.45859e-18
1.22907e-18
1.29012e-18
1.37747e-18
1.48797e-18
1.61903e-18
1.7682e-18
1.93302e-18
2.11097e-18
2.29938e-18
2.49546e-18
2.69632e-18
2.89903e-18
3.10066e-18
3.29837e-18
3.48947e-18
3.67148e-18
3.8422e-18
3.99977e-18
4.14269e-18
4.26983e-18
4.38046e-18
4.47417e-18
4.55093e-18
4.61096e-18
4.65477e-18
4.68306e-18
4.6967e-18
3.59109e-18
3.78372e-18
4.0598e-18
4.40992e-18
4.82605e-18
5.30052e-18
5.82542e-18
6.39236e-18
6.99242e-18
7.61618e-18
8.25391e-18
8.89578e-18
9.53217e-18
1.01539e-17
1.07524e-17
1.132e-17
1.18503e-17
1.23377e-17
1.2778e-17
1.31683e-17
1.35067e-17
1.37924e-17
1.40257e-17
1.42076e-17
1.434e-17
1.44254e-17
1.44664e-17
1.05891e-17
1.11806e-17
1.20296e-17
1.31072e-17
1.43886e-17
1.58501e-17
1.7467e-17
1.92128e-17
2.10596e-17
2.29778e-17
2.49368e-17
2.69059e-17
2.88554e-17
3.07568e-17
3.25841e-17
3.43141e-17
3.59271e-17
3.7407e-17
3.87417e-17
3.99225e-17
4.09445e-17
4.18062e-17
4.25086e-17
4.30557e-17
4.34534e-17
4.37094e-17
4.38324e-17
3.14569e-17
3.32547e-17
3.58345e-17
3.9109e-17
4.30029e-17
4.74429e-17
5.23527e-17
5.76513e-17
6.32521e-17
6.90645e-17
7.49952e-17
8.09511e-17
8.68415e-17
9.25812e-17
9.80918e-17
1.03305e-16
1.08161e-16
1.12613e-16
1.16626e-16
1.20174e-16
1.23244e-16
1.2583e-16
1.27938e-16
1.2958e-16
1.30773e-16
1.3154e-16
1.31909e-16
9.37588e-17
9.91686e-17
1.06936e-16
1.16798e-16
1.28528e-16
1.41906e-16
1.567e-16
1.72665e-16
1.89537e-16
2.07043e-16
2.24899e-16
2.42825e-16
2.60548e-16
2.77809e-16
2.94375e-16
3.10039e-16
3.24624e-16
3.37991e-16
3.50032e-16
3.60674e-16
3.69877e-16
3.77628e-16
3.83943e-16
3.88859e-16
3.9243e-16
3.94726e-16
3.9583e-16
2.80189e-16
2.96448e-16
3.19787e-16
3.49418e-16
3.84658e-16
4.24839e-16
4.69264e-16
5.1719e-16
5.67825e-16
6.20341e-16
6.73892e-16
7.27632e-16
7.80743e-16
8.32456e-16
8.82069e-16
9.28967e-16
9.72628e-16
1.01263e-15
1.04866e-15
1.0805e-15
1.10804e-15
1.13123e-15
1.15012e-15
1.16482e-15
1.1755e-15
1.18237e-15
1.18567e-15
8.37333e-16
8.86031e-16
9.55948e-16
1.04472e-15
1.15029e-15
1.27067e-15
1.40375e-15
1.54731e-15
1.69897e-15
1.85623e-15
2.01657e-15
2.17745e-15
2.33641e-15
2.49116e-15
2.63959e-15
2.77986e-15
2.91042e-15
3.03001e-15
3.1377e-15
3.23285e-15
3.31509e-15
3.38435e-15
3.44076e-15
3.48465e-15
3.51653e-15
3.53703e-15
3.54688e-15
2.50345e-15
2.64923e-15
2.85848e-15
3.1241e-15
3.43994e-15
3.79996e-15
4.19788e-15
4.62698e-15
5.08015e-15
5.54994e-15
6.02873e-15
6.50897e-15
6.98333e-15
7.44497e-15
7.88763e-15
8.30586e-15
8.69502e-15
9.05143e-15
9.37228e-15
9.65571e-15
9.90069e-15
1.01069e-14
1.02749e-14
1.04056e-14
1.05005e-14
1.05615e-14
1.05909e-14
7.47713e-15
7.91234e-15
8.53697e-15
9.32977e-15
1.02722e-14
1.13463e-14
1.2533e-14
1.38124e-14
1.5163e-14
1.65626e-14
1.79885e-14
1.94182e-14
2.08298e-14
2.2203e-14
2.35193e-14
2.47624e-14
2.59186e-14
2.69772e-14
2.79298e-14
2.8771e-14
2.94978e-14
3.01095e-14
3.06075e-14
3.09949e-14
3.12762e-14
3.1457e-14
3.15439e-14
2.23057e-14
2.36025e-14
2.54631e-14
2.78235e-14
3.06282e-14
3.38225e-14
3.73499e-14
4.115e-14
4.51591e-14
4.93108e-14
5.35377e-14
5.77727e-14
6.19515e-14
6.60139e-14
6.99054e-14
7.35785e-14
7.69931e-14
8.01174e-14
8.29278e-14
8.54085e-14
8.75509e-14
8.93535e-14
9.08206e-14
9.19614e-14
9.27895e-14
9.33218e-14
9.35774e-14
6.63388e-14
7.01846e-14
7.57003e-14
8.26942e-14
9.09992e-14
1.00451e-13
1.10881e-13
1.22107e-13
1.3394e-13
1.46183e-13
1.58636e-13
1.71101e-13
1.83388e-13
1.95322e-13
2.06744e-13
2.17515e-13
2.27519e-13
2.36665e-13
2.44886e-13
2.52136e-13
2.58394e-13
2.63656e-13
2.67936e-13
2.71263e-13
2.73676e-13
2.75226e-13
2.75971e-13
1.96549e-13
2.07889e-13
2.2414e-13
2.44729e-13
2.69153e-13
2.96919e-13
3.27517e-13
3.60409e-13
3.9503e-13
4.30798e-13
4.67126e-13
5.03436e-13
5.3918e-13
5.73846e-13
6.06979e-13
6.38184e-13
6.67132e-13
6.93568e-13
7.17303e-13
7.38216e-13
7.5625e-13
7.714e-13
7.83714e-13
7.93278e-13
8.00213e-13
8.04666e-13
8.06803e-13
5.78817e-13
6.11922e-13
6.59327e-13
7.19314e-13
7.90375e-13
8.71033e-13
9.59765e-13
1.05498e-12
1.15501e-12
1.25815e-12
1.3627e-12
1.46701e-12
1.56948e-12
1.66868e-12
1.76332e-12
1.8523e-12
1.93471e-12
2.00984e-12
2.07719e-12
2.13646e-12
2.1875e-12
2.23032e-12
2.26509e-12
2.29207e-12
2.31161e-12
2.32415e-12
2.33016e-12
1.69104e-12
1.78641e-12
1.92281e-12
2.09512e-12
2.29883e-12
2.52955e-12
2.78275e-12
3.05376e-12
3.33774e-12
3.62977e-12
3.92502e-12
4.21877e-12
4.50663e-12
4.7846e-12
5.04914e-12
5.29728e-12
5.52658e-12
5.73522e-12
5.9219e-12
6.08587e-12
6.22684e-12
6.34495e-12
6.4407e-12
6.51491e-12
6.5686e-12
6.60302e-12
6.6195e-12
4.88731e-12
5.157e-12
5.54202e-12
6.02734e-12
6.59961e-12
7.24582e-12
7.95276e-12
8.7069e-12
9.49443e-12
1.03015e-11
1.11147e-11
1.1921e-11
1.27085e-11
1.34665e-11
1.41857e-11
1.48584e-11
1.54783e-11
1.60409e-11
1.65431e-11
1.69833e-11
1.73609e-11
1.76767e-11
1.79323e-11
1.81301e-11
1.82731e-11
1.83646e-11
1.84083e-11
1.39272e-11
1.46712e-11
1.5731e-11
1.70629e-11
1.86282e-11
2.03891e-11
2.23077e-11
2.43457e-11
2.64649e-11
2.86275e-11
3.07971e-11
3.29395e-11
3.50237e-11
3.70223e-11
3.89116e-11
4.06727e-11
4.22905e-11
4.37544e-11
4.50575e-11
4.61967e-11
4.71719e-11
4.79858e-11
4.86433e-11
4.91511e-11
4.95176e-11
4.97518e-11
4.98638e-11
3.89673e-11
4.09554e-11
4.37796e-11
4.73166e-11
5.14561e-11
5.60916e-11
6.1118e-11
6.6431e-11
7.19278e-11
7.75091e-11
8.30812e-11
8.85578e-11
9.38615e-11
9.89254e-11
1.03693e-10
1.08121e-10
1.12174e-10
1.15829e-10
1.19073e-10
1.21902e-10
1.24317e-10
1.26328e-10
1.2795e-10
1.292e-10
1.301e-10
1.30675e-10
1.3095e-10
1.06535e-10
1.11644e-10
1.18879e-10
1.27904e-10
1.38416e-10
1.50127e-10
1.62757e-10
1.76033e-10
1.89693e-10
2.03487e-10
2.17187e-10
2.30583e-10
2.43495e-10
2.55767e-10
2.67273e-10
2.77915e-10
2.87623e-10
2.96349e-10
3.0407e-10
3.10783e-10
3.16501e-10
3.21251e-10
3.25074e-10
3.28016e-10
3.30131e-10
3.3148e-10
3.32123e-10
2.83054e-10
2.956e-10
3.13306e-10
3.35296e-10
3.60782e-10
3.89023e-10
4.1931e-10
4.50965e-10
4.83351e-10
5.15877e-10
5.48008e-10
5.79271e-10
6.09259e-10
6.37636e-10
6.64133e-10
6.88547e-10
7.10739e-10
7.30623e-10
7.48167e-10
7.6338e-10
7.76307e-10
7.87024e-10
7.95631e-10
8.02244e-10
8.06993e-10
8.10016e-10
8.11456e-10
7.27e-10
7.56308e-10
7.9753e-10
8.4851e-10
9.07311e-10
9.72127e-10
1.04126e-09
1.11313e-09
1.18626e-09
1.25934e-09
1.33117e-09
1.40073e-09
1.46717e-09
1.52978e-09
1.58802e-09
1.6415e-09
1.68996e-09
1.73326e-09
1.77136e-09
1.80433e-09
1.83227e-09
1.8554e-09
1.87395e-09
1.88817e-09
1.89837e-09
1.90486e-09
1.90795e-09
1.79709e-09
1.86213e-09
1.95335e-09
2.06573e-09
2.19479e-09
2.3364e-09
2.48672e-09
2.64223e-09
2.79976e-09
2.95644e-09
3.1098e-09
3.25772e-09
3.39847e-09
3.53065e-09
3.65323e-09
3.76545e-09
3.86686e-09
3.95725e-09
4.03662e-09
4.10514e-09
4.16314e-09
4.21106e-09
4.24943e-09
4.27882e-09
4.29988e-09
4.31326e-09
4.31962e-09
4.26433e-09
4.40182e-09
4.59415e-09
4.83036e-09
5.10067e-09
5.39613e-09
5.70855e-09
6.03053e-09
6.35542e-09
6.67741e-09
6.99149e-09
7.29347e-09
7.57994e-09
7.84823e-09
8.09639e-09
8.32306e-09
8.52746e-09
8.7093e-09
8.86868e-09
9.00608e-09
9.12221e-09
9.21803e-09
9.29466e-09
9.35332e-09
9.3953e-09
9.42195e-09
9.43461e-09
9.70947e-09
9.98772e-09
1.03762e-08
1.08522e-08
1.13955e-08
1.19876e-08
1.26119e-08
1.32534e-08
1.3899e-08
1.4537e-08
1.51578e-08
1.57532e-08
1.63168e-08
1.68436e-08
1.73299e-08
1.77734e-08
1.81727e-08
1.85273e-08
1.88378e-08
1.91052e-08
1.93309e-08
1.9517e-08
1.96657e-08
1.97794e-08
1.98607e-08
1.99123e-08
1.99368e-08
2.12448e-08
2.17879e-08
2.25452e-08
2.34715e-08
2.45268e-08
2.56747e-08
2.68826e-08
2.81214e-08
2.93655e-08
3.0593e-08
3.17853e-08
3.29271e-08
3.40063e-08
3.50137e-08
3.59424e-08
3.67884e-08
3.75493e-08
3.82246e-08
3.88152e-08
3.93234e-08
3.97521e-08
4.01054e-08
4.03874e-08
4.06031e-08
4.07573e-08
4.08551e-08
4.09015e-08
4.47865e-08
4.58165e-08
4.72516e-08
4.90055e-08
5.10013e-08
5.31699e-08
5.54493e-08
5.77844e-08
6.01271e-08
6.24362e-08
6.4677e-08
6.68212e-08
6.88462e-08
7.07349e-08
7.24754e-08
7.40597e-08
7.54839e-08
7.67473e-08
7.78518e-08
7.88018e-08
7.9603e-08
8.02629e-08
8.07898e-08
8.11924e-08
8.14802e-08
8.16627e-08
8.17493e-08
9.11934e-08
9.31035e-08
9.57641e-08
9.90146e-08
1.02712e-07
1.06728e-07
1.10948e-07
1.1527e-07
1.19606e-07
1.23879e-07
1.28024e-07
1.31991e-07
1.35738e-07
1.39233e-07
1.42454e-07
1.45386e-07
1.48022e-07
1.50361e-07
1.52407e-07
1.54166e-07
1.55651e-07
1.56873e-07
1.5785e-07
1.58596e-07
1.5913e-07
1.59468e-07
1.59629e-07
1.79511e-07
1.8298e-07
1.87814e-07
1.9372e-07
2.00441e-07
2.07743e-07
2.15419e-07
2.23285e-07
2.3118e-07
2.38965e-07
2.46526e-07
2.53766e-07
2.60609e-07
2.66999e-07
2.72893e-07
2.78264e-07
2.83098e-07
2.8739e-07
2.91146e-07
2.94379e-07
2.97107e-07
2.99354e-07
3.01149e-07
3.02521e-07
3.03503e-07
3.04126e-07
3.04421e-07
3.40853e-07
3.46978e-07
3.55512e-07
3.6594e-07
3.77808e-07
3.90706e-07
4.04268e-07
4.18167e-07
4.32118e-07
4.45873e-07
4.59224e-07
4.71995e-07
4.84049e-07
4.95291e-07
5.05653e-07
5.15092e-07
5.23586e-07
5.31131e-07
5.37739e-07
5.43432e-07
5.48245e-07
5.52217e-07
5.55396e-07
5.57831e-07
5.59576e-07
5.60686e-07
5.61214e-07
6.19986e-07
6.30254e-07
6.44541e-07
6.61967e-07
6.81749e-07
7.03206e-07
7.25736e-07
7.48811e-07
7.71969e-07
7.94813e-07
8.1701e-07
8.38289e-07
8.5843e-07
8.77267e-07
8.94677e-07
9.1058e-07
9.24928e-07
9.37706e-07
9.48924e-07
9.58611e-07
9.66818e-07
9.73607e-07
9.79051e-07
9.83229e-07
9.8623e-07
9.8814e-07
9.8905e-07
1.06482e-06
1.0808e-06
1.10305e-06
1.13022e-06
1.16113e-06
1.19472e-06
1.23004e-06
1.26625e-06
1.30264e-06
1.33858e-06
1.37354e-06
1.4071e-06
1.4389e-06
1.46866e-06
1.4962e-06
1.52138e-06
1.54411e-06
1.56437e-06
1.58216e-06
1.59753e-06
1.61056e-06
1.62134e-06
1.62999e-06
1.63663e-06
1.6414e-06
1.64444e-06
1.64589e-06
1.72162e-06
1.74494e-06
1.7774e-06
1.81704e-06
1.86209e-06
1.91101e-06
1.9624e-06
2.01504e-06
2.06787e-06
2.11997e-06
2.17059e-06
2.2191e-06
2.26499e-06
2.30789e-06
2.34751e-06
2.38368e-06
2.41628e-06
2.44529e-06
2.47073e-06
2.49268e-06
2.51126e-06
2.52661e-06
2.53891e-06
2.54835e-06
2.55512e-06
2.55942e-06
2.56147e-06
2.62229e-06
2.65356e-06
2.69703e-06
2.75e-06
2.81007e-06
2.87512e-06
2.94326e-06
3.01285e-06
3.08247e-06
3.15092e-06
3.21719e-06
3.2805e-06
3.34021e-06
3.39584e-06
3.44708e-06
3.4937e-06
3.53563e-06
3.57283e-06
3.60538e-06
3.6334e-06
3.65707e-06
3.67659e-06
3.6922e-06
3.70416e-06
3.71272e-06
3.71816e-06
3.72075e-06
3.76421e-06
3.80248e-06
3.85557e-06
3.9201e-06
3.99308e-06
4.07184e-06
4.15406e-06
4.23772e-06
4.32111e-06
4.40278e-06
4.48158e-06
4.55658e-06
4.62707e-06
4.69253e-06
4.75263e-06
4.80717e-06
4.85607e-06
4.89936e-06
4.93714e-06
4.9696e-06
4.99696e-06
5.01949e-06
5.03747e-06
5.05122e-06
5.06106e-06
5.06731e-06
5.07028e-06
5.10427e-06
5.14731e-06
5.20692e-06
5.2792e-06
5.36072e-06
5.44843e-06
5.5397e-06
5.63226e-06
5.72421e-06
5.81399e-06
5.90032e-06
5.98224e-06
6.05902e-06
6.13013e-06
6.19525e-06
6.2542e-06
6.30694e-06
6.35354e-06
6.39414e-06
6.42896e-06
6.45827e-06
6.48237e-06
6.5016e-06
6.51628e-06
6.52678e-06
6.53343e-06
6.53659e-06
6.57043e-06
6.61554e-06
6.67791e-06
6.7534e-06
6.83835e-06
6.92955e-06
7.0242e-06
7.11995e-06
7.21483e-06
7.30723e-06
7.39588e-06
7.4798e-06
7.55829e-06
7.63085e-06
7.69717e-06
7.75711e-06
7.81065e-06
7.8579e-06
7.89902e-06
7.93425e-06
7.96387e-06
7.98821e-06
8.00761e-06
8.02242e-06
8.033e-06
8.03971e-06
8.0429e-06
8.08122e-06
8.12591e-06
8.18762e-06
8.26222e-06
8.34602e-06
8.43583e-06
8.52888e-06
8.62284e-06
8.71577e-06
8.80611e-06
8.89265e-06
8.97445e-06
9.05084e-06
9.12135e-06
9.18574e-06
9.24386e-06
9.29573e-06
9.34146e-06
9.38123e-06
9.41528e-06
9.4439e-06
9.4674e-06
9.48613e-06
9.50042e-06
9.51063e-06
9.5171e-06
9.52017e-06
9.56239e-06
9.60473e-06
9.66318e-06
9.73374e-06
9.81294e-06
9.8977e-06
9.98541e-06
1.00739e-05
1.01612e-05
1.02461e-05
1.03273e-05
1.04039e-05
1.04754e-05
1.05414e-05
1.06015e-05
1.06558e-05
1.07042e-05
1.07469e-05
1.0784e-05
1.08157e-05
1.08423e-05
1.08642e-05
1.08817e-05
1.0895e-05
1.09045e-05
1.09105e-05
1.09134e-05
1.09559e-05
1.09946e-05
1.10481e-05
1.11126e-05
1.11849e-05
1.12622e-05
1.13421e-05
1.14227e-05
1.15022e-05
1.15793e-05
1.1653e-05
1.17226e-05
1.17874e-05
1.18472e-05
1.19017e-05
1.19508e-05
1.19946e-05
1.20332e-05
1.20667e-05
1.20954e-05
1.21195e-05
1.21392e-05
1.2155e-05
1.2167e-05
1.21756e-05
1.2181e-05
1.21836e-05
1.22223e-05
1.22568e-05
1.23042e-05
1.23615e-05
1.24257e-05
1.24942e-05
1.25651e-05
1.26364e-05
1.27067e-05
1.27749e-05
1.284e-05
1.29015e-05
1.29587e-05
1.30114e-05
1.30594e-05
1.31027e-05
1.31413e-05
1.31753e-05
1.32048e-05
1.323e-05
1.32512e-05
1.32686e-05
1.32824e-05
1.3293e-05
1.33005e-05
1.33053e-05
1.33076e-05
1.33392e-05
1.33691e-05
1.34102e-05
1.34598e-05
1.35153e-05
1.35746e-05
1.36358e-05
1.36974e-05
1.37581e-05
1.38169e-05
1.38731e-05
1.3926e-05
1.39752e-05
1.40206e-05
1.40619e-05
1.40991e-05
1.41323e-05
1.41614e-05
1.41868e-05
1.42084e-05
1.42266e-05
1.42415e-05
1.42534e-05
1.42625e-05
1.42689e-05
1.4273e-05
1.4275e-05
1.42976e-05
1.43229e-05
1.43577e-05
1.43996e-05
1.44465e-05
1.44966e-05
1.45483e-05
1.46002e-05
1.46514e-05
1.47009e-05
1.47482e-05
1.47927e-05
1.48341e-05
1.48722e-05
1.49069e-05
1.49382e-05
1.4966e-05
1.49904e-05
1.50117e-05
1.50298e-05
1.50451e-05
1.50576e-05
1.50675e-05
1.50751e-05
1.50805e-05
1.5084e-05
1.50856e-05
1.50985e-05
1.51194e-05
1.51482e-05
1.51828e-05
1.52215e-05
1.52628e-05
1.53054e-05
1.53481e-05
1.53902e-05
1.5431e-05
1.54698e-05
1.55063e-05
1.55403e-05
1.55715e-05
1.56e-05
1.56255e-05
1.56483e-05
1.56683e-05
1.56857e-05
1.57005e-05
1.5713e-05
1.57232e-05
1.57313e-05
1.57375e-05
1.57419e-05
1.57447e-05
1.5746e-05
1.57495e-05
1.57663e-05
1.57895e-05
1.58173e-05
1.58484e-05
1.58816e-05
1.59158e-05
1.59501e-05
1.59838e-05
1.60164e-05
1.60475e-05
1.60766e-05
1.61038e-05
1.61287e-05
1.61513e-05
1.61717e-05
1.61898e-05
1.62057e-05
1.62195e-05
1.62313e-05
1.62412e-05
1.62493e-05
1.62558e-05
1.62607e-05
1.62642e-05
1.62664e-05
1.62675e-05
1.62623e-05
1.62754e-05
1.62935e-05
1.63152e-05
1.63395e-05
1.63653e-05
1.63919e-05
1.64185e-05
1.64447e-05
1.64699e-05
1.6494e-05
1.65165e-05
1.65375e-05
1.65567e-05
1.65742e-05
1.65898e-05
1.66038e-05
1.6616e-05
1.66266e-05
1.66357e-05
1.66432e-05
1.66495e-05
1.66544e-05
1.66582e-05
1.66608e-05
1.66625e-05
1.66634e-05
1.66506e-05
1.66604e-05
1.6674e-05
1.66903e-05
1.67085e-05
1.67278e-05
1.67476e-05
1.67675e-05
1.6787e-05
1.68057e-05
1.68235e-05
1.68402e-05
1.68557e-05
1.68699e-05
1.68828e-05
1.68943e-05
1.69046e-05
1.69135e-05
1.69213e-05
1.69279e-05
1.69335e-05
1.6938e-05
1.69416e-05
1.69444e-05
1.69464e-05
1.69476e-05
1.69482e-05
1.6929e-05
1.6936e-05
1.69456e-05
1.69572e-05
1.697e-05
1.69836e-05
1.69976e-05
1.70115e-05
1.70251e-05
1.70382e-05
1.70506e-05
1.70622e-05
1.7073e-05
1.70828e-05
1.70916e-05
1.70996e-05
1.71066e-05
1.71128e-05
1.71181e-05
1.71226e-05
1.71264e-05
1.71295e-05
1.71319e-05
1.71338e-05
1.71351e-05
1.7136e-05
1.71364e-05
1.71119e-05
1.71164e-05
1.71226e-05
1.71301e-05
1.71383e-05
1.71471e-05
1.7156e-05
1.71648e-05
1.71734e-05
1.71816e-05
1.71894e-05
1.71966e-05
1.72032e-05
1.72092e-05
1.72147e-05
1.72195e-05
1.72238e-05
1.72275e-05
1.72307e-05
1.72334e-05
1.72357e-05
1.72375e-05
1.7239e-05
1.72401e-05
1.72409e-05
1.72414e-05
1.72416e-05
1.72129e-05
1.72153e-05
1.72187e-05
1.72226e-05
1.7227e-05
1.72315e-05
1.72361e-05
1.72406e-05
1.72449e-05
1.7249e-05
1.72528e-05
1.72562e-05
1.72594e-05
1.72622e-05
1.72647e-05
1.7267e-05
1.72689e-05
1.72706e-05
1.7272e-05
1.72732e-05
1.72742e-05
1.72749e-05
1.72756e-05
1.7276e-05
1.72764e-05
1.72766e-05
1.72767e-05
1.72446e-05
1.72453e-05
1.72462e-05
1.72472e-05
1.72482e-05
1.72492e-05
1.72502e-05
1.7251e-05
1.72518e-05
1.72523e-05
1.72528e-05
1.72532e-05
1.72534e-05
1.72535e-05
1.72536e-05
1.72536e-05
1.72536e-05
1.72535e-05
1.72535e-05
1.72534e-05
1.72533e-05
1.72532e-05
1.72531e-05
1.7253e-05
1.7253e-05
1.7253e-05
1.7253e-05
1.72183e-05
1.72175e-05
1.72163e-05
1.72149e-05
1.72132e-05
1.72113e-05
1.72092e-05
1.7207e-05
1.72048e-05
1.72025e-05
1.72002e-05
1.71979e-05
1.71957e-05
1.71936e-05
1.71917e-05
1.71899e-05
1.71882e-05
1.71867e-05
1.71854e-05
1.71842e-05
1.71833e-05
1.71824e-05
1.71818e-05
1.71813e-05
1.71809e-05
1.71807e-05
1.71806e-05
1.7144e-05
1.7142e-05
1.71391e-05
1.71357e-05
1.71317e-05
1.71274e-05
1.71229e-05
1.71182e-05
1.71134e-05
1.71088e-05
1.71042e-05
1.70998e-05
1.70956e-05
1.70917e-05
1.70881e-05
1.70848e-05
1.70818e-05
1.70791e-05
1.70768e-05
1.70748e-05
1.70731e-05
1.70716e-05
1.70705e-05
1.70696e-05
1.7069e-05
1.70686e-05
1.70684e-05
1.70305e-05
1.70274e-05
1.70233e-05
1.70182e-05
1.70124e-05
1.70061e-05
1.69995e-05
1.69928e-05
1.69861e-05
1.69794e-05
1.6973e-05
1.69669e-05
1.69611e-05
1.69557e-05
1.69508e-05
1.69463e-05
1.69422e-05
1.69386e-05
1.69354e-05
1.69327e-05
1.69304e-05
1.69285e-05
1.6927e-05
1.69258e-05
1.6925e-05
1.69244e-05
1.69242e-05
1.68853e-05
1.68815e-05
1.68762e-05
1.68698e-05
1.68625e-05
1.68546e-05
1.68464e-05
1.68381e-05
1.68298e-05
1.68216e-05
1.68137e-05
1.68062e-05
1.67991e-05
1.67926e-05
1.67865e-05
1.6781e-05
1.67761e-05
1.67717e-05
1.67679e-05
1.67646e-05
1.67619e-05
1.67596e-05
1.67578e-05
1.67564e-05
1.67554e-05
1.67547e-05
1.67544e-05
1.67149e-05
1.67105e-05
1.67043e-05
1.66969e-05
1.66884e-05
1.66793e-05
1.66699e-05
1.66602e-05
1.66507e-05
1.66413e-05
1.66322e-05
1.66236e-05
1.66155e-05
1.6608e-05
1.66012e-05
1.65949e-05
1.65893e-05
1.65843e-05
1.658e-05
1.65763e-05
1.65732e-05
1.65706e-05
1.65685e-05
1.65669e-05
1.65658e-05
1.65651e-05
1.65647e-05
1.65249e-05
1.652e-05
1.65132e-05
1.65049e-05
1.64956e-05
1.64855e-05
1.64751e-05
1.64644e-05
1.64539e-05
1.64435e-05
1.64336e-05
1.64242e-05
1.64153e-05
1.64071e-05
1.63996e-05
1.63927e-05
1.63866e-05
1.63812e-05
1.63765e-05
1.63724e-05
1.6369e-05
1.63662e-05
1.63639e-05
1.63622e-05
1.6361e-05
1.63602e-05
1.63598e-05
1.632e-05
1.63147e-05
1.63073e-05
1.62984e-05
1.62884e-05
1.62776e-05
1.62664e-05
1.62551e-05
1.62438e-05
1.62327e-05
1.62221e-05
1.62121e-05
1.62026e-05
1.61939e-05
1.61858e-05
1.61786e-05
1.61721e-05
1.61663e-05
1.61613e-05
1.6157e-05
1.61534e-05
1.61504e-05
1.6148e-05
1.61462e-05
1.61449e-05
1.6144e-05
1.61436e-05
1.61039e-05
1.60984e-05
1.60906e-05
1.60813e-05
1.60708e-05
1.60595e-05
1.60477e-05
1.60358e-05
1.6024e-05
1.60125e-05
1.60014e-05
1.59908e-05
1.5981e-05
1.59718e-05
1.59635e-05
1.59559e-05
1.59491e-05
1.59431e-05
1.59379e-05
1.59334e-05
1.59296e-05
1.59265e-05
1.5924e-05
1.59221e-05
1.59208e-05
1.59199e-05
1.59195e-05
1.58801e-05
1.58743e-05
1.58664e-05
1.58567e-05
1.58459e-05
1.58342e-05
1.58221e-05
1.58098e-05
1.57976e-05
1.57857e-05
1.57743e-05
1.57634e-05
1.57533e-05
1.57439e-05
1.57353e-05
1.57275e-05
1.57205e-05
1.57144e-05
1.5709e-05
1.57044e-05
1.57005e-05
1.56974e-05
1.56948e-05
1.56929e-05
1.56915e-05
1.56906e-05
1.56902e-05
1.56512e-05
1.56453e-05
1.56372e-05
1.56273e-05
1.56162e-05
1.56043e-05
1.5592e-05
1.55795e-05
1.55671e-05
1.5555e-05
1.55433e-05
1.55323e-05
1.5522e-05
1.55125e-05
1.55037e-05
1.54958e-05
1.54887e-05
1.54825e-05
1.5477e-05
1.54724e-05
1.54684e-05
1.54652e-05
1.54626e-05
1.54607e-05
1.54592e-05
1.54584e-05
1.54579e-05
1.54194e-05
1.54135e-05
1.54053e-05
1.53954e-05
1.53842e-05
1.53722e-05
1.53597e-05
1.53471e-05
1.53345e-05
1.53224e-05
1.53106e-05
1.52995e-05
1.52891e-05
1.52795e-05
1.52707e-05
1.52628e-05
1.52557e-05
1.52494e-05
1.52439e-05
1.52392e-05
1.52352e-05
1.5232e-05
1.52294e-05
1.52274e-05
1.5226e-05
1.52251e-05
1.52247e-05
1.51868e-05
1.51808e-05
1.51726e-05
1.51627e-05
1.51514e-05
1.51394e-05
1.51269e-05
1.51143e-05
1.51018e-05
1.50896e-05
1.50779e-05
1.50668e-05
1.50564e-05
1.50468e-05
1.5038e-05
1.503e-05
1.50229e-05
1.50166e-05
1.50111e-05
1.50065e-05
1.50025e-05
1.49993e-05
1.49967e-05
1.49947e-05
1.49933e-05
1.49924e-05
1.4992e-05
1.49548e-05
1.49489e-05
1.49407e-05
1.49308e-05
1.49196e-05
1.49076e-05
1.48952e-05
1.48827e-05
1.48702e-05
1.48581e-05
1.48464e-05
1.48354e-05
1.48251e-05
1.48155e-05
1.48068e-05
1.47989e-05
1.47918e-05
1.47856e-05
1.47802e-05
1.47755e-05
1.47716e-05
1.47684e-05
1.47658e-05
1.47639e-05
1.47625e-05
1.47616e-05
1.47611e-05
1.47247e-05
1.47189e-05
1.47108e-05
1.4701e-05
1.46899e-05
1.46781e-05
1.46658e-05
1.46534e-05
1.46411e-05
1.46291e-05
1.46176e-05
1.46067e-05
1.45965e-05
1.4587e-05
1.45784e-05
1.45706e-05
1.45636e-05
1.45575e-05
1.45521e-05
1.45475e-05
1.45437e-05
1.45405e-05
1.4538e-05
1.4536e-05
1.45346e-05
1.45338e-05
1.45334e-05
1.44978e-05
1.4492e-05
1.4484e-05
1.44743e-05
1.44635e-05
1.44518e-05
1.44397e-05
1.44275e-05
1.44154e-05
1.44036e-05
1.43923e-05
1.43816e-05
1.43716e-05
1.43623e-05
1.43538e-05
1.43461e-05
1.43393e-05
1.43333e-05
1.4328e-05
1.43235e-05
1.43197e-05
1.43166e-05
1.43141e-05
1.43122e-05
1.43108e-05
1.431e-05
1.43095e-05
1.42749e-05
1.42692e-05
1.42614e-05
1.42519e-05
1.42413e-05
1.42299e-05
1.4218e-05
1.4206e-05
1.41942e-05
1.41826e-05
1.41715e-05
1.41611e-05
1.41512e-05
1.41422e-05
1.41339e-05
1.41264e-05
1.41197e-05
1.41138e-05
1.41086e-05
1.41042e-05
1.41005e-05
1.40975e-05
1.4095e-05
1.40932e-05
1.40919e-05
1.4091e-05
1.40906e-05
1.40569e-05
1.40514e-05
1.40438e-05
1.40345e-05
1.40241e-05
1.4013e-05
1.40015e-05
1.39898e-05
1.39782e-05
1.3967e-05
1.39562e-05
1.39459e-05
1.39364e-05
1.39276e-05
1.39195e-05
1.39122e-05
1.39057e-05
1.38999e-05
1.38949e-05
1.38906e-05
1.3887e-05
1.38841e-05
1.38817e-05
1.38799e-05
1.38786e-05
1.38778e-05
1.38774e-05
1.38447e-05
1.38394e-05
1.3832e-05
1.3823e-05
1.38129e-05
1.38021e-05
1.37909e-05
1.37796e-05
1.37683e-05
1.37574e-05
1.3747e-05
1.37371e-05
1.37278e-05
1.37192e-05
1.37114e-05
1.37044e-05
1.3698e-05
1.36925e-05
1.36876e-05
1.36835e-05
1.368e-05
1.36771e-05
1.36748e-05
1.36731e-05
1.36718e-05
1.3671e-05
1.36706e-05
1.36392e-05
1.3634e-05
1.36268e-05
1.36182e-05
1.36084e-05
1.3598e-05
1.35872e-05
1.35762e-05
1.35654e-05
1.35549e-05
1.35448e-05
1.35352e-05
1.35263e-05
1.3518e-05
1.35105e-05
1.35037e-05
1.34976e-05
1.34922e-05
1.34876e-05
1.34836e-05
1.34802e-05
1.34774e-05
1.34752e-05
1.34736e-05
1.34724e-05
1.34716e-05
1.34712e-05
1.3441e-05
1.34361e-05
1.34292e-05
1.34209e-05
1.34115e-05
1.34015e-05
1.33911e-05
1.33806e-05
1.33702e-05
1.33601e-05
1.33505e-05
1.33413e-05
1.33327e-05
1.33248e-05
1.33176e-05
1.33111e-05
1.33053e-05
1.33002e-05
1.32957e-05
1.32919e-05
1.32886e-05
1.3286e-05
1.32839e-05
1.32823e-05
1.32811e-05
1.32804e-05
1.32801e-05
1.32513e-05
1.32465e-05
1.324e-05
1.3232e-05
1.32231e-05
1.32136e-05
1.32037e-05
1.31937e-05
1.31838e-05
1.31742e-05
1.3165e-05
1.31563e-05
1.31482e-05
1.31406e-05
1.31338e-05
1.31276e-05
1.31221e-05
1.31172e-05
1.3113e-05
1.31093e-05
1.31063e-05
1.31038e-05
1.31018e-05
1.31003e-05
1.30992e-05
1.30985e-05
1.30982e-05
1.30709e-05
1.30664e-05
1.30602e-05
1.30527e-05
1.30443e-05
1.30353e-05
1.3026e-05
1.30165e-05
1.30072e-05
1.29982e-05
1.29895e-05
1.29813e-05
1.29736e-05
1.29666e-05
1.29601e-05
1.29543e-05
1.29491e-05
1.29445e-05
1.29406e-05
1.29371e-05
1.29343e-05
1.29319e-05
1.29301e-05
1.29286e-05
1.29276e-05
1.2927e-05
1.29267e-05
1.29012e-05
1.2897e-05
1.28912e-05
1.28842e-05
1.28763e-05
1.28679e-05
1.28592e-05
1.28504e-05
1.28417e-05
1.28333e-05
1.28252e-05
1.28176e-05
1.28105e-05
1.28039e-05
1.27979e-05
1.27925e-05
1.27877e-05
1.27835e-05
1.27798e-05
1.27766e-05
1.2774e-05
1.27718e-05
1.27701e-05
1.27688e-05
1.27678e-05
1.27672e-05
1.27669e-05
1.27434e-05
1.27396e-05
1.27342e-05
1.27278e-05
1.27206e-05
1.27128e-05
1.27048e-05
1.26968e-05
1.26888e-05
1.26811e-05
1.26737e-05
1.26667e-05
1.26602e-05
1.26543e-05
1.26488e-05
1.26439e-05
1.26395e-05
1.26356e-05
1.26323e-05
1.26294e-05
1.2627e-05
1.2625e-05
1.26235e-05
1.26223e-05
1.26214e-05
1.26209e-05
1.26206e-05
1.25993e-05
1.25958e-05
1.2591e-05
1.25852e-05
1.25787e-05
1.25718e-05
1.25646e-05
1.25573e-05
1.25502e-05
1.25433e-05
1.25367e-05
1.25305e-05
1.25247e-05
1.25193e-05
1.25145e-05
1.25101e-05
1.25062e-05
1.25028e-05
1.24998e-05
1.24973e-05
1.24952e-05
1.24934e-05
1.2492e-05
1.2491e-05
1.24902e-05
1.24897e-05
1.24895e-05
1.24707e-05
1.24676e-05
1.24634e-05
1.24584e-05
1.24527e-05
1.24466e-05
1.24404e-05
1.24341e-05
1.24279e-05
1.24219e-05
1.24162e-05
1.24109e-05
1.24059e-05
1.24013e-05
1.23971e-05
1.23934e-05
1.239e-05
1.23871e-05
1.23846e-05
1.23824e-05
1.23806e-05
1.23791e-05
1.2378e-05
1.23771e-05
1.23764e-05
1.2376e-05
1.23758e-05
1.23598e-05
1.23572e-05
1.23537e-05
1.23495e-05
1.23448e-05
1.23397e-05
1.23345e-05
1.23293e-05
1.23242e-05
1.23193e-05
1.23146e-05
1.23102e-05
1.23062e-05
1.23024e-05
1.22991e-05
1.2296e-05
1.22933e-05
1.2291e-05
1.2289e-05
1.22872e-05
1.22858e-05
1.22846e-05
1.22837e-05
1.2283e-05
1.22825e-05
1.22821e-05
1.2282e-05
1.2269e-05
1.2267e-05
1.22643e-05
1.2261e-05
1.22574e-05
1.22535e-05
1.22495e-05
1.22456e-05
1.22417e-05
1.2238e-05
1.22345e-05
1.22312e-05
1.22282e-05
1.22254e-05
1.2223e-05
1.22208e-05
1.22188e-05
1.22171e-05
1.22156e-05
1.22144e-05
1.22134e-05
1.22125e-05
1.22119e-05
1.22114e-05
1.2211e-05
1.22108e-05
1.22107e-05
1.22011e-05
1.21997e-05
1.21979e-05
1.21957e-05
1.21933e-05
1.21907e-05
1.21881e-05
1.21856e-05
1.21831e-05
1.21808e-05
1.21786e-05
1.21765e-05
1.21747e-05
1.21731e-05
1.21716e-05
1.21703e-05
1.21692e-05
1.21682e-05
1.21674e-05
1.21667e-05
1.21662e-05
1.21657e-05
1.21654e-05
1.21651e-05
1.21649e-05
1.21648e-05
1.21648e-05
1.21587e-05
1.21581e-05
1.21572e-05
1.21562e-05
1.21552e-05
1.21541e-05
1.2153e-05
1.2152e-05
1.21511e-05
1.21503e-05
1.21496e-05
1.2149e-05
1.21485e-05
1.21481e-05
1.21477e-05
1.21475e-05
1.21473e-05
1.21471e-05
1.2147e-05
1.2147e-05
1.21469e-05
1.21469e-05
1.21469e-05
1.21469e-05
1.21469e-05
1.21469e-05
1.21469e-05
1.21445e-05
1.21446e-05
1.21449e-05
1.21452e-05
1.21457e-05
1.21462e-05
1.21468e-05
1.21476e-05
1.21484e-05
1.21492e-05
1.21501e-05
1.2151e-05
1.2152e-05
1.21529e-05
1.21538e-05
1.21547e-05
1.21555e-05
1.21562e-05
1.21569e-05
1.21575e-05
1.21581e-05
1.21585e-05
1.21589e-05
1.21592e-05
1.21594e-05
1.21595e-05
1.21596e-05
1.21606e-05
1.21616e-05
1.2163e-05
1.21647e-05
1.21668e-05
1.21691e-05
1.21715e-05
1.2174e-05
1.21767e-05
1.21793e-05
1.21819e-05
1.21845e-05
1.21869e-05
1.21893e-05
1.21915e-05
1.21935e-05
1.21954e-05
1.21971e-05
1.21986e-05
1.21999e-05
1.22011e-05
1.2202e-05
1.22028e-05
1.22034e-05
1.22038e-05
1.22041e-05
1.22042e-05
1.22082e-05
1.22101e-05
1.22127e-05
1.22159e-05
1.22196e-05
1.22236e-05
1.22279e-05
1.22323e-05
1.22368e-05
1.22413e-05
1.22456e-05
1.22498e-05
1.22538e-05
1.22576e-05
1.22612e-05
1.22644e-05
1.22674e-05
1.227e-05
1.22724e-05
1.22744e-05
1.22761e-05
1.22776e-05
1.22787e-05
1.22796e-05
1.22803e-05
1.22807e-05
1.22809e-05
1.22871e-05
1.22898e-05
1.22936e-05
1.22982e-05
1.23035e-05
1.23093e-05
1.23154e-05
1.23216e-05
1.23278e-05
1.2334e-05
1.23401e-05
1.23459e-05
1.23514e-05
1.23566e-05
1.23614e-05
1.23658e-05
1.23697e-05
1.23733e-05
1.23764e-05
1.23791e-05
1.23814e-05
1.23833e-05
1.23849e-05
1.23861e-05
1.23869e-05
1.23875e-05
1.23877e-05
1.23949e-05
1.23984e-05
1.24033e-05
1.24092e-05
1.2416e-05
1.24233e-05
1.2431e-05
1.24388e-05
1.24467e-05
1.24544e-05
1.24619e-05
1.24691e-05
1.2476e-05
1.24824e-05
1.24883e-05
1.24936e-05
1.24985e-05
1.25028e-05
1.25067e-05
1.251e-05
1.25128e-05
1.25151e-05
1.25169e-05
1.25184e-05
1.25194e-05
1.25201e-05
1.25204e-05
1.25272e-05
1.25314e-05
1.25371e-05
1.25441e-05
1.2552e-05
1.25605e-05
1.25695e-05
1.25786e-05
1.25877e-05
1.25967e-05
1.26054e-05
1.26137e-05
1.26215e-05
1.26288e-05
1.26356e-05
1.26417e-05
1.26473e-05
1.26522e-05
1.26565e-05
1.26603e-05
1.26634e-05
1.26661e-05
1.26682e-05
1.26698e-05
1.26709e-05
1.26717e-05
1.2672e-05
1.2677e-05
1.26816e-05
1.26879e-05
1.26956e-05
1.27042e-05
1.27136e-05
1.27234e-05
1.27333e-05
1.27432e-05
1.2753e-05
1.27624e-05
1.27713e-05
1.27798e-05
1.27876e-05
1.27949e-05
1.28015e-05
1.28074e-05
1.28127e-05
1.28173e-05
1.28213e-05
1.28246e-05
1.28274e-05
1.28296e-05
1.28313e-05
1.28326e-05
1.28334e-05
1.28337e-05
1.28352e-05
1.28399e-05
1.28464e-05
1.28543e-05
1.28633e-05
1.28729e-05
1.28829e-05
1.28931e-05
1.29032e-05
1.29131e-05
1.29227e-05
1.29318e-05
1.29403e-05
1.29483e-05
1.29556e-05
1.29622e-05
1.29682e-05
1.29734e-05
1.29781e-05
1.2982e-05
1.29854e-05
1.29882e-05
1.29904e-05
1.29921e-05
1.29933e-05
1.29941e-05
1.29945e-05
1.29906e-05
1.29951e-05
1.30014e-05
1.3009e-05
1.30175e-05
1.30267e-05
1.30362e-05
1.30459e-05
1.30555e-05
1.30649e-05
1.30739e-05
1.30824e-05
1.30904e-05
1.30978e-05
1.31046e-05
1.31108e-05
1.31163e-05
1.31212e-05