/*--------------------------------*- C++ -*----------------------------------*\
| =========                 |                                                 |
| \\      /  F ield         | OpenFOAM: The Open Source CFD Toolbox           |
|  \\    /   O peration     | Version:  2106                                  |
|   \\  /    A nd           | Website:  www.openfoam.com                      |
|    \\/     M anipulation  |                                                 |
\*---------------------------------------------------------------------------*/
FoamFile
{
    version     2.0;
    format      ascii;
    arch        "LSB;label=32;scalar=64";
    class       volScalarField;
    location    "110.00000";
    object      C5H6;
}
// * * * * * * * * * * * * * * * * * * * * * * * * * * * * * * * * * * * * * //

dimensions      [0 0 0 0 0 0 0];

internalField   nonuniform List<scalar> 
3360
(
1.83079e-17
1.88971e-17
1.97171e-17
2.07201e-17
2.18643e-17
2.31122e-17
2.44299e-17
2.57868e-17
2.71555e-17
2.85122e-17
2.98359e-17
3.11088e-17
3.23165e-17
3.34472e-17
3.44922e-17
3.54451e-17
3.63022e-17
3.70619e-17
3.77245e-17
3.82919e-17
3.87676e-17
3.91561e-17
3.9463e-17
3.96945e-17
3.98574e-17
3.99587e-17
4.00057e-17
8.03152e-17
8.32677e-17
8.74341e-17
9.26227e-17
9.86745e-17
1.05451e-16
1.12828e-16
1.20693e-16
1.2894e-16
1.37468e-16
1.46184e-16
1.54993e-16
1.63804e-16
1.72526e-16
1.8107e-16
1.89349e-16
1.97276e-16
2.04769e-16
2.11747e-16
2.18137e-16
2.23868e-16
2.28881e-16
2.33124e-16
2.36556e-16
2.39146e-16
2.40875e-16
2.41738e-16
2.52014e-16
2.63076e-16
2.78795e-16
2.98548e-16
3.21816e-16
3.48135e-16
3.77062e-16
4.08162e-16
4.40994e-16
4.75107e-16
5.10041e-16
5.45341e-16
5.80551e-16
6.15227e-16
6.48936e-16
6.81267e-16
7.11841e-16
7.40316e-16
7.66399e-16
7.89843e-16
8.10458e-16
8.28112e-16
8.42726e-16
8.54278e-16
8.62794e-16
8.68348e-16
8.71051e-16
7.33981e-16
7.70444e-16
8.22604e-16
8.88598e-16
9.66864e-16
1.05594e-15
1.15437e-15
1.26064e-15
1.37316e-15
1.49026e-15
1.61021e-15
1.73126e-15
1.85167e-15
1.96975e-15
2.08387e-15
2.19256e-15
2.29451e-15
2.38861e-15
2.47396e-15
2.54989e-15
2.61595e-15
2.67192e-15
2.71775e-15
2.7536e-15
2.77976e-15
2.79666e-15
2.80481e-15
2.14455e-15
2.25959e-15
2.42446e-15
2.63354e-15
2.88205e-15
3.1654e-15
3.47886e-15
3.81743e-15
4.17578e-15
4.54828e-15
4.92913e-15
5.31244e-15
5.69248e-15
6.06376e-15
6.42117e-15
6.76018e-15
7.07684e-15
7.36791e-15
7.63088e-15
7.86394e-15
8.06601e-15
8.23663e-15
8.37594e-15
8.4846e-15
8.56369e-15
8.61464e-15
8.63916e-15
6.32364e-15
6.67694e-15
7.18393e-15
7.82743e-15
8.5927e-15
9.46549e-15
1.0431e-14
1.14737e-14
1.25765e-14
1.3722e-14
1.48919e-14
1.60679e-14
1.72321e-14
1.83676e-14
1.94588e-14
2.04919e-14
2.14552e-14
2.2339e-14
2.3136e-14
2.38412e-14
2.44515e-14
2.49661e-14
2.53856e-14
2.57123e-14
2.59498e-14
2.61027e-14
2.61761e-14
1.87857e-14
1.98593e-14
2.13999e-14
2.33554e-14
2.56808e-14
2.83322e-14
3.12643e-14
3.44286e-14
3.77733e-14
4.12444e-14
4.47861e-14
4.83429e-14
5.18606e-14
5.52882e-14
5.85792e-14
6.16921e-14
6.45923e-14
6.72512e-14
6.96475e-14
7.17664e-14
7.35995e-14
7.51442e-14
7.64031e-14
7.73834e-14
7.80958e-14
7.85542e-14
7.87745e-14
5.59915e-14
5.92222e-14
6.38605e-14
6.975e-14
7.67553e-14
8.47443e-14
9.35792e-14
1.03113e-13
1.13189e-13
1.23643e-13
1.34307e-13
1.45012e-13
1.55596e-13
1.65904e-13
1.75797e-13
1.85151e-13
1.93861e-13
2.01844e-13
2.09034e-13
2.1539e-13
2.20886e-13
2.25515e-13
2.29286e-13
2.32221e-13
2.34354e-13
2.35725e-13
2.36384e-13
1.67325e-13
1.77035e-13
1.90973e-13
2.08668e-13
2.29713e-13
2.53708e-13
2.80238e-13
3.08859e-13
3.39097e-13
3.7046e-13
4.02439e-13
4.34532e-13
4.66249e-13
4.97131e-13
5.2676e-13
5.54767e-13
5.80841e-13
6.04731e-13
6.26248e-13
6.45263e-13
6.61705e-13
6.75553e-13
6.86835e-13
6.95615e-13
7.01994e-13
7.06097e-13
7.08068e-13
5.00044e-13
5.29126e-13
5.70879e-13
6.23891e-13
6.8694e-13
7.58827e-13
8.38302e-13
9.24033e-13
1.0146e-12
1.10852e-12
1.20427e-12
1.30034e-12
1.39528e-12
1.48769e-12
1.57633e-12
1.6601e-12
1.73806e-12
1.80948e-12
1.87379e-12
1.93061e-12
1.97973e-12
2.02109e-12
2.05477e-12
2.08099e-12
2.10002e-12
2.11227e-12
2.11815e-12
1.49502e-12
1.58208e-12
1.70704e-12
1.86567e-12
2.05428e-12
2.26929e-12
2.50692e-12
2.76317e-12
3.0338e-12
3.31435e-12
3.60028e-12
3.88707e-12
4.17035e-12
4.44604e-12
4.71039e-12
4.96015e-12
5.19255e-12
5.40539e-12
5.597e-12
5.76626e-12
5.91256e-12
6.03573e-12
6.13604e-12
6.21409e-12
6.27077e-12
6.30722e-12
6.32473e-12
4.46524e-12
4.72514e-12
5.09817e-12
5.57161e-12
6.13445e-12
6.77586e-12
7.48456e-12
8.24857e-12
9.05514e-12
9.89097e-12
1.07425e-11
1.15963e-11
1.24393e-11
1.32594e-11
1.40454e-11
1.47878e-11
1.54783e-11
1.61104e-11
1.66793e-11
1.71816e-11
1.76157e-11
1.7981e-11
1.82784e-11
1.85098e-11
1.86777e-11
1.87857e-11
1.88376e-11
1.33207e-11
1.40951e-11
1.52062e-11
1.66158e-11
1.82907e-11
2.01984e-11
2.23048e-11
2.45742e-11
2.69684e-11
2.94478e-11
3.1972e-11
3.45011e-11
3.69966e-11
3.94226e-11
4.17466e-11
4.39401e-11
4.59793e-11
4.78451e-11
4.95234e-11
5.10048e-11
5.22842e-11
5.33607e-11
5.42368e-11
5.49181e-11
5.54127e-11
5.57305e-11
5.58832e-11
3.96166e-11
4.19133e-11
4.52072e-11
4.93839e-11
5.43435e-11
5.99882e-11
6.62165e-11
7.29208e-11
7.99874e-11
8.72987e-11
9.47352e-11
1.02179e-10
1.09517e-10
1.16644e-10
1.23465e-10
1.29897e-10
1.35871e-10
1.41333e-10
1.46243e-10
1.50573e-10
1.5431e-10
1.57452e-10
1.60008e-10
1.61994e-10
1.63436e-10
1.64362e-10
1.64806e-10
1.17376e-10
1.24148e-10
1.33853e-10
1.46149e-10
1.60735e-10
1.77316e-10
1.95589e-10
2.15231e-10
2.35906e-10
2.57267e-10
2.78961e-10
3.00645e-10
3.21991e-10
3.42693e-10
3.6248e-10
3.81115e-10
3.98403e-10
4.1419e-10
4.28364e-10
4.40853e-10
4.51622e-10
4.6067e-10
4.68024e-10
4.73736e-10
4.77877e-10
4.80536e-10
4.81812e-10
3.4566e-10
3.6543e-10
3.93739e-10
4.29563e-10
4.72e-10
5.20168e-10
5.73158e-10
6.30017e-10
6.89753e-10
7.5135e-10
8.13788e-10
8.76076e-10
9.37273e-10
9.96515e-10
1.05303e-09
1.10617e-09
1.15538e-09
1.20025e-09
1.24047e-09
1.27587e-09
1.30634e-09
1.33192e-09
1.35268e-09
1.36879e-09
1.38046e-09
1.38795e-09
1.39154e-09
1.00985e-09
1.06681e-09
1.14826e-09
1.25116e-09
1.37282e-09
1.5106e-09
1.66181e-09
1.82366e-09
1.99324e-09
2.16765e-09
2.34396e-09
2.51939e-09
2.6913e-09
2.8573e-09
3.01528e-09
3.16346e-09
3.30041e-09
3.425e-09
3.53649e-09
3.6344e-09
3.71859e-09
3.78912e-09
3.84631e-09
3.89062e-09
3.92269e-09
3.94324e-09
3.95309e-09
2.91854e-09
3.0796e-09
3.30953e-09
3.59936e-09
3.94112e-09
4.32703e-09
4.74922e-09
5.19959e-09
5.6699e-09
6.15189e-09
6.6375e-09
7.11902e-09
7.58932e-09
8.04201e-09
8.47153e-09
8.87325e-09
9.24347e-09
9.57946e-09
9.87938e-09
1.01422e-08
1.03677e-08
1.05563e-08
1.0709e-08
1.08271e-08
1.09125e-08
1.09671e-08
1.09933e-08
8.3165e-09
8.76083e-09
9.39374e-09
1.01892e-08
1.1124e-08
1.21756e-08
1.33214e-08
1.45386e-08
1.58042e-08
1.70957e-08
1.83914e-08
1.96709e-08
2.09156e-08
2.21092e-08
2.32375e-08
2.42893e-08
2.52555e-08
2.61297e-08
2.6908e-08
2.75883e-08
2.81707e-08
2.86568e-08
2.90494e-08
2.93527e-08
2.95716e-08
2.97115e-08
2.97783e-08
2.32667e-08
2.44541e-08
2.61408e-08
2.82533e-08
3.07255e-08
3.34941e-08
3.64961e-08
3.96693e-08
4.29523e-08
4.62858e-08
4.96138e-08
5.28847e-08
5.60524e-08
5.90768e-08
6.19245e-08
6.45688e-08
6.69894e-08
6.91727e-08
7.11104e-08
7.27997e-08
7.42422e-08
7.54433e-08
7.64117e-08
7.71584e-08
7.76963e-08
7.80396e-08
7.82036e-08
6.35958e-08
6.66478e-08
7.09694e-08
7.63599e-08
8.26389e-08
8.96343e-08
9.71787e-08
1.05109e-07
1.13269e-07
1.21509e-07
1.29693e-07
1.37696e-07
1.45409e-07
1.5274e-07
1.59613e-07
1.65971e-07
1.7177e-07
1.76982e-07
1.81595e-07
1.85605e-07
1.89021e-07
1.91858e-07
1.94142e-07
1.95899e-07
1.97163e-07
1.97969e-07
1.98353e-07
1.68884e-07
1.76379e-07
1.86958e-07
2.00097e-07
2.15326e-07
2.32201e-07
2.50299e-07
2.69216e-07
2.8857e-07
3.08009e-07
3.27212e-07
3.45897e-07
3.6382e-07
3.8078e-07
3.96617e-07
4.11209e-07
4.24473e-07
4.36358e-07
4.46844e-07
4.55936e-07
4.63662e-07
4.70068e-07
4.75212e-07
4.79164e-07
4.82003e-07
4.8381e-07
4.8467e-07
4.33285e-07
4.50804e-07
4.75447e-07
5.05925e-07
5.41083e-07
5.79843e-07
6.21191e-07
6.64178e-07
7.07929e-07
7.51648e-07
7.94627e-07
8.36254e-07
8.76015e-07
9.13488e-07
9.48351e-07
9.80364e-07
1.00937e-06
1.03529e-06
1.0581e-06
1.07783e-06
1.09457e-06
1.10841e-06
1.11951e-06
1.12803e-06
1.13414e-06
1.13802e-06
1.13987e-06
1.06857e-06
1.10748e-06
1.16205e-06
1.2293e-06
1.30656e-06
1.39136e-06
1.4814e-06
1.5746e-06
1.66903e-06
1.763e-06
1.855e-06
1.94379e-06
2.02829e-06
2.10768e-06
2.18133e-06
2.24877e-06
2.30974e-06
2.36409e-06
2.41183e-06
2.45306e-06
2.48796e-06
2.5168e-06
2.5399e-06
2.55759e-06
2.57027e-06
2.57833e-06
2.58216e-06
2.52402e-06
2.60628e-06
2.72139e-06
2.86284e-06
3.02483e-06
3.20201e-06
3.38953e-06
3.58295e-06
3.77831e-06
3.97211e-06
4.16134e-06
4.34347e-06
4.51643e-06
4.67858e-06
4.82871e-06
4.96599e-06
5.08989e-06
5.20022e-06
5.29702e-06
5.38053e-06
5.45117e-06
5.50951e-06
5.55619e-06
5.59195e-06
5.61756e-06
5.63382e-06
5.64155e-06
5.69889e-06
5.86487e-06
6.09676e-06
6.38111e-06
6.70594e-06
7.06034e-06
7.43441e-06
7.81922e-06
8.20684e-06
8.59033e-06
8.96379e-06
9.32227e-06
9.6618e-06
9.97929e-06
1.02725e-05
1.05399e-05
1.07807e-05
1.09947e-05
1.1182e-05
1.13433e-05
1.14795e-05
1.15917e-05
1.16814e-05
1.175e-05
1.17991e-05
1.18302e-05
1.1845e-05
1.22878e-05
1.26072e-05
1.30527e-05
1.35978e-05
1.42188e-05
1.48944e-05
1.56054e-05
1.63346e-05
1.70669e-05
1.77893e-05
1.84909e-05
1.91628e-05
1.97976e-05
2.03901e-05
2.09363e-05
2.14337e-05
2.1881e-05
2.22778e-05
2.26249e-05
2.29234e-05
2.31752e-05
2.33826e-05
2.35482e-05
2.36748e-05
2.37653e-05
2.38226e-05
2.38498e-05
2.5207e-05
2.57906e-05
2.66037e-05
2.75971e-05
2.87272e-05
2.99546e-05
3.12443e-05
3.25649e-05
3.38893e-05
3.51941e-05
3.64597e-05
3.76701e-05
3.88126e-05
3.98778e-05
4.08588e-05
4.17514e-05
4.25533e-05
4.32644e-05
4.38857e-05
4.44198e-05
4.48701e-05
4.52408e-05
4.55365e-05
4.57625e-05
4.59239e-05
4.60262e-05
4.60747e-05
4.90447e-05
5.00645e-05
5.14842e-05
5.32175e-05
5.51876e-05
5.73258e-05
5.95704e-05
6.1867e-05
6.41684e-05
6.64339e-05
6.86299e-05
7.07287e-05
7.27088e-05
7.45537e-05
7.6252e-05
7.77965e-05
7.91836e-05
8.04129e-05
8.14868e-05
8.24095e-05
8.31872e-05
8.38271e-05
8.43376e-05
8.47275e-05
8.5006e-05
8.51824e-05
8.5266e-05
9.02692e-05
9.19659e-05
9.43276e-05
9.72097e-05
0.000100485
0.000104037
0.000107766
0.000111579
0.000115399
0.00011916
0.000122804
0.000126287
0.000129573
0.000132635
0.000135453
0.000138017
0.000140319
0.00014236
0.000144142
0.000145674
0.000146965
0.000148028
0.000148875
0.000149522
0.000149985
0.000150277
0.000150416
0.000156395
0.000159049
0.000162742
0.000167247
0.000172364
0.000177913
0.000183734
0.000189686
0.000195647
0.000201513
0.000207196
0.000212628
0.000217751
0.000222524
0.000226918
0.000230914
0.000234504
0.000237685
0.000240463
0.000242851
0.000244864
0.000246519
0.00024784
0.000248848
0.000249568
0.000250024
0.000250241
0.000253669
0.000257495
0.000262812
0.000269292
0.000276641
0.000284598
0.000292932
0.00030144
0.000309947
0.000318303
0.000326387
0.000334099
0.000341362
0.000348119
0.000354329
0.000359968
0.000365026
0.000369503
0.000373409
0.00037676
0.000379582
0.000381901
0.000383749
0.000385158
0.000386164
0.0003868
0.000387101
0.000383943
0.000388927
0.000395843
0.000404252
0.000413762
0.000424028
0.000434744
0.000445646
0.000456506
0.000467137
0.000477384
0.000487125
0.000496267
0.000504742
0.000512507
0.000519537
0.000525823
0.000531372
0.0005362
0.000540334
0.000543807
0.000546655
0.00054892
0.000550645
0.000551873
0.000552649
0.000553016
0.000542676
0.000548511
0.00055659
0.000566381
0.000577415
0.000589279
0.00060161
0.000614099
0.000626485
0.000638555
0.000650137
0.0006611
0.000671346
0.000680808
0.000689445
0.000697237
0.000704182
0.000710295
0.000715601
0.000720132
0.00072393
0.000727039
0.000729508
0.000731386
0.000732721
0.000733564
0.000733962
0.000719839
0.000726032
0.000734587
0.000744924
0.000756535
0.000768972
0.000781848
0.000794837
0.000807666
0.000820118
0.000832021
0.000843248
0.000853704
0.00086333
0.000872091
0.000879974
0.000886984
0.000893142
0.000898476
0.000903026
0.000906834
0.000909949
0.00091242
0.000914298
0.000915633
0.000916476
0.000916875
0.000903304
0.000909378
0.000917755
0.000927855
0.000939171
0.000951259
0.000963739
0.000976292
0.000988656
0.00100063
0.00101204
0.00102278
0.00103276
0.00104194
0.00105027
0.00105776
0.00106441
0.00107025
0.0010753
0.00107961
0.00108322
0.00108617
0.0010885
0.00109028
0.00109155
0.00109234
0.00109272
0.00108245
0.00108808
0.00109583
0.00110517
0.00111562
0.00112677
0.00113826
0.0011498
0.00116115
0.00117212
0.00118257
0.0011924
0.00120152
0.0012099
0.00121751
0.00122435
0.00123042
0.00123575
0.00124036
0.00124429
0.00124758
0.00125027
0.00125241
0.00125404
0.00125519
0.00125592
0.00125627
0.00125001
0.00125504
0.00126196
0.0012703
0.00127962
0.00128956
0.0012998
0.00131008
0.00132019
0.00132995
0.00133926
0.001348
0.00135612
0.00136358
0.00137035
0.00137644
0.00138185
0.0013866
0.00139071
0.00139422
0.00139716
0.00139956
0.00140147
0.00140293
0.00140396
0.00140462
0.00140493
0.00140211
0.0014065
0.00141256
0.00141985
0.001428
0.00143668
0.00144564
0.00145463
0.00146347
0.00147201
0.00148015
0.00148781
0.00149492
0.00150146
0.0015074
0.00151274
0.00151749
0.00152166
0.00152528
0.00152837
0.00153095
0.00153307
0.00153476
0.00153604
0.00153696
0.00153753
0.00153781
0.0015374
0.0015412
0.00154643
0.00155273
0.00155977
0.00156728
0.00157503
0.00158281
0.00159046
0.00159787
0.00160493
0.00161157
0.00161774
0.00162342
0.00162858
0.00163322
0.00163736
0.00164099
0.00164414
0.00164683
0.00164909
0.00165094
0.00165241
0.00165353
0.00165433
0.00165484
0.00165508
0.00165609
0.00165935
0.00166384
0.00166925
0.00167531
0.00168176
0.00168842
0.00169512
0.00170171
0.00170809
0.00171417
0.0017199
0.00172523
0.00173013
0.00173459
0.00173861
0.00174218
0.00174532
0.00174805
0.00175038
0.00175234
0.00175395
0.00175522
0.0017562
0.00175689
0.00175733
0.00175754
0.00175921
0.001762
0.00176584
0.00177047
0.00177565
0.00178118
0.00178689
0.00179263
0.00179829
0.00180376
0.00180898
0.00181391
0.00181849
0.0018227
0.00182654
0.00183
0.00183307
0.00183578
0.00183813
0.00184014
0.00184183
0.00184322
0.00184432
0.00184516
0.00184576
0.00184614
0.00184632
0.00184813
0.00185051
0.00185379
0.00185774
0.00186217
0.0018669
0.00187177
0.00187668
0.00188152
0.0018862
0.00189067
0.00189489
0.00189881
0.00190242
0.00190571
0.00190867
0.00191131
0.00191364
0.00191566
0.00191738
0.00191883
0.00192002
0.00192097
0.00192169
0.00192221
0.00192254
0.00192269
0.00192433
0.00192635
0.00192915
0.00193251
0.00193628
0.00194031
0.00194447
0.00194865
0.00195277
0.00195677
0.00196058
0.00196417
0.00196752
0.0019706
0.00197341
0.00197594
0.0019782
0.00198018
0.00198191
0.00198338
0.00198462
0.00198564
0.00198645
0.00198707
0.00198751
0.00198779
0.00198792
0.00198922
0.00199094
0.00199331
0.00199617
0.00199937
0.00200279
0.00200632
0.00200987
0.00201337
0.00201676
0.00202
0.00202305
0.0020259
0.00202852
0.0020309
0.00203305
0.00203497
0.00203666
0.00203813
0.00203938
0.00204043
0.0020413
0.00204199
0.00204251
0.00204289
0.00204313
0.00204324
0.00204413
0.00204558
0.00204759
0.00205
0.0020527
0.00205559
0.00205857
0.00206157
0.00206453
0.0020674
0.00207013
0.00207271
0.00207511
0.00207733
0.00207934
0.00208116
0.00208278
0.0020842
0.00208544
0.0020865
0.00208739
0.00208813
0.00208871
0.00208915
0.00208947
0.00208967
0.00208977
0.00209023
0.00209145
0.00209313
0.00209516
0.00209743
0.00209985
0.00210235
0.00210487
0.00210735
0.00210976
0.00211205
0.00211421
0.00211623
0.00211808
0.00211978
0.0021213
0.00212266
0.00212385
0.00212489
0.00212578
0.00212653
0.00212714
0.00212763
0.002128
0.00212827
0.00212844
0.00212852
0.00212857
0.00212958
0.00213098
0.00213267
0.00213456
0.00213658
0.00213866
0.00214075
0.00214281
0.00214481
0.00214672
0.00214852
0.00215019
0.00215173
0.00215314
0.0021544
0.00215553
0.00215652
0.00215738
0.00215812
0.00215874
0.00215925
0.00215966
0.00215997
0.00216019
0.00216033
0.00216039
0.00216006
0.0021609
0.00216205
0.00216344
0.00216499
0.00216665
0.00216836
0.00217008
0.00217178
0.00217342
0.00217499
0.00217646
0.00217783
0.0021791
0.00218025
0.00218129
0.00218221
0.00218303
0.00218373
0.00218434
0.00218484
0.00218526
0.00218559
0.00218585
0.00218603
0.00218614
0.0021862
0.00218552
0.0021862
0.00218713
0.00218825
0.00218951
0.00219086
0.00219224
0.00219363
0.002195
0.00219633
0.00219759
0.00219879
0.00219989
0.00220091
0.00220184
0.00220268
0.00220342
0.00220408
0.00220465
0.00220513
0.00220554
0.00220588
0.00220615
0.00220635
0.0022065
0.00220659
0.00220663
0.00220564
0.00220618
0.00220692
0.00220781
0.00220881
0.00220987
0.00221097
0.00221207
0.00221316
0.0022142
0.0022152
0.00221614
0.00221702
0.00221782
0.00221855
0.00221921
0.00221979
0.00222031
0.00222076
0.00222114
0.00222146
0.00222172
0.00222193
0.00222209
0.00222221
0.00222228
0.00222232
0.00222104
0.00222146
0.00222203
0.00222272
0.00222349
0.0022243
0.00222515
0.00222599
0.00222682
0.00222762
0.00222838
0.0022291
0.00222977
0.00223038
0.00223093
0.00223143
0.00223188
0.00223227
0.00223261
0.0022329
0.00223314
0.00223334
0.0022335
0.00223362
0.00223371
0.00223377
0.00223379
0.00223227
0.00223258
0.002233
0.00223351
0.00223407
0.00223467
0.00223528
0.0022359
0.0022365
0.00223709
0.00223764
0.00223816
0.00223864
0.00223908
0.00223948
0.00223985
0.00224016
0.00224045
0.00224069
0.0022409
0.00224107
0.00224122
0.00224133
0.00224142
0.00224148
0.00224152
0.00224154
0.0022398
0.00224001
0.0022403
0.00224064
0.00224103
0.00224143
0.00224184
0.00224226
0.00224266
0.00224305
0.00224342
0.00224376
0.00224408
0.00224437
0.00224463
0.00224487
0.00224508
0.00224526
0.00224542
0.00224556
0.00224567
0.00224576
0.00224584
0.00224589
0.00224593
0.00224596
0.00224597
0.00224405
0.00224417
0.00224434
0.00224454
0.00224476
0.00224499
0.00224523
0.00224546
0.00224569
0.00224591
0.00224611
0.0022463
0.00224647
0.00224663
0.00224677
0.00224689
0.002247
0.0022471
0.00224718
0.00224725
0.00224731
0.00224736
0.00224739
0.00224742
0.00224744
0.00224746
0.00224746
0.00224538
0.00224542
0.00224549
0.00224556
0.00224564
0.00224572
0.00224579
0.00224587
0.00224594
0.002246
0.00224605
0.0022461
0.00224615
0.00224618
0.00224621
0.00224624
0.00224626
0.00224628
0.0022463
0.00224631
0.00224632
0.00224633
0.00224633
0.00224634
0.00224634
0.00224634
0.00224635
0.00224412
0.0022441
0.00224406
0.00224402
0.00224397
0.00224391
0.00224385
0.00224378
0.00224371
0.00224363
0.00224356
0.00224349
0.00224341
0.00224334
0.00224328
0.00224322
0.00224316
0.00224311
0.00224307
0.00224303
0.00224299
0.00224297
0.00224294
0.00224293
0.00224292
0.00224291
0.0022429
0.00224055
0.00224047
0.00224035
0.00224021
0.00224005
0.00223987
0.00223968
0.00223948
0.00223929
0.00223909
0.0022389
0.00223871
0.00223854
0.00223837
0.00223822
0.00223808
0.00223796
0.00223785
0.00223775
0.00223766
0.00223759
0.00223753
0.00223749
0.00223745
0.00223742
0.00223741
0.0022374
0.00223494
0.00223481
0.00223461
0.00223438
0.00223412
0.00223383
0.00223353
0.00223322
0.00223291
0.00223261
0.00223231
0.00223203
0.00223176
0.00223151
0.00223128
0.00223108
0.00223089
0.00223072
0.00223058
0.00223045
0.00223034
0.00223026
0.00223019
0.00223013
0.0022301
0.00223007
0.00223006
0.00222751
0.00222733
0.00222707
0.00222676
0.0022264
0.00222602
0.00222562
0.00222521
0.0022248
0.0022244
0.00222401
0.00222364
0.00222329
0.00222297
0.00222267
0.0022224
0.00222216
0.00222194
0.00222176
0.00222159
0.00222146
0.00222135
0.00222126
0.00222119
0.00222114
0.00222111
0.00222109
0.00221847
0.00221824
0.00221793
0.00221754
0.00221711
0.00221664
0.00221615
0.00221565
0.00221515
0.00221467
0.0022142
0.00221375
0.00221333
0.00221294
0.00221258
0.00221226
0.00221196
0.0022117
0.00221148
0.00221129
0.00221112
0.00221099
0.00221088
0.0022108
0.00221074
0.0022107
0.00221068
0.002208
0.00220773
0.00220737
0.00220692
0.00220641
0.00220587
0.0022053
0.00220472
0.00220415
0.00220358
0.00220304
0.00220252
0.00220204
0.00220159
0.00220118
0.0022008
0.00220047
0.00220017
0.00219991
0.00219969
0.0021995
0.00219935
0.00219922
0.00219913
0.00219906
0.00219902
0.002199
0.00219627
0.00219597
0.00219555
0.00219505
0.00219448
0.00219387
0.00219323
0.00219258
0.00219194
0.00219131
0.0021907
0.00219012
0.00218958
0.00218908
0.00218862
0.0021882
0.00218783
0.0021875
0.00218721
0.00218696
0.00218675
0.00218658
0.00218644
0.00218634
0.00218626
0.00218622
0.00218619
0.00218342
0.00218309
0.00218264
0.00218209
0.00218146
0.00218079
0.00218009
0.00217938
0.00217867
0.00217799
0.00217732
0.00217669
0.0021761
0.00217555
0.00217505
0.0021746
0.00217419
0.00217383
0.00217351
0.00217324
0.00217302
0.00217283
0.00217268
0.00217256
0.00217248
0.00217243
0.00217241
0.00216961
0.00216926
0.00216876
0.00216817
0.00216749
0.00216677
0.00216602
0.00216525
0.00216449
0.00216375
0.00216304
0.00216236
0.00216173
0.00216114
0.0021606
0.00216011
0.00215968
0.00215929
0.00215895
0.00215866
0.00215842
0.00215822
0.00215806
0.00215794
0.00215785
0.00215779
0.00215777
0.00215496
0.00215458
0.00215406
0.00215342
0.00215271
0.00215194
0.00215114
0.00215033
0.00214952
0.00214874
0.00214798
0.00214726
0.00214659
0.00214597
0.0021454
0.00214488
0.00214442
0.00214401
0.00214365
0.00214335
0.00214309
0.00214288
0.00214271
0.00214258
0.00214249
0.00214243
0.0021424
0.00213958
0.00213919
0.00213864
0.00213797
0.00213722
0.00213641
0.00213557
0.00213472
0.00213388
0.00213305
0.00213226
0.00213151
0.00213081
0.00213015
0.00212955
0.00212901
0.00212853
0.0021281
0.00212773
0.00212741
0.00212714
0.00212692
0.00212674
0.0021266
0.00212651
0.00212645
0.00212642
0.00212361
0.00212319
0.00212262
0.00212193
0.00212115
0.00212031
0.00211944
0.00211855
0.00211768
0.00211682
0.002116
0.00211522
0.00211448
0.00211381
0.00211319
0.00211263
0.00211212
0.00211168
0.00211129
0.00211096
0.00211068
0.00211045
0.00211027
0.00211013
0.00211003
0.00210996
0.00210993
0.00210714
0.00210672
0.00210613
0.00210541
0.00210461
0.00210374
0.00210284
0.00210193
0.00210103
0.00210014
0.0020993
0.00209849
0.00209774
0.00209704
0.00209641
0.00209583
0.00209531
0.00209485
0.00209446
0.00209412
0.00209383
0.00209359
0.0020934
0.00209326
0.00209316
0.00209309
0.00209306
0.0020903
0.00208986
0.00208926
0.00208853
0.0020877
0.00208682
0.0020859
0.00208497
0.00208404
0.00208314
0.00208227
0.00208145
0.00208068
0.00207997
0.00207932
0.00207873
0.0020782
0.00207774
0.00207733
0.00207698
0.00207669
0.00207645
0.00207626
0.00207611
0.002076
0.00207594
0.00207591
0.00207319
0.00207275
0.00207213
0.00207139
0.00207055
0.00206965
0.00206872
0.00206777
0.00206683
0.00206592
0.00206504
0.00206421
0.00206343
0.00206271
0.00206205
0.00206145
0.00206091
0.00206044
0.00206003
0.00205968
0.00205938
0.00205914
0.00205894
0.00205879
0.00205869
0.00205862
0.00205859
0.00205593
0.00205548
0.00205486
0.00205411
0.00205327
0.00205236
0.00205142
0.00205046
0.00204952
0.0020486
0.00204771
0.00204687
0.00204609
0.00204536
0.0020447
0.0020441
0.00204356
0.00204308
0.00204267
0.00204232
0.00204202
0.00204177
0.00204158
0.00204143
0.00204132
0.00204125
0.00204122
0.00203864
0.00203819
0.00203757
0.00203681
0.00203597
0.00203506
0.00203412
0.00203316
0.00203222
0.0020313
0.00203041
0.00202957
0.00202879
0.00202806
0.0020274
0.0020268
0.00202626
0.00202579
0.00202537
0.00202502
0.00202472
0.00202448
0.00202428
0.00202413
0.00202403
0.00202396
0.00202393
0.00202143
0.00202099
0.00202037
0.00201962
0.00201878
0.00201788
0.00201694
0.002016
0.00201506
0.00201414
0.00201327
0.00201244
0.00201166
0.00201094
0.00201028
0.00200968
0.00200915
0.00200868
0.00200827
0.00200792
0.00200763
0.00200739
0.00200719
0.00200705
0.00200694
0.00200687
0.00200684
0.00200446
0.00200402
0.00200341
0.00200267
0.00200184
0.00200096
0.00200003
0.0019991
0.00199818
0.00199728
0.00199641
0.0019956
0.00199483
0.00199412
0.00199348
0.00199289
0.00199237
0.00199191
0.00199151
0.00199116
0.00199087
0.00199064
0.00199045
0.0019903
0.0019902
0.00199013
0.0019901
0.00198785
0.00198742
0.00198682
0.0019861
0.00198529
0.00198443
0.00198353
0.00198262
0.00198172
0.00198084
0.00198
0.0019792
0.00197846
0.00197777
0.00197714
0.00197657
0.00197606
0.00197562
0.00197523
0.00197489
0.00197461
0.00197438
0.00197419
0.00197405
0.00197395
0.00197389
0.00197386
0.00197175
0.00197133
0.00197076
0.00197006
0.00196928
0.00196845
0.00196758
0.0019667
0.00196583
0.00196498
0.00196417
0.00196341
0.00196269
0.00196203
0.00196142
0.00196088
0.00196039
0.00195996
0.00195958
0.00195926
0.00195899
0.00195877
0.00195859
0.00195846
0.00195836
0.0019583
0.00195827
0.00195633
0.00195593
0.00195538
0.00195472
0.00195397
0.00195317
0.00195234
0.00195151
0.00195068
0.00194987
0.0019491
0.00194837
0.00194769
0.00194706
0.00194649
0.00194597
0.0019455
0.00194509
0.00194474
0.00194443
0.00194418
0.00194397
0.0019438
0.00194367
0.00194358
0.00194352
0.0019435
0.00194174
0.00194136
0.00194085
0.00194022
0.00193952
0.00193877
0.00193799
0.0019372
0.00193642
0.00193567
0.00193494
0.00193426
0.00193362
0.00193303
0.00193249
0.00193201
0.00193158
0.00193119
0.00193086
0.00193058
0.00193034
0.00193014
0.00192999
0.00192987
0.00192978
0.00192973
0.0019297
0.00192814
0.0019278
0.00192732
0.00192674
0.00192609
0.00192539
0.00192467
0.00192394
0.00192323
0.00192253
0.00192186
0.00192123
0.00192064
0.0019201
0.00191961
0.00191916
0.00191876
0.00191841
0.00191811
0.00191785
0.00191763
0.00191745
0.00191731
0.0019172
0.00191712
0.00191707
0.00191705
0.0019157
0.00191538
0.00191495
0.00191442
0.00191383
0.0019132
0.00191255
0.00191189
0.00191124
0.00191061
0.00191
0.00190944
0.00190891
0.00190842
0.00190797
0.00190757
0.00190721
0.0019069
0.00190663
0.00190639
0.0019062
0.00190604
0.00190591
0.00190581
0.00190574
0.0019057
0.00190568
0.00190454
0.00190426
0.00190387
0.00190341
0.00190288
0.00190232
0.00190174
0.00190116
0.00190059
0.00190003
0.0018995
0.001899
0.00189853
0.0018981
0.00189771
0.00189736
0.00189705
0.00189677
0.00189653
0.00189633
0.00189616
0.00189602
0.00189591
0.00189582
0.00189576
0.00189572
0.0018957
0.00189478
0.00189454
0.0018942
0.0018938
0.00189335
0.00189286
0.00189236
0.00189186
0.00189137
0.00189089
0.00189044
0.00189001
0.00188961
0.00188925
0.00188891
0.00188861
0.00188835
0.00188811
0.00188791
0.00188774
0.00188759
0.00188748
0.00188738
0.00188731
0.00188726
0.00188723
0.00188721
0.00188649
0.00188628
0.001886
0.00188566
0.00188529
0.00188488
0.00188447
0.00188405
0.00188364
0.00188325
0.00188287
0.00188252
0.00188219
0.00188189
0.00188162
0.00188137
0.00188115
0.00188096
0.0018808
0.00188066
0.00188054
0.00188044
0.00188037
0.00188031
0.00188027
0.00188024
0.00188023
0.00187968
0.00187951
0.00187929
0.00187902
0.00187871
0.00187839
0.00187806
0.00187773
0.0018774
0.00187708
0.00187679
0.00187651
0.00187625
0.00187601
0.0018758
0.0018756
0.00187543
0.00187528
0.00187515
0.00187505
0.00187495
0.00187488
0.00187482
0.00187478
0.00187474
0.00187472
0.00187471
0.00187431
0.00187418
0.00187401
0.0018738
0.00187357
0.00187332
0.00187307
0.00187282
0.00187257
0.00187233
0.00187211
0.0018719
0.00187171
0.00187153
0.00187137
0.00187122
0.0018711
0.00187099
0.00187089
0.00187081
0.00187075
0.00187069
0.00187065
0.00187062
0.00187059
0.00187058
0.00187057
0.00187028
0.00187019
0.00187006
0.00186991
0.00186975
0.00186957
0.00186939
0.00186921
0.00186903
0.00186886
0.0018687
0.00186855
0.00186842
0.00186829
0.00186818
0.00186808
0.00186799
0.00186792
0.00186785
0.0018678
0.00186775
0.00186772
0.00186769
0.00186766
0.00186765
0.00186764
0.00186763
0.00186743
0.00186736
0.00186728
0.00186718
0.00186706
0.00186694
0.00186682
0.0018667
0.00186659
0.00186648
0.00186637
0.00186627
0.00186619
0.0018661
0.00186603
0.00186597
0.00186591
0.00186587
0.00186582
0.00186579
0.00186576
0.00186574
0.00186572
0.00186571
0.0018657
0.00186569
0.00186569
0.00186553
0.00186549
0.00186544
0.00186538
0.00186531
0.00186523
0.00186516
0.00186509
0.00186502
0.00186495
0.00186489
0.00186483
0.00186478
0.00186473
0.00186469
0.00186465
0.00186462
0.00186459
0.00186457
0.00186455
0.00186453
0.00186452
0.00186451
0.0018645
0.0018645
0.0018645
0.0018645
0.00186437
0.00186435
0.00186432
0.00186428
0.00186424
0.0018642
0.00186416
0.00186412
0.00186408
0.00186405
0.00186401
0.00186398
0.00186396
0.00186393
0.00186391
0.00186389
0.00186388
0.00186386
0.00186385
0.00186384
0.00186383
0.00186383
0.00186382
0.00186382
0.00186382
0.00186382
0.00186381
0.00186371
0.0018637
0.00186368
0.00186366
0.00186364
0.00186362
0.0018636
0.00186358
0.00186357
0.00186355
0.00186353
0.00186352
0.0018635
0.00186349
0.00186348
0.00186347
0.00186347
0.00186346
0.00186346
0.00186345
0.00186345
0.00186345
0.00186344
0.00186344
0.00186344
0.00186344
0.00186344
0.00186335
0.00186334
0.00186334
0.00186333
0.00186332
0.00186331
0.0018633
0.00186329
0.00186328
0.00186327
0.00186327
0.00186326
0.00186325
0.00186325
0.00186324
0.00186324
0.00186323
0.00186323
0.00186323
0.00186323
0.00186322
0.00186322
0.00186322
0.00186322
0.00186322
0.00186322
0.00186322
0.00186315
0.00186314
0.00186314
0.00186313
0.00186313
0.00186312
0.00186311
0.00186311
0.0018631
0.0018631
0.00186309
0.00186308
0.00186308
0.00186307
0.00186307
0.00186307
0.00186306
0.00186306
0.00186306
0.00186306
0.00186305
0.00186305
0.00186305
0.00186305
0.00186305
0.00186305
0.00186305
0.00186299
0.00186299
0.00186299
0.00186298
0.00186298
0.00186297
0.00186296
0.00186296
0.00186295
0.00186294
0.00186293
0.00186293
0.00186292
0.00186292
0.00186291
0.00186291
0.0018629
0.0018629
0.00186289
0.00186289
0.00186289
0.00186289
0.00186289
0.00186288
0.00186288
0.00186288
0.00186288
0.00186285
0.00186284
0.00186284
0.00186283
0.00186282
0.00186281
0.00186281
0.0018628
0.00186279
0.00186278
0.00186277
0.00186276
0.00186275
0.00186275
0.00186274
0.00186273
0.00186273
0.00186272
0.00186272
0.00186271
0.00186271
0.00186271
0.0018627
0.0018627
0.0018627
0.0018627
0.0018627
0.00186268
0.00186267
0.00186267
0.00186266
0.00186265
0.00186264
0.00186263
0.00186261
0.0018626
0.00186259
0.00186258
0.00186257
0.00186256
0.00186255
0.00186254
0.00186253
0.00186253
0.00186252
0.00186251