/*--------------------------------*- C++ -*----------------------------------*\
| =========                 |                                                 |
| \\      /  F ield         | OpenFOAM: The Open Source CFD Toolbox           |
|  \\    /   O peration     | Version:  2106                                  |
|   \\  /    A nd           | Website:  www.openfoam.com                      |
|    \\/     M anipulation  |                                                 |
\*---------------------------------------------------------------------------*/
FoamFile
{
    version     2.0;
    format      ascii;
    arch        "LSB;label=32;scalar=64";
    class       volScalarField;
    location    "110.00000";
    object      CH3CO_0;
}
// * * * * * * * * * * * * * * * * * * * * * * * * * * * * * * * * * * * * * //

dimensions      [0 0 0 0 0 0 0];

internalField   nonuniform List<scalar> 
3360
(
1.07154e-36
1.14489e-36
1.25119e-36
1.38797e-36
1.55324e-36
1.74496e-36
1.96073e-36
2.19769e-36
2.4525e-36
2.72134e-36
3.00007e-36
3.28425e-36
3.56939e-36
3.851e-36
4.12476e-36
4.38664e-36
4.63302e-36
4.86073e-36
5.06719e-36
5.25041e-36
5.40905e-36
5.54242e-36
5.65045e-36
5.7337e-36
5.79329e-36
5.83085e-36
5.84843e-36
1.85525e-35
1.99935e-35
2.21175e-35
2.49116e-35
2.83792e-35
3.25282e-35
3.73635e-35
4.2882e-35
4.9068e-35
5.58908e-35
6.33024e-35
7.12364e-35
7.96064e-35
8.83075e-35
9.72175e-35
1.062e-34
1.15105e-34
1.23779e-34
1.32063e-34
1.39803e-34
1.46854e-34
1.53086e-34
1.58389e-34
1.6268e-34
1.65903e-34
1.68034e-34
1.69081e-34
1.79936e-34
1.96579e-34
2.21464e-34
2.5479e-34
2.96974e-34
3.4848e-34
4.09705e-34
4.80873e-34
5.61953e-34
6.52595e-34
7.52088e-34
8.59363e-34
9.72994e-34
1.09123e-33
1.21203e-33
1.33318e-33
1.45235e-33
1.56719e-33
1.6755e-33
1.77523e-33
1.86465e-33
1.94235e-33
2.00731e-33
2.05895e-33
2.09705e-33
2.12181e-33
2.13377e-33
1.52824e-33
1.68802e-33
1.92991e-33
2.2584e-33
2.68032e-33
3.20295e-33
3.83258e-33
4.57323e-33
5.42565e-33
6.38642e-33
7.44752e-33
8.59613e-33
9.81495e-33
1.10827e-32
1.2375e-32
1.36658e-32
1.49283e-32
1.61369e-32
1.72677e-32
1.83001e-32
1.92175e-32
2.00073e-32
2.06618e-32
2.11774e-32
2.15547e-32
2.1798e-32
2.19147e-32
1.30809e-32
1.45557e-32
1.68013e-32
1.9872e-32
2.38443e-32
2.87979e-32
3.48008e-32
4.18962e-32
5.00911e-32
5.93486e-32
6.95831e-32
8.06599e-32
9.24e-32
1.04587e-31
1.16977e-31
1.29316e-31
1.41344e-31
1.52819e-31
1.6352e-31
1.73257e-31
1.81881e-31
1.89286e-31
1.95404e-31
2.00212e-31
2.03723e-31
2.05982e-31
2.07064e-31
1.13897e-31
1.27258e-31
1.4767e-31
1.75675e-31
2.12019e-31
2.57472e-31
3.12686e-31
3.78069e-31
4.53682e-31
5.39163e-31
6.33689e-31
7.35973e-31
8.44315e-31
9.56674e-31
1.07077e-30
1.18423e-30
1.29467e-30
1.39986e-30
1.49778e-30
1.58675e-30
1.66543e-30
1.73287e-30
1.78851e-30
1.83219e-30
1.86404e-30
1.88453e-30
1.89433e-30
1.00459e-30
1.12498e-30
1.30911e-30
1.56208e-30
1.89078e-30
2.30226e-30
2.80242e-30
3.39489e-30
4.08005e-30
4.85439e-30
5.71018e-30
6.63554e-30
7.61484e-30
8.62948e-30
9.65881e-30
1.06813e-29
1.16756e-29
1.26218e-29
1.35018e-29
1.43007e-29
1.50066e-29
1.56113e-29
1.611e-29
1.65011e-29
1.67863e-29
1.69695e-29
1.70571e-29
8.89961e-30
9.97468e-30
1.16202e-29
1.38825e-29
1.68234e-29
2.05065e-29
2.49841e-29
3.02878e-29
3.64199e-29
4.33471e-29
5.09988e-29
5.92666e-29
6.80095e-29
7.70598e-29
8.62325e-29
9.53352e-29
1.04178e-28
1.12584e-28
1.20393e-28
1.27475e-28
1.33726e-28
1.39074e-28
1.43479e-28
1.4693e-28
1.49442e-28
1.51054e-28
1.51824e-28
7.8953e-29
8.85178e-29
1.03153e-28
1.23265e-28
1.49396e-28
1.82095e-28
2.21812e-28
2.68805e-28
3.23068e-28
3.84284e-28
4.518e-28
5.24642e-28
6.01546e-28
6.81025e-28
7.6145e-28
8.41132e-28
9.18416e-28
9.91757e-28
1.05979e-27
1.12138e-27
1.17565e-27
1.22201e-27
1.26012e-27
1.28991e-27
1.31155e-27
1.3254e-27
1.332e-27
6.96338e-28
7.80464e-28
9.0911e-28
1.08572e-27
1.31491e-27
1.60129e-27
1.94854e-27
2.35861e-27
2.83115e-27
3.36305e-27
3.94833e-27
4.57823e-27
5.24158e-27
5.92538e-27
6.61546e-27
7.29732e-27
7.95681e-27
8.58086e-27
9.15803e-27
9.67893e-27
1.01364e-26
1.05258e-26
1.08447e-26
1.10929e-26
1.12724e-26
1.13866e-26
1.14406e-26
6.0853e-27
6.81512e-27
7.9293e-27
9.45564e-27
1.14313e-26
1.38926e-26
1.6867e-26
2.03671e-26
2.43848e-26
2.88889e-26
3.38243e-26
3.9113e-26
4.46581e-26
5.03484e-26
5.60649e-26
6.16871e-26
6.70992e-26
7.21957e-26
7.68857e-26
8.1096e-26
8.47731e-26
8.78835e-26
9.04136e-26
9.23681e-26
9.37685e-26
9.46507e-26
9.50628e-26
5.2237e-26
5.84118e-26
6.78147e-26
8.06517e-26
9.71984e-26
1.17714e-25
1.42377e-25
1.71232e-25
2.04153e-25
2.40826e-25
2.80744e-25
3.2323e-25
3.67464e-25
4.12533e-25
4.5748e-25
5.01356e-25
5.43267e-25
5.82418e-25
6.18145e-25
6.4993e-25
6.7742e-25
7.00425e-25
7.1891e-25
7.32989e-25
7.42911e-25
7.49036e-25
7.51826e-25
4.36463e-25
4.86873e-25
5.63307e-25
6.67077e-25
7.99946e-25
9.63436e-25
1.15833e-24
1.3843e-24
1.63966e-24
1.92128e-24
2.22467e-24
2.54414e-24
2.87315e-24
3.20465e-24
3.5315e-24
3.84683e-24
4.14439e-24
4.41884e-24
4.6659e-24
4.88249e-24
5.0668e-24
5.2182e-24
5.33725e-24
5.42561e-24
5.48591e-24
5.52162e-24
5.53702e-24
3.49517e-24
3.88432e-24
4.47073e-24
5.26035e-24
6.2615e-24
7.47965e-24
8.914e-24
1.05551e-23
1.23837e-23
1.4371e-23
1.64795e-23
1.86651e-23
2.08798e-23
2.30744e-23
2.52013e-23
2.72168e-23
2.90833e-23
3.07706e-23
3.22567e-23
3.35281e-23
3.45801e-23
3.54159e-23
3.60468e-23
3.64909e-23
3.67729e-23
3.69233e-23
3.69782e-23
2.63548e-23
2.91314e-23
3.32774e-23
3.87936e-23
4.56881e-23
5.39419e-23
6.34884e-23
7.42032e-23
8.59026e-23
9.83498e-23
1.11268e-22
1.24357e-22
1.3731e-22
1.49836e-22
1.61669e-22
1.72583e-22
1.82399e-22
1.90994e-22
1.98292e-22
2.04276e-22
2.08973e-22
2.12461e-22
2.14857e-22
2.16318e-22
2.1704e-22
2.17251e-22
2.17211e-22
1.82488e-22
2.00194e-22
2.26296e-22
2.60451e-22
3.02297e-22
3.51274e-22
4.06534e-22
4.66926e-22
5.31034e-22
5.9725e-22
6.6388e-22
7.29246e-22
7.91786e-22
8.50134e-22
9.03174e-22
9.50077e-22
9.90305e-22
1.02361e-21
1.05002e-21
1.0698e-21
1.08345e-21
1.09167e-21
1.09534e-21
1.09552e-21
1.09343e-21
1.09044e-21
1.0881e-21
1.12707e-21
1.22401e-21
1.36445e-21
1.54408e-21
1.75829e-21
2.00141e-21
2.26662e-21
2.54611e-21
2.83153e-21
3.11449e-21
3.3871e-21
3.64243e-21
3.87476e-21
4.07986e-21
4.25492e-21
4.39858e-21
4.51077e-21
4.59253e-21
4.64588e-21
4.67368e-21
4.67946e-21
4.66739e-21
4.64218e-21
4.60913e-21
4.57408e-21
4.54346e-21
4.52431e-21
6.00039e-21
6.43363e-21
7.04704e-21
7.80843e-21
8.68434e-21
9.6387e-21
1.06337e-20
1.16319e-20
1.2598e-20
1.35016e-20
1.4318e-20
1.50291e-20
1.56236e-20
1.60966e-20
1.64484e-20
1.66839e-20
1.68115e-20
1.68423e-20
1.67894e-20
1.66674e-20
1.64922e-20
1.62806e-20
1.60508e-20
1.58221e-20
1.56153e-20
1.54526e-20
1.53583e-20
2.66032e-20
2.80939e-20
3.01425e-20
3.25874e-20
3.52699e-20
3.80365e-20
4.07467e-20
4.32798e-20
4.55411e-20
4.74635e-20
4.90075e-20
5.01583e-20
5.09215e-20
5.13184e-20
5.13813e-20
5.11499e-20
5.06682e-20
4.9982e-20
4.91383e-20
4.8184e-20
4.71664e-20
4.61333e-20
4.51339e-20
4.42194e-20
4.34438e-20
4.28644e-20
4.25421e-20
9.54823e-20
9.91732e-20
1.04049e-19
1.09567e-19
1.15229e-19
1.2061e-19
1.25375e-19
1.29292e-19
1.32223e-19
1.34121e-19
1.35005e-19
1.34945e-19
1.34044e-19
1.32421e-19
1.30203e-19
1.27517e-19
1.24484e-19
1.21216e-19
1.17821e-19
1.144e-19
1.1105e-19
1.07868e-19
1.0495e-19
1.02396e-19
1.0031e-19
9.88012e-20
9.7986e-20
2.74431e-19
2.80458e-19
2.87943e-19
2.95684e-19
3.02675e-19
3.08172e-19
3.11712e-19
3.13089e-19
3.12305e-19
3.09514e-19
3.04963e-19
2.98949e-19
2.91777e-19
2.83743e-19
2.75121e-19
2.66152e-19
2.57051e-19
2.48006e-19
2.39187e-19
2.30747e-19
2.22833e-19
2.15588e-19
2.09156e-19
2.03685e-19
1.99331e-19
1.96256e-19
1.94631e-19
6.42302e-19
6.47608e-19
6.53135e-19
6.57133e-19
6.58297e-19
6.55861e-19
6.49563e-19
6.39549e-19
6.26238e-19
6.10204e-19
5.92081e-19
5.72486e-19
5.51988e-19
5.3108e-19
5.10179e-19
4.89627e-19
4.69707e-19
4.50653e-19
4.32669e-19
4.15941e-19
4.00648e-19
3.86967e-19
3.75078e-19
3.65168e-19
3.5743e-19
3.52066e-19
3.4928e-19
1.28215e-18
1.2817e-18
1.27834e-18
1.27032e-18
1.25652e-18
1.23656e-18
1.21068e-18
1.1795e-18
1.14389e-18
1.10487e-18
1.06352e-18
1.0209e-18
9.78053e-19
9.35946e-19
8.95506e-19
8.57607e-19
8.22537e-19
7.90173e-19
7.60474e-19
7.3347e-19
7.09241e-19
6.87908e-19
6.69629e-19
6.54585e-19
6.42979e-19
6.35023e-19
6.30936e-19
2.32084e-18
2.31326e-18
2.29919e-18
2.27732e-18
2.24775e-18
2.21235e-18
2.17504e-18
2.13749e-18
2.09842e-18
2.05754e-18
2.01505e-18
1.97134e-18
1.92692e-18
1.88227e-18
1.83784e-18
1.79409e-18
1.75142e-18
1.71025e-18
1.67101e-18
1.63416e-18
1.60017e-18
1.56954e-18
1.54278e-18
1.5204e-18
1.50291e-18
1.49079e-18
1.48452e-18
4.1954e-18
4.22756e-18
4.26832e-18
4.31235e-18
4.35555e-18
4.39507e-18
4.42906e-18
4.45631e-18
4.47608e-18
4.48803e-18
4.49211e-18
4.48852e-18
4.47759e-18
4.45979e-18
4.43573e-18
4.40615e-18
4.37193e-18
4.3341e-18
4.29383e-18
4.25241e-18
4.21124e-18
4.17178e-18
4.1355e-18
4.10386e-18
4.07827e-18
4.06006e-18
4.05042e-18
8.94039e-18
9.08396e-18
9.27636e-18
9.49975e-18
9.73857e-18
9.97951e-18
1.02114e-17
1.04248e-17
1.06124e-17
1.07684e-17
1.08891e-17
1.09727e-17
1.10194e-17
1.10313e-17
1.10118e-17
1.09656e-17
1.08977e-17
1.08137e-17
1.07191e-17
1.06191e-17
1.05187e-17
1.04225e-17
1.03346e-17
1.02587e-17
1.0198e-17
1.01553e-17
1.01331e-17
2.15608e-17
2.19421e-17
2.24473e-17
2.30233e-17
2.36233e-17
2.4209e-17
2.47511e-17
2.52297e-17
2.56333e-17
2.5957e-17
2.62012e-17
2.63697e-17
2.64686e-17
2.65056e-17
2.6489e-17
2.64278e-17
2.6331e-17
2.62075e-17
2.6066e-17
2.59147e-17
2.57616e-17
2.56138e-17
2.5478e-17
2.53601e-17
2.52655e-17
2.51987e-17
2.51637e-17
5.12953e-17
5.2161e-17
5.3332e-17
5.47096e-17
5.62091e-17
5.77603e-17
5.93082e-17
6.0811e-17
6.22392e-17
6.35731e-17
6.48013e-17
6.59189e-17
6.69257e-17
6.7825e-17
6.86225e-17
6.93248e-17
6.99395e-17
7.04736e-17
7.0934e-17
7.1327e-17
7.16578e-17
7.19312e-17
7.21512e-17
7.23213e-17
7.24446e-17
7.25239e-17
7.25622e-17
1.22045e-16
1.2477e-16
1.28571e-16
1.33231e-16
1.38569e-16
1.44432e-16
1.50698e-16
1.57269e-16
1.64069e-16
1.71039e-16
1.78132e-16
1.85308e-16
1.9253e-16
1.9976e-16
2.06953e-16
2.14058e-16
2.21014e-16
2.27752e-16
2.34192e-16
2.4025e-16
2.45836e-16
2.5086e-16
2.55231e-16
2.58864e-16
2.61681e-16
2.63612e-16
2.646e-16
3.02281e-16
3.11782e-16
3.2536e-16
3.42545e-16
3.62989e-16
3.86425e-16
4.12646e-16
4.41483e-16
4.72785e-16
5.064e-16
5.42156e-16
5.7984e-16
6.19188e-16
6.59866e-16
7.01472e-16
7.4353e-16
7.85495e-16
8.26765e-16
8.66693e-16
9.04603e-16
9.39812e-16
9.71642e-16
9.99447e-16
1.02262e-15
1.04063e-15
1.05299e-15
1.05933e-15
7.71239e-16
8.03024e-16
8.49098e-16
9.08448e-16
9.80447e-16
1.06466e-15
1.16071e-15
1.26824e-15
1.38674e-15
1.51558e-15
1.65388e-15
1.80053e-15
1.95412e-15
2.11296e-15
2.27511e-15
2.43838e-15
2.60042e-15
2.75873e-15
2.91077e-15
3.054e-15
3.18593e-15
3.30422e-15
3.4067e-15
3.49145e-15
3.55678e-15
3.60131e-15
3.62396e-15
1.95391e-15
2.04492e-15
2.17714e-15
2.34778e-15
2.55502e-15
2.7973e-15
3.07306e-15
3.3804e-15
3.71699e-15
4.07989e-15
4.46554e-15
4.86971e-15
5.28759e-15
5.71385e-15
6.14274e-15
6.56827e-15
6.98431e-15
7.38478e-15
7.76378e-15
8.11571e-15
8.43542e-15
8.71825e-15
8.96018e-15
9.1578e-15
9.30839e-15
9.40992e-15
9.46103e-15
4.63808e-15
4.84571e-15
5.14545e-15
5.52905e-15
5.98998e-15
6.52219e-15
7.1194e-15
7.77471e-15
8.48041e-15
9.22786e-15
1.00076e-14
1.08095e-14
1.16228e-14
1.24367e-14
1.32402e-14
1.40227e-14
1.47738e-14
1.54841e-14
1.61449e-14
1.67486e-14
1.72883e-14
1.77588e-14
1.81555e-14
1.84752e-14
1.87158e-14
1.88762e-14
1.89561e-14
9.77543e-15
1.01459e-14
1.06757e-14
1.13452e-14
1.21376e-14
1.30371e-14
1.40282e-14
1.50946e-14
1.62201e-14
1.73878e-14
1.85809e-14
1.97826e-14
2.09767e-14
2.21476e-14
2.32811e-14
2.43639e-14
2.53844e-14
2.63324e-14
2.71994e-14
2.79786e-14
2.86646e-14
2.92537e-14
2.97437e-14
3.01333e-14
3.04229e-14
3.06137e-14
3.07078e-14
1.78708e-14
1.8398e-14
1.91442e-14
2.0075e-14
2.116e-14
2.23709e-14
2.36808e-14
2.50637e-14
2.64948e-14
2.79506e-14
2.94089e-14
3.08494e-14
3.22536e-14
3.36052e-14
3.48901e-14
3.60963e-14
3.72142e-14
3.82361e-14
3.91565e-14
3.99716e-14
4.06794e-14
4.12792e-14
4.17717e-14
4.21588e-14
4.24432e-14
4.26284e-14
4.27187e-14
2.84851e-14
2.91043e-14
2.9973e-14
3.10443e-14
3.22763e-14
3.36308e-14
3.50729e-14
3.65703e-14
3.80939e-14
3.96177e-14
4.11186e-14
4.25768e-14
4.39754e-14
4.53006e-14
4.65414e-14
4.76894e-14
4.87385e-14
4.9685e-14
5.05266e-14
5.1263e-14
5.18951e-14
5.2425e-14
5.28557e-14
5.31909e-14
5.3435e-14
5.35925e-14
5.36687e-14
4.0395e-14
4.10191e-14
4.18883e-14
4.29501e-14
4.41579e-14
4.54699e-14
4.68488e-14
4.82616e-14
4.96797e-14
5.10788e-14
5.24384e-14
5.3742e-14
5.49763e-14
5.61314e-14
5.72001e-14
5.81775e-14
5.9061e-14
5.98497e-14
6.05442e-14
6.11461e-14
6.16582e-14
6.20839e-14
6.24271e-14
6.26923e-14
6.28839e-14
6.30068e-14
6.30658e-14
5.22154e-14
5.27742e-14
5.35482e-14
5.44869e-14
5.55457e-14
5.6685e-14
5.78705e-14
5.90727e-14
6.02669e-14
6.14327e-14
6.2554e-14
6.36181e-14
6.46158e-14
6.55406e-14
6.63884e-14
6.7157e-14
6.7846e-14
6.84561e-14
6.89893e-14
6.94481e-14
6.98358e-14
7.0156e-14
7.04126e-14
7.06096e-14
7.07513e-14
7.08417e-14
7.08849e-14
6.29144e-14
6.33717e-14
6.40024e-14
6.47631e-14
6.56155e-14
6.65263e-14
6.74667e-14
6.84127e-14
6.93449e-14
7.02476e-14
7.11088e-14
7.19197e-14
7.26741e-14
7.33682e-14
7.39999e-14
7.45687e-14
7.50752e-14
7.55209e-14
7.59081e-14
7.62394e-14
7.65178e-14
7.67465e-14
7.69289e-14
7.70684e-14
7.71682e-14
7.72316e-14
7.72618e-14
7.19693e-14
7.23181e-14
7.27975e-14
7.33731e-14
7.40148e-14
7.46964e-14
7.53958e-14
7.60948e-14
7.6779e-14
7.74371e-14
7.80607e-14
7.86439e-14
7.9183e-14
7.96758e-14
8.01214e-14
8.05202e-14
8.08733e-14
8.11822e-14
8.14491e-14
8.16762e-14
8.18661e-14
8.20214e-14
8.21447e-14
8.22385e-14
8.23054e-14
8.23477e-14
8.23678e-14
7.92687e-14
7.95191e-14
7.98622e-14
8.02724e-14
8.07276e-14
8.12084e-14
8.1699e-14
8.21862e-14
8.266e-14
8.31127e-14
8.35387e-14
8.39344e-14
8.42977e-14
8.46274e-14
8.49236e-14
8.51869e-14
8.54184e-14
8.56196e-14
8.57923e-14
8.59384e-14
8.60598e-14
8.61585e-14
8.62364e-14
8.62954e-14
8.63372e-14
8.63635e-14
8.63759e-14
8.49424e-14
8.51112e-14
8.53418e-14
8.56162e-14
8.5919e-14
8.62369e-14
8.65589e-14
8.68763e-14
8.71824e-14
8.74724e-14
8.77429e-14
8.79918e-14
8.82181e-14
8.84214e-14
8.86023e-14
8.87615e-14
8.89e-14
8.90192e-14
8.91204e-14
8.92052e-14
8.92749e-14
8.9331e-14
8.93749e-14
8.94077e-14
8.94308e-14
8.94452e-14
8.9452e-14
8.92223e-14
8.9327e-14
8.94694e-14
8.96376e-14
8.98217e-14
9.0013e-14
9.02046e-14
9.03911e-14
9.05685e-14
9.0734e-14
9.08858e-14
9.10231e-14
9.11456e-14
9.12536e-14
9.13476e-14
9.14285e-14
9.14974e-14
9.15552e-14
9.16031e-14
9.16422e-14
9.16735e-14
9.1698e-14
9.17167e-14
9.17302e-14
9.17395e-14
9.17451e-14
9.17476e-14
9.23581e-14
9.2414e-14
9.24892e-14
9.25768e-14
9.26708e-14
9.27663e-14
9.28594e-14
9.29473e-14
9.30279e-14
9.31e-14
9.3163e-14
9.32169e-14
9.32621e-14
9.3299e-14
9.33285e-14
9.33514e-14
9.33686e-14
9.3381e-14
9.33895e-14
9.33949e-14
9.3398e-14
9.33992e-14
9.33993e-14
9.33987e-14
9.33979e-14
9.3397e-14
9.33965e-14
9.45765e-14
9.45958e-14
9.46207e-14
9.46479e-14
9.46746e-14
9.46987e-14
9.47184e-14
9.47328e-14
9.47415e-14
9.47442e-14
9.47414e-14
9.47336e-14
9.47215e-14
9.4706e-14
9.46878e-14
9.46679e-14
9.46472e-14
9.46262e-14
9.46058e-14
9.45865e-14
9.45687e-14
9.45529e-14
9.45395e-14
9.45285e-14
9.45202e-14
9.45147e-14
9.45119e-14
9.6067e-14
9.60591e-14
9.60466e-14
9.6029e-14
9.60058e-14
9.59768e-14
9.59422e-14
9.59022e-14
9.58576e-14
9.58092e-14
9.57578e-14
9.57044e-14
9.56501e-14
9.55959e-14
9.55428e-14
9.54914e-14
9.54427e-14
9.53973e-14
9.53556e-14
9.53182e-14
9.52852e-14
9.5257e-14
9.52336e-14
9.52151e-14
9.52014e-14
9.51924e-14
9.51881e-14
9.69814e-14
9.69533e-14
9.69131e-14
9.68623e-14
9.68021e-14
9.67339e-14
9.6659e-14
9.65789e-14
9.6495e-14
9.64087e-14
9.63215e-14
9.62345e-14
9.61492e-14
9.60666e-14
9.59876e-14
9.59132e-14
9.5844e-14
9.57806e-14
9.57234e-14
9.56726e-14
9.56286e-14
9.55912e-14
9.55606e-14
9.55366e-14
9.55189e-14
9.55075e-14
9.55019e-14
9.74387e-14
9.73956e-14
9.73349e-14
9.72594e-14
9.71718e-14
9.70746e-14
9.69699e-14
9.68601e-14
9.67472e-14
9.66329e-14
9.65192e-14
9.64075e-14
9.62993e-14
9.61958e-14
9.60979e-14
9.60065e-14
9.59222e-14
9.58456e-14
9.5777e-14
9.57166e-14
9.56644e-14
9.56204e-14
9.55845e-14
9.55564e-14
9.55359e-14
9.55226e-14
9.55162e-14
9.75312e-14
9.74771e-14
9.74011e-14
9.73073e-14
9.71994e-14
9.70806e-14
9.69539e-14
9.68221e-14
9.66876e-14
9.65528e-14
9.64195e-14
9.62896e-14
9.61646e-14
9.60456e-14
9.59338e-14
9.58299e-14
9.57347e-14
9.56484e-14
9.55715e-14
9.5504e-14
9.54459e-14
9.5397e-14
9.53573e-14
9.53263e-14
9.53037e-14
9.52891e-14
9.52821e-14
9.73307e-14
9.72683e-14
9.7181e-14
9.70737e-14
9.69507e-14
9.68159e-14
9.66729e-14
9.65248e-14
9.63745e-14
9.62244e-14
9.60768e-14
9.59335e-14
9.5796e-14
9.56658e-14
9.55438e-14
9.54309e-14
9.53276e-14
9.52343e-14
9.51513e-14
9.50787e-14
9.50163e-14
9.4964e-14
9.49215e-14
9.48884e-14
9.48643e-14
9.48488e-14
9.48413e-14
9.68932e-14
9.68247e-14
9.67289e-14
9.66116e-14
9.64774e-14
9.63308e-14
9.61758e-14
9.60157e-14
9.58537e-14
9.56925e-14
9.55343e-14
9.53812e-14
9.52348e-14
9.50963e-14
9.4967e-14
9.48475e-14
9.47384e-14
9.46401e-14
9.45528e-14
9.44765e-14
9.4411e-14
9.43563e-14
9.43118e-14
9.42772e-14
9.42521e-14
9.42359e-14
9.42281e-14
9.62628e-14
9.61897e-14
9.60878e-14
9.5963e-14
9.58206e-14
9.56654e-14
9.55015e-14
9.53327e-14
9.51623e-14
9.49929e-14
9.48272e-14
9.4667e-14
9.45141e-14
9.43698e-14
9.42352e-14
9.4111e-14
9.39978e-14
9.3896e-14
9.38057e-14
9.37268e-14
9.36593e-14
9.36028e-14
9.3557e-14
9.35214e-14
9.34956e-14
9.34789e-14
9.34709e-14
9.54744e-14
9.5398e-14
9.52916e-14
9.51614e-14
9.50131e-14
9.48517e-14
9.46815e-14
9.45064e-14
9.43299e-14
9.41548e-14
9.39836e-14
9.38185e-14
9.36611e-14
9.35127e-14
9.33745e-14
9.32471e-14
9.31312e-14
9.3027e-14
9.29346e-14
9.2854e-14
9.27851e-14
9.27275e-14
9.26808e-14
9.26446e-14
9.26183e-14
9.26014e-14
9.25933e-14
9.45563e-14
9.44776e-14
9.43679e-14
9.42339e-14
9.40814e-14
9.39156e-14
9.3741e-14
9.35615e-14
9.33808e-14
9.32018e-14
9.3027e-14
9.28586e-14
9.26981e-14
9.25471e-14
9.24065e-14
9.22771e-14
9.21594e-14
9.20537e-14
9.196e-14
9.18784e-14
9.18087e-14
9.17504e-14
9.17032e-14
9.16666e-14
9.16401e-14
9.1623e-14
9.16148e-14
9.35313e-14
9.34509e-14
9.33391e-14
9.32025e-14
9.30472e-14
9.28784e-14
9.27008e-14
9.25186e-14
9.23351e-14
9.21536e-14
9.19765e-14
9.1806e-14
9.16437e-14
9.14911e-14
9.13491e-14
9.12185e-14
9.10999e-14
9.09934e-14
9.08991e-14
9.0817e-14
9.07468e-14
9.06882e-14
9.06408e-14
9.06041e-14
9.05774e-14
9.05603e-14
9.05521e-14
9.2418e-14
9.23367e-14
9.22234e-14
9.20852e-14
9.19281e-14
9.17575e-14
9.15782e-14
9.13943e-14
9.12093e-14
9.10264e-14
9.0848e-14
9.06764e-14
9.05133e-14
9.03599e-14
9.02173e-14
9.00863e-14
8.99673e-14
8.98605e-14
8.9766e-14
8.96838e-14
8.96136e-14
8.9555e-14
8.95075e-14
8.94708e-14
8.94442e-14
8.94271e-14
8.94189e-14
9.1232e-14
9.115e-14
9.1036e-14
9.08969e-14
9.07389e-14
9.05674e-14
9.03873e-14
9.02026e-14
9.0017e-14
8.98335e-14
8.96548e-14
8.94829e-14
8.93196e-14
8.91662e-14
8.90236e-14
8.88926e-14
8.87737e-14
8.86671e-14
8.85729e-14
8.84909e-14
8.84208e-14
8.83624e-14
8.83152e-14
8.82786e-14
8.82521e-14
8.82351e-14
8.82269e-14
8.99857e-14
8.99035e-14
8.97893e-14
8.96499e-14
8.94917e-14
8.932e-14
8.91397e-14
8.8955e-14
8.87695e-14
8.85862e-14
8.84078e-14
8.82362e-14
8.80733e-14
8.79203e-14
8.77783e-14
8.76478e-14
8.75295e-14
8.74234e-14
8.73296e-14
8.7248e-14
8.71784e-14
8.71204e-14
8.70734e-14
8.70371e-14
8.70108e-14
8.69939e-14
8.69858e-14
8.86897e-14
8.86076e-14
8.84935e-14
8.83543e-14
8.81964e-14
8.80251e-14
8.78453e-14
8.76611e-14
8.74763e-14
8.72937e-14
8.7116e-14
8.69454e-14
8.67833e-14
8.66312e-14
8.649e-14
8.63604e-14
8.62428e-14
8.61375e-14
8.60444e-14
8.59635e-14
8.58945e-14
8.58369e-14
8.57904e-14
8.57544e-14
8.57284e-14
8.57116e-14
8.57036e-14
8.73525e-14
8.72707e-14
8.7157e-14
8.70185e-14
8.68612e-14
8.66907e-14
8.65118e-14
8.63287e-14
8.61449e-14
8.59635e-14
8.5787e-14
8.56175e-14
8.54567e-14
8.53057e-14
8.51657e-14
8.50372e-14
8.49207e-14
8.48163e-14
8.47241e-14
8.4644e-14
8.45756e-14
8.45187e-14
8.44727e-14
8.44371e-14
8.44113e-14
8.43948e-14
8.43868e-14
8.5981e-14
8.58997e-14
8.57866e-14
8.56489e-14
8.54927e-14
8.53233e-14
8.51457e-14
8.49639e-14
8.47815e-14
8.46016e-14
8.44266e-14
8.42585e-14
8.40991e-14
8.39496e-14
8.38109e-14
8.36837e-14
8.35684e-14
8.34651e-14
8.3374e-14
8.32947e-14
8.32271e-14
8.31708e-14
8.31254e-14
8.30902e-14
8.30648e-14
8.30484e-14
8.30406e-14
8.45805e-14
8.44998e-14
8.43876e-14
8.42509e-14
8.40959e-14
8.39279e-14
8.37518e-14
8.35715e-14
8.33908e-14
8.32125e-14
8.30392e-14
8.28728e-14
8.27151e-14
8.25671e-14
8.24299e-14
8.23041e-14
8.21901e-14
8.2088e-14
8.19979e-14
8.19196e-14
8.18529e-14
8.17973e-14
8.17524e-14
8.17177e-14
8.16926e-14
8.16765e-14
8.16687e-14
8.3155e-14
8.3075e-14
8.29637e-14
8.28282e-14
8.26746e-14
8.25081e-14
8.23336e-14
8.21551e-14
8.19762e-14
8.17997e-14
8.16282e-14
8.14636e-14
8.13075e-14
8.11612e-14
8.10256e-14
8.09012e-14
8.07886e-14
8.06877e-14
8.05987e-14
8.05214e-14
8.04555e-14
8.04007e-14
8.03564e-14
8.03221e-14
8.02974e-14
8.02815e-14
8.02738e-14
8.17073e-14
8.16279e-14
8.15177e-14
8.13835e-14
8.12312e-14
8.10664e-14
8.08936e-14
8.07169e-14
8.05397e-14
8.03651e-14
8.01954e-14
8.00326e-14
7.98782e-14
7.97336e-14
7.95995e-14
7.94767e-14
7.93653e-14
7.92657e-14
7.91779e-14
7.91015e-14
7.90365e-14
7.89824e-14
7.89386e-14
7.89048e-14
7.88804e-14
7.88647e-14
7.88572e-14
8.02386e-14
8.016e-14
8.00507e-14
7.99177e-14
7.97669e-14
7.96037e-14
7.94325e-14
7.92576e-14
7.90822e-14
7.89094e-14
7.87415e-14
7.85804e-14
7.84278e-14
7.82847e-14
7.81522e-14
7.80307e-14
7.79207e-14
7.78223e-14
7.77355e-14
7.76601e-14
7.75958e-14
7.75424e-14
7.74992e-14
7.74659e-14
7.74418e-14
7.74263e-14
7.74189e-14
7.8749e-14
7.86711e-14
7.85628e-14
7.8431e-14
7.82815e-14
7.81197e-14
7.79501e-14
7.77768e-14
7.76031e-14
7.7432e-14
7.72657e-14
7.71063e-14
7.69552e-14
7.68136e-14
7.66825e-14
7.65623e-14
7.64535e-14
7.63562e-14
7.62703e-14
7.61958e-14
7.61323e-14
7.60795e-14
7.60368e-14
7.60039e-14
7.59801e-14
7.59648e-14
7.59575e-14
7.72372e-14
7.71599e-14
7.70524e-14
7.69216e-14
7.67733e-14
7.66128e-14
7.64446e-14
7.62727e-14
7.61005e-14
7.59308e-14
7.5766e-14
7.56079e-14
7.54582e-14
7.53179e-14
7.5188e-14
7.5069e-14
7.49612e-14
7.48648e-14
7.47798e-14
7.4706e-14
7.46432e-14
7.45909e-14
7.45487e-14
7.45161e-14
7.44925e-14
7.44774e-14
7.44702e-14
7.57003e-14
7.56235e-14
7.55167e-14
7.53867e-14
7.52393e-14
7.50798e-14
7.49127e-14
7.47419e-14
7.45708e-14
7.44023e-14
7.42386e-14
7.40817e-14
7.3933e-14
7.37937e-14
7.36648e-14
7.35466e-14
7.34397e-14
7.3344e-14
7.32597e-14
7.31865e-14
7.31242e-14
7.30723e-14
7.30305e-14
7.29981e-14
7.29748e-14
7.29598e-14
7.29526e-14
7.41339e-14
7.40574e-14
7.3951e-14
7.38215e-14
7.36747e-14
7.35159e-14
7.33494e-14
7.31794e-14
7.3009e-14
7.28412e-14
7.26782e-14
7.2522e-14
7.2374e-14
7.22354e-14
7.2107e-14
7.19895e-14
7.1883e-14
7.17879e-14
7.1704e-14
7.16312e-14
7.15692e-14
7.15176e-14
7.1476e-14
7.14438e-14
7.14206e-14
7.14057e-14
7.13986e-14
7.25318e-14
7.24553e-14
7.2349e-14
7.22196e-14
7.2073e-14
7.19143e-14
7.17481e-14
7.15782e-14
7.1408e-14
7.12404e-14
7.10776e-14
7.09216e-14
7.07738e-14
7.06353e-14
7.05072e-14
7.03898e-14
7.02835e-14
7.01885e-14
7.01048e-14
7.00321e-14
6.99702e-14
6.99187e-14
6.98772e-14
6.98451e-14
6.98219e-14
6.98071e-14
6.97999e-14
7.08858e-14
7.0809e-14
7.07025e-14
7.05727e-14
7.04257e-14
7.02666e-14
7.00998e-14
6.99295e-14
6.97588e-14
6.95907e-14
6.94275e-14
6.9271e-14
6.91228e-14
6.8984e-14
6.88554e-14
6.87377e-14
6.86312e-14
6.85359e-14
6.84519e-14
6.83791e-14
6.8317e-14
6.82654e-14
6.82238e-14
6.81917e-14
6.81684e-14
6.81535e-14
6.81464e-14
6.91855e-14
6.91083e-14
6.90009e-14
6.88702e-14
6.87221e-14
6.85617e-14
6.83938e-14
6.82221e-14
6.80501e-14
6.78807e-14
6.77162e-14
6.75586e-14
6.74092e-14
6.72693e-14
6.71398e-14
6.70211e-14
6.69138e-14
6.68178e-14
6.67332e-14
6.66597e-14
6.65972e-14
6.65452e-14
6.65033e-14
6.64709e-14
6.64475e-14
6.64325e-14
6.64253e-14
6.74185e-14
6.73402e-14
6.72314e-14
6.70991e-14
6.6949e-14
6.67866e-14
6.66164e-14
6.64425e-14
6.62683e-14
6.60966e-14
6.59299e-14
6.57701e-14
6.56187e-14
6.54769e-14
6.53456e-14
6.52254e-14
6.51165e-14
6.50192e-14
6.49334e-14
6.4859e-14
6.47956e-14
6.47429e-14
6.47004e-14
6.46676e-14
6.46439e-14
6.46287e-14
6.46214e-14
6.55693e-14
6.54896e-14
6.53788e-14
6.52439e-14
6.50909e-14
6.49254e-14
6.47519e-14
6.45746e-14
6.43969e-14
6.42218e-14
6.40518e-14
6.38888e-14
6.37344e-14
6.35897e-14
6.34557e-14
6.3333e-14
6.3222e-14
6.31227e-14
6.30351e-14
6.29592e-14
6.28945e-14
6.28407e-14
6.27973e-14
6.27638e-14
6.27396e-14
6.27241e-14
6.27166e-14
6.36203e-14
6.35385e-14
6.34248e-14
6.32864e-14
6.31294e-14
6.29595e-14
6.27814e-14
6.25994e-14
6.2417e-14
6.22372e-14
6.20625e-14
6.18951e-14
6.17364e-14
6.15878e-14
6.14501e-14
6.1324e-14
6.12098e-14
6.11078e-14
6.10178e-14
6.09397e-14
6.08732e-14
6.08179e-14
6.07733e-14
6.07389e-14
6.0714e-14
6.0698e-14
6.06904e-14
6.15509e-14
6.14663e-14
6.13488e-14
6.12058e-14
6.10436e-14
6.08679e-14
6.06837e-14
6.04955e-14
6.03068e-14
6.01208e-14
5.994e-14
5.97667e-14
5.96025e-14
5.94486e-14
5.93061e-14
5.91755e-14
5.90573e-14
5.89516e-14
5.88584e-14
5.87775e-14
5.87086e-14
5.86514e-14
5.86052e-14
5.85695e-14
5.85437e-14
5.85272e-14
5.85193e-14
5.9338e-14
5.925e-14
5.91277e-14
5.89787e-14
5.88098e-14
5.86268e-14
5.8435e-14
5.82388e-14
5.80422e-14
5.78483e-14
5.76599e-14
5.74792e-14
5.73079e-14
5.71475e-14
5.69988e-14
5.68626e-14
5.67392e-14
5.66289e-14
5.65316e-14
5.64472e-14
5.63754e-14
5.63156e-14
5.62674e-14
5.62301e-14
5.62032e-14
5.6186e-14
5.61777e-14
5.69566e-14
5.68643e-14
5.67361e-14
5.65799e-14
5.64027e-14
5.62108e-14
5.60095e-14
5.58037e-14
5.55973e-14
5.53938e-14
5.5196e-14
5.50062e-14
5.48264e-14
5.46578e-14
5.45016e-14
5.43585e-14
5.42289e-14
5.4113e-14
5.40108e-14
5.39221e-14
5.38465e-14
5.37837e-14
5.3733e-14
5.36939e-14
5.36656e-14
5.36475e-14
5.36388e-14
5.43805e-14
5.42831e-14
5.41478e-14
5.39829e-14
5.37959e-14
5.35933e-14
5.33808e-14
5.31635e-14
5.29455e-14
5.27305e-14
5.25216e-14
5.23211e-14
5.21311e-14
5.19529e-14
5.17878e-14
5.16366e-14
5.14996e-14
5.13771e-14
5.1269e-14
5.11753e-14
5.10954e-14
5.1029e-14
5.09754e-14
5.09341e-14
5.09042e-14
5.0885e-14
5.08759e-14
5.15836e-14
5.14804e-14
5.13368e-14
5.1162e-14
5.09636e-14
5.07487e-14
5.05232e-14
5.02926e-14
5.00613e-14
4.98331e-14
4.96114e-14
4.93986e-14
4.91968e-14
4.90078e-14
4.88325e-14
4.86719e-14
4.85265e-14
4.83965e-14
4.82818e-14
4.81823e-14
4.80975e-14
4.8027e-14
4.79702e-14
4.79263e-14
4.78946e-14
4.78742e-14
4.78645e-14
4.85428e-14
4.84329e-14
4.82802e-14
4.80942e-14
4.78831e-14
4.76544e-14
4.74145e-14
4.71691e-14
4.69229e-14
4.66802e-14
4.64442e-14
4.62178e-14
4.60032e-14
4.5802e-14
4.56156e-14
4.54448e-14
4.52901e-14
4.51518e-14
4.50298e-14
4.4924e-14
4.48339e-14
4.4759e-14
4.46985e-14
4.46519e-14
4.46182e-14
4.45966e-14
4.45863e-14
4.52406e-14
4.51236e-14
4.49611e-14
4.4763e-14
4.45383e-14
4.42949e-14
4.40396e-14
4.37784e-14
4.35165e-14
4.32583e-14
4.30073e-14
4.27665e-14
4.25383e-14
4.23244e-14
4.21262e-14
4.19447e-14
4.17803e-14
4.16334e-14
4.15039e-14
4.13915e-14
4.12958e-14
4.12163e-14
4.11522e-14
4.11027e-14
4.10669e-14
4.1044e-14
4.10331e-14
4.16702e-14
4.1546e-14
4.13734e-14
4.11631e-14
4.09246e-14
4.06663e-14
4.03954e-14
4.01184e-14
3.98408e-14
3.9567e-14
3.93011e-14
3.9046e-14
3.88043e-14
3.85779e-14
3.83682e-14
3.81761e-14
3.80023e-14
3.7847e-14
3.77101e-14
3.75914e-14
3.74903e-14
3.74064e-14
3.73387e-14
3.72865e-14
3.72488e-14
3.72247e-14
3.72131e-14
3.78407e-14
3.77096e-14
3.75275e-14
3.73057e-14
3.70543e-14
3.67821e-14
3.64968e-14
3.62052e-14
3.5913e-14
3.56251e-14
3.53455e-14
3.50776e-14
3.48238e-14
3.45861e-14
3.43662e-14
3.41648e-14
3.39827e-14
3.382e-14
3.36767e-14
3.35525e-14
3.34469e-14
3.33591e-14
3.32884e-14
3.32339e-14
3.31946e-14
3.31694e-14
3.31574e-14
3.37832e-14
3.36464e-14
3.34564e-14
3.32252e-14
3.29632e-14
3.26797e-14
3.23828e-14
3.20795e-14
3.17758e-14
3.14769e-14
3.11868e-14
3.09089e-14
3.06459e-14
3.03999e-14
3.01724e-14
2.99643e-14
2.97761e-14
2.96082e-14
2.94605e-14
2.93325e-14
2.92237e-14
2.91334e-14
2.90607e-14
2.90046e-14
2.89643e-14
2.89384e-14
2.89261e-14
2.95568e-14
2.94164e-14
2.92215e-14
2.89844e-14
2.87159e-14
2.84257e-14
2.8122e-14
2.78121e-14
2.75021e-14
2.71972e-14
2.69017e-14
2.6619e-14
2.63517e-14
2.6102e-14
2.58712e-14
2.56603e-14
2.54699e-14
2.53002e-14
2.51509e-14
2.50218e-14
2.49121e-14
2.48211e-14
2.4748e-14
2.46917e-14
2.46511e-14
2.46252e-14
2.46128e-14
2.52522e-14
2.51112e-14
2.49156e-14
2.4678e-14
2.44091e-14
2.41188e-14
2.38154e-14
2.35062e-14
2.31974e-14
2.28941e-14
2.26005e-14
2.232e-14
2.20552e-14
2.18081e-14
2.15801e-14
2.13721e-14
2.11846e-14
2.10176e-14
2.0871e-14
2.07442e-14
2.06368e-14
2.05478e-14
2.04763e-14
2.04213e-14
2.03818e-14
2.03566e-14
2.03445e-14
2.09905e-14
2.0853e-14
2.06624e-14
2.04311e-14
2.01697e-14
1.98879e-14
1.95939e-14
1.92947e-14
1.89965e-14
1.87041e-14
1.84216e-14
1.81522e-14
1.78984e-14
1.7662e-14
1.74443e-14
1.7246e-14
1.70675e-14
1.69089e-14
1.67698e-14
1.66499e-14
1.65483e-14
1.64644e-14
1.6397e-14
1.63454e-14
1.63083e-14
1.62846e-14
1.62733e-14
1.69163e-14
1.67869e-14
1.66078e-14
1.63907e-14
1.61459e-14
1.58824e-14
1.5608e-14
1.53294e-14
1.50524e-14
1.47813e-14
1.45201e-14
1.42716e-14
1.4038e-14
1.3821e-14
1.36216e-14
1.34404e-14
1.32777e-14
1.31334e-14
1.30073e-14
1.28987e-14
1.28069e-14
1.27313e-14
1.26707e-14
1.26244e-14
1.25912e-14
1.257e-14
1.256e-14
1.3181e-14
1.30646e-14
1.29036e-14
1.27087e-14
1.24894e-14
1.22539e-14
1.20094e-14
1.17618e-14
1.15162e-14
1.12767e-14
1.10465e-14
1.08281e-14
1.06236e-14
1.0434e-14
1.02604e-14
1.01031e-14
9.96237e-15
9.83791e-15
9.7294e-15
9.63629e-15
9.55789e-15
9.49341e-15
9.44198e-15
9.40271e-15
9.37466e-15
9.35688e-15
9.34845e-15
9.92115e-15
9.82164e-15
9.68428e-15
9.5184e-15
9.33219e-15
9.1328e-15
8.92637e-15
8.71806e-15
8.51215e-15
8.31205e-15
8.12047e-15
7.93944e-15
7.77046e-15
7.61452e-15
7.47224e-15
7.34387e-15
7.22942e-15
7.12865e-15