/*--------------------------------*- C++ -*----------------------------------*\
| =========                 |                                                 |
| \\      /  F ield         | OpenFOAM: The Open Source CFD Toolbox           |
|  \\    /   O peration     | Version:  2106                                  |
|   \\  /    A nd           | Website:  www.openfoam.com                      |
|    \\/     M anipulation  |                                                 |
\*---------------------------------------------------------------------------*/
FoamFile
{
    version     2.0;
    format      ascii;
    arch        "LSB;label=32;scalar=64";
    class       volScalarField;
    location    "110.00000";
    object      CH3COCH3_0;
}
// * * * * * * * * * * * * * * * * * * * * * * * * * * * * * * * * * * * * * //

dimensions      [0 0 0 0 0 0 0];

internalField   nonuniform List<scalar> 
3360
(
0.0136842
0.0136842
0.0136842
0.0136842
0.0136842
0.0136842
0.0136842
0.0136842
0.0136842
0.0136842
0.0136842
0.0136842
0.0136842
0.0136842
0.0136842
0.0136842
0.0136842
0.0136842
0.0136842
0.0136842
0.0136842
0.0136842
0.0136842
0.0136842
0.0136842
0.0136842
0.0136842
0.0136842
0.0136842
0.0136842
0.0136842
0.0136842
0.0136842
0.0136842
0.0136842
0.0136842
0.0136842
0.0136842
0.0136842
0.0136842
0.0136842
0.0136842
0.0136842
0.0136842
0.0136842
0.0136842
0.0136842
0.0136842
0.0136842
0.0136842
0.0136842
0.0136842
0.0136842
0.0136842
0.0136842
0.0136842
0.0136842
0.0136842
0.0136842
0.0136842
0.0136842
0.0136842
0.0136842
0.0136842
0.0136842
0.0136842
0.0136842
0.0136842
0.0136842
0.0136842
0.0136842
0.0136842
0.0136842
0.0136842
0.0136842
0.0136842
0.0136842
0.0136842
0.0136842
0.0136842
0.0136842
0.0136842
0.0136842
0.0136842
0.0136842
0.0136842
0.0136842
0.0136842
0.0136842
0.0136842
0.0136842
0.0136842
0.0136842
0.0136842
0.0136842
0.0136842
0.0136842
0.0136842
0.0136842
0.0136842
0.0136842
0.0136842
0.0136842
0.0136842
0.0136842
0.0136842
0.0136842
0.0136842
0.0136842
0.0136842
0.0136842
0.0136842
0.0136842
0.0136842
0.0136842
0.0136842
0.0136842
0.0136842
0.0136842
0.0136842
0.0136842
0.0136842
0.0136842
0.0136842
0.0136842
0.0136842
0.0136842
0.0136842
0.0136842
0.0136842
0.0136842
0.0136842
0.0136842
0.0136842
0.0136842
0.0136842
0.0136842
0.0136842
0.0136842
0.0136842
0.0136842
0.0136842
0.0136842
0.0136842
0.0136842
0.0136842
0.0136842
0.0136842
0.0136842
0.0136842
0.0136842
0.0136842
0.0136842
0.0136842
0.0136842
0.0136842
0.0136842
0.0136842
0.0136842
0.0136842
0.0136842
0.0136842
0.0136842
0.0136842
0.0136842
0.0136842
0.0136842
0.0136842
0.0136842
0.0136842
0.0136842
0.0136842
0.0136842
0.0136842
0.0136842
0.0136842
0.0136842
0.0136842
0.0136842
0.0136842
0.0136842
0.0136842
0.0136842
0.0136842
0.0136842
0.0136842
0.0136842
0.0136842
0.0136842
0.0136842
0.0136842
0.0136842
0.0136842
0.0136842
0.0136842
0.0136842
0.0136842
0.0136842
0.0136842
0.0136842
0.0136842
0.0136842
0.0136842
0.0136842
0.0136842
0.0136842
0.0136842
0.0136842
0.0136842
0.0136842
0.0136842
0.0136842
0.0136842
0.0136842
0.0136842
0.0136842
0.0136842
0.0136842
0.0136842
0.0136842
0.0136842
0.0136842
0.0136842
0.0136842
0.0136842
0.0136842
0.0136842
0.0136842
0.0136842
0.0136842
0.0136842
0.0136842
0.0136842
0.0136842
0.0136842
0.0136842
0.0136842
0.0136842
0.0136842
0.0136842
0.0136842
0.0136842
0.0136842
0.0136842
0.0136842
0.0136842
0.0136842
0.0136842
0.0136842
0.0136842
0.0136842
0.0136842
0.0136842
0.0136842
0.0136842
0.0136842
0.0136842
0.0136842
0.0136842
0.0136842
0.0136842
0.0136842
0.0136842
0.0136842
0.0136842
0.0136842
0.0136842
0.0136842
0.0136842
0.0136842
0.0136842
0.0136842
0.0136842
0.0136842
0.0136842
0.0136842
0.0136842
0.0136842
0.0136842
0.0136842
0.0136842
0.0136842
0.0136842
0.0136842
0.0136842
0.0136842
0.0136842
0.0136842
0.0136842
0.0136842
0.0136842
0.0136842
0.0136842
0.0136842
0.0136842
0.0136842
0.0136842
0.0136842
0.0136842
0.0136842
0.0136842
0.0136842
0.0136842
0.0136842
0.0136842
0.0136842
0.0136842
0.0136842
0.0136842
0.0136842
0.0136842
0.0136842
0.0136842
0.0136842
0.0136842
0.0136842
0.0136842
0.0136842
0.0136842
0.0136842
0.0136842
0.0136842
0.0136842
0.0136842
0.0136842
0.0136842
0.0136842
0.0136842
0.0136842
0.0136842
0.0136842
0.0136842
0.0136842
0.0136842
0.0136842
0.0136842
0.0136842
0.0136842
0.0136842
0.0136842
0.0136842
0.0136842
0.0136842
0.0136842
0.0136842
0.0136842
0.0136842
0.0136842
0.0136842
0.0136842
0.0136842
0.0136842
0.0136842
0.0136842
0.0136842
0.0136842
0.0136842
0.0136842
0.0136842
0.0136842
0.0136842
0.0136842
0.0136842
0.0136842
0.0136842
0.0136842
0.0136842
0.0136842
0.0136842
0.0136842
0.0136842
0.0136842
0.0136842
0.0136842
0.0136842
0.0136842
0.0136842
0.0136842
0.0136842
0.0136842
0.0136842
0.0136842
0.0136842
0.0136842
0.0136842
0.0136842
0.0136842
0.0136842
0.0136842
0.0136842
0.0136842
0.0136842
0.0136842
0.0136842
0.0136842
0.0136842
0.0136842
0.0136842
0.0136842
0.0136842
0.0136842
0.0136842
0.0136842
0.0136842
0.0136842
0.0136842
0.0136842
0.0136842
0.0136842
0.0136842
0.0136842
0.0136842
0.0136842
0.0136842
0.0136842
0.0136842
0.0136842
0.0136842
0.0136842
0.0136842
0.0136842
0.0136842
0.0136842
0.0136842
0.0136842
0.0136842
0.0136842
0.0136842
0.0136842
0.0136842
0.0136842
0.0136842
0.0136842
0.0136842
0.0136842
0.0136842
0.0136842
0.0136842
0.0136842
0.0136842
0.0136842
0.0136842
0.0136842
0.0136842
0.0136842
0.0136842
0.0136842
0.0136842
0.0136842
0.0136842
0.0136842
0.0136842
0.0136842
0.0136842
0.0136842
0.0136842
0.0136842
0.0136842
0.0136842
0.0136842
0.0136842
0.0136842
0.0136842
0.0136842
0.0136842
0.0136842
0.0136842
0.0136842
0.0136842
0.0136842
0.0136842
0.0136842
0.0136842
0.0136842
0.0136842
0.0136842
0.0136842
0.0136842
0.0136842
0.0136842
0.0136842
0.0136842
0.0136842
0.0136842
0.0136842
0.0136842
0.0136842
0.0136842
0.0136842
0.0136842
0.0136842
0.0136842
0.0136842
0.0136842
0.0136842
0.0136842
0.0136842
0.0136842
0.0136842
0.0136842
0.0136842
0.0136842
0.0136841
0.0136841
0.0136841
0.0136841
0.0136841
0.0136841
0.0136841
0.0136841
0.0136841
0.0136841
0.0136841
0.0136842
0.0136842
0.0136841
0.0136841
0.0136841
0.0136841
0.0136841
0.0136841
0.0136841
0.0136841
0.0136841
0.0136841
0.0136841
0.0136841
0.0136841
0.0136841
0.0136841
0.0136841
0.0136841
0.0136841
0.013684
0.013684
0.013684
0.013684
0.013684
0.013684
0.013684
0.0136841
0.0136841
0.0136841
0.013684
0.013684
0.013684
0.013684
0.013684
0.013684
0.013684
0.0136839
0.0136839
0.0136839
0.0136839
0.0136839
0.0136839
0.0136838
0.0136838
0.0136838
0.0136838
0.0136838
0.0136838
0.0136838
0.0136838
0.0136838
0.0136838
0.0136838
0.0136839
0.0136838
0.0136838
0.0136838
0.0136838
0.0136837
0.0136837
0.0136836
0.0136836
0.0136836
0.0136835
0.0136835
0.0136835
0.0136834
0.0136834
0.0136834
0.0136833
0.0136833
0.0136833
0.0136833
0.0136833
0.0136832
0.0136832
0.0136832
0.0136832
0.0136832
0.0136832
0.0136833
0.0136833
0.0136832
0.0136832
0.0136831
0.013683
0.0136829
0.0136828
0.0136828
0.0136827
0.0136826
0.0136825
0.0136824
0.0136823
0.0136823
0.0136822
0.0136821
0.0136821
0.013682
0.013682
0.013682
0.0136819
0.0136819
0.0136819
0.0136819
0.0136819
0.0136819
0.013682
0.0136819
0.0136818
0.0136817
0.0136815
0.0136814
0.0136812
0.013681
0.0136808
0.0136806
0.0136804
0.0136802
0.0136801
0.0136799
0.0136797
0.0136796
0.0136795
0.0136794
0.0136793
0.0136792
0.0136791
0.0136791
0.013679
0.013679
0.013679
0.0136789
0.0136789
0.013679
0.0136789
0.0136786
0.0136784
0.013678
0.0136777
0.0136773
0.0136769
0.0136765
0.0136761
0.0136757
0.0136753
0.013675
0.0136747
0.0136743
0.0136741
0.0136738
0.0136736
0.0136734
0.0136732
0.0136731
0.013673
0.0136729
0.0136728
0.0136727
0.0136727
0.0136727
0.0136726
0.0136722
0.0136717
0.0136712
0.0136705
0.0136698
0.013669
0.0136682
0.0136675
0.0136667
0.0136659
0.0136652
0.0136645
0.0136638
0.0136632
0.0136627
0.0136622
0.0136618
0.0136614
0.0136611
0.0136608
0.0136606
0.0136604
0.0136602
0.0136601
0.0136601
0.01366
0.0136591
0.0136584
0.0136575
0.0136564
0.0136551
0.0136538
0.0136523
0.0136508
0.0136493
0.0136479
0.0136464
0.013645
0.0136437
0.0136425
0.0136414
0.0136404
0.0136395
0.0136387
0.0136379
0.0136373
0.0136368
0.0136364
0.013636
0.0136358
0.0136356
0.0136355
0.0136354
0.0136326
0.0136314
0.0136297
0.0136276
0.0136253
0.0136228
0.0136201
0.0136174
0.0136147
0.013612
0.0136094
0.0136069
0.0136045
0.0136023
0.0136003
0.0135985
0.0135968
0.0135953
0.0135941
0.013593
0.013592
0.0135913
0.0135906
0.0135902
0.0135898
0.0135896
0.0135895
0.0135832
0.0135811
0.0135781
0.0135745
0.0135704
0.013566
0.0135613
0.0135565
0.0135517
0.013547
0.0135424
0.013538
0.0135338
0.01353
0.0135264
0.0135232
0.0135202
0.0135176
0.0135154
0.0135134
0.0135118
0.0135104
0.0135094
0.0135085
0.0135079
0.0135076
0.0135074
0.0134968
0.0134932
0.0134882
0.0134821
0.0134751
0.0134676
0.0134597
0.0134515
0.0134433
0.0134353
0.0134275
0.01342
0.0134129
0.0134062
0.0134001
0.0133945
0.0133895
0.0133851
0.0133812
0.0133778
0.0133749
0.0133726
0.0133707
0.0133693
0.0133682
0.0133676
0.0133673
0.0133557
0.0133499
0.0133419
0.013332
0.0133208
0.0133086
0.0132958
0.0132826
0.0132693
0.0132563
0.0132435
0.0132313
0.0132197
0.0132089
0.0131988
0.0131896
0.0131813
0.0131739
0.0131674
0.0131618
0.0131571
0.0131531
0.01315
0.0131476
0.0131458
0.0131447
0.0131442
0.0131426
0.013134
0.0131219
0.0131071
0.0130903
0.013072
0.0130527
0.0130329
0.0130131
0.0129934
0.0129742
0.0129558
0.0129384
0.0129221
0.0129069
0.0128931
0.0128805
0.0128694
0.0128595
0.012851
0.0128438
0.0128379
0.0128331
0.0128294
0.0128268
0.0128251
0.0128243
0.012847
0.0128352
0.0128186
0.0127984
0.0127754
0.0127505
0.0127243
0.0126975
0.0126706
0.012644
0.0126182
0.0125935
0.0125701
0.0125482
0.012528
0.0125096
0.0124929
0.0124781
0.0124651
0.0124539
0.0124444
0.0124365
0.0124302
0.0124254
0.0124219
0.0124197
0.0124187
0.0124705
0.0124558
0.0124353
0.0124104
0.0123822
0.0123516
0.0123197
0.0122871
0.0122545
0.0122225
0.0121916
0.012162
0.0121342
0.0121083
0.0120845
0.0120628
0.0120434
0.0120261
0.012011
0.011998
0.011987
0.011978
0.0119708
0.0119652
0.0119613
0.0119588
0.0119576
0.0120282
0.0120116
0.0119886
0.0119607
0.0119292
0.0118953
0.01186
0.0118241
0.0117884
0.0117536
0.01172
0.0116881
0.0116582
0.0116305
0.0116052
0.0115822
0.0115616
0.0115434
0.0115276
0.011514
0.0115026
0.0114932
0.0114857
0.01148
0.0114759
0.0114733
0.0114721
0.011544
0.0115268
0.011503
0.0114741
0.0114417
0.0114068
0.0113707
0.0113342
0.011298
0.0112628
0.011229
0.011197
0.0111672
0.0111396
0.0111145
0.0110918
0.0110715
0.0110536
0.0110381
0.0110248
0.0110137
0.0110045
0.0109972
0.0109917
0.0109877
0.0109852
0.010984
0.011043
0.0110261
0.0110028
0.0109747
0.0109431
0.0109093
0.0108743
0.010839
0.0108042
0.0107704
0.010738
0.0107075
0.0106791
0.0106529
0.010629
0.0106075
0.0105883
0.0105714
0.0105568
0.0105443
0.0105338
0.0105252
0.0105183
0.0105131
0.0105094
0.010507
0.0105059
0.0105452
0.0105293
0.0105074
0.010481
0.0104513
0.0104197
0.0103869
0.010354
0.0103214
0.0102899
0.0102598
0.0102314
0.010205
0.0101807
0.0101585
0.0101386
0.0101208
0.0101052
0.0100917
0.0100801
0.0100704
0.0100624
0.0100561
0.0100513
0.0100478
0.0100457
0.0100446
0.010064
0.0100494
0.0100292
0.0100048
0.00997756
0.00994841
0.0099183
0.00988799
0.00985811
0.00982915
0.0098015
0.00977544
0.00975117
0.00972883
0.00970849
0.00969017
0.00967386
0.00965951
0.00964706
0.00963642
0.00962749
0.00962017
0.00961434
0.00960991
0.00960674
0.00960473
0.00960378
0.00960651
0.00959313
0.00957469
0.00955244
0.00952752
0.00950088
0.00947336
0.00944566
0.00941834
0.00939185
0.00936655
0.0093427
0.00932048
0.00930001
0.00928137
0.00926457
0.00924961
0.00923644
0.009225
0.00921522
0.00920702
0.00920028
0.00919492
0.00919084
0.00918792
0.00918607
0.0091852
0.00917548
0.00916328
0.00914645
0.00912614
0.00910338
0.00907904
0.00905389
0.00902855
0.00900355
0.0089793
0.00895612
0.00893426
0.00891387
0.00889509
0.00887797
0.00886253
0.00884877
0.00883665
0.00882613
0.00881712
0.00880955
0.00880335
0.0087984
0.00879463
0.00879194
0.00879023
0.00878942
0.0087712
0.00876003
0.00874462
0.00872603
0.00870517
0.00868286
0.00865979
0.00863653
0.00861357
0.00859129
0.00856997
0.00854985
0.00853108
0.00851378
0.00849799
0.00848375
0.00847105
0.00845986
0.00845013
0.0084418
0.00843481
0.00842906
0.00842448
0.00842099
0.0084185
0.00841691
0.00841616
0.00839258
0.00838231
0.00836813
0.00835102
0.00833181
0.00831126
0.00829
0.00826855
0.00824736
0.00822678
0.00820709
0.00818849
0.00817113
0.00815511
0.0081405
0.0081273
0.00811553
0.00810515
0.00809613
0.0080884
0.0080819
0.00807657
0.00807231
0.00806907
0.00806675
0.00806528
0.00806458
0.00803791
0.00802842
0.00801531
0.00799948
0.00798171
0.00796268
0.00794298
0.00792311
0.00790346
0.00788437
0.00786609
0.00784882
0.00783269
0.0078178
0.00780421
0.00779194
0.00778098
0.00777132
0.00776291
0.00775571
0.00774966
0.00774468
0.00774072
0.00773769
0.00773553
0.00773416
0.0077335
0.00770534
0.00769652
0.00768434
0.00766962
0.00765309
0.00763539
0.00761706
0.00759856
0.00758026
0.00756247
0.00754543
0.00752933
0.00751428
0.00750039
0.0074877
0.00747624
0.00746601
0.00745698
0.00744912
0.00744239
0.00743673
0.00743208
0.00742837
0.00742554
0.00742351
0.00742223
0.00742162
0.007393
0.00738477
0.0073734
0.00735966
0.00734423
0.00732769
0.00731056
0.00729326
0.00727616
0.00725952
0.00724358
0.0072285
0.00721442
0.00720141
0.00718953
0.00717879
0.0071692
0.00716074
0.00715337
0.00714706
0.00714175
0.00713739
0.00713391
0.00713125
0.00712935
0.00712814
0.00712757
0.00709917
0.00709145
0.0070808
0.00706792
0.00705346
0.00703795
0.00702189
0.00700567
0.00698962
0.006974
0.00695904
0.00694489
0.00693166
0.00691944
0.00690828
0.00689819
0.00688917
0.00688122
0.0068743
0.00686836
0.00686337
0.00685927
0.00685599
0.00685349
0.00685171
0.00685057
0.00685003
0.00682224
0.00681499
0.00680498
0.00679287
0.00677927
0.0067647
0.00674959
0.00673432
0.00671922
0.00670453
0.00669044
0.00667712
0.00666467
0.00665316
0.00664264
0.00663314
0.00662464
0.00661715
0.00661062
0.00660503
0.00660033
0.00659646
0.00659337
0.00659102
0.00658933
0.00658826
0.00658775
0.00656081
0.00655398
0.00654454
0.00653313
0.00652031
0.00650656
0.00649231
0.00647792
0.00646367
0.00644981
0.00643652
0.00642395
0.00641219
0.00640133
0.0063914
0.00638243
0.00637441
0.00636733
0.00636117
0.00635589
0.00635144
0.00634779
0.00634487
0.00634265
0.00634105
0.00634004
0.00633956
0.0063136
0.00630714
0.00629822
0.00628744
0.00627533
0.00626234
0.00624887
0.00623526
0.00622179
0.00620869
0.00619612
0.00618423
0.00617312
0.00616284
0.00615345
0.00614496
0.00613737
0.00613068
0.00612485
0.00611985
0.00611564
0.00611218
0.00610942
0.00610732
0.00610581
0.00610485
0.0061044
0.00607946
0.00607335
0.00606491
0.0060547
0.00604323
0.00603093
0.00601818
0.00600529
0.00599253
0.00598012
0.00596821
0.00595695
0.00594641
0.00593668
0.00592778
0.00591973
0.00591254
0.0059062
0.00590067
0.00589593
0.00589194
0.00588866
0.00588605
0.00588405
0.00588262
0.00588172
0.00588128
0.00585739
0.00585159
0.00584359
0.00583391
0.00582302
0.00581136
0.00579926
0.00578703
0.00577493
0.00576315
0.00575185
0.00574116
0.00573117
0.00572193
0.00571348
0.00570584
0.00569902
0.00569299
0.00568775
0.00568325
0.00567946
0.00567635
0.00567387
0.00567197
0.00567061
0.00566975
0.00566934
0.00564647
0.00564097
0.00563336
0.00562417
0.00561383
0.00560274
0.00559125
0.00557963
0.00556813
0.00555694
0.0055462
0.00553604
0.00552654
0.00551776
0.00550973
0.00550247
0.00549598
0.00549025
0.00548527
0.00548099
0.00547739
0.00547443
0.00547207
0.00547027
0.00546898
0.00546816
0.00546777
0.0054459
0.00544066
0.00543343
0.00542468
0.00541484
0.0054043
0.00539336
0.00538231
0.00537137
0.00536072
0.0053505
0.00534083
0.00533179
0.00532343
0.00531579
0.00530888
0.0053027
0.00529725
0.0052925
0.00528843
0.00528501
0.00528219
0.00527994
0.00527822
0.005277
0.00527622
0.00527585
0.00525493
0.00524995
0.00524306
0.00523472
0.00522536
0.00521531
0.0052049
0.00519437
0.00518394
0.00517379
0.00516406
0.00515485
0.00514623
0.00513827
0.00513099
0.0051244
0.00511852
0.00511332
0.00510879
0.00510492
0.00510165
0.00509896
0.00509682
0.00509519
0.00509402
0.00509327
0.00509292
0.00507293
0.00506817
0.0050616
0.00505366
0.00504472
0.00503515
0.00502521
0.00501517
0.00500523
0.00499555
0.00498626
0.00497748
0.00496926
0.00496166
0.00495471
0.00494843
0.00494282
0.00493786
0.00493354
0.00492984
0.00492673
0.00492417
0.00492212
0.00492056
0.00491944
0.00491873
0.0049184
0.00489928
0.00489474
0.00488847
0.00488089
0.00487236
0.00486322
0.00485373
0.00484415
0.00483466
0.00482541
0.00481655
0.00480816
0.00480031
0.00479306
0.00478643
0.00478043
0.00477507
0.00477033
0.00476621
0.00476268
0.0047597
0.00475725
0.0047553
0.00475381
0.00475274
0.00475207
0.00475175
0.00473346
0.00472913
0.00472314
0.00471589
0.00470774
0.00469901
0.00468995
0.00468079
0.00467171
0.00466288
0.00465441
0.0046464
0.0046389
0.00463196
0.00462562
0.00461989
0.00461477
0.00461024
0.0046063
0.00460292
0.00460008
0.00459774
0.00459588
0.00459445
0.00459343
0.00459278
0.00459248
0.00457499
0.00457084
0.00456511
0.00455819
0.0045504
0.00454204
0.00453338
0.00452462
0.00451594
0.00450749
0.00449939
0.00449173
0.00448455
0.00447792
0.00447186
0.00446637
0.00446147
0.00445714
0.00445338
0.00445014
0.00444742
0.00444519
0.0044434
0.00444204
0.00444106
0.00444044
0.00444015
0.00442342
0.00441946
0.00441397
0.00440734
0.00439989
0.00439189
0.0043836
0.00437521
0.00436691
0.00435883
0.00435108
0.00434374
0.00433687
0.00433052
0.00432472
0.00431947
0.00431478
0.00431064
0.00430703
0.00430393
0.00430133
0.00429919
0.00429748
0.00429618
0.00429524
0.00429465
0.00429437
0.00427836
0.00427456
0.00426931
0.00426297
0.00425583
0.00424817
0.00424023
0.0042322
0.00422425
0.00421651
0.00420908
0.00420205
0.00419548
0.0041894
0.00418384
0.00417881
0.00417432
0.00417035
0.00416689
0.00416393
0.00416144
0.00415939
0.00415775
0.0041565
0.00415561
0.00415504
0.00415477
0.00413946
0.00413582
0.00413079
0.0041247
0.00411786
0.00411053
0.00410292
0.00409522
0.0040876
0.00408019
0.00407307
0.00406634
0.00406004
0.00405421
0.00404888
0.00404407
0.00403976
0.00403596
0.00403265
0.00402981
0.00402742
0.00402545
0.00402388
0.00402269
0.00402183
0.00402129
0.00402103
0.00400637
0.00400289
0.00399806
0.00399223
0.00398568
0.00397864
0.00397135
0.00396398
0.00395667
0.00394956
0.00394274
0.00393628
0.00393024
0.00392466
0.00391955
0.00391493
0.00391081
0.00390716
0.00390399
0.00390127
0.00389897
0.00389709
0.00389559
0.00389444
0.00389362
0.0038931
0.00389285
0.00387883
0.00387549
0.00387086
0.00386527
0.00385898
0.00385224
0.00384525
0.00383818
0.00383117
0.00382435
0.00381781
0.00381162
0.00380583
0.00380047
0.00379558
0.00379115
0.00378719
0.0037837
0.00378065
0.00377804
0.00377584
0.00377404
0.0037726
0.00377149
0.00377071
0.00377021
0.00376997
0.00375657
0.00375336
0.00374892
0.00374356
0.00373753
0.00373106
0.00372436
0.00371757
0.00371086
0.00370432
0.00369805
0.00369211
0.00368655
0.00368142
0.00367672
0.00367247
0.00366868
0.00366532
0.0036624
0.0036599
0.00365779
0.00365606
0.00365468
0.00365362
0.00365287
0.00365239
0.00365216
0.00363935
0.00363627
0.00363202
0.00362688
0.00362109
0.00361489
0.00360846
0.00360195
0.00359551
0.00358924
0.00358322
0.00357753
0.0035722
0.00356728
0.00356277
0.0035587
0.00355506
0.00355184
0.00354904
0.00354664
0.00354462
0.00354296
0.00354163
0.00354062
0.0035399
0.00353944
0.00353922
0.00352699
0.00352403
0.00351996
0.00351502
0.00350948
0.00350353
0.00349736
0.00349112
0.00348495
0.00347893
0.00347316
0.0034677
0.00346259
0.00345787
0.00345355
0.00344965
0.00344615
0.00344307
0.00344039
0.00343809
0.00343615
0.00343455
0.00343328
0.00343231
0.00343162
0.00343118
0.00343097
0.0034193
0.00341647
0.00341256
0.00340784
0.00340252
0.00339682
0.0033909
0.00338492
0.003379
0.00337324
0.00336771
0.00336247
0.00335758
0.00335305
0.00334891
0.00334517
0.00334182
0.00333887
0.00333629
0.00333409
0.00333223
0.0033307
0.00332949
0.00332855
0.00332789
0.00332747
0.00332727
0.00331616
0.00331345
0.0033097
0.00330517
0.00330008
0.00329462
0.00328895
0.00328322
0.00327755
0.00327203
0.00326673
0.00326172
0.00325703
0.00325269
0.00324873
0.00324514
0.00324194
0.00323911
0.00323665
0.00323453
0.00323275
0.00323129
0.00323013
0.00322923
0.0032286
0.00322819
0.003228
0.00321745
0.00321485
0.00321127
0.00320693
0.00320206
0.00319683
0.00319141
0.00318593
0.0031805
0.00317521
0.00317014
0.00316535
0.00316086
0.00315671
0.00315292
0.00314949
0.00314642
0.00314371
0.00314136
0.00313934
0.00313764
0.00313624
0.00313512
0.00313427
0.00313366
0.00313327
0.00313309
0.00312309
0.00312061
0.00311718
0.00311304
0.00310838
0.00310338
0.0030982
0.00309296
0.00308777
0.00308272
0.00307788
0.0030733
0.00306901
0.00306504
0.00306142
0.00305814
0.00305521
0.00305263
0.00305038
0.00304845
0.00304682
0.00304549
0.00304442
0.00304361
0.00304302
0.00304265
0.00304248
0.00303304
0.00303068
0.00302741
0.00302345
0.00301901
0.00301424
0.00300929
0.00300429
0.00299935
0.00299453
0.00298991
0.00298554
0.00298145
0.00297767
0.00297421
0.00297109
0.0029683
0.00296583
0.00296368
0.00296184
0.0029603
0.00295902
0.00295801
0.00295723
0.00295668
0.00295632
0.00295616
0.00294729
0.00294504
0.00294193
0.00293816
0.00293393
0.00292939
0.00292468
0.00291993
0.00291522
0.00291063
0.00290624
0.00290208
0.00289819
0.00289459
0.00289131
0.00288834
0.00288568
0.00288334
0.0028813
0.00287955
0.00287808
0.00287686
0.0028759
0.00287516
0.00287463
0.0028743
0.00287414
0.00286586
0.00286372
0.00286077
0.00285719
0.00285318
0.00284887
0.0028444
0.00283989
0.00283543
0.00283108
0.00282691
0.00282297
0.00281928
0.00281587
0.00281275
0.00280994
0.00280742
0.0028052
0.00280327
0.00280161
0.00280021
0.00279907
0.00279815
0.00279745
0.00279695
0.00279664
0.00279649
0.00278881
0.00278679
0.002784
0.00278062
0.00277682
0.00277275
0.00276853
0.00276426
0.00276004
0.00275594
0.002752
0.00274828
0.00274479
0.00274158
0.00273864
0.00273598
0.0027336
0.00273151
0.00272968
0.00272812
0.0027268
0.00272572
0.00272486
0.0027242
0.00272373
0.00272343
0.00272329
0.00271624
0.00271434
0.00271171
0.00270853
0.00270496
0.00270113
0.00269716
0.00269315
0.00268918
0.00268532
0.00268162
0.00267812
0.00267485
0.00267183
0.00266907
0.00266657
0.00266435
0.00266238
0.00266067
0.0026592
0.00265796
0.00265695
0.00265614
0.00265552
0.00265508
0.0026548
0.00265467
0.00264827
0.00264649
0.00264403
0.00264106
0.00263772
0.00263414
0.00263043
0.00262669
0.00262298
0.00261938
0.00261592
0.00261266
0.0026096
0.00260679
0.00260421
0.00260188
0.0025998
0.00259797
0.00259637
0.00259501
0.00259386
0.00259291
0.00259216
0.00259158
0.00259117
0.00259091
0.00259078
0.00258507
0.00258341
0.00258113
0.00257837
0.00257527
0.00257195
0.00256851
0.00256504
0.00256161
0.00255827
0.00255507
0.00255205
0.00254922
0.00254661
0.00254423
0.00254208
0.00254016
0.00253846
0.00253699
0.00253572
0.00253466
0.00253379
0.00253309
0.00253256
0.00253218
0.00253194
0.00253182
0.0025268
0.00252528
0.00252318
0.00252065
0.0025178
0.00251475
0.00251159
0.00250841
0.00250525
0.00250219
0.00249926
0.00249649
0.0024939
0.00249151
0.00248933
0.00248736
0.0024856
0.00248405
0.0024827
0.00248155
0.00248057
0.00247978
0.00247914
0.00247865
0.00247831
0.00247809
0.00247798
0.00247368
0.0024723
0.00247039
0.00246808
0.0024655
0.00246273
0.00245986
0.00245697
0.00245411
0.00245134
0.00244868
0.00244617
0.00244383
0.00244167
0.0024397
0.00243792
0.00243633
0.00243493
0.00243371
0.00243267
0.00243179
0.00243107
0.0024305
0.00243006
0.00242975
0.00242955
0.00242945
0.00242587
0.00242463
0.00242292
0.00242086
0.00241854
0.00241606
0.0024135
0.00241092
0.00240837
0.00240589
0.00240352
0.00240128
0.00239919
0.00239727
0.00239551
0.00239393
0.00239252
0.00239127
0.00239019
0.00238926
0.00238848
0.00238784
0.00238733
0.00238695
0.00238667
0.00238649
0.00238641
0.00238354
0.00238245
0.00238094
0.00237913
0.00237709
0.00237491
0.00237266
0.00237039
0.00236815
0.00236598
0.0023639
0.00236195
0.00236012
0.00235844
0.0023569
0.00235552
0.00235429
0.0023532
0.00235226
0.00235145
0.00235077
0.00235022
0.00234977
0.00234943
0.00234919
0.00234904
0.00234897
0.00234679
0.00234584
0.00234455
0.00234298
0.00234123
0.00233935
0.00233742
0.00233547
0.00233355
0.00233168
0.00232991
0.00232823
0.00232667
0.00232523
0.00232392
0.00232274
0.00232169
0.00232077
0.00231996
0.00231928
0.0023187
0.00231823
0.00231785
0.00231756
0.00231736
0.00231723
0.00231717
0.00231562
0.00231483
0.00231373
0.00231242
0.00231095
0.00230938
0.00230776
0.00230613
0.00230452
0.00230297
0.00230148
0.00230009
0.00229879
0.0022976
0.00229651
0.00229553
0.00229466
0.00229389
0.00229323
0.00229266
0.00229219
0.0022918
0.00229148
0.00229125
0.00229108
0.00229097
0.00229092
0.00228993
0.00228928
0.00228839
0.00228732
0.00228613
0.00228485
0.00228353
0.00228221
0.00228091
0.00227966
0.00227846
0.00227734
0.00227629
0.00227533
0.00227446
0.00227368
0.00227298
0.00227237
0.00227184
0.00227138
0.002271
0.00227069
0.00227044
0.00227026
0.00227012
0.00227004
0.00227
0.00226946
0.00226895
0.00226825
0.00226741
0.00226647
0.00226548
0.00226445
0.00226342
0.00226241
0.00226143
0.0022605
0.00225963
0.00225883
0.00225809
0.00225741
0.00225681
0.00225627
0.0022558
0.0022554
0.00225505
0.00225476
0.00225452
0.00225433
0.00225419
0.00225408
0.00225402
0.00225399
0.00225379
0.00225341
0.00225288
0.00225225
0.00225155
0.0022508
0.00225003
0.00224927
0.00224852
0.00224779
0.00224711
0.00224646
0.00224587
0.00224532
0.00224483
0.00224438
0.00224399
0.00224365
0.00224335
0.0022431
0.00224289
0.00224271
0.00224258
0.00224247
0.0022424
0.00224235
0.00224233
0.00224234
0.00224207
0.0022417
0.00224125
0.00224075
0.00224022
0.00223968
0.00223913
0.0022386
0.0022381
0.00223761
0.00223716
0.00223675
0.00223637
0.00223603
0.00223572
0.00223545
0.00223521
0.00223501
0.00223483
0.00223469
0.00223457
0.00223447
0.0022344
0.00223435
0.00223432
0.0022343
0.00223443
0.00223425
0.00223399
0.00223369
0.00223336
0.00223301
0.00223264
0.00223228
0.00223193
0.0022316
0.00223128
0.00223099
0.00223071
0.00223047
0.00223024
0.00223004
0.00222987
0.00222972
0.00222958
0.00222947
0.00222938
0.0022293
0.00222924
0.0022292
0.00222916
0.00222914
0.00222913
0.00222928
0.00222917
0.00222901
0.00222882
0.00222861
0.00222839
0.00222817
0.00222794
0.00222773
0.00222752
0.00222733
0.00222715
0.00222698
0.00222683
0.0022267
0.00222658
0.00222647
0.00222638
0.0022263
0.00222623
0.00222618
0.00222613
0.00222609
0.00222607
0.00222605
0.00222604
0.00222603
0.00222615
0.00222608
0.00222599
0.00222588
0.00222576
0.00222563
0.0022255
0.00222538
0.00222525
0.00222513
0.00222502
0.00222492
0.00222483
0.00222474
0.00222467
0.0022246
0.00222454
0.00222449
0.00222444
0.00222441
0.00222438
0.00222435
0.00222433
0.00222432
0.00222431
0.0022243
0.0022243
0.00222437
0.00222434
0.00222429
0.00222423
0.00222416
0.00222409
0.00222402
0.00222396
0.00222389
0.00222383
0.00222377
0.00222371
0.00222366
0.00222362
0.00222358
0.00222354
0.00222351
0.00222348
0.00222346
0.00222344
0.00222342
0.00222341
0.0022234
0.00222339
0.00222339
0.00222338
0.00222338
0.00222342
0.0022234
0.00222338
0.00222335
0.00222331
0.00222328
0.00222324
0.00222321
0.00222317
0.00222314
0.00222311
0.00222308
0.00222306
0.00222303
0.00222301
0.00222299
0.00222298
0.00222296
0.00222295
0.00222294
0.00222293
0.00222293
0.00222292
0.00222292
0.00222291
0.00222291
0.00222291
0.00222293
0.00222292
0.0022229
0.00222289
0.00222287
0.00222285
0.00222283
0.00222282
0.0022228
0.00222278
0.00222277
0.00222275
0.00222274
0.00222272
0.00222271
0.0022227
0.00222269
0.00222269
0.00222268
0.00222268
0.00222267
0.00222267
0.00222266
0.00222266
0.00222266
0.00222266
0.00222266
0.00222266
0.00222266
0.00222265
0.00222264
0.00222263
0.00222262
0.00222261
0.0022226
0.00222259
0.00222258
0.00222257
0.00222257
0.00222256
0.00222255
0.00222254
0.00222254
0.00222253
0.00222253
0.00222253
0.00222252
0.00222252
0.00222252
0.00222252
0.00222251
0.00222251
0.00222251
0.00222251
0.00222251
0.00222251
0.00222251
0.0022225
0.0022225
0.00222249
0.00222248
0.00222248
0.00222247
0.00222246
0.00222246
0.00222245
0.00222245
0.00222244
0.00222244
0.00222244
0.00222243
0.00222243
0.00222243
0.00222243
0.00222242
0.00222242
0.00222242
0.00222242
0.00222242
0.00222242
0.00222242
0.00222242
0.00222242
0.00222242
0.00222241
0.00222241
0.0022224
0.0022224
0.0022224
0.00222239
0.00222239
0.00222238
0.00222238
0.00222238
0.00222237
0.00222237
0.00222237
0.00222237
0.00222237
0.00222236
0.00222236
0.00222236
0.00222236
0.00222236
0.00222236
0.00222236
0.00222236
0.00222236
0.00222236
0.00222236
0.00222236
0.00222235
0.00222235
0.00222235
0.00222235
0.00222234
0.00222234
0.00222234
0.00222234
0.00222233
0.00222233
0.00222233
0.00222233
0.00222233
0.00222232
0.00222232
0.00222232
0.00222232
0.00222232
0.00222232
0.00222232
0.00222232
0.00222232
0.00222232
0.00222232
0.00222232
0.00222232
0.00222232
0.00222232
0.00222231
0.00222231
0.00222231
0.00222231
0.00222231
0.00222231
0.0022223
0.0022223
0.0022223
0.0022223
0.0022223
0.0022223
0.0022223
0.0022223
0.00222229
0.00222229
0.00222229
0.00222229
0.00222229
0.00222229
0.00222229
0.00222229
0.00222229
0.00222229
0.00222229
0.00222229
0.00222229
0.00222229
0.00222229
0.00222229
0.00222229
0.00222229
0.00222228
0.00222228
0.00222228
0.00222228
0.00222228
0.00222228
0.00222228
0.00222228
0.00222228
0.00222228
0.00222228
0.00222228
0.00222228
0.00222228
0.00222228
0.00222228
0.00222228
0.00222228
0.00222228
0.00222228
0.00222228
0.00222227
0.00222227
0.00222227
0.00222227
0.00222227
0.00222227
0.00222227
0.00222227
0.00222227
0.00222227
0.00222227
0.00222227
0.00222227
0.00222227
0.00222227
0.00222227
0.00222227
0.00222227
0.00222227
0.00222227
0.00222227
0.00222227
0.00222227
0.00222227
0.00222227
0.00222227
0.00222227
0.00222227
0.00222227
0.00222227
0.00222226
0.00222226
0.00222226
0.00222226
0.00222226
0.00222226
0.00222226
0.00222226
0.00222226
0.00222226
0.00222226
0.00222226
0.00222226
0.00222226
0.00222226
0.00222226
0.00222226
0.00222226
0.00222226
0.00222226
0.00222226
0.00222226
0.00222226
0.00222226
0.00222226
0.00222226