/*--------------------------------*- C++ -*----------------------------------*\
| =========                 |                                                 |
| \\      /  F ield         | OpenFOAM: The Open Source CFD Toolbox           |
|  \\    /   O peration     | Version:  2106                                  |
|   \\  /    A nd           | Website:  www.openfoam.com                      |
|    \\/     M anipulation  |                                                 |
\*---------------------------------------------------------------------------*/
FoamFile
{
    version     2.0;
    format      ascii;
    arch        "LSB;label=32;scalar=64";
    class       volScalarField;
    location    "110.00000";
    object      CH4_0;
}
// * * * * * * * * * * * * * * * * * * * * * * * * * * * * * * * * * * * * * //

dimensions      [0 0 0 0 0 0 0];

internalField   nonuniform List<scalar> 
3360
(
0.000419988
0.000419988
0.000419988
0.000419988
0.000419988
0.000419988
0.000419988
0.000419988
0.000419988
0.000419988
0.000419988
0.000419988
0.000419988
0.000419988
0.000419988
0.000419988
0.000419988
0.000419988
0.000419988
0.000419988
0.000419988
0.000419988
0.000419988
0.000419988
0.000419988
0.000419988
0.000419988
0.000419988
0.000419988
0.000419988
0.000419988
0.000419988
0.000419988
0.000419988
0.000419988
0.000419988
0.000419988
0.000419988
0.000419988
0.000419988
0.000419988
0.000419988
0.000419988
0.000419988
0.000419988
0.000419988
0.000419988
0.000419988
0.000419988
0.000419988
0.000419988
0.000419988
0.000419988
0.000419988
0.000419988
0.000419988
0.000419988
0.000419988
0.000419988
0.000419988
0.000419988
0.000419988
0.000419988
0.000419988
0.000419988
0.000419988
0.000419988
0.000419988
0.000419988
0.000419988
0.000419988
0.000419988
0.000419988
0.000419988
0.000419988
0.000419988
0.000419988
0.000419988
0.000419988
0.000419988
0.000419988
0.000419988
0.000419988
0.000419988
0.000419988
0.000419988
0.000419988
0.000419988
0.000419988
0.000419988
0.000419988
0.000419988
0.000419988
0.000419988
0.000419988
0.000419988
0.000419988
0.000419988
0.000419988
0.000419988
0.000419988
0.000419988
0.000419988
0.000419988
0.000419988
0.000419988
0.000419988
0.000419988
0.000419988
0.000419988
0.000419988
0.000419988
0.000419988
0.000419988
0.000419988
0.000419988
0.000419988
0.000419988
0.000419988
0.000419988
0.000419988
0.000419988
0.000419988
0.000419988
0.000419988
0.000419988
0.000419988
0.000419988
0.000419988
0.000419988
0.000419988
0.000419988
0.000419988
0.000419988
0.000419988
0.000419988
0.000419988
0.000419988
0.000419988
0.000419988
0.000419988
0.000419988
0.000419988
0.000419988
0.000419988
0.000419988
0.000419988
0.000419988
0.000419988
0.000419988
0.000419988
0.000419988
0.000419988
0.000419988
0.000419988
0.000419988
0.000419988
0.000419988
0.000419988
0.000419988
0.000419988
0.000419988
0.000419988
0.000419988
0.000419988
0.000419988
0.000419988
0.000419988
0.000419988
0.000419988
0.000419988
0.000419988
0.000419988
0.000419988
0.000419988
0.000419988
0.000419988
0.000419988
0.000419988
0.000419988
0.000419988
0.000419988
0.000419988
0.000419988
0.000419988
0.000419988
0.000419988
0.000419988
0.000419988
0.000419988
0.000419988
0.000419988
0.000419988
0.000419988
0.000419988
0.000419988
0.000419988
0.000419988
0.000419988
0.000419988
0.000419988
0.000419988
0.000419988
0.000419988
0.000419988
0.000419988
0.000419988
0.000419988
0.000419988
0.000419988
0.000419988
0.000419988
0.000419988
0.000419988
0.000419988
0.000419988
0.000419988
0.000419988
0.000419988
0.000419988
0.000419988
0.000419988
0.000419988
0.000419988
0.000419988
0.000419988
0.000419988
0.000419988
0.000419988
0.000419988
0.000419988
0.000419988
0.000419988
0.000419988
0.000419988
0.000419988
0.000419988
0.000419988
0.000419988
0.000419988
0.000419988
0.000419988
0.000419988
0.000419988
0.000419988
0.000419988
0.000419988
0.000419988
0.000419988
0.000419988
0.000419988
0.000419988
0.000419988
0.000419988
0.000419988
0.000419988
0.000419988
0.000419988
0.000419988
0.000419988
0.000419988
0.000419988
0.000419988
0.000419988
0.000419988
0.000419988
0.000419988
0.000419988
0.000419988
0.000419988
0.000419988
0.000419988
0.000419988
0.000419988
0.000419988
0.000419988
0.000419988
0.000419988
0.000419988
0.000419988
0.000419988
0.000419988
0.000419988
0.000419988
0.000419988
0.000419988
0.000419988
0.000419988
0.000419988
0.000419988
0.000419988
0.000419988
0.000419988
0.000419988
0.000419988
0.000419988
0.000419988
0.000419988
0.000419988
0.000419988
0.000419988
0.000419988
0.000419988
0.000419988
0.000419988
0.000419988
0.000419988
0.000419988
0.000419988
0.000419988
0.000419988
0.000419988
0.000419988
0.000419988
0.000419988
0.000419988
0.000419988
0.000419988
0.000419988
0.000419988
0.000419988
0.000419988
0.000419988
0.000419988
0.000419988
0.000419988
0.000419988
0.000419988
0.000419988
0.000419988
0.000419988
0.000419988
0.000419988
0.000419988
0.000419988
0.000419988
0.000419988
0.000419988
0.000419988
0.000419988
0.000419988
0.000419988
0.000419988
0.000419988
0.000419988
0.000419988
0.000419988
0.000419988
0.000419988
0.000419988
0.000419988
0.000419988
0.000419988
0.000419988
0.000419988
0.000419988
0.000419988
0.000419988
0.000419988
0.000419988
0.000419988
0.000419988
0.000419988
0.000419988
0.000419988
0.000419988
0.000419988
0.000419988
0.000419988
0.000419988
0.000419988
0.000419988
0.000419988
0.000419988
0.000419988
0.000419988
0.000419988
0.000419988
0.000419988
0.000419988
0.000419988
0.000419988
0.000419988
0.000419988
0.000419988
0.000419988
0.000419988
0.000419988
0.000419988
0.000419988
0.000419988
0.000419988
0.000419988
0.000419988
0.000419988
0.000419988
0.000419988
0.000419988
0.000419988
0.000419988
0.000419988
0.000419988
0.000419988
0.000419988
0.000419988
0.000419988
0.000419988
0.000419988
0.000419988
0.000419988
0.000419988
0.000419988
0.000419988
0.000419988
0.000419988
0.000419988
0.000419988
0.000419988
0.000419988
0.000419988
0.000419988
0.000419988
0.000419988
0.000419988
0.000419988
0.000419988
0.000419988
0.000419988
0.000419988
0.000419988
0.000419988
0.000419988
0.000419988
0.000419988
0.000419988
0.000419988
0.000419988
0.000419988
0.000419988
0.000419988
0.000419988
0.000419988
0.000419988
0.000419988
0.000419988
0.000419988
0.000419988
0.000419988
0.000419988
0.000419988
0.000419988
0.000419988
0.000419988
0.000419988
0.000419988
0.000419988
0.000419988
0.000419988
0.000419988
0.000419988
0.000419988
0.000419988
0.000419988
0.000419988
0.000419988
0.000419988
0.000419988
0.000419988
0.000419988
0.000419988
0.000419988
0.000419988
0.000419988
0.000419988
0.000419988
0.000419988
0.000419988
0.000419988
0.000419988
0.000419988
0.000419988
0.000419988
0.000419988
0.000419988
0.000419988
0.000419988
0.000419988
0.000419988
0.000419988
0.000419988
0.000419988
0.000419988
0.000419988
0.000419988
0.000419988
0.000419988
0.000419988
0.000419988
0.000419988
0.000419988
0.000419988
0.000419988
0.000419988
0.000419989
0.000419989
0.000419989
0.000419989
0.000419989
0.000419989
0.000419989
0.000419989
0.000419989
0.000419989
0.000419988
0.000419988
0.000419989
0.000419989
0.000419989
0.000419989
0.000419989
0.000419989
0.000419989
0.000419989
0.000419989
0.000419989
0.000419989
0.000419989
0.000419989
0.000419989
0.000419989
0.000419989
0.000419989
0.000419989
0.000419989
0.000419989
0.00041999
0.00041999
0.00041999
0.00041999
0.00041999
0.000419989
0.000419989
0.000419989
0.00041999
0.00041999
0.00041999
0.00041999
0.00041999
0.00041999
0.00041999
0.000419991
0.000419991
0.000419991
0.000419991
0.000419991
0.000419991
0.000419991
0.000419991
0.000419992
0.000419992
0.000419992
0.000419992
0.000419992
0.000419992
0.000419992
0.000419992
0.000419992
0.000419991
0.000419991
0.000419992
0.000419992
0.000419992
0.000419993
0.000419993
0.000419993
0.000419994
0.000419994
0.000419994
0.000419995
0.000419995
0.000419996
0.000419996
0.000419996
0.000419996
0.000419997
0.000419997
0.000419997
0.000419997
0.000419997
0.000419997
0.000419997
0.000419997
0.000419998
0.000419998
0.000419997
0.000419997
0.000419997
0.000419998
0.000419999
0.000419999
0.00042
0.000420001
0.000420002
0.000420003
0.000420004
0.000420005
0.000420005
0.000420006
0.000420007
0.000420007
0.000420008
0.000420008
0.000420009
0.000420009
0.00042001
0.00042001
0.00042001
0.00042001
0.00042001
0.00042001
0.00042001
0.000420009
0.00042001
0.000420011
0.000420012
0.000420014
0.000420016
0.000420017
0.000420019
0.000420021
0.000420023
0.000420025
0.000420026
0.000420028
0.00042003
0.000420031
0.000420032
0.000420034
0.000420035
0.000420036
0.000420036
0.000420037
0.000420038
0.000420038
0.000420039
0.000420039
0.000420039
0.000420039
0.000420038
0.00042004
0.000420042
0.000420045
0.000420048
0.000420052
0.000420055
0.000420059
0.000420063
0.000420067
0.000420071
0.000420074
0.000420078
0.000420081
0.000420084
0.000420087
0.000420089
0.000420091
0.000420093
0.000420095
0.000420096
0.000420097
0.000420098
0.000420099
0.000420099
0.0004201
0.0004201
0.000420102
0.000420106
0.00042011
0.000420116
0.000420122
0.00042013
0.000420137
0.000420145
0.000420152
0.00042016
0.000420167
0.000420174
0.000420181
0.000420187
0.000420193
0.000420199
0.000420203
0.000420208
0.000420211
0.000420214
0.000420217
0.000420219
0.000420221
0.000420223
0.000420224
0.000420224
0.000420224
0.000420238
0.000420244
0.000420253
0.000420264
0.000420277
0.00042029
0.000420305
0.000420319
0.000420334
0.000420349
0.000420363
0.000420376
0.000420389
0.000420401
0.000420412
0.000420422
0.000420431
0.00042044
0.000420447
0.000420453
0.000420458
0.000420462
0.000420465
0.000420468
0.00042047
0.000420471
0.000420471
0.00042051
0.000420522
0.000420539
0.000420559
0.000420583
0.000420608
0.000420635
0.000420663
0.00042069
0.000420718
0.000420744
0.000420769
0.000420793
0.000420815
0.000420836
0.000420855
0.000420871
0.000420886
0.000420899
0.000420911
0.00042092
0.000420928
0.000420934
0.000420939
0.000420942
0.000420944
0.000420945
0.000421034
0.000421056
0.000421087
0.000421125
0.000421168
0.000421214
0.000421263
0.000421313
0.000421363
0.000421413
0.000421461
0.000421506
0.00042155
0.00042159
0.000421628
0.000421662
0.000421692
0.000421719
0.000421743
0.000421763
0.00042178
0.000421794
0.000421806
0.000421814
0.000421821
0.000421824
0.000421826
0.000421999
0.000422038
0.000422093
0.000422159
0.000422235
0.000422317
0.000422404
0.000422492
0.000422581
0.000422669
0.000422754
0.000422836
0.000422913
0.000422985
0.000423052
0.000423112
0.000423167
0.000423215
0.000423257
0.000423294
0.000423324
0.00042335
0.00042337
0.000423385
0.000423396
0.000423403
0.000423407
0.000423681
0.000423748
0.000423841
0.000423955
0.000424084
0.000424225
0.000424373
0.000424525
0.000424678
0.000424828
0.000424975
0.000425115
0.000425248
0.000425373
0.000425487
0.000425592
0.000425687
0.00042577
0.000425844
0.000425907
0.000425961
0.000426005
0.00042604
0.000426067
0.000426086
0.000426099
0.000426105
0.000426438
0.000426546
0.000426697
0.000426881
0.00042709
0.000427318
0.000427559
0.000427805
0.000428053
0.000428297
0.000428535
0.000428764
0.00042898
0.000429182
0.000429369
0.00042954
0.000429694
0.000429831
0.000429951
0.000430054
0.000430141
0.000430214
0.000430271
0.000430315
0.000430347
0.000430367
0.000430377
0.000430647
0.00043081
0.000431036
0.000431313
0.000431628
0.00043197
0.00043233
0.000432699
0.00043307
0.000433435
0.00043379
0.000434131
0.000434452
0.000434753
0.000435031
0.000435284
0.000435512
0.000435714
0.000435892
0.000436044
0.000436173
0.00043628
0.000436365
0.00043643
0.000436476
0.000436506
0.00043652
0.000436605
0.00043683
0.000437143
0.000437524
0.000437957
0.000438426
0.000438918
0.000439421
0.000439925
0.00044042
0.0004409
0.000441358
0.000441791
0.000442193
0.000442564
0.000442902
0.000443205
0.000443473
0.000443708
0.00044391
0.00044408
0.00044422
0.000444332
0.000444417
0.000444478
0.000444517
0.000444535
0.000444433
0.000444717
0.000445112
0.000445593
0.000446137
0.000446725
0.000447339
0.000447964
0.000448588
0.0004492
0.00044979
0.000450352
0.000450881
0.000451372
0.000451822
0.000452231
0.000452597
0.00045292
0.000453203
0.000453445
0.000453649
0.000453816
0.00045395
0.000454052
0.000454124
0.000454171
0.000454192
0.000454032
0.000454365
0.000454827
0.000455387
0.000456019
0.0004567
0.00045741
0.00045813
0.000458847
0.000459546
0.00046022
0.000460859
0.000461458
0.000462013
0.000462521
0.000462981
0.000463392
0.000463755
0.000464072
0.000464342
0.00046457
0.000464757
0.000464906
0.00046502
0.000465101
0.000465152
0.000465176
0.000465133
0.0004655
0.000466007
0.000466622
0.000467314
0.000468058
0.000468831
0.000469614
0.00047039
0.000471147
0.000471874
0.000472562
0.000473207
0.000473803
0.000474347
0.00047484
0.000475279
0.000475667
0.000476004
0.000476293
0.000476536
0.000476736
0.000476894
0.000477015
0.000477102
0.000477156
0.000477182
0.000477389
0.000477775
0.000478308
0.000478954
0.00047968
0.000480459
0.000481267
0.000482085
0.000482895
0.000483683
0.000484439
0.000485155
0.000485824
0.000486442
0.000487007
0.000487517
0.000487973
0.000488375
0.000488724
0.000489023
0.000489274
0.000489481
0.000489645
0.000489771
0.00048986
0.000489917
0.000489944
0.000490457
0.000490851
0.000491396
0.000492054
0.000492795
0.000493589
0.000494413
0.000495246
0.00049607
0.000496872
0.000497641
0.000498368
0.000499048
0.000499676
0.000500249
0.000500768
0.00050123
0.000501639
0.000501994
0.000502298
0.000502553
0.000502763
0.000502931
0.000503058
0.000503149
0.000503207
0.000503235
0.000504045
0.00050444
0.000504987
0.000505648
0.000506391
0.000507188
0.000508014
0.000508849
0.000509675
0.000510479
0.00051125
0.00051198
0.000512661
0.000513291
0.000513867
0.000514387
0.000514852
0.000515262
0.000515618
0.000515924
0.000516181
0.000516392
0.00051656
0.000516689
0.00051678
0.000516839
0.000516866
0.000517928
0.000518321
0.000518864
0.000519521
0.000520259
0.000521051
0.000521872
0.000522702
0.000523524
0.000524323
0.00052509
0.000525816
0.000526494
0.000527122
0.000527695
0.000528213
0.000528676
0.000529085
0.00052944
0.000529745
0.000530002
0.000530212
0.00053038
0.000530509
0.000530601
0.000530659
0.000530686
0.000531941
0.00053233
0.000532867
0.000533516
0.000534246
0.000535028
0.00053584
0.000536661
0.000537474
0.000538266
0.000539025
0.000539744
0.000540416
0.000541037
0.000541605
0.000542119
0.000542578
0.000542984
0.000543337
0.000543639
0.000543894
0.000544104
0.000544271
0.000544398
0.000544489
0.000544547
0.000544575
0.000545967
0.00054635
0.000546879
0.000547518
0.000548238
0.00054901
0.00054981
0.00055062
0.000551422
0.000552203
0.000552953
0.000553663
0.000554327
0.000554941
0.000555502
0.00055601
0.000556464
0.000556865
0.000557214
0.000557514
0.000557766
0.000557973
0.000558139
0.000558265
0.000558356
0.000558413
0.00055844
0.000559922
0.000560298
0.000560819
0.000561448
0.000562156
0.000562916
0.000563705
0.000564502
0.000565292
0.000566062
0.0005668
0.0005675
0.000568154
0.00056876
0.000569314
0.000569815
0.000570263
0.000570659
0.000571003
0.000571299
0.000571548
0.000571753
0.000571916
0.000572041
0.00057213
0.000572187
0.000572214
0.000573748
0.000574118
0.00057463
0.000575249
0.000575945
0.000576692
0.000577468
0.000578252
0.000579029
0.000579787
0.000580514
0.000581202
0.000581847
0.000582443
0.000582988
0.000583482
0.000583923
0.000584313
0.000584653
0.000584944
0.00058519
0.000585391
0.000585552
0.000585676
0.000585764
0.00058582
0.000585846
0.000587405
0.000587768
0.000588271
0.000588879
0.000589563
0.000590297
0.000591059
0.00059183
0.000592595
0.000593339
0.000594054
0.000594731
0.000595365
0.000595951
0.000596488
0.000596973
0.000597407
0.000597791
0.000598125
0.000598412
0.000598654
0.000598852
0.000599011
0.000599132
0.000599219
0.000599274
0.0005993
0.000600864
0.00060122
0.000601714
0.000602311
0.000602983
0.000603704
0.000604452
0.00060521
0.00060596
0.000606692
0.000607394
0.000608059
0.000608682
0.000609258
0.000609785
0.000610263
0.000610689
0.000611066
0.000611395
0.000611677
0.000611914
0.00061211
0.000612266
0.000612385
0.00061247
0.000612524
0.00061255
0.000614104
0.000614455
0.000614939
0.000615525
0.000616184
0.000616892
0.000617627
0.00061837
0.000619107
0.000619825
0.000620514
0.000621167
0.000621779
0.000622345
0.000622862
0.000623331
0.00062375
0.00062412
0.000624443
0.00062472
0.000624953
0.000625145
0.000625298
0.000625415
0.000625499
0.000625552
0.000625577
0.000627114
0.000627457
0.000627932
0.000628507
0.000629154
0.000629848
0.000630569
0.000631298
0.000632021
0.000632725
0.000633402
0.000634043
0.000634642
0.000635198
0.000635706
0.000636165
0.000636577
0.00063694
0.000637257
0.000637528
0.000637757
0.000637946
0.000638096
0.000638211
0.000638293
0.000638345
0.00063837
0.000639881
0.000640218
0.000640684
0.000641248
0.000641882
0.000642563
0.000643269
0.000643984
0.000644693
0.000645384
0.000646047
0.000646675
0.000647264
0.000647808
0.000648306
0.000648757
0.00064916
0.000649517
0.000649827
0.000650094
0.000650318
0.000650503
0.00065065
0.000650763
0.000650844
0.000650895
0.000650919
0.000652402
0.000652732
0.000653188
0.000653741
0.000654362
0.00065503
0.000655722
0.000656423
0.000657118
0.000657795
0.000658445
0.00065906
0.000659637
0.00066017
0.000660659
0.000661101
0.000661496
0.000661845
0.00066215
0.000662411
0.000662631
0.000662812
0.000662956
0.000663067
0.000663146
0.000663196
0.00066322
0.000664671
0.000664994
0.000665442
0.000665983
0.000666592
0.000667245
0.000667924
0.00066861
0.000669291
0.000669954
0.000670591
0.000671194
0.000671759
0.000672282
0.00067276
0.000673193
0.00067358
0.000673922
0.00067422
0.000674476
0.000674692
0.000674869
0.00067501
0.000675119
0.000675196
0.000675245
0.000675268
0.000676687
0.000677004
0.000677442
0.000677972
0.000678568
0.000679208
0.000679872
0.000680545
0.000681211
0.00068186
0.000682484
0.000683075
0.000683628
0.00068414
0.000684608
0.000685032
0.000685411
0.000685746
0.000686038
0.000686289
0.0006865
0.000686673
0.000686812
0.000686918
0.000686994
0.000687042
0.000687065
0.000688449
0.000688759
0.000689188
0.000689707
0.000690291
0.000690917
0.000691568
0.000692226
0.000692878
0.000693514
0.000694124
0.000694703
0.000695244
0.000695745
0.000696203
0.000696618
0.000696989
0.000697317
0.000697603
0.000697848
0.000698055
0.000698225
0.00069836
0.000698464
0.000698538
0.000698585
0.000698608
0.000699958
0.000700262
0.000700682
0.000701189
0.00070176
0.000702374
0.00070301
0.000703654
0.000704293
0.000704915
0.000705512
0.000706078
0.000706608
0.000707098
0.000707547
0.000707953
0.000708316
0.000708637
0.000708916
0.000709156
0.000709358
0.000709525
0.000709657
0.000709759
0.000709831
0.000709877
0.000709899
0.000711216
0.000711513
0.000711923
0.00071242
0.000712979
0.000713579
0.000714201
0.000714831
0.000715456
0.000716065
0.000716649
0.000717203
0.000717721
0.0007182
0.000718639
0.000719036
0.000719392
0.000719706
0.000719979
0.000720214
0.000720412
0.000720574
0.000720704
0.000720803
0.000720874
0.000720919
0.000720941
0.000722223
0.000722514
0.000722915
0.000723401
0.000723948
0.000724534
0.000725143
0.00072576
0.00072637
0.000726966
0.000727537
0.000728079
0.000728585
0.000729054
0.000729484
0.000729872
0.000730219
0.000730526
0.000730794
0.000731023
0.000731217
0.000731376
0.000731503
0.0007316
0.000731669
0.000731713
0.000731734
0.000732983
0.000733267
0.00073366
0.000734135
0.000734669
0.000735243
0.000735839
0.000736441
0.000737038
0.00073762
0.000738179
0.000738708
0.000739204
0.000739662
0.000740082
0.000740462
0.000740801
0.000741102
0.000741363
0.000741587
0.000741776
0.000741932
0.000742056
0.000742151
0.000742219
0.000742262
0.000742282
0.000743498
0.000743776
0.00074416
0.000744624
0.000745146
0.000745707
0.000746289
0.000746878
0.000747462
0.000748031
0.000748577
0.000749094
0.000749579
0.000750027
0.000750437
0.000750808
0.00075114
0.000751434
0.000751689
0.000751909
0.000752093
0.000752245
0.000752367
0.000752459
0.000752526
0.000752568
0.000752588
0.000753771
0.000754042
0.000754417
0.000754871
0.000755382
0.00075593
0.000756498
0.000757074
0.000757645
0.0007582
0.000758734
0.00075924
0.000759713
0.000760151
0.000760552
0.000760914
0.000761239
0.000761525
0.000761775
0.00076199
0.00076217
0.000762318
0.000762437
0.000762528
0.000762592
0.000762634
0.000762653
0.000763804
0.000764069
0.000764435
0.000764879
0.000765377
0.000765913
0.000766469
0.000767031
0.000767588
0.000768131
0.000768653
0.000769147
0.000769609
0.000770037
0.000770428
0.000770783
0.0007711
0.00077138
0.000771624
0.000771833
0.000772009
0.000772154
0.00077227
0.000772358
0.000772422
0.000772462
0.000772481
0.0007736
0.000773858
0.000774216
0.000774649
0.000775137
0.000775659
0.000776202
0.000776751
0.000777296
0.000777826
0.000778335
0.000778818
0.000779269
0.000779687
0.000780069
0.000780415
0.000780725
0.000780998
0.000781236
0.000781441
0.000781613
0.000781755
0.000781868
0.000781954
0.000782016
0.000782055
0.000782074
0.00078316
0.000783413
0.000783763
0.000784185
0.000784661
0.000785172
0.000785702
0.000786238
0.000786769
0.000787287
0.000787784
0.000788255
0.000788696
0.000789104
0.000789477
0.000789815
0.000790117
0.000790383
0.000790616
0.000790816
0.000790984
0.000791122
0.000791232
0.000791316
0.000791377
0.000791415
0.000791433
0.000792488
0.000792735
0.000793076
0.000793489
0.000793953
0.000794451
0.000794968
0.000795492
0.00079601
0.000796515
0.000797
0.00079746
0.00079789
0.000798288
0.000798652
0.000798982
0.000799276
0.000799537
0.000799764
0.000799958
0.000800122
0.000800257
0.000800365
0.000800447
0.000800506
0.000800543
0.000800561
0.000801584
0.000801825
0.000802158
0.00080256
0.000803013
0.000803499
0.000804003
0.000804514
0.00080502
0.000805512
0.000805985
0.000806434
0.000806853
0.000807241
0.000807596
0.000807918
0.000808205
0.000808459
0.00080868
0.00080887
0.00080903
0.000809162
0.000809267
0.000809347
0.000809404
0.000809441
0.000809458
0.000810449
0.000810684
0.000811008
0.000811401
0.000811842
0.000812316
0.000812808
0.000813305
0.000813798
0.000814278
0.00081474
0.000815176
0.000815585
0.000815963
0.00081631
0.000816623
0.000816903
0.00081715
0.000817366
0.000817551
0.000817707
0.000817835
0.000817937
0.000818015
0.000818071
0.000818107
0.000818124
0.000819083
0.000819311
0.000819627
0.00082001
0.00082044
0.000820901
0.00082138
0.000821865
0.000822345
0.000822813
0.000823262
0.000823687
0.000824085
0.000824454
0.000824791
0.000825096
0.000825368
0.000825609
0.000825819
0.000825999
0.000826151
0.000826276
0.000826375
0.000826452
0.000826506
0.000826541
0.000826557
0.000827484
0.000827706
0.000828014
0.000828385
0.000828804
0.000829253
0.000829719
0.000830191
0.000830658
0.000831113
0.00083155
0.000831964
0.000832351
0.00083271
0.000833038
0.000833334
0.0008336
0.000833834
0.000834038
0.000834213
0.000834361
0.000834482
0.000834579
0.000834653
0.000834706
0.00083474
0.000834756
0.000835649
0.000835865
0.000836164
0.000836526
0.000836932
0.000837369
0.000837822
0.00083828
0.000838734
0.000839177
0.000839601
0.000840003
0.00084038
0.000840728
0.000841047
0.000841335
0.000841593
0.00084182
0.000842019
0.000842189
0.000842332
0.00084245
0.000842544
0.000842616
0.000842668
0.0008427
0.000842716
0.000843574
0.000843784
0.000844074
0.000844425
0.00084482
0.000845244
0.000845683
0.000846128
0.000846569
0.000846998
0.00084741
0.0008478
0.000848166
0.000848503
0.000848813
0.000849092
0.000849342
0.000849563
0.000849756
0.000849921
0.00085006
0.000850174
0.000850265
0.000850335
0.000850385
0.000850417
0.000850432
0.000851254
0.000851457
0.000851738
0.000852079
0.000852461
0.000852872
0.000853298
0.000853728
0.000854155
0.000854571
0.00085497
0.000855348
0.000855702
0.000856029
0.000856328
0.000856599
0.000856841
0.000857055
0.000857241
0.000857401
0.000857535
0.000857646
0.000857734
0.000857802
0.00085785
0.000857881
0.000857895
0.00085868
0.000858876
0.000859148
0.000859477
0.000859847
0.000860244
0.000860655
0.000861072
0.000861484
0.000861886
0.000862272
0.000862637
0.000862978
0.000863294
0.000863584
0.000863845
0.000864079
0.000864285
0.000864465
0.00086462
0.00086475
0.000864856
0.000864942
0.000865007
0.000865054
0.000865083
0.000865097
0.000865841
0.000866031
0.000866293
0.00086661
0.000866967
0.000867349
0.000867746
0.000868147
0.000868545
0.000868932
0.000869303
0.000869655
0.000869984
0.000870289
0.000870567
0.000870819
0.000871044
0.000871243
0.000871416
0.000871565
0.00087169
0.000871793
0.000871875
0.000871938
0.000871983
0.000872011
0.000872025
0.000872726
0.000872908
0.00087316
0.000873465
0.000873807
0.000874175
0.000874556
0.000874941
0.000875323
0.000875695
0.000876051
0.000876389
0.000876705
0.000876997
0.000877264
0.000877506
0.000877722
0.000877913
0.000878079
0.000878221
0.000878341
0.00087844
0.000878519
0.000878579
0.000878622
0.000878649
0.000878662
0.000879318
0.000879492
0.000879733
0.000880025
0.000880352
0.000880704
0.000881069
0.000881437
0.000881802
0.000882157
0.000882498
0.000882821
0.000883123
0.000883402
0.000883657
0.000883888
0.000884094
0.000884276
0.000884435
0.000884571
0.000884686
0.00088478
0.000884855
0.000884913
0.000884954
0.00088498
0.000884992
0.000885599
0.000885765
0.000885994
0.000886272
0.000886584
0.000886918
0.000887265
0.000887615
0.000887962
0.0008883
0.000888624
0.000888931
0.000889218
0.000889483
0.000889726
0.000889945
0.000890141
0.000890314
0.000890464
0.000890594
0.000890702
0.000890792
0.000890863
0.000890918
0.000890957
0.000890981
0.000890993
0.000891548
0.000891705
0.000891922
0.000892184
0.000892479
0.000892795
0.000893123
0.000893454
0.000893782
0.000894101
0.000894407
0.000894697
0.000894968
0.000895218
0.000895447
0.000895654
0.000895838
0.000896002
0.000896144
0.000896266
0.000896368
0.000896452
0.00089652
0.000896571
0.000896608
0.000896631
0.000896642
0.000897141
0.000897288
0.000897492
0.000897738
0.000898015
0.000898311
0.000898619
0.000898929
0.000899237
0.000899536
0.000899823
0.000900094
0.000900347
0.000900581
0.000900796
0.000900989
0.000901162
0.000901315
0.000901447
0.000901561
0.000901657
0.000901736
0.000901799
0.000901847
0.000901881
0.000901903
0.000901913
0.000902353
0.00090249
0.000902679
0.000902908
0.000903165
0.000903441
0.000903727
0.000904015
0.0009043
0.000904578
0.000904844
0.000905095
0.00090533
0.000905547
0.000905746
0.000905925
0.000906085
0.000906226
0.000906349
0.000906455
0.000906543
0.000906616
0.000906674
0.000906719
0.00090675
0.000906771
0.00090678
0.000907158
0.000907284
0.000907458
0.000907668
0.000907905
0.000908158
0.00090842
0.000908685
0.000908947
0.000909201
0.000909445
0.000909675
0.00090989
0.000910089
0.000910271
0.000910435
0.000910581
0.00091071
0.000910823
0.000910919
0.000911
0.000911066
0.00091112
0.00091116
0.000911189
0.000911208
0.000911216
0.00091153
0.000911645
0.000911803
0.000911993
0.000912208
0.000912437
0.000912674
0.000912914
0.00091315
0.00091338
0.000913601
0.000913809
0.000914003
0.000914182
0.000914346
0.000914494
0.000914626
0.000914742
0.000914843
0.00091493
0.000915003
0.000915063
0.000915111
0.000915147
0.000915173
0.00091519
0.000915198
0.000915448
0.00091555
0.000915691
0.000915861
0.000916052
0.000916256
0.000916467
0.00091668
0.000916891
0.000917095
0.000917291
0.000917475
0.000917648
0.000917807
0.000917952
0.000918083
0.000918199
0.000918302
0.000918392
0.000918469
0.000918533
0.000918586
0.000918628
0.00091866
0.000918684
0.000918698
0.000918705
0.000918893
0.000918982
0.000919106
0.000919254
0.000919421
0.000919599
0.000919784
0.00091997
0.000920153
0.000920331
0.000920501
0.000920661
0.000920811
0.000920949
0.000921075
0.000921188
0.000921289
0.000921379
0.000921456
0.000921522
0.000921578
0.000921624
0.000921661
0.000921688
0.000921708
0.000921721
0.000921727
0.000921857
0.000921933
0.000922038
0.000922165
0.000922308
0.00092246
0.000922617
0.000922775
0.000922931
0.000923082
0.000923226
0.000923362
0.000923489
0.000923606
0.000923712
0.000923808
0.000923894
0.000923969
0.000924034
0.00092409
0.000924137
0.000924176
0.000924207
0.00092423
0.000924247
0.000924258
0.000924263
0.000924341
0.000924404
0.000924492
0.000924597
0.000924715
0.000924842
0.000924972
0.000925102
0.000925231
0.000925356
0.000925475
0.000925587
0.000925691
0.000925787
0.000925875
0.000925953
0.000926024
0.000926085
0.000926139
0.000926185
0.000926223
0.000926255
0.00092628
0.000926299
0.000926313
0.000926321
0.000926325
0.000926361
0.000926412
0.000926482
0.000926567
0.000926662
0.000926763
0.000926867
0.000926972
0.000927075
0.000927174
0.000927269
0.000927359
0.000927441
0.000927518
0.000927587
0.000927649
0.000927705
0.000927754
0.000927796
0.000927832
0.000927863
0.000927888
0.000927907
0.000927923
0.000927933
0.00092794
0.000927943
0.000927946
0.000927986
0.000928041
0.000928106
0.00092818
0.000928258
0.000928338
0.000928419
0.000928498
0.000928574
0.000928647
0.000928716
0.000928779
0.000928837
0.00092889
0.000928937
0.00092898
0.000929017
0.000929049
0.000929076
0.000929099
0.000929118
0.000929133
0.000929145
0.000929153
0.000929158
0.000929161
0.000929143
0.000929172
0.000929213
0.000929261
0.000929316
0.000929374
0.000929433
0.000929492
0.000929551
0.000929607
0.00092966
0.00092971
0.000929757
0.000929799
0.000929838
0.000929872
0.000929903
0.00092993
0.000929953
0.000929973
0.00092999
0.000930003
0.000930014
0.000930022
0.000930028
0.000930032
0.000930034
0.000930005
0.000930026
0.000930055
0.00093009
0.000930128
0.000930169
0.000930211
0.000930252
0.000930293
0.000930333
0.00093037
0.000930405
0.000930437
0.000930467
0.000930493
0.000930517
0.000930538
0.000930557
0.000930573
0.000930587
0.000930598
0.000930608
0.000930615
0.000930621
0.000930625
0.000930628
0.000930629
0.000930598
0.000930613
0.000930632
0.000930655
0.000930681
0.000930708
0.000930736
0.000930764
0.000930792
0.000930818
0.000930842
0.000930866
0.000930887
0.000930906
0.000930924
0.00093094
0.000930954
0.000930966
0.000930976
0.000930985
0.000930993
0.000930999
0.000931004
0.000931008
0.00093101
0.000931012
0.000931013
0.000930986
0.000930995
0.000931008
0.000931023
0.000931039
0.000931057
0.000931074
0.000931092
0.000931109
0.000931126
0.000931142
0.000931156
0.00093117
0.000931182
0.000931193