/*--------------------------------*- C++ -*----------------------------------*\
| =========                 |                                                 |
| \\      /  F ield         | OpenFOAM: The Open Source CFD Toolbox           |
|  \\    /   O peration     | Version:  2106                                  |
|   \\  /    A nd           | Website:  www.openfoam.com                      |
|    \\/     M anipulation  |                                                 |
\*---------------------------------------------------------------------------*/
FoamFile
{
    version     2.0;
    format      ascii;
    arch        "LSB;label=32;scalar=64";
    class       volScalarField;
    location    "110.00000";
    object      PC3H4;
}
// * * * * * * * * * * * * * * * * * * * * * * * * * * * * * * * * * * * * * //

dimensions      [0 0 0 0 0 0 0];

internalField   nonuniform List<scalar> 
3360
(
1.13265e-17
1.1691e-17
1.21983e-17
1.28188e-17
1.35267e-17
1.42988e-17
1.5114e-17
1.59534e-17
1.68002e-17
1.76395e-17
1.84585e-17
1.9246e-17
1.99932e-17
2.06927e-17
2.13392e-17
2.19287e-17
2.2459e-17
2.2929e-17
2.33389e-17
2.369e-17
2.39842e-17
2.42246e-17
2.44145e-17
2.45577e-17
2.46584e-17
2.47211e-17
2.47502e-17
4.96884e-17
5.1515e-17
5.40926e-17
5.73026e-17
6.10466e-17
6.5239e-17
6.9803e-17
7.46686e-17
7.97706e-17
8.50472e-17
9.04392e-17
9.58891e-17
1.0134e-16
1.06736e-16
1.12022e-16
1.17144e-16
1.22048e-16
1.26684e-16
1.31001e-16
1.34954e-16
1.385e-16
1.41601e-16
1.44226e-16
1.46349e-16
1.47952e-16
1.49022e-16
1.49555e-16
1.55913e-16
1.62757e-16
1.72482e-16
1.84702e-16
1.99097e-16
2.15379e-16
2.33276e-16
2.52516e-16
2.72828e-16
2.93933e-16
3.15546e-16
3.37384e-16
3.59168e-16
3.80621e-16
4.01475e-16
4.21477e-16
4.40392e-16
4.58009e-16
4.74145e-16
4.88649e-16
5.01404e-16
5.12325e-16
5.21367e-16
5.28514e-16
5.33782e-16
5.37218e-16
5.38891e-16
4.5409e-16
4.76648e-16
5.08918e-16
5.49746e-16
5.98167e-16
6.53277e-16
7.14172e-16
7.79917e-16
8.49527e-16
9.21972e-16
9.96183e-16
1.07108e-15
1.14557e-15
1.21862e-15
1.28922e-15
1.35646e-15
1.41954e-15
1.47775e-15
1.53056e-15
1.57753e-15
1.6184e-15
1.65303e-15
1.68138e-15
1.70356e-15
1.71975e-15
1.7302e-15
1.73524e-15
1.32676e-15
1.39793e-15
1.49993e-15
1.62929e-15
1.78303e-15
1.95833e-15
2.15226e-15
2.36172e-15
2.58342e-15
2.81387e-15
3.04949e-15
3.28663e-15
3.52175e-15
3.75145e-15
3.97257e-15
4.1823e-15
4.3782e-15
4.55828e-15
4.72097e-15
4.86516e-15
4.99017e-15
5.09573e-15
5.18192e-15
5.24914e-15
5.29807e-15
5.32959e-15
5.34476e-15
3.91223e-15
4.1308e-15
4.44446e-15
4.84257e-15
5.31602e-15
5.85598e-15
6.45334e-15
7.09837e-15
7.78069e-15
8.48936e-15
9.21313e-15
9.94066e-15
1.06609e-14
1.13634e-14
1.20385e-14
1.26777e-14
1.32736e-14
1.38204e-14
1.43135e-14
1.47498e-14
1.51274e-14
1.54457e-14
1.57052e-14
1.59074e-14
1.60543e-14
1.61488e-14
1.61943e-14
1.16221e-14
1.22863e-14
1.32394e-14
1.44492e-14
1.58878e-14
1.75282e-14
1.93422e-14
2.12998e-14
2.33691e-14
2.55165e-14
2.77077e-14
2.99081e-14
3.20844e-14
3.4205e-14
3.6241e-14
3.81669e-14
3.99611e-14
4.16061e-14
4.30886e-14
4.43995e-14
4.55336e-14
4.64892e-14
4.72681e-14
4.78746e-14
4.83153e-14
4.85989e-14
4.87352e-14
3.46401e-14
3.66388e-14
3.95084e-14
4.3152e-14
4.7486e-14
5.24285e-14
5.78943e-14
6.37926e-14
7.00263e-14
7.64939e-14
8.30912e-14
8.97142e-14
9.62619e-14
1.02639e-13
1.0876e-13
1.14547e-13
1.19936e-13
1.24874e-13
1.29323e-13
1.33254e-13
1.36655e-13
1.39518e-13
1.41852e-13
1.43668e-13
1.44987e-13
1.45835e-13
1.46243e-13
1.03518e-13
1.09526e-13
1.18149e-13
1.29096e-13
1.42116e-13
1.56961e-13
1.73374e-13
1.91081e-13
2.09788e-13
2.29191e-13
2.48976e-13
2.68831e-13
2.88453e-13
3.07559e-13
3.25889e-13
3.43216e-13
3.59347e-13
3.74127e-13
3.87439e-13
3.99203e-13
4.09375e-13
4.17942e-13
4.24922e-13
4.30354e-13
4.34301e-13
4.36839e-13
4.38058e-13
3.09361e-13
3.27353e-13
3.53184e-13
3.85981e-13
4.24987e-13
4.69461e-13
5.1863e-13
5.71668e-13
6.27699e-13
6.85804e-13
7.45043e-13
8.0448e-13
8.6321e-13
9.20382e-13
9.75221e-13
1.02705e-12
1.07528e-12
1.11947e-12
1.15925e-12
1.19441e-12
1.22479e-12
1.25038e-12
1.27122e-12
1.28744e-12
1.29921e-12
1.30679e-12
1.31043e-12
9.24922e-13
9.78782e-13
1.05609e-12
1.15423e-12
1.27092e-12
1.40393e-12
1.55095e-12
1.70948e-12
1.87691e-12
2.05048e-12
2.22737e-12
2.4048e-12
2.58006e-12
2.75061e-12
2.91416e-12
3.06868e-12
3.21246e-12
3.34414e-12
3.46268e-12
3.5674e-12
3.6579e-12
3.73411e-12
3.79616e-12
3.84445e-12
3.87952e-12
3.90206e-12
3.9129e-12
2.7625e-12
2.92329e-12
3.15407e-12
3.44697e-12
3.79518e-12
4.192e-12
4.63045e-12
5.10311e-12
5.60211e-12
6.11921e-12
6.64604e-12
7.17424e-12
7.69578e-12
8.20312e-12
8.68942e-12
9.14869e-12
9.57589e-12
9.96697e-12
1.03189e-11
1.06297e-11
1.08982e-11
1.11243e-11
1.13083e-11
1.14514e-11
1.15553e-11
1.16221e-11
1.16542e-11
8.24104e-12
8.72017e-12
9.40758e-12
1.02797e-11
1.13159e-11
1.2496e-11
1.37993e-11
1.52033e-11
1.66845e-11
1.82184e-11
1.978e-11
2.13447e-11
2.28886e-11
2.43895e-11
2.58272e-11
2.71843e-11
2.84458e-11
2.96002e-11
3.06385e-11
3.1555e-11
3.23465e-11
3.30125e-11
3.35545e-11
3.3976e-11
3.4282e-11
3.44786e-11
3.45731e-11
2.45095e-11
2.59303e-11
2.79682e-11
3.05521e-11
3.36205e-11
3.71127e-11
4.0966e-11
4.51136e-11
4.94855e-11
5.40088e-11
5.86095e-11
6.32147e-11
6.77545e-11
7.21637e-11
7.63835e-11
8.03628e-11
8.4059e-11
8.74382e-11
9.04754e-11
9.31542e-11
9.54663e-11
9.74103e-11
9.89916e-11
1.00221e-10
1.01112e-10
1.01685e-10
1.0196e-10
7.26167e-11
7.68062e-11
8.28105e-11
9.04174e-11
9.94411e-11
1.09699e-10
1.21004e-10
1.33156e-10
1.45947e-10
1.59162e-10
1.72584e-10
1.85999e-10
1.99205e-10
2.12013e-10
2.24254e-10
2.35783e-10
2.46478e-10
2.56245e-10
2.65014e-10
2.72741e-10
2.79404e-10
2.85001e-10
2.89551e-10
2.93084e-10
2.95647e-10
2.97292e-10
2.98081e-10
2.13848e-10
2.26079e-10
2.43593e-10
2.65756e-10
2.9201e-10
3.2181e-10
3.54593e-10
3.8977e-10
4.26727e-10
4.64835e-10
5.03463e-10
5.41999e-10
5.79859e-10
6.1651e-10
6.51476e-10
6.8435e-10
7.14795e-10
7.42554e-10
7.67439e-10
7.89335e-10
8.08191e-10
8.24014e-10
8.3686e-10
8.46827e-10
8.54047e-10
8.58679e-10
8.609e-10
6.24758e-10
6.59996e-10
7.10389e-10
7.7405e-10
8.49316e-10
9.34557e-10
1.02811e-09
1.12823e-09
1.23315e-09
1.34105e-09
1.45013e-09
1.55866e-09
1.66501e-09
1.76771e-09
1.86545e-09
1.95713e-09
2.04185e-09
2.11893e-09
2.1879e-09
2.24848e-09
2.30057e-09
2.3442e-09
2.37958e-09
2.407e-09
2.42684e-09
2.43955e-09
2.44564e-09
1.80558e-09
1.90522e-09
2.04748e-09
2.22678e-09
2.43822e-09
2.67697e-09
2.93817e-09
3.21679e-09
3.50776e-09
3.80595e-09
4.10638e-09
4.40428e-09
4.69525e-09
4.97531e-09
5.24104e-09
5.48957e-09
5.71862e-09
5.92648e-09
6.11203e-09
6.27465e-09
6.41417e-09
6.53085e-09
6.6253e-09
6.69837e-09
6.75118e-09
6.78498e-09
6.80116e-09
5.145e-09
5.4199e-09
5.81146e-09
6.30359e-09
6.88192e-09
7.53252e-09
8.24139e-09
8.99441e-09
9.77741e-09
1.05764e-08
1.1378e-08
1.21696e-08
1.29397e-08
1.36781e-08
1.43762e-08
1.50269e-08
1.56246e-08
1.61655e-08
1.6647e-08
1.70679e-08
1.74282e-08
1.77289e-08
1.79718e-08
1.81595e-08
1.82949e-08
1.83814e-08
1.84228e-08
1.43935e-08
1.51281e-08
1.61716e-08
1.74786e-08
1.90081e-08
2.07209e-08
2.25782e-08
2.45414e-08
2.65724e-08
2.86348e-08
3.06938e-08
3.27174e-08
3.46772e-08
3.65483e-08
3.83101e-08
3.99461e-08
4.14437e-08
4.27944e-08
4.39932e-08
4.50383e-08
4.59308e-08
4.66739e-08
4.7273e-08
4.7735e-08
4.80678e-08
4.82802e-08
4.83816e-08
3.93398e-08
4.12279e-08
4.39016e-08
4.72365e-08
5.11212e-08
5.54491e-08
6.01167e-08
6.50232e-08
7.00715e-08
7.51698e-08
8.02329e-08
8.51841e-08
8.9956e-08
9.44917e-08
9.87443e-08
1.02678e-07
1.06265e-07
1.09491e-07
1.12344e-07
1.14825e-07
1.16938e-07
1.18694e-07
1.20107e-07
1.21194e-07
1.21976e-07
1.22475e-07
1.22712e-07
1.04456e-07
1.09093e-07
1.15638e-07
1.23766e-07
1.33188e-07
1.43629e-07
1.54826e-07
1.6653e-07
1.78504e-07
1.90532e-07
2.02413e-07
2.13974e-07
2.25063e-07
2.35557e-07
2.45356e-07
2.54385e-07
2.62592e-07
2.69946e-07
2.76434e-07
2.8206e-07
2.8684e-07
2.90804e-07
2.93987e-07
2.96432e-07
2.98188e-07
2.99306e-07
2.99839e-07
2.67916e-07
2.78754e-07
2.93999e-07
3.12855e-07
3.34606e-07
3.58587e-07
3.84169e-07
4.10767e-07
4.37838e-07
4.6489e-07
4.91486e-07
5.17246e-07
5.41851e-07
5.65042e-07
5.86617e-07
6.0643e-07
6.24384e-07
6.40426e-07
6.54544e-07
6.66757e-07
6.77114e-07
6.85684e-07
6.92555e-07
6.97827e-07
7.01607e-07
7.04011e-07
7.05155e-07
6.60396e-07
6.8446e-07
7.18215e-07
7.59814e-07
8.07605e-07
8.60063e-07
9.15775e-07
9.73439e-07
1.03188e-06
1.09003e-06
1.14698e-06
1.20194e-06
1.25425e-06
1.30341e-06
1.34902e-06
1.39079e-06
1.42856e-06
1.46223e-06
1.49182e-06
1.51737e-06
1.539e-06
1.55688e-06
1.5712e-06
1.58218e-06
1.59004e-06
1.59504e-06
1.59741e-06
1.55852e-06
1.60936e-06
1.68052e-06
1.76796e-06
1.86811e-06
1.97767e-06
2.09365e-06
2.21329e-06
2.33417e-06
2.45411e-06
2.57126e-06
2.68404e-06
2.79118e-06
2.89165e-06
2.98472e-06
3.06984e-06
3.1467e-06
3.21516e-06
3.27525e-06
3.32711e-06
3.37099e-06
3.40725e-06
3.43627e-06
3.45851e-06
3.47444e-06
3.48457e-06
3.48938e-06
3.51443e-06
3.61686e-06
3.75998e-06
3.93551e-06
4.13604e-06
4.35486e-06
4.58586e-06
4.82352e-06
5.06293e-06
5.29982e-06
5.5305e-06
5.75193e-06
5.96164e-06
6.15772e-06
6.33878e-06
6.5039e-06
6.65257e-06
6.78465e-06
6.90026e-06
6.9998e-06
7.08385e-06
7.15313e-06
7.20848e-06
7.25082e-06
7.28111e-06
7.30032e-06
7.30944e-06
7.56489e-06
7.7613e-06
8.0352e-06
8.37027e-06
8.75195e-06
9.16709e-06
9.60383e-06
1.00516e-05
1.05012e-05
1.09446e-05
1.13752e-05
1.17874e-05
1.21768e-05
1.25402e-05
1.28752e-05
1.31803e-05
1.34546e-05
1.3698e-05
1.39108e-05
1.40939e-05
1.42483e-05
1.43755e-05
1.44771e-05
1.45547e-05
1.46102e-05
1.46454e-05
1.46621e-05
1.5474e-05
1.58307e-05
1.63275e-05
1.69345e-05
1.76249e-05
1.83748e-05
1.91625e-05
1.99691e-05
2.07778e-05
2.15745e-05
2.23472e-05
2.30861e-05
2.37836e-05
2.44338e-05
2.50326e-05
2.55775e-05
2.6067e-05
2.6501e-05
2.68804e-05
2.72064e-05
2.74813e-05
2.77077e-05
2.78883e-05
2.80263e-05
2.81249e-05
2.81874e-05
2.8217e-05
3.00124e-05
3.06335e-05
3.14983e-05
3.25541e-05
3.37541e-05
3.50565e-05
3.64236e-05
3.78225e-05
3.92243e-05
4.06043e-05
4.19421e-05
4.32208e-05
4.44273e-05
4.55516e-05
4.65866e-05
4.75281e-05
4.83737e-05
4.91234e-05
4.97783e-05
5.03412e-05
5.08157e-05
5.12062e-05
5.15179e-05
5.17559e-05
5.1926e-05
5.20337e-05
5.20848e-05
5.51259e-05
5.61601e-05
5.75996e-05
5.93567e-05
6.13536e-05
6.35206e-05
6.57954e-05
6.81231e-05
7.04559e-05
7.2753e-05
7.49803e-05
7.71101e-05
7.91203e-05
8.09944e-05
8.27207e-05
8.42916e-05
8.57033e-05
8.69554e-05
8.80499e-05
8.8991e-05
8.97847e-05
9.04383e-05
9.09599e-05
9.13586e-05
9.16435e-05
9.1824e-05
9.19097e-05
9.55143e-05
9.71427e-05
9.94094e-05
0.000102176
0.000105321
0.000108734
0.000112317
0.000115985
0.000119663
0.000123286
0.000126801
0.000130165
0.000133343
0.000136308
0.000139041
0.000141531
0.00014377
0.000145758
0.000147498
0.000148995
0.000150258
0.000151299
0.000152131
0.000152767
0.000153222
0.00015351
0.000153647
0.000155384
0.000157766
0.000161079
0.000165122
0.000169713
0.000174694
0.000179919
0.000185265
0.000190622
0.000195898
0.000201014
0.000205908
0.000210529
0.00021484
0.000218813
0.000222431
0.000225686
0.000228575
0.000231102
0.000233277
0.000235113
0.000236626
0.000237834
0.000238758
0.000239419
0.000239838
0.000240037
0.000236661
0.000239838
0.000244253
0.00024963
0.000255726
0.000262324
0.000269231
0.00027628
0.000283326
0.000290249
0.000296945
0.000303336
0.000309356
0.000314959
0.000320113
0.000324796
0.000329001
0.000332726
0.00033598
0.000338775
0.000341131
0.00034307
0.000344617
0.000345798
0.000346642
0.000347177
0.00034743
0.000337655
0.000341491
0.000346811
0.000353273
0.000360577
0.000368456
0.000376674
0.000385028
0.000393348
0.000401488
0.000409333
0.00041679
0.000423789
0.00043028
0.000436229
0.000441618
0.000446441
0.000450702
0.000454413
0.000457595
0.00046027
0.000462467
0.000464216
0.00046555
0.000466502
0.000467104
0.000467389
0.000453192
0.000457405
0.000463235
0.000470297
0.000478252
0.000486801
0.000495682
0.000504675
0.000513592
0.00052228
0.000530619
0.000538513
0.000545895
0.000552715
0.000558944
0.000564569
0.000569587
0.000574009
0.00057785
0.000581136
0.000583892
0.000586153
0.00058795
0.000589318
0.000590293
0.00059091
0.000591202
0.000576222
0.000580495
0.000586398
0.000593531
0.000601542
0.000610123
0.000619009
0.000627974
0.000636833
0.000645435
0.000653663
0.000661428
0.000668666
0.000675336
0.000681411
0.000686884
0.000691756
0.00069604
0.000699756
0.000702929
0.000705588
0.000707765
0.000709495
0.000710812
0.000711749
0.000712342
0.000712622
0.000699919
0.000704003
0.000709635
0.000716429
0.000724044
0.000732183
0.000740591
0.000749054
0.000757398
0.000765481
0.000773197
0.000780464
0.000787225
0.000793445
0.000799102
0.000804191
0.000808717
0.000812693
0.000816139
0.000819079
0.000821542
0.000823559
0.00082516
0.000826379
0.000827247
0.000827796
0.000828055
0.000819108
0.000822856
0.00082802
0.000834244
0.000841211
0.000848649
0.000856324
0.000864039
0.000871636
0.000878989
0.000886
0.000892598
0.000898732
0.000904371
0.000909498
0.000914109
0.000918208
0.000921808
0.000924928
0.000927591
0.000929822
0.000931648
0.0009331
0.000934204
0.000934991
0.000935489
0.000935725
0.000930647
0.000934005
0.00093863
0.000944201
0.000950437
0.00095709
0.000963953
0.00097085
0.000977639
0.000984209
0.000990472
0.000996367
0.00100185
0.00100689
0.00101147
0.00101559
0.00101925
0.00102247
0.00102527
0.00102765
0.00102965
0.00103128
0.00103259
0.00103358
0.00103428
0.00103473
0.00103494
0.0010331
0.00103608
0.00104017
0.0010451
0.00105062
0.00105652
0.00106259
0.00106871
0.00107472
0.00108055
0.0010861
0.00109133
0.0010962
0.00110067
0.00110474
0.00110841
0.00111167
0.00111453
0.00111702
0.00111915
0.00112093
0.00112239
0.00112355
0.00112444
0.00112507
0.00112547
0.00112566
0.0011262
0.00112882
0.00113244
0.00113679
0.00114166
0.00114687
0.00115224
0.00115764
0.00116296
0.00116812
0.00117304
0.00117767
0.00118198
0.00118596
0.00118957
0.00119283
0.00119573
0.00119828
0.00120049
0.00120239
0.00120397
0.00120528
0.00120631
0.00120711
0.00120767
0.00120803
0.0012082
0.00121033
0.00121265
0.00121584
0.00121968
0.00122399
0.00122859
0.00123335
0.00123813
0.00124285
0.00124742
0.00125178
0.0012559
0.00125973
0.00126326
0.00126648
0.00126938
0.00127196
0.00127424
0.00127621
0.0012779
0.00127932
0.00128049
0.00128141
0.00128212
0.00128263
0.00128295
0.0012831
0.0012862
0.00128825
0.00129107
0.00129449
0.00129831
0.00130239
0.00130662
0.00131087
0.00131506
0.00131913
0.00132302
0.00132668
0.0013301
0.00133325
0.00133613
0.00133872
0.00134102
0.00134306
0.00134483
0.00134634
0.00134761
0.00134865
0.00134948
0.00135012
0.00135057
0.00135086
0.00135099
0.00135461
0.00135644
0.00135895
0.00136199
0.0013654
0.00136904
0.00137281
0.00137661
0.00138035
0.00138399
0.00138747
0.00139075
0.00139381
0.00139663
0.0013992
0.00140152
0.0014036
0.00140542
0.00140701
0.00140837
0.00140951
0.00141045
0.00141119
0.00141176
0.00141217
0.00141243
0.00141255
0.00141638
0.00141802
0.00142027
0.00142299
0.00142604
0.00142931
0.00143268
0.00143609
0.00143945
0.00144271
0.00144583
0.00144878
0.00145153
0.00145407
0.00145639
0.00145848
0.00146034
0.00146198
0.00146341
0.00146464
0.00146567
0.00146651
0.00146719
0.0014677
0.00146807
0.0014683
0.00146841
0.00147227
0.00147374
0.00147576
0.00147821
0.00148096
0.00148389
0.00148693
0.00149
0.00149303
0.00149597
0.00149878
0.00150144
0.00150393
0.00150622
0.00150831
0.00151019
0.00151188
0.00151336
0.00151466
0.00151576
0.00151669
0.00151746
0.00151807
0.00151853
0.00151887
0.00151908
0.00151918
0.00152294
0.00152427
0.0015261
0.00152831
0.00153079
0.00153344
0.00153619
0.00153896
0.0015417
0.00154436
0.00154691
0.00154932
0.00155157
0.00155364
0.00155553
0.00155725
0.00155877
0.00156012
0.00156129
0.00156229
0.00156314
0.00156383
0.00156439
0.00156481
0.00156511
0.0015653
0.00156539
0.001569
0.0015702
0.00157186
0.00157386
0.00157611
0.00157852
0.00158101
0.00158353
0.00158601
0.00158843
0.00159074
0.00159293
0.00159497
0.00159686
0.00159858
0.00160013
0.00160152
0.00160275
0.00160381
0.00160472
0.00160549
0.00160612
0.00160663
0.00160701
0.00160729
0.00160746
0.00160754
0.00161096
0.00161205
0.00161356
0.00161538
0.00161743
0.00161962
0.00162188
0.00162417
0.00162644
0.00162864
0.00163074
0.00163273
0.0016346
0.00163631
0.00163788
0.0016393
0.00164057
0.00164168
0.00164265
0.00164349
0.00164419
0.00164476
0.00164522
0.00164557
0.00164583
0.00164598
0.00164606
0.00164927
0.00165026
0.00165164
0.0016533
0.00165517
0.00165716
0.00165923
0.00166132
0.00166339
0.0016654
0.00166732
0.00166914
0.00167084
0.00167241
0.00167384
0.00167514
0.00167629
0.00167731
0.0016782
0.00167896
0.0016796
0.00168013
0.00168055
0.00168087
0.0016811
0.00168125
0.00168132
0.00168431
0.00168522
0.00168648
0.001688
0.00168971
0.00169154
0.00169343
0.00169534
0.00169723
0.00169907
0.00170083
0.00170249
0.00170405
0.00170549
0.0017068
0.00170799
0.00170905
0.00170998
0.00171079
0.00171149
0.00171208
0.00171256
0.00171295
0.00171324
0.00171345
0.00171358
0.00171365
0.00171644
0.00171727
0.00171843
0.00171982
0.00172138
0.00172306
0.00172479
0.00172655
0.00172828
0.00172996
0.00173158
0.00173311
0.00173453
0.00173585
0.00173706
0.00173814
0.00173912
0.00173997
0.00174072
0.00174136
0.0017419
0.00174234
0.0017427
0.00174297
0.00174316
0.00174328
0.00174334
0.00174594
0.0017467
0.00174776
0.00174904
0.00175047
0.00175201
0.00175361
0.00175522
0.00175681
0.00175836
0.00175984
0.00176124
0.00176255
0.00176376
0.00176487
0.00176587
0.00176676
0.00176755
0.00176824
0.00176883
0.00176932
0.00176973
0.00177006
0.0017703
0.00177048
0.00177059
0.00177065
0.00177306
0.00177376
0.00177474
0.00177591
0.00177723
0.00177865
0.00178011
0.00178159
0.00178306
0.00178448
0.00178585
0.00178714
0.00178834
0.00178946
0.00179048
0.0017914
0.00179222
0.00179295
0.00179358
0.00179412
0.00179458
0.00179495
0.00179525
0.00179548
0.00179564
0.00179575
0.00179579
0.00179803
0.00179868
0.00179957
0.00180066
0.00180187
0.00180318
0.00180453
0.00180589
0.00180724
0.00180855
0.00180981
0.001811
0.00181211
0.00181313
0.00181407
0.00181492
0.00181568
0.00181635
0.00181693
0.00181743
0.00181785
0.0018182
0.00181847
0.00181868
0.00181883
0.00181893
0.00181897
0.00182104
0.00182164
0.00182247
0.00182347
0.00182459
0.00182579
0.00182703
0.00182829
0.00182953
0.00183074
0.0018319
0.001833
0.00183403
0.00183497
0.00183584
0.00183662
0.00183732
0.00183794
0.00183847
0.00183894
0.00183932
0.00183964
0.0018399
0.00184009
0.00184023
0.00184032
0.00184036
0.00184228
0.00184283
0.00184359
0.00184451
0.00184555
0.00184665
0.0018478
0.00184896
0.00185011
0.00185123
0.0018523
0.00185331
0.00185426
0.00185513
0.00185593
0.00185665
0.0018573
0.00185787
0.00185836
0.00185879
0.00185915
0.00185944
0.00185968
0.00185986
0.00185998
0.00186007
0.0018601
0.00186188
0.00186238
0.00186309
0.00186394
0.00186489
0.00186592
0.00186698
0.00186805
0.00186911
0.00187014
0.00187113
0.00187206
0.00187294
0.00187374
0.00187448
0.00187515
0.00187575
0.00187627
0.00187673
0.00187712
0.00187745
0.00187773
0.00187794
0.00187811
0.00187823
0.0018783
0.00187834
0.00187998
0.00188045
0.0018811
0.00188188
0.00188276
0.00188371
0.00188469
0.00188568
0.00188666
0.00188761
0.00188852
0.00188939
0.0018902
0.00189094
0.00189162
0.00189224
0.00189279
0.00189328
0.0018937
0.00189406
0.00189437
0.00189462
0.00189482
0.00189497
0.00189508
0.00189515
0.00189519
0.0018967
0.00189713
0.00189773
0.00189846
0.00189927
0.00190015
0.00190105
0.00190197
0.00190287
0.00190375
0.0019046
0.00190539
0.00190614
0.00190683
0.00190746
0.00190803
0.00190854
0.00190899
0.00190938
0.00190971
0.00191
0.00191023
0.00191041
0.00191056
0.00191066
0.00191072
0.00191075
0.00191214
0.00191255
0.0019131
0.00191377
0.00191452
0.00191533
0.00191617
0.00191701
0.00191785
0.00191866
0.00191944
0.00192018
0.00192087
0.00192151
0.00192209
0.00192261
0.00192308
0.0019235
0.00192386
0.00192417
0.00192443
0.00192465
0.00192482
0.00192495
0.00192504
0.0019251
0.00192513
0.00192641
0.00192678
0.00192729
0.00192791
0.00192861
0.00192935
0.00193013
0.00193091
0.00193168
0.00193243
0.00193315
0.00193383
0.00193447
0.00193506
0.00193559
0.00193608
0.00193652
0.0019369
0.00193723
0.00193752
0.00193776
0.00193796
0.00193812
0.00193824
0.00193832
0.00193838
0.00193841
0.00193958
0.00193992
0.0019404
0.00194097
0.00194161
0.0019423
0.00194301
0.00194373
0.00194444
0.00194514
0.0019458
0.00194643
0.00194702
0.00194756
0.00194806
0.00194851
0.00194891
0.00194926
0.00194957
0.00194983
0.00195006
0.00195024
0.00195039
0.0019505
0.00195058
0.00195063
0.00195065
0.00195173
0.00195204
0.00195248
0.00195301
0.0019536
0.00195423
0.00195489
0.00195556
0.00195621
0.00195685
0.00195747
0.00195805
0.00195859
0.00195909
0.00195955
0.00195996
0.00196033
0.00196066
0.00196094
0.00196118
0.00196139
0.00196156
0.00196169
0.0019618
0.00196187
0.00196192
0.00196194
0.00196292
0.00196321
0.00196361
0.0019641
0.00196464
0.00196523
0.00196583
0.00196645
0.00196705
0.00196764
0.0019682
0.00196874
0.00196924
0.0019697
0.00197012
0.0019705
0.00197084
0.00197114
0.0019714
0.00197163
0.00197182
0.00197197
0.0019721
0.00197219
0.00197226
0.0019723
0.00197232
0.00197322
0.00197348
0.00197385
0.0019743
0.0019748
0.00197534
0.0019759
0.00197646
0.00197701
0.00197756
0.00197807
0.00197857
0.00197902
0.00197945
0.00197984
0.00198019
0.0019805
0.00198078
0.00198102
0.00198122
0.0019814
0.00198154
0.00198165
0.00198174
0.0019818
0.00198184
0.00198186
0.00198267
0.00198291
0.00198325
0.00198366
0.00198412
0.00198462
0.00198513
0.00198564
0.00198615
0.00198665
0.00198713
0.00198758
0.001988
0.00198839
0.00198874
0.00198906
0.00198935
0.0019896
0.00198982
0.00199001
0.00199017
0.0019903
0.00199041
0.00199049
0.00199055
0.00199058
0.0019906
0.00199132
0.00199155
0.00199186
0.00199223
0.00199265
0.00199311
0.00199357
0.00199405
0.00199451
0.00199497
0.0019954
0.00199581
0.0019962
0.00199655
0.00199688
0.00199717
0.00199744
0.00199767
0.00199787
0.00199804
0.00199819
0.00199831
0.0019984
0.00199848
0.00199853
0.00199856
0.00199858
0.00199922
0.00199943
0.00199971
0.00200005
0.00200044
0.00200085
0.00200128
0.00200171
0.00200213
0.00200255
0.00200294
0.00200332
0.00200367
0.00200399
0.00200429
0.00200456
0.00200479
0.00200501
0.00200519
0.00200535
0.00200548
0.00200559
0.00200568
0.00200574
0.00200579
0.00200582
0.00200583
0.0020064
0.00200659
0.00200685
0.00200716
0.00200751
0.00200788
0.00200827
0.00200866
0.00200904
0.00200942
0.00200978
0.00201012
0.00201044
0.00201073
0.002011
0.00201124
0.00201146
0.00201165
0.00201182
0.00201196
0.00201208
0.00201218
0.00201226
0.00201232
0.00201236
0.00201239
0.0020124
0.0020129
0.00201307
0.0020133
0.00201358
0.00201389
0.00201423
0.00201458
0.00201493
0.00201528
0.00201562
0.00201594
0.00201625
0.00201654
0.0020168
0.00201704
0.00201726
0.00201746
0.00201763
0.00201778
0.00201791
0.00201802
0.00201811
0.00201818
0.00201823
0.00201827
0.00201829
0.00201831
0.00201873
0.00201888
0.00201909
0.00201934
0.00201962
0.00201992
0.00202024
0.00202055
0.00202086
0.00202117
0.00202146
0.00202173
0.00202199
0.00202223
0.00202244
0.00202264
0.00202281
0.00202297
0.0020231
0.00202322
0.00202331
0.00202339
0.00202346
0.00202351
0.00202354
0.00202356
0.00202357
0.00202393
0.00202406
0.00202424
0.00202447
0.00202472
0.00202499
0.00202526
0.00202554
0.00202582
0.00202609
0.00202635
0.00202659
0.00202682
0.00202703
0.00202722
0.00202739
0.00202755
0.00202769
0.0020278
0.00202791
0.00202799
0.00202806
0.00202812
0.00202816
0.00202819
0.00202821
0.00202822
0.00202851
0.00202862
0.00202879
0.00202898
0.0020292
0.00202944
0.00202968
0.00202993
0.00203017
0.0020304
0.00203063
0.00203084
0.00203104
0.00203123
0.00203139
0.00203155
0.00203168
0.0020318
0.00203191
0.00203199
0.00203207
0.00203213
0.00203218
0.00203222
0.00203224
0.00203226
0.00203227
0.00203249
0.00203259
0.00203273
0.0020329
0.00203309
0.00203329
0.0020335
0.00203371
0.00203392
0.00203413
0.00203432
0.00203451
0.00203468
0.00203484
0.00203498
0.00203511
0.00203523
0.00203533
0.00203542
0.0020355
0.00203556
0.00203561
0.00203566
0.00203569
0.00203571
0.00203573
0.00203573
0.00203588
0.00203597
0.00203609
0.00203623
0.00203639
0.00203656
0.00203674
0.00203692
0.0020371
0.00203727
0.00203744
0.00203759
0.00203774
0.00203787
0.00203799
0.0020381
0.0020382
0.00203829
0.00203836
0.00203842
0.00203848
0.00203852
0.00203856
0.00203859
0.00203861
0.00203862
0.00203862
0.00203871
0.00203878
0.00203888
0.002039
0.00203913
0.00203927
0.00203942
0.00203957
0.00203971
0.00203985
0.00203999
0.00204011
0.00204023
0.00204034
0.00204044
0.00204053
0.00204061
0.00204068
0.00204074
0.0020408
0.00204084
0.00204088
0.00204091
0.00204093
0.00204094
0.00204095
0.00204096
0.00204098
0.00204104
0.00204112
0.00204121
0.00204132
0.00204143
0.00204154
0.00204166
0.00204178
0.00204189
0.00204199
0.00204209
0.00204218
0.00204227
0.00204235
0.00204242
0.00204248
0.00204254
0.00204258
0.00204263
0.00204266
0.00204269
0.00204271
0.00204273
0.00204274
0.00204275
0.00204275
0.00204272
0.00204276
0.00204282
0.00204289
0.00204297
0.00204305
0.00204314
0.00204322
0.00204331
0.00204339
0.00204347
0.00204354
0.00204361
0.00204367
0.00204373
0.00204378
0.00204383
0.00204387
0.0020439
0.00204393
0.00204396
0.00204398
0.00204399
0.00204401
0.00204402
0.00204402
0.00204402
0.00204393
0.00204396
0.002044
0.00204405
0.0020441
0.00204416
0.00204422
0.00204427
0.00204433
0.00204439
0.00204444
0.00204449
0.00204453
0.00204457
0.00204461
0.00204464
0.00204467
0.0020447
0.00204472
0.00204474
0.00204476
0.00204477
0.00204478
0.00204479
0.00204479
0.0020448
0.0020448
0.00204466
0.00204468
0.0020447
0.00204473
0.00204476
0.00204479
0.00204482
0.00204485
0.00204488
0.0020449
0.00204493
0.00204496
0.00204498
0.002045
0.00204502
0.00204503
0.00204505
0.00204506
0.00204507
0.00204508
0.00204509
0.0020451
0.0020451
0.00204511
0.00204511
0.00204511
0.00204511
0.00204494
0.00204494
0.00204495
0.00204495
0.00204496
0.00204497
0.00204497
0.00204498
0.00204498
0.00204499
0.00204499
0.00204499
0.002045
0.002045
0.002045
0.002045
0.002045
0.002045
0.002045
0.00204501
0.00204501
0.00204501
0.00204501
0.00204501
0.00204501
0.00204501
0.00204501
0.00204481
0.0020448
0.00204479
0.00204478
0.00204477
0.00204475
0.00204474
0.00204472
0.0020447
0.00204469
0.00204467
0.00204466
0.00204464
0.00204463
0.00204461
0.0020446
0.00204459
0.00204458
0.00204457
0.00204457
0.00204456
0.00204455
0.00204455
0.00204455
0.00204455
0.00204454
0.00204454
0.00204433
0.00204431
0.00204429
0.00204427
0.00204424
0.0020442
0.00204417
0.00204414
0.0020441
0.00204407
0.00204404
0.00204401
0.00204398
0.00204395
0.00204392
0.0020439
0.00204388
0.00204386
0.00204385
0.00204383
0.00204382
0.00204381
0.00204381
0.0020438
0.0020438
0.00204379
0.00204379
0.00204358
0.00204355
0.00204352
0.00204349
0.00204345
0.0020434
0.00204335
0.00204331
0.00204326
0.00204321
0.00204317
0.00204312
0.00204308
0.00204305
0.00204301
0.00204298
0.00204296
0.00204293
0.00204291
0.00204289
0.00204288
0.00204287
0.00204286
0.00204285
0.00204284
0.00204284
0.00204284
0.00204263
0.00204261
0.00204257
0.00204253
0.00204248
0.00204243
0.00204237
0.00204231
0.00204226
0.0020422
0.00204215
0.0020421
0.00204206
0.00204201
0.00204197
0.00204194
0.00204191
0.00204188
0.00204185
0.00204183
0.00204182
0.0020418
0.00204179
0.00204178
0.00204178
0.00204177
0.00204177
0.00204159
0.00204156
0.00204153
0.00204148
0.00204143
0.00204137
0.00204131
0.00204125
0.00204119
0.00204113
0.00204108
0.00204103
0.00204098
0.00204093
0.00204089
0.00204086
0.00204082
0.0020408
0.00204077
0.00204075
0.00204073
0.00204072
0.00204071
0.0020407
0.00204069
0.00204069
0.00204068
0.00204054
0.00204051
0.00204047
0.00204043
0.00204037
0.00204032
0.00204026
0.0020402
0.00204014
0.00204009
0.00204004
0.00203999
0.00203994
0.0020399
0.00203986
0.00203982
0.00203979
0.00203976
0.00203974
0.00203972
0.0020397
0.00203969
0.00203968
0.00203967
0.00203966
0.00203966
0.00203966
0.00203955
0.00203952
0.00203948
0.00203944
0.00203939
0.00203934
0.00203929
0.00203924
0.00203919
0.00203914
0.00203909
0.00203904
0.002039
0.00203896
0.00203893
0.0020389
0.00203887
0.00203884
0.00203882
0.00203881
0.00203879
0.00203878
0.00203877
0.00203876
0.00203876
0.00203875
0.00203875
0.00203867
0.00203865
0.00203862
0.00203858
0.00203854
0.0020385
0.00203845
0.00203841
0.00203836
0.00203832
0.00203828
0.00203824
0.00203821
0.00203818
0.00203815
0.00203812
0.0020381
0.00203808
0.00203806
0.00203804
0.00203803
0.00203802
0.00203801
0.002038
0.002038
0.002038
0.002038
0.00203794
0.00203793
0.0020379
0.00203787
0.00203784
0.0020378
0.00203777
0.00203773
0.0020377
0.00203766
0.00203763
0.0020376
0.00203757
0.00203754
0.00203752
0.0020375
0.00203748
0.00203747
0.00203745
0.00203744
0.00203743
0.00203742
0.00203741
0.00203741
0.00203741
0.0020374
0.0020374
0.00203737
0.00203736
0.00203734
0.00203732
0.00203729
0.00203727
0.00203724
0.00203721
0.00203718
0.00203716
0.00203713
0.00203711
0.00203709
0.00203707
0.00203705
0.00203703
0.00203702
0.00203701
0.002037
0.00203699
0.00203698
0.00203697
0.00203697
0.00203696
0.00203696
0.00203696
0.00203696
0.00203695
0.00203694
0.00203692
0.00203691
0.00203689
0.00203687
0.00203685
0.00203683
0.00203681
0.00203679
0.00203677
0.00203676
0.00203674
0.00203673
0.00203672
0.0020367
0.00203669
0.00203669
0.00203668
0.00203667
0.00203667
0.00203666
0.00203666
0.00203666
0.00203666
0.00203665
0.00203665
0.00203664
0.00203664
0.00203663
0.00203662
0.0020366
0.00203659
0.00203658
0.00203656
0.00203655
0.00203654
0.00203652
0.00203651
0.0020365
0.00203649
0.00203648
0.00203647
0.00203647
0.00203646
0.00203646
0.00203645
0.00203645
0.00203644
0.00203644
0.00203644
0.00203644
0.00203644
0.00203644
0.00203643
0.00203643
0.00203642
0.00203641
0.0020364
0.00203639
0.00203638
0.00203637
0.00203636
0.00203635
0.00203634
0.00203633
0.00203632
0.00203631
0.00203631
0.0020363
0.0020363
0.00203629
0.00203629
0.00203628
0.00203628
0.00203628
0.00203627
0.00203627
0.00203627
0.00203627
0.00203627
0.00203627
0.00203626
0.00203626
0.00203625
0.00203624
0.00203624
0.00203623
0.00203622
0.00203621
0.0020362
0.00203619
0.00203619