/*--------------------------------*- C++ -*----------------------------------*\
| =========                 |                                                 |
| \\      /  F ield         | OpenFOAM: The Open Source CFD Toolbox           |
|  \\    /   O peration     | Version:  2106                                  |
|   \\  /    A nd           | Website:  www.openfoam.com                      |
|    \\/     M anipulation  |                                                 |
\*---------------------------------------------------------------------------*/
FoamFile
{
    version     2.0;
    format      ascii;
    arch        "LSB;label=32;scalar=64";
    class       surfaceScalarField;
    location    "110.00000";
    object      phi;
}
// * * * * * * * * * * * * * * * * * * * * * * * * * * * * * * * * * * * * * //

dimensions      [1 0 -1 0 0 0 0];

oriented        oriented;

internalField   nonuniform List<scalar> 
6572
(
-1.49034e-10
4.14378e-10
3.90182e-11
-3.19804e-10
6.41494e-10
-5.4207e-10
8.33319e-10
-8.07093e-10
9.93416e-10
-1.10626e-09
1.12462e-09
-1.43086e-09
1.22923e-09
-1.77193e-09
1.30919e-09
-2.1203e-09
1.36619e-09
-2.4666e-09
1.40179e-09
-2.80149e-09
1.41752e-09
-3.1157e-09
1.41482e-09
-3.39997e-09
1.39495e-09
-3.64575e-09
1.35966e-09
-3.84508e-09
1.31055e-09
-3.99064e-09
1.24906e-09
-4.07579e-09
1.17666e-09
-4.09467e-09
1.09478e-09
-4.04229e-09
1.0049e-09
-3.91458e-09
9.08447e-10
-3.70845e-09
8.06876e-10
-3.42181e-09
7.01568e-10
-3.05348e-09
5.93802e-10
-2.60313e-09
4.84738e-10
-2.07122e-09
3.75425e-10
-1.4589e-09
2.66797e-10
-7.67903e-10
1.59652e-10
5.4183e-11
-1.01063e-10
4.88331e-10
2.71112e-11
-2.11652e-10
7.52082e-10
-3.48486e-10
9.70152e-10
-5.01218e-10
1.14615e-09
-6.59943e-10
1.28334e-09
-8.15482e-10
1.38477e-09
-9.5964e-10
1.45335e-09
-1.08543e-09
1.49197e-09
-1.18719e-09
1.50355e-09
-1.26086e-09
1.49118e-09
-1.30502e-09
1.45898e-09
-1.31942e-09
1.40935e-09
-1.30452e-09
1.34477e-09
-1.26172e-09
1.26774e-09
-1.19339e-09
1.18073e-09
-1.10283e-09
1.08609e-09
-9.94077e-10
9.86036e-10
-8.71776e-10
8.82598e-10
-7.40961e-10
7.77631e-10
-6.06857e-10
6.72771e-10
-4.74729e-10
5.6944e-10
-3.49769e-10
4.68842e-10
-2.37002e-10
3.7197e-10
-1.41282e-10
2.79706e-10
-6.70893e-11
1.92604e-10
-1.84957e-11
1.11059e-10
3.56873e-11
-8.01444e-11
5.4729e-10
2.11852e-11
-1.6698e-10
8.38916e-10
-2.71334e-10
1.07451e-09
-3.8342e-10
1.25823e-09
-4.94528e-10
1.39445e-09
-5.97331e-10
1.48757e-09
-6.86302e-10
1.54232e-09
-7.57597e-10
1.56327e-09
-8.0898e-10
1.55494e-09
-8.3952e-10
1.52172e-09
-8.48415e-10
1.46787e-09
-8.36409e-10
1.39735e-09
-8.05139e-10
1.3135e-09
-7.56959e-10
1.21956e-09
-6.94825e-10
1.1186e-09
-6.22109e-10
1.01338e-09
-5.42396e-10
9.06323e-10
-4.59285e-10
7.99487e-10
-3.76222e-10
6.94568e-10
-2.96337e-10
5.92887e-10
-2.22364e-10
4.95467e-10
-1.56605e-10
4.03083e-10
-1.00921e-10
3.16286e-10
-5.66541e-11
2.35439e-10
-2.4788e-11
1.60738e-10
-5.97663e-12
9.22474e-11
2.97106e-11
-3.77266e-11
5.74591e-10
1.0425e-11
-7.686e-11
8.7805e-10
-1.22592e-10
1.12024e-09
-1.69959e-10
1.3056e-09
-2.14696e-10
1.43919e-09
-2.5355e-10
1.52643e-09
-2.84144e-10
1.57291e-09
-3.05114e-10
1.58424e-09
-3.15951e-10
1.56577e-09
-3.16884e-10
1.52266e-09
-3.0875e-10
1.45974e-09
-2.92779e-10
1.38137e-09
-2.70681e-10
1.2914e-09
-2.44322e-10
1.1932e-09
-2.15465e-10
1.08974e-09
-1.8565e-10
9.83564e-10
-1.56153e-10
8.76825e-10
-1.27968e-10
7.71302e-10
-1.01828e-10
6.68428e-10
-7.82698e-11
5.69328e-10
-5.76592e-11
4.74857e-10
-4.0208e-11
3.85632e-10
-2.59925e-11
3.02071e-10
-1.49786e-11
2.24425e-10
-7.04488e-12
1.52804e-10
-2.00307e-12
8.72056e-11
2.77076e-11
-1.9116e-11
5.88728e-10
4.97923e-12
-3.93029e-11
8.98237e-10
-6.22757e-11
1.14321e-09
-8.52486e-11
1.32857e-09
-1.06145e-10
1.46008e-09
-1.23612e-10
1.54389e-09
-1.36813e-10
1.58611e-09
-1.45361e-10
1.59278e-09
-1.49279e-10
1.56969e-09
-1.48872e-10
1.52225e-09
-1.44555e-10
1.45542e-09
-1.36866e-10
1.37369e-09
-1.26469e-10
1.28101e-09
-1.14098e-10
1.18083e-09
-1.00486e-10
1.07613e-09
-8.63137e-11
9.69392e-10
-7.21793e-11
8.62691e-10
-5.8584e-11
7.57707e-10
-4.59306e-11
6.55775e-10
-3.45281e-11
5.57926e-10
-2.45993e-11
4.64928e-10
-1.62915e-11
3.77324e-10
-9.6875e-12
2.95467e-10
-4.81665e-12
2.19554e-10
-1.66506e-12
1.49652e-10
-1.84863e-13
8.57254e-11
2.75227e-11
-9.3372e-12
5.95351e-10
2.71486e-12
-1.83768e-11
9.07277e-10
-2.83397e-11
1.15317e-09
-3.78989e-11
1.33813e-09
-4.60661e-11
1.46825e-09
-5.22416e-11
1.55007e-09
-5.61624e-11
1.59003e-09
-5.78227e-11
1.59445e-09
-5.74087e-11
1.56928e-09
-5.52338e-11
1.52007e-09
-5.16779e-11
1.45187e-09
-4.7139e-11
1.36915e-09
-4.19983e-11
1.27586e-09
-3.65957e-11
1.17543e-09
-3.12149e-11
1.07075e-09
-2.60765e-11
9.64254e-10
-2.1338e-11
8.57953e-10
-1.70982e-11
7.53467e-10
-1.34054e-11
6.52082e-10
-1.02665e-11
5.54787e-10
-7.65682e-12
4.62318e-10
-5.52888e-12
3.75196e-10
-3.82052e-12
2.93759e-10
-2.46161e-12
2.18195e-10
-1.37953e-12
1.4857e-10
-5.03382e-13
8.48492e-11
2.70193e-11
-4.79653e-12
5.98978e-10
1.16879e-12
-1.01467e-11
9.12627e-10
-1.64125e-11
1.15944e-09
-2.28691e-11
1.34459e-09
-2.88759e-11
1.47426e-09
-3.38862e-11
1.55508e-09
-3.75982e-11
1.59375e-09
-3.98991e-11
1.59675e-09
-4.08164e-11
1.5702e-09
-4.04717e-11
1.51973e-09
-3.9043e-11
1.45044e-09
-3.67349e-11
1.36684e-09
-3.37581e-11
1.27289e-09
-3.03155e-11
1.17199e-09
-2.65935e-11
1.06703e-09
-2.27577e-11
9.60418e-10
-1.89511e-11
8.54146e-10
-1.52948e-11
7.49811e-10
-1.18888e-11
6.48676e-10
-8.81383e-12
5.51712e-10
-6.13373e-12
4.59638e-10
-3.89679e-12
3.72959e-10
-2.1377e-12
2.92e-10
-8.79101e-13
2.16937e-10
-1.32934e-13
1.47824e-10
9.82055e-14
8.46181e-11
2.71175e-11
-1.84048e-12
6.00222e-10
5.97131e-13
-3.47841e-12
9.14265e-10
-5.26592e-12
1.16123e-09
-6.95575e-12
1.34628e-09
-8.34742e-12
1.47565e-09
-9.30903e-12
1.55604e-09
-9.78714e-12
1.59422e-09
-9.79606e-12
1.59675e-09
-9.39898e-12
1.5698e-09
-8.68779e-12
1.51902e-09
-7.76524e-12
1.44951e-09
-6.7314e-12
1.3658e-09
-5.67437e-12
1.27183e-09
-4.66491e-12
1.17098e-09
-3.75419e-12
1.06612e-09
-2.97392e-12
9.59638e-10
-2.33795e-12
8.5351e-10
-1.84492e-12
7.49318e-10
-1.48128e-12
6.48312e-10
-1.22448e-12
5.51455e-10
-1.04595e-12
4.5946e-10
-9.13858e-13
3.72827e-10
-7.95377e-13
2.91881e-10
-6.58612e-13
2.168e-10
-4.74055e-13
1.4764e-10
-2.15598e-13
8.43596e-11
2.69019e-11
-1.84413e-12
6.0164e-10
4.26167e-13
-3.9405e-12
9.16361e-10
-6.37262e-12
1.16366e-09
-8.85225e-12
1.34876e-09
-1.11515e-11
1.47795e-09
-1.31068e-11
1.558e-09
-1.46169e-11
1.59573e-09
-1.56343e-11
1.59777e-09
-1.61541e-11
1.57032e-09
-1.62025e-11
1.51907e-09
-1.58268e-11
1.44914e-09
-1.5087e-11
1.36506e-09
-1.40498e-11
1.27079e-09
-1.27838e-11
1.16971e-09
-1.13568e-11
1.06469e-09
-9.83355e-12
9.58115e-10
-8.27489e-12
8.51951e-10
-6.73646e-12
7.47779e-10
-5.26843e-12
6.46844e-10
-3.91512e-12
5.50102e-10
-2.71481e-12
4.58259e-10
-1.69962e-12
3.71812e-10
-8.95593e-13
2.91077e-10
-3.22744e-13
2.16227e-10
4.6875e-15
1.47312e-10
7.79227e-14
8.42864e-11
2.69798e-11
-6.93632e-13
6.02088e-10
2.45278e-13
-1.25934e-12
9.16927e-10
-1.86617e-12
1.16427e-09
-2.43244e-12
1.34932e-09
-2.89364e-12
1.47841e-09
-3.20991e-12
1.55831e-09
-3.36611e-12
1.59589e-09
-3.36794e-12
1.59777e-09
-3.23622e-12
1.57019e-09
-3.0009e-12
1.51883e-09
-2.69571e-12
1.44883e-09
-2.35396e-12
1.36472e-09
-2.00538e-12
1.27044e-09
-1.67424e-12
1.16938e-09
-1.37828e-12
1.06439e-09
-1.12851e-12
9.57865e-10
-9.2948e-13
8.51752e-10
-7.80004e-13
7.4763e-10
-6.74089e-13
6.46738e-10
-6.01997e-13
5.5003e-10
-5.51363e-13
4.58209e-10
-5.08258e-13
3.71768e-10
-4.58145e-13
2.91027e-10
-3.86717e-13
2.16156e-10
-2.80581e-13
1.47206e-10
-1.27753e-13
8.41336e-11
2.68521e-11
-1.04375e-12
6.02893e-10
2.3856e-13
-2.24395e-12
9.18127e-10
-3.65144e-12
1.16567e-09
-5.10876e-12
1.35078e-09
-6.48975e-12
1.47979e-09
-7.70067e-12
1.55952e-09
-8.67847e-12
1.59687e-09
-9.38715e-12
1.59848e-09
-9.81316e-12
1.57061e-09
-9.96064e-12
1.51898e-09
-9.84706e-12
1.44872e-09
-9.49943e-12
1.36438e-09
-8.95119e-12
1.2699e-09
-8.23972e-12
1.16867e-09
-7.40433e-12
1.06356e-09
-6.4848e-12
9.56945e-10
-5.52005e-12
8.50788e-10
-4.54711e-12
7.46657e-10
-3.60143e-12
6.45793e-10
-2.71536e-12
5.49144e-10
-1.9177e-12
4.57411e-10
-1.23311e-12
3.71084e-10
-6.81859e-13
2.90476e-10
-2.79779e-13
2.15754e-10
-3.83015e-14
1.46965e-10
3.53e-14
8.406e-11
2.68874e-11
-6.68187e-13
6.03347e-10
2.14456e-13
-1.28245e-12
9.18741e-10
-1.98316e-12
1.16637e-09
-2.69319e-12
1.35149e-09
-3.34694e-12
1.48044e-09
-3.89586e-12
1.56007e-09
-4.30962e-12
1.59728e-09
-4.5746e-12
1.59875e-09
-4.69113e-12
1.57073e-09
-4.67009e-12
1.51896e-09
-4.52956e-12
1.44858e-09
-4.29177e-12
1.36414e-09
-3.98055e-12
1.26959e-09
-3.61925e-12
1.16831e-09
-3.22934e-12
1.06317e-09
-2.8294e-12
9.56546e-10
-2.4346e-12
8.50393e-10
-2.05697e-12
7.46279e-10
-1.70431e-12
6.4544e-10
-1.38231e-12
5.48822e-10
-1.09377e-12
4.57122e-10
-8.38893e-13
3.70829e-10
-6.15735e-13
2.90253e-10
-4.20661e-13
2.15558e-10
-2.48875e-13
1.46793e-10
-9.48647e-14
8.39059e-11
2.67925e-11
-1.69881e-12
6.04614e-10
4.31578e-13
-3.55832e-12
9.20601e-10
-5.75019e-12
1.16857e-09
-8.04064e-12
1.35378e-09
-1.02324e-11
1.48264e-09
-1.2171e-11
1.56201e-09
-1.37462e-11
1.59886e-09
-1.48901e-11
1.59989e-09
-1.55727e-11
1.57141e-09
-1.57962e-11
1.51918e-09
-1.55887e-11
1.44837e-09
-1.49974e-11
1.36355e-09
-1.4083e-11
1.26867e-09
-1.29137e-11
1.16714e-09
-1.15608e-11
1.06181e-09
-1.00948e-11
9.55079e-10
-8.5821e-12
8.4888e-10
-7.0828e-12
7.4478e-10
-5.64907e-12
6.44006e-10
-4.32317e-12
5.47496e-10
-3.13899e-12
4.55938e-10
-2.1228e-12
3.69813e-10
-1.29392e-12
2.89424e-10
-6.65468e-13
2.1493e-10
-2.45005e-13
1.46372e-10
-3.52757e-14
8.36962e-11
2.67573e-11
-1.86391e-12
6.05956e-10
5.21877e-13
-3.77761e-12
9.22514e-10
-6.00817e-12
1.1708e-09
-8.31338e-12
1.35609e-09
-1.04868e-11
1.48481e-09
-1.23688e-11
1.56389e-09
-1.38501e-11
1.60034e-09
-1.48691e-11
1.60091e-09
-1.5407e-11
1.57195e-09
-1.54799e-11
1.51925e-09
-1.51306e-11
1.44802e-09
-1.44202e-11
1.36284e-09
-1.3421e-11
1.26767e-09
-1.22093e-11
1.16593e-09
-1.08591e-11
1.06046e-09
-9.43903e-12
9.53659e-10
-8.00954e-12
8.47451e-10
-6.62205e-12
7.43393e-10
-5.31733e-12
6.42702e-10
-4.12641e-12
5.46305e-10
-3.07132e-12
4.54883e-10
-2.16618e-12
3.68908e-10
-1.41836e-12
2.88676e-10
-8.29627e-13
2.14341e-10
-3.97285e-13
1.4594e-10
-1.15153e-13
8.34141e-11
2.66421e-11
-2.96053e-12
6.08135e-10
7.81635e-13
-6.13435e-12
9.25688e-10
-9.8809e-12
1.17454e-09
-1.38118e-11
1.36002e-09
-1.7596e-11
1.48859e-09
-2.09724e-11
1.56727e-09
-2.37532e-11
1.60312e-09
-2.58207e-11
1.60298e-09
-2.71199e-11
1.57325e-09
-2.76484e-11
1.51978e-09
-2.74463e-11
1.44782e-09
-2.65847e-11
1.36197e-09
-2.51565e-11
1.26624e-09
-2.32681e-11
1.16404e-09
-2.10326e-11
1.05823e-09
-1.85639e-11
9.51191e-10
-1.59715e-11
8.44858e-10
-1.33573e-11
7.40778e-10
-1.08132e-11
6.40158e-10
-8.42036e-12
5.43912e-10
-6.24669e-12
4.52709e-10
-4.3471e-12
3.67008e-10
-2.76343e-12
2.87092e-10
-1.52526e-12
2.13103e-10
-6.50919e-13
1.45066e-10
-1.48816e-13
8.2912e-11
2.64933e-11
-3.72468e-12
6.10844e-10
1.01547e-12
-7.62627e-12
9.2959e-10
-1.22017e-11
1.17912e-09
-1.69657e-11
1.36478e-09
-2.15049e-11
1.49313e-09
-2.54974e-11
1.57126e-09
-2.87173e-11
1.60634e-09
-3.10308e-11
1.60529e-09
-3.23853e-11
1.5746e-09
-3.27959e-11
1.52019e-09
-3.23295e-11
1.44735e-09
-3.10908e-11
1.36074e-09
-2.9208e-11
1.26436e-09
-2.68216e-11
1.16165e-09
-2.4076e-11
1.05548e-09
-2.1111e-11
9.48226e-10
-1.80567e-11
8.41804e-10
-1.50286e-11
7.3775e-10
-1.21264e-11
6.37255e-10
-9.43217e-12
5.41218e-10
-7.01085e-12
4.50288e-10
-4.91109e-12
3.64908e-10
-3.16651e-12
2.85348e-10
-1.79742e-12
2.11734e-10
-8.12656e-13
1.44081e-10
-2.11435e-13
8.23108e-11
2.62819e-11
-4.73969e-12
6.14316e-10
1.26772e-12
-9.74744e-12
9.34598e-10
-1.55925e-11
1.18496e-09
-2.16343e-11
1.37082e-09
-2.73366e-11
1.49883e-09
-3.22901e-11
1.57622e-09
-3.62168e-11
1.61027e-09
-3.89613e-11
1.60804e-09
-4.04749e-11
1.57612e-09
-4.07945e-11
1.52051e-09
-4.00222e-11
1.44658e-09
-3.83042e-11
1.35902e-09
-3.58136e-11
1.26187e-09
-3.27344e-11
1.15857e-09
-2.92492e-11
1.052e-09
-2.55305e-11
9.44507e-10
-2.17351e-11
8.38009e-10
-1.80009e-11
7.34016e-10
-1.44449e-11
6.33699e-10
-1.11628e-11
5.37936e-10
-8.22987e-12
4.47355e-10
-5.70237e-12
3.62381e-10
-3.61912e-12
2.83264e-10
-2.00358e-12
2.10118e-10
-8.66008e-13
1.42943e-10
-2.05442e-13
8.16502e-11
2.60764e-11
-5.5036e-12
6.18325e-10
1.49492e-12
-1.12427e-11
9.40337e-10
-1.79011e-11
1.19162e-09
-2.47341e-11
1.37766e-09
-3.11245e-11
1.50523e-09
-3.66103e-11
1.5817e-09
-4.08882e-11
1.61454e-09
-4.38001e-11
1.61095e-09
-4.53111e-11
1.57763e-09
-4.54829e-11
1.52068e-09
-4.44477e-11
1.44555e-09
-4.2383e-11
1.35695e-09
-3.94909e-11
1.25898e-09
-3.59813e-11
1.15506e-09
-3.2059e-11
1.04808e-09
-2.79143e-11
9.40362e-10
-2.37176e-11
8.33812e-10
-1.9616e-11
7.29914e-10
-1.57319e-11
6.29815e-10
-1.21635e-11
5.34367e-10
-8.98587e-12
4.44178e-10
-6.25317e-12
3.59648e-10
-4.00087e-12
2.81012e-10
-2.24824e-12
2.08366e-10
-1.00092e-12
1.41696e-10
-2.53295e-13
8.09026e-11
2.58231e-11
-6.13125e-12
6.22806e-10
1.65043e-12
-1.25363e-11
9.46742e-10
-1.99241e-11
1.19901e-09
-2.74437e-11
1.38518e-09
-3.44027e-11
1.51218e-09
-4.0296e-11
1.58759e-09
-4.48049e-11
1.61905e-09
-4.77777e-11
1.61392e-09
-4.92005e-11
1.57905e-09
-4.91638e-11
1.52065e-09
-4.78316e-11
1.44421e-09
-4.54119e-11
1.35453e-09
-4.21344e-11
1.2557e-09
-3.82318e-11
1.15116e-09
-3.39265e-11
1.04377e-09
-2.94222e-11
9.35858e-10
-2.48983e-11
8.29288e-10
-2.05073e-11
7.25523e-10
-1.63745e-11
6.25682e-10
-1.25989e-11
5.30592e-10
-9.2549e-12
4.40834e-10
-6.39517e-12
3.56788e-10
-4.05302e-12
2.7867e-10
-2.24535e-12
2.06558e-10
-9.75344e-13
1.40426e-10
-2.34969e-13
8.01622e-11
2.55881e-11
-6.20833e-12
6.27326e-10
1.68773e-12
-1.26257e-11
9.53159e-10
-1.99747e-11
1.20636e-09
-2.73879e-11
1.39259e-09
-3.4171e-11
1.51897e-09
-3.98309e-11
1.59325e-09
-4.40712e-11
1.62329e-09
-4.67672e-11
1.61662e-09
-4.79313e-11
1.58021e-09
-4.76769e-11
1.52039e-09
-4.61839e-11
1.44272e-09
-4.367e-11
1.35202e-09
-4.03671e-11
1.2524e-09
-3.65045e-11
1.1473e-09
-3.22971e-11
1.03956e-09
-2.79375e-11
9.31498e-10
-2.35925e-11
8.24943e-10
-1.94017e-11
7.21333e-10
-1.54775e-11
6.21758e-10
-1.1907e-11
5.27021e-10
-8.75433e-12
4.37681e-10
-6.06339e-12
3.54097e-10
-3.8605e-12
2.76467e-10
-2.15731e-12
2.04855e-10
-9.53351e-13
1.39222e-10
-2.38407e-13
7.94473e-11
2.53497e-11
-5.83519e-12
6.31584e-10
1.5775e-12
-1.18642e-11
9.59188e-10
-1.87264e-11
1.21322e-09
-2.5592e-11
1.39946e-09
-3.18096e-11
1.52518e-09
-3.69298e-11
1.59837e-09
-4.06952e-11
1.62706e-09
-4.30119e-11
1.61893e-09
-4.39127e-11
1.58112e-09
-4.35204e-11
1.52e-09
-4.20139e-11
1.44121e-09
-3.96017e-11
1.34961e-09
-3.65003e-11
1.2493e-09
-3.29198e-11
1.14372e-09
-2.90542e-11
1.0357e-09
-2.50751e-11
9.27519e-10
-2.11296e-11
8.20998e-10
-1.73396e-11
7.17543e-10
-1.38024e-11
6.18221e-10
-1.05931e-11
5.23812e-10
-7.76652e-12
4.34854e-10
-5.35981e-12
3.51691e-10
-3.39515e-12
2.74502e-10
-1.88207e-12
2.03342e-10
-8.1976e-13
1.3816e-10
-1.99072e-13
7.88266e-11
2.51507e-11
-4.88167e-12
6.35136e-10
1.32984e-12
-9.88386e-12
9.6419e-10
-1.55464e-11
1.21888e-09
-2.1175e-11
1.40508e-09
-2.62328e-11
1.53024e-09
-3.03583e-11
1.6025e-09
-3.33534e-11
1.63005e-09
-3.51557e-11
1.62074e-09
-3.58053e-11
1.58177e-09
-3.54125e-11
1.51961e-09
-3.41299e-11
1.43993e-09
-3.21299e-11
1.34761e-09
-2.95889e-11
1.24676e-09
-2.66753e-11
1.1408e-09
-2.3543e-11
1.03257e-09
-2.03275e-11
9.24304e-10
-1.7144e-11
8.17814e-10
-1.40877e-11
7.14486e-10
-1.12347e-11
6.15368e-10
-8.64366e-12
5.21221e-10
-6.35775e-12
4.32569e-10
-4.40654e-12
3.4974e-10
-2.80805e-12
2.72904e-10
-1.57063e-12
2.02105e-10
-6.94622e-13
1.37284e-10
-1.739e-13
7.83058e-11
2.49768e-11
-3.61846e-12
6.37775e-10
9.79556e-13
-7.33583e-12
9.67908e-10
-1.15361e-11
1.22308e-09
-1.57019e-11
1.40925e-09
-1.94384e-11
1.53398e-09
-2.24834e-11
1.60555e-09
-2.46964e-11
1.63227e-09
-2.60357e-11
1.62208e-09
-2.65332e-11
1.58226e-09
-2.62701e-11
1.51935e-09
-2.53564e-11
1.43902e-09
-2.3916e-11
1.34617e-09
-2.20744e-11
1.24491e-09
-1.9952e-11
1.13868e-09
-1.76591e-11
1.03027e-09
-1.52934e-11
9.21938e-10
-1.29388e-11
8.1546e-10
-1.0666e-11
7.12213e-10
-8.53245e-12
6.13235e-10
-6.58382e-12
5.19272e-10
-4.85498e-12
4.3084e-10
-3.37128e-12
3.48256e-10
-2.14985e-12
2.71682e-10
-1.2007e-12
2.01155e-10
-5.27803e-13
1.36611e-10
-1.30122e-13
7.79082e-11
2.48466e-11
-2.14244e-12
6.39333e-10
5.83991e-13
-4.33669e-12
9.70102e-10
-6.8226e-12
1.22557e-09
-9.30089e-12
1.41173e-09
-1.1543e-11
1.53622e-09
-1.33966e-11
1.6074e-09
-1.47781e-11
1.63365e-09
-1.56594e-11
1.62296e-09
-1.60536e-11
1.58266e-09
-1.6001e-11
1.51929e-09
-1.5559e-11
1.43858e-09
-1.4793e-11
1.3454e-09
-1.37711e-11
1.24389e-09
-1.25596e-11
1.13747e-09
-1.12213e-11
1.02893e-09
-9.81299e-12
9.2053e-10
-8.3858e-12
8.14032e-10
-6.98422e-12
7.10812e-10
-5.64647e-12
6.11897e-10
-4.40465e-12
5.1803e-10
-3.28513e-12
4.2972e-10
-2.30897e-12
3.4728e-10
-1.49232e-12
2.70866e-10
-8.46916e-13
2.0051e-10
-3.80528e-13
1.36144e-10
-9.73796e-14
7.7625e-11
2.47493e-11
-6.8447e-13
6.39835e-10
1.82333e-13
-1.40567e-12
9.70823e-10
-2.24265e-12
1.22641e-09
-3.10624e-12
1.41259e-09
-3.92675e-12
1.53704e-09
-4.65444e-12
1.60813e-09
-5.25698e-12
1.63425e-09
-5.71601e-12
1.62342e-09
-6.02376e-12
1.58296e-09
-6.18033e-12
1.51945e-09
-6.19163e-12
1.43859e-09
-6.068e-12
1.34528e-09
-5.82314e-12
1.24365e-09
-5.47336e-12
1.13712e-09
-5.03689e-12
1.0285e-09
-4.53335e-12
9.20026e-10
-3.98313e-12
8.13482e-10
-3.40686e-12
7.10236e-10
-2.82491e-12
6.11315e-10
-2.25688e-12
5.17462e-10
-1.72121e-12
4.29185e-10
-1.23482e-12
3.46793e-10
-8.12866e-13
2.70444e-10
-4.68524e-13
2.00166e-10
-2.1288e-13
1.35889e-10
-5.48734e-14
7.7467e-11
2.46944e-11
7.14426e-13
6.39315e-10
-1.94592e-13
1.43156e-12
9.70106e-10
2.21352e-12
1.22563e-09
2.94606e-12
1.41186e-09
3.54472e-12
1.53644e-09
3.95829e-12
1.60771e-09
4.16649e-12
1.63404e-09
4.1744e-12
1.62341e-09
4.00549e-12
1.58313e-09
3.69467e-12
1.51976e-09
3.28217e-12
1.439e-09
2.80863e-12
1.34575e-09
2.31153e-12
1.24414e-09
1.82295e-12
1.13761e-09
1.36826e-12
1.02895e-09
9.65753e-13
9.20429e-10
6.26865e-13
8.13821e-10
3.568e-13
7.10506e-10
1.5541e-13
6.11516e-10
1.81976e-14
5.176e-10
-6.26657e-14
4.29265e-10
-9.73676e-14
3.46828e-10
-9.75745e-14
2.70444e-10
-7.56686e-14
2.00144e-10
-4.41086e-14
1.35857e-10
-1.49095e-14
7.74378e-11
2.46795e-11
1.98023e-12
6.37876e-10
-5.40544e-13
3.99481e-12
9.68091e-10
6.25194e-12
1.22337e-09
8.46062e-12
1.40965e-09
1.03985e-11
1.53451e-09
1.19197e-11
1.60619e-09
1.29499e-11
1.63301e-09
1.3474e-11
1.62288e-09
1.35215e-11
1.58309e-09
1.31518e-11
1.52013e-09
1.24412e-11
1.43971e-09
1.14726e-11
1.34672e-09
1.0328e-11
1.24529e-09
9.08303e-12
1.13885e-09
7.80383e-12
1.03023e-09
6.54539e-12
9.21687e-10
5.35107e-12
8.15015e-10
4.25307e-12
7.11604e-10
3.27336e-12
6.12496e-10
2.42492e-12
5.18448e-10
1.71316e-12
4.29977e-10
1.13732e-12
3.47404e-10
6.91844e-13
2.7089e-10
3.6761e-13
2.00468e-10
1.53005e-13
1.36072e-10
3.48865e-14
7.75559e-11
2.47144e-11
3.127e-12
6.35597e-10
-8.48523e-13
6.34102e-12
9.64877e-10
9.98158e-12
1.21973e-09
1.36e-11
1.40603e-09
1.68471e-11
1.53126e-09
1.94854e-11
1.60355e-09
2.13828e-11
1.63111e-09
2.24962e-11
1.62177e-09
2.2851e-11
1.58273e-09
2.25205e-11
1.52046e-09
2.1608e-11
1.44062e-09
2.02312e-11
1.3481e-09
1.8511e-11
1.24701e-09
1.65636e-11
1.1408e-09
1.44946e-11
1.0323e-09
1.23958e-11
9.23786e-10
1.03443e-11
8.17067e-10
8.40188e-12
7.13546e-10
6.61592e-12
6.14282e-10
5.02045e-12
5.20044e-10
3.63778e-12
4.3136e-10
2.48022e-12
3.48561e-10
1.5517e-12
2.71818e-10
8.49413e-13
2.0117e-10
3.65263e-13
1.36556e-10
8.72252e-14
7.7834e-11
2.48016e-11
4.11464e-12
6.32599e-10
-1.11589e-12
8.36592e-12
9.60626e-10
1.32206e-11
1.21487e-09
1.81008e-11
1.40115e-09
2.25489e-11
1.52681e-09
2.62439e-11
1.59986e-09
2.89963e-11
1.62836e-09
3.07294e-11
1.62004e-09
3.14559e-11
1.582e-09
3.12529e-11
1.52066e-09
3.02404e-11
1.44164e-09
2.85619e-11
1.34977e-09
2.63701e-11
1.2492e-09
2.38155e-11
1.14336e-09
2.10395e-11
1.03508e-09
1.81688e-11
9.26657e-10
1.5314e-11
8.19922e-10
1.2566e-11
7.16294e-10
9.99871e-12
6.16849e-10
7.66904e-12
5.22373e-10
5.61848e-12
4.3341e-10
3.87469e-12
3.50305e-10
2.45356e-12
2.73239e-10
1.36097e-12
2.02263e-10
5.94574e-13
1.37322e-10
1.45482e-13
7.82831e-11
2.49471e-11
4.90816e-12
6.29018e-10
-1.32766e-12
1.00083e-11
9.55526e-10
1.5871e-11
1.20901e-09
2.18172e-11
1.39521e-09
2.73013e-11
1.52133e-09
3.19318e-11
1.59523e-09
3.54663e-11
1.62483e-09
3.7794e-11
1.61771e-09
3.89112e-11
1.58089e-09
3.88902e-11
1.52068e-09
3.78589e-11
1.44267e-09
3.59783e-11
1.35166e-09
3.34246e-11
1.25175e-09
3.03766e-11
1.1464e-09
2.70055e-11
1.03845e-09
2.34685e-11
9.30194e-10
1.99054e-11
8.23485e-10
1.64359e-11
7.19764e-10
1.31595e-11
6.20126e-10
1.01558e-11
5.25377e-10
7.48584e-12
4.3608e-10
5.19374e-12
3.52597e-10
3.30848e-12
2.75124e-10
1.84603e-12
2.03725e-10
8.11283e-13
1.38357e-10
1.99962e-13
7.88944e-11
2.5147e-11
5.42851e-12
6.25057e-10
-1.46736e-12
1.10899e-11
9.49864e-10
1.76318e-11
1.20247e-09
2.43133e-11
1.38852e-09
3.05321e-11
1.51511e-09
3.58473e-11
1.58991e-09
3.99771e-11
1.6207e-09
4.27813e-11
1.61491e-09
4.42359e-11
1.57943e-09
4.44063e-11
1.52051e-09
4.34208e-11
1.44365e-09
4.1448e-11
1.35363e-09
3.8678e-11
1.25452e-09
3.53071e-11
1.14978e-09
3.15274e-11
1.04223e-09
2.75181e-11
9.34203e-10
2.34407e-11
8.27562e-10
1.94375e-11
7.23767e-10
1.56284e-11
6.23935e-10
1.21115e-11
5.28894e-10
8.9645e-12
4.39227e-10
6.24551e-12
3.55316e-10
3.99529e-12
2.77375e-10
2.23915e-12
2.05481e-10
9.89034e-13
1.39607e-10
2.45543e-13
7.96379e-11
2.53926e-11
5.6177e-12
6.20956e-10
-1.51646e-12
1.14953e-11
9.43987e-10
1.83125e-11
1.19565e-09
2.53098e-11
1.38153e-09
3.18641e-11
1.50855e-09
3.7513e-11
1.58426e-09
4.1954e-11
1.61626e-09
4.50288e-11
1.61183e-09
4.66973e-11
1.57776e-09
4.70168e-11
1.52019e-09
4.61101e-11
1.44456e-09
4.41452e-11
1.35559e-09
4.13152e-11
1.25735e-09
3.78229e-11
1.15327e-09
3.3869e-11
1.04618e-09
2.96435e-11
9.38428e-10
2.53198e-11
8.31886e-10
2.10513e-11
7.28035e-10
1.69697e-11
6.28016e-10
1.31841e-11
5.32679e-10
9.78228e-12
4.42629e-10
6.83146e-12
3.58267e-10
4.3802e-12
2.79826e-10
2.46037e-12
2.07401e-10
1.08913e-12
1.40979e-10
2.71095e-13
8.04559e-11
2.56637e-11
5.43825e-12
6.16985e-10
-1.46766e-12
1.11372e-11
9.38288e-10
1.77627e-11
1.18903e-09
2.4584e-11
1.37471e-09
3.09981e-11
1.50214e-09
3.65534e-11
1.57871e-09
4.09506e-11
1.61186e-09
4.40284e-11
1.60875e-09
4.57416e-11
1.57605e-09
4.61366e-11
1.5198e-09
4.53268e-11
1.44537e-09
4.34708e-11
1.35745e-09
4.07536e-11
1.26007e-09
3.73714e-11
1.15665e-09
3.35198e-11
1.05003e-09
2.93851e-11
9.42563e-10
2.51388e-11
8.36132e-10
2.09332e-11
7.32241e-10
1.69001e-11
6.32049e-10
1.31497e-11
5.3643e-10
9.77127e-12
4.46008e-10
6.83393e-12
3.61204e-10
4.38846e-12
2.82271e-10
2.469e-12
2.09321e-10
1.09502e-12
1.42353e-10
2.73325e-13
8.12776e-11
2.5937e-11
4.9296e-12
6.13385e-10
-1.32972e-12
1.01009e-11
9.33117e-10
1.61194e-11
1.18301e-09
2.23244e-11
1.3685e-09
2.81688e-11
1.49629e-09
3.32415e-11
1.57364e-09
3.72681e-11
1.60783e-09
4.00988e-11
1.60592e-09
4.16895e-11
1.57446e-09
4.20793e-11
1.51941e-09
4.13691e-11
1.44608e-09
3.97014e-11
1.35912e-09
3.72434e-11
1.26253e-09
3.41733e-11
1.15972e-09
3.06691e-11
1.05354e-09
2.6901e-11
9.46331e-10
2.30259e-11
8.40007e-10
1.91836e-11
7.36083e-10
1.54952e-11
6.35738e-10
1.20623e-11
5.39863e-10
8.96726e-12
4.49103e-10
6.2743e-12
3.63897e-10
4.03071e-12
2.84515e-10
2.26856e-12
2.11083e-10
1.00645e-12
1.43615e-10
2.51312e-13
8.20327e-11
2.61883e-11
4.18877e-12
6.10327e-10
-1.13019e-12
8.58241e-12
9.28723e-10
1.36962e-11
1.17789e-09
1.89685e-11
1.36323e-09
2.3934e-11
1.49133e-09
2.8243e-11
1.56933e-09
3.16618e-11
1.60441e-09
3.4063e-11
1.60352e-09
3.54091e-11
1.57311e-09
3.57337e-11
1.51908e-09
3.51231e-11
1.44669e-09
3.36991e-11
1.36054e-09
3.16043e-11
1.26462e-09
2.89908e-11
1.16233e-09
2.60103e-11
1.05652e-09
2.28077e-11
9.49534e-10
1.95162e-11
8.43299e-10
1.62546e-11
7.39345e-10
1.31255e-11
6.38867e-10
1.02146e-11
5.42773e-10
7.5917e-12
4.51726e-10
5.31062e-12
3.66178e-10
3.41102e-12
2.86415e-10
1.91961e-12
2.12574e-10
8.51716e-13
1.44683e-10
2.12795e-13
8.26717e-11
2.64011e-11
3.35264e-12
6.07879e-10
-9.04607e-13
6.8677e-12
9.25208e-10
1.09558e-11
1.17381e-09
1.51659e-11
1.35902e-09
1.91251e-11
1.48737e-09
2.25536e-11
1.5659e-09
2.52653e-11
1.6017e-09
2.71598e-11
1.60163e-09
2.82091e-11
1.57207e-09
2.84422e-11
1.51885e-09
2.79299e-11
1.4472e-09
2.67715e-11
1.3617e-09
2.50825e-11
1.26631e-09
2.29851e-11
1.16443e-09
2.0601e-11
1.0589e-09
1.8046e-11
9.52089e-10
1.5426e-11
8.45919e-10
1.2835e-11
7.41936e-10
1.03537e-11
6.41348e-10
8.04963e-12
5.45078e-10
5.97678e-12
4.53798e-10
4.17689e-12
3.67978e-10
2.68023e-12
2.87911e-10
1.50686e-12
2.13748e-10
6.67879e-13
1.45521e-10
1.66659e-13
8.31729e-11
2.65678e-11
2.54315e-12
6.06022e-10
-6.86607e-13
5.20643e-12
9.22545e-10
8.29984e-12
1.17071e-09
1.148e-11
1.35584e-09
1.44634e-11
1.48439e-09
1.70386e-11
1.56332e-09
1.90656e-11
1.59968e-09
2.04706e-11
1.60022e-09
2.12345e-11
1.5713e-09
2.13816e-11
1.5187e-09
2.0968e-11
1.44762e-09
2.00705e-11
1.3626e-09
1.87778e-11
1.26761e-09
1.71833e-11
1.16603e-09
1.53793e-11
1.06071e-09
1.34531e-11
9.54015e-10
1.1484e-11
8.47888e-10
9.54213e-12
7.43878e-10
7.68726e-12
6.43203e-10
5.96885e-12
5.46796e-10
4.4263e-12
4.55341e-10
3.08965e-12
3.69315e-10
1.98035e-12
2.89021e-10
1.11224e-12
2.14616e-10
4.92549e-13
1.46141e-10
1.22838e-13
8.35426e-11
2.66906e-11
1.84619e-12
6.04674e-10
-4.98521e-13
3.77767e-12
9.20613e-10
6.01777e-12
1.16847e-09
8.31594e-12
1.35354e-09
1.04661e-11
1.48224e-09
1.23152e-11
1.56147e-09
1.3763e-11
1.59823e-09
1.47575e-11
1.59923e-09
1.52868e-11
1.57077e-09
1.53706e-11
1.51862e-09
1.5051e-11
1.44793e-09
1.43853e-11
1.36326e-09
1.34385e-11
1.26855e-09
1.22789e-11
1.16718e-09
1.09733e-11
1.06201e-09
9.58462e-12
9.55404e-10
8.16973e-12
8.49303e-10
6.77844e-12
7.45269e-10
5.45301e-12
6.44529e-10
4.22811e-12
5.48021e-10
3.13111e-12
4.56438e-10
2.1826e-12
3.70264e-10
1.39706e-12
2.89806e-10
7.8355e-13
2.15229e-10
3.46465e-13
1.46578e-10
8.62436e-14
8.38028e-11
2.67768e-11
1.29499e-12
6.03729e-10
-3.49915e-13
2.6481e-12
9.1926e-10
4.21524e-12
1.16691e-09
5.82e-12
1.35194e-09
7.31774e-12
1.48074e-09
8.60145e-12
1.56019e-09
9.60175e-12
1.59723e-09
1.02833e-11
1.59855e-09
1.06389e-11
1.57042e-09
1.06837e-11
1.51858e-09
1.04481e-11
1.44817e-09
9.97307e-12
1.36374e-09
9.30468e-12
1.26922e-09
8.49089e-12
1.168e-09
7.57849e-12
1.06292e-09
6.61122e-12
9.56371e-10
5.62844e-12
8.50286e-10
4.66444e-12
7.46233e-10
3.74811e-12
6.45445e-10
2.903e-12
5.48866e-10
2.14756e-12
4.57193e-10
1.49553e-12
3.70916e-10
9.56409e-13
2.90345e-10
5.35981e-13
2.1565e-10
2.36852e-13
1.46877e-10
5.89417e-14
8.39807e-11
2.68358e-11
8.87384e-13
6.03082e-10
-2.3977e-13
1.81402e-12
9.18333e-10
2.88607e-12
1.16583e-09
3.98224e-12
1.35084e-09
5.00334e-12
1.47972e-09
5.87626e-12
1.55932e-09
6.55394e-12
1.59655e-09
7.01277e-12
1.59809e-09
7.24855e-12
1.57018e-09
7.27214e-12
1.51855e-09
7.10501e-12
1.44834e-09
6.77548e-12
1.36407e-09
6.3154e-12
1.26968e-09
5.75765e-12
1.16856e-09
5.13423e-12
1.06355e-09
4.47488e-12
9.5703e-10
3.80631e-12
8.50954e-10
3.15167e-12
7.46888e-10
2.53038e-12
6.46066e-10
1.95821e-12
5.49438e-10
1.44745e-12
4.57704e-10
1.00715e-12
3.71356e-10
6.43539e-13
2.90709e-10
3.60315e-13
2.15933e-10
1.59048e-13
1.47079e-10
3.95163e-14
8.41002e-11
2.68753e-11
5.98558e-13
6.02645e-10
-1.61826e-13
1.22307e-12
9.17709e-10
1.94505e-12
1.16511e-09
2.68256e-12
1.3501e-09
3.36869e-12
1.47903e-09
3.95427e-12
1.55873e-09
4.40779e-12
1.5961e-09
4.71359e-12
1.59778e-09
4.86916e-12
1.57002e-09
4.88206e-12
1.51854e-09
4.767e-12
1.44845e-09
4.54322e-12
1.36429e-09
4.23226e-12
1.26999e-09
3.85632e-12
1.16893e-09
3.4369e-12
1.06397e-09
2.99397e-12
9.57473e-10
2.5454e-12
8.51403e-10
2.10663e-12
7.47326e-10
1.69062e-12
6.46482e-10
1.30782e-12
5.49821e-10
9.66359e-13
4.58046e-10
6.72206e-13
3.7165e-10
4.29427e-13
2.90952e-10
2.40414e-13
2.16122e-10
1.0614e-13
1.47213e-10
2.63895e-14
8.418e-11
2.69017e-11
4.00343e-13
6.02353e-10
-1.08199e-13
8.18034e-13
9.17291e-10
1.3007e-12
1.16463e-09
1.79345e-12
1.34961e-09
2.25152e-12
1.47857e-09
2.64206e-12
1.55834e-09
2.94407e-12
1.59579e-09
3.14722e-12
1.59758e-09
3.24993e-12
1.56992e-09
3.25737e-12
1.51853e-09
3.17947e-12
1.44853e-09
3.02914e-12
1.36444e-09
2.82084e-12
1.2702e-09
2.5694e-12
1.16918e-09
2.28918e-12
1.06425e-09
1.99351e-12
9.57769e-10
1.69429e-12
8.51702e-10
1.40179e-12
7.47619e-10
1.12461e-12
6.46759e-10
8.69684e-13
5.50076e-10
6.42394e-13
4.58273e-10
4.46685e-13
3.71846e-10
2.8523e-13
2.91113e-10
1.59594e-13
2.16248e-10
7.03975e-14
1.47302e-10
1.74755e-14
8.42329e-11
2.69192e-11
2.66483e-13
6.02158e-10
-7.20693e-14
5.44339e-13
9.17013e-10
8.65317e-13
1.16431e-09
1.19288e-12
1.34928e-09
1.49723e-12
1.47827e-09
1.75655e-12
1.55808e-09
1.9569e-12
1.59559e-09
2.09144e-12
1.59744e-09
2.15919e-12
1.56985e-09
2.16362e-12
1.51853e-09
2.11139e-12
1.44858e-09
2.01111e-12
1.36454e-09
1.87241e-12
1.27034e-09
1.70515e-12
1.16935e-09
1.51889e-12
1.06443e-09
1.32247e-12
9.57965e-10
1.12378e-12
8.51901e-10
9.29635e-13
7.47813e-10
7.45723e-13
6.46943e-10
5.76632e-13
5.50245e-10
4.25911e-13
4.58424e-10
2.96159e-13
3.71975e-10
1.89134e-13
2.9122e-10
1.05856e-13
2.16331e-10
4.67239e-14
1.47361e-10
1.16157e-14
8.4268e-11
2.69308e-11
1.76714e-13
6.02029e-10
-4.77522e-14
3.61053e-13
9.16829e-10
5.73971e-13
1.16409e-09
7.91204e-13
1.34906e-09
9.92984e-13
1.47807e-09
1.16484e-12
1.55791e-09
1.29754e-12
1.59546e-09
1.38658e-12
1.59735e-09
1.43131e-12
1.56981e-09
1.43406e-12
1.51853e-09
1.39925e-12
1.44862e-09
1.33262e-12
1.36461e-09
1.24054e-12
1.27043e-09
1.12956e-12
1.16946e-09
1.00603e-12
1.06456e-09
8.75799e-13
9.58096e-10
7.44099e-13
8.52032e-10
6.15442e-13
7.47942e-10
4.93593e-13
6.47065e-10
3.81589e-13
5.50357e-10
2.81776e-13
4.58523e-10
1.95871e-13
3.72061e-10
1.25033e-13
2.91291e-10
6.99351e-14
2.16386e-10
3.08357e-14
1.474e-10
7.65001e-15
8.42912e-11
2.69384e-11
1.15052e-13
6.01946e-10
-3.1141e-14
2.34912e-13
9.16709e-10
3.73299e-13
1.16396e-09
5.14428e-13
1.34892e-09
6.45438e-13
1.47794e-09
7.56922e-13