/*--------------------------------*- C++ -*----------------------------------*\
| =========                 |                                                 |
| \\      /  F ield         | OpenFOAM: The Open Source CFD Toolbox           |
|  \\    /   O peration     | Version:  2106                                  |
|   \\  /    A nd           | Website:  www.openfoam.com                      |
|    \\/     M anipulation  |                                                 |
\*---------------------------------------------------------------------------*/
FoamFile
{
    version     2.0;
    format      ascii;
    arch        "LSB;label=32;scalar=64";
    class       volScalarField;
    location    "110.00000";
    object      SC3H5;
}
// * * * * * * * * * * * * * * * * * * * * * * * * * * * * * * * * * * * * * //

dimensions      [0 0 0 0 0 0 0];

internalField   nonuniform List<scalar> 
3360
(
5.85414e-19
6.04257e-19
6.30479e-19
6.62554e-19
6.99144e-19
7.39051e-19
7.81188e-19
8.24578e-19
8.6835e-19
9.11734e-19
9.54063e-19
9.94771e-19
1.03339e-18
1.06955e-18
1.10297e-18
1.13344e-18
1.16085e-18
1.18515e-18
1.20633e-18
1.22448e-18
1.23969e-18
1.25212e-18
1.26193e-18
1.26933e-18
1.27454e-18
1.27778e-18
1.27928e-18
2.56829e-18
2.66271e-18
2.79595e-18
2.96188e-18
3.15542e-18
3.37213e-18
3.60806e-18
3.85957e-18
4.1233e-18
4.39605e-18
4.67478e-18
4.9565e-18
5.23827e-18
5.51721e-18
5.79045e-18
6.0552e-18
6.30872e-18
6.54833e-18
6.7715e-18
6.97583e-18
7.15912e-18
7.31944e-18
7.45514e-18
7.56488e-18
7.64771e-18
7.70301e-18
7.73059e-18
8.05944e-18
8.41324e-18
8.91598e-18
9.54771e-18
1.02919e-17
1.11336e-17
1.20588e-17
1.30535e-17
1.41035e-17
1.51946e-17
1.63119e-17
1.74409e-17
1.8567e-17
1.96761e-17
2.07542e-17
2.17882e-17
2.27661e-17
2.36768e-17
2.4511e-17
2.52608e-17
2.59202e-17
2.64848e-17
2.69522e-17
2.73217e-17
2.75941e-17
2.77717e-17
2.78581e-17
2.34753e-17
2.46415e-17
2.63099e-17
2.84208e-17
3.09243e-17
3.37736e-17
3.6922e-17
4.03211e-17
4.39202e-17
4.76657e-17
5.15026e-17
5.53747e-17
5.92263e-17
6.30031e-17
6.66535e-17
7.01302e-17
7.33914e-17
7.64013e-17
7.91314e-17
8.15601e-17
8.36733e-17
8.54635e-17
8.69297e-17
8.80764e-17
8.89133e-17
8.94536e-17
8.97143e-17
6.85985e-17
7.22785e-17
7.75527e-17
8.42413e-17
9.21911e-17
1.01255e-16
1.11283e-16
1.22114e-16
1.33578e-16
1.45495e-16
1.57678e-16
1.69941e-16
1.82099e-16
1.93976e-16
2.0541e-16
2.16255e-16
2.26386e-16
2.35697e-16
2.4411e-16
2.51566e-16
2.58031e-16
2.63489e-16
2.67946e-16
2.71422e-16
2.73952e-16
2.75582e-16
2.76367e-16
2.02303e-16
2.13606e-16
2.29827e-16
2.50415e-16
2.749e-16
3.02824e-16
3.33717e-16
3.67075e-16
4.02361e-16
4.39011e-16
4.76441e-16
5.14067e-16
5.51315e-16
5.87646e-16
6.2256e-16
6.55615e-16
6.86436e-16
7.14714e-16
7.40215e-16
7.62778e-16
7.82306e-16
7.9877e-16
8.12192e-16
8.22646e-16
8.30245e-16
8.35135e-16
8.37487e-16
6.01063e-16
6.35417e-16
6.84714e-16
7.47287e-16
8.21696e-16
9.06541e-16
1.00036e-15
1.10162e-15
1.20865e-15
1.31972e-15
1.43305e-15
1.54687e-15
1.65943e-15
1.76912e-15
1.87442e-15
1.97404e-15
2.06684e-15
2.15193e-15
2.22861e-15
2.29642e-15
2.35508e-15
2.40451e-15
2.44479e-15
2.47616e-15
2.49896e-15
2.51363e-15
2.52068e-15
1.79174e-15
1.89513e-15
2.04357e-15
2.23205e-15
2.45625e-15
2.71192e-15
2.99467e-15
3.29978e-15
3.62225e-15
3.95682e-15
4.2981e-15
4.64071e-15
4.97943e-15
5.30934e-15
5.62596e-15
5.92532e-15
6.20409e-15
6.45956e-15
6.6897e-15
6.8931e-15
7.06899e-15
7.21715e-15
7.33785e-15
7.43179e-15
7.50004e-15
7.54393e-15
7.56503e-15
5.35519e-15
5.66598e-15
6.11209e-15
6.67847e-15
7.35207e-15
8.12011e-15
8.96927e-15
9.88535e-15
1.08532e-14
1.18571e-14
1.28807e-14
1.39079e-14
1.49232e-14
1.59117e-14
1.686e-14
1.77565e-14
1.85911e-14
1.93558e-14
2.00445e-14
2.06532e-14
2.11795e-14
2.16227e-14
2.19839e-14
2.22649e-14
2.24691e-14
2.26004e-14
2.26635e-14
1.6006e-14
1.6937e-14
1.82736e-14
1.99706e-14
2.19889e-14
2.42902e-14
2.68344e-14
2.95788e-14
3.24781e-14
3.54847e-14
3.855e-14
4.16256e-14
4.46646e-14
4.7623e-14
5.04606e-14
5.31423e-14
5.56384e-14
5.79248e-14
5.99836e-14
6.18026e-14
6.3375e-14
6.4699e-14
6.57774e-14
6.66165e-14
6.7226e-14
6.76179e-14
6.78062e-14
4.78614e-14
5.06487e-14
5.46495e-14
5.97281e-14
6.57669e-14
7.26506e-14
8.02588e-14
8.84633e-14
9.7128e-14
1.0611e-13
1.15265e-13
1.24447e-13
1.33518e-13
1.42344e-13
1.50808e-13
1.58805e-13
1.66246e-13
1.73061e-13
1.79196e-13
1.84615e-13
1.89299e-13
1.93243e-13
1.96455e-13
1.98954e-13
2.00769e-13
2.01936e-13
2.02496e-13
1.42969e-13
1.51292e-13
1.63236e-13
1.78397e-13
1.96419e-13
2.16958e-13
2.39652e-13
2.64117e-13
2.89945e-13
3.1671e-13
3.43978e-13
3.71318e-13
3.98313e-13
4.24573e-13
4.49744e-13
4.73516e-13
4.95628e-13
5.15871e-13
5.34088e-13
5.50175e-13
5.64074e-13
5.75773e-13
5.85297e-13
5.92706e-13
5.98085e-13
6.01543e-13
6.03204e-13
4.26563e-13
4.51366e-13
4.86951e-13
5.32096e-13
5.85736e-13
6.46831e-13
7.14295e-13
7.86976e-13
8.63655e-13
9.43061e-13
1.0239e-12
1.1049e-12
1.18483e-12
1.26253e-12
1.33696e-12
1.40721e-12
1.47252e-12
1.53228e-12
1.58603e-12
1.63348e-12
1.67446e-12
1.70893e-12
1.73699e-12
1.75881e-12
1.77465e-12
1.78483e-12
1.78972e-12
1.26879e-12
1.34236e-12
1.44787e-12
1.58166e-12
1.74052e-12
1.92134e-12
2.12084e-12
2.3356e-12
2.56196e-12
2.79616e-12
3.03437e-12
3.27282e-12
3.50787e-12
3.73617e-12
3.95466e-12
4.1607e-12
4.35208e-12
4.52704e-12
4.6843e-12
4.82301e-12
4.94272e-12
5.04338e-12
5.12526e-12
5.18889e-12
5.23506e-12
5.26472e-12
5.27896e-12
3.75953e-12
3.97648e-12
4.28743e-12
4.68137e-12
5.14868e-12
5.67993e-12
6.26537e-12
6.8947e-12
7.55712e-12
8.24149e-12
8.93657e-12
9.63133e-12
1.03152e-11
1.09785e-11
1.16125e-11
1.22096e-11
1.27634e-11
1.32693e-11
1.37234e-11
1.41236e-11
1.44686e-11
1.47585e-11
1.49941e-11
1.51771e-11
1.53098e-11
1.5395e-11
1.54359e-11
1.10713e-11
1.17049e-11
1.26122e-11
1.37603e-11
1.51203e-11
1.6664e-11
1.83622e-11
2.01845e-11
2.2099e-11
2.40731e-11
2.60742e-11
2.80704e-11
3.00318e-11
3.19304e-11
3.37418e-11
3.54447e-11
3.70219e-11
3.84599e-11
3.97491e-11
4.08833e-11
4.18602e-11
4.26798e-11
4.33453e-11
4.38616e-11
4.42356e-11
4.44756e-11
4.45906e-11
3.23373e-11
3.41634e-11
3.67749e-11
4.00741e-11
4.39747e-11
4.83924e-11
5.32407e-11
5.843e-11
6.38677e-11
6.94598e-11
7.51133e-11
8.07383e-11
8.62506e-11
9.15733e-11
9.6639e-11
1.0139e-10
1.05781e-10
1.09776e-10
1.13351e-10
1.16491e-10
1.1919e-10
1.21452e-10
1.23285e-10
1.24706e-10
1.25734e-10
1.26393e-10
1.26709e-10
9.33812e-11
9.85482e-11
1.05925e-10
1.15224e-10
1.2619e-10
1.38573e-10
1.52121e-10
1.66574e-10
1.81667e-10
1.97136e-10
2.12721e-10
2.28175e-10
2.43269e-10
2.57799e-10
2.71584e-10
2.84477e-10
2.9636e-10
3.07143e-10
3.16769e-10
3.25204e-10
3.32442e-10
3.38495e-10
3.43394e-10
3.47184e-10
3.49923e-10
3.51677e-10
3.52516e-10
2.65533e-10
2.79801e-10
3.00129e-10
3.25681e-10
3.55714e-10
3.89506e-10
4.26331e-10
4.65456e-10
5.06144e-10
5.47671e-10
5.89336e-10
6.30484e-10
6.70517e-10
7.08906e-10
7.45199e-10
7.79028e-10
8.10106e-10
8.38226e-10
8.63258e-10
8.8514e-10
9.03871e-10
9.19502e-10
9.32129e-10
9.41883e-10
9.4892e-10
9.53418e-10
9.55568e-10
7.39224e-10
7.774e-10
8.31649e-10
8.99624e-10
9.79219e-10
1.0684e-09
1.16516e-09
1.2675e-09
1.37343e-09
1.48104e-09
1.58852e-09
1.6942e-09
1.79658e-09
1.89436e-09
1.98645e-09
2.07197e-09
2.15028e-09
2.22091e-09
2.2836e-09
2.33825e-09
2.38492e-09
2.42377e-09
2.4551e-09
2.47925e-09
2.49664e-09
2.50775e-09
2.51305e-09
1.99934e-09
2.09744e-09
2.23649e-09
2.41016e-09
2.61275e-09
2.83882e-09
3.08306e-09
3.34026e-09
3.60537e-09
3.87357e-09
4.14036e-09
4.40169e-09
4.65393e-09
4.89401e-09
5.11941e-09
5.32813e-09
5.51871e-09
5.69019e-09
5.84205e-09
5.97417e-09
6.08678e-09
6.18038e-09
6.25572e-09
6.31372e-09
6.35544e-09
6.38203e-09
6.39471e-09
5.20133e-09
5.44036e-09
5.77843e-09
6.19954e-09
6.68934e-09
7.23432e-09
7.82146e-09
8.43823e-09
9.07263e-09
9.71336e-09
1.03499e-08
1.09729e-08
1.15739e-08
1.21457e-08
1.26825e-08
1.31797e-08
1.3634e-08
1.40434e-08
1.44067e-08
1.47236e-08
1.49947e-08
1.52209e-08
1.54039e-08
1.55454e-08
1.56477e-08
1.57133e-08
1.57448e-08
1.28882e-08
1.34293e-08
1.41927e-08
1.51408e-08
1.62401e-08
1.74597e-08
1.87705e-08
2.01464e-08
2.15635e-08
2.29993e-08
2.44325e-08
2.5842e-08
2.72073e-08
2.85075e-08
2.97214e-08
3.08279e-08
3.1818e-08
3.26941e-08
3.34591e-08
3.4117e-08
3.46723e-08
3.51302e-08
3.54963e-08
3.57767e-08
3.59775e-08
3.61052e-08
3.61659e-08
3.03226e-08
3.14327e-08
3.29923e-08
3.4913e-08
3.71056e-08
3.94695e-08
4.18821e-08
4.42562e-08
4.65605e-08
4.87624e-08
5.08323e-08
5.27465e-08
5.44878e-08
5.60456e-08
5.74164e-08
5.86024e-08
5.96107e-08
6.04526e-08
6.11421e-08
6.16948e-08
6.21272e-08
6.24558e-08
6.26966e-08
6.28647e-08
6.29738e-08
6.30364e-08
6.30631e-08
6.58964e-08
6.72402e-08
6.90329e-08
7.10879e-08
7.32287e-08
7.52933e-08
7.714e-08
7.8654e-08
7.97499e-08
8.03711e-08
8.049e-08
8.01066e-08
7.92467e-08
7.79585e-08
7.63082e-08
7.43745e-08
7.2244e-08
7.00051e-08
6.77437e-08
6.55397e-08
6.34644e-08
6.1579e-08
5.99343e-08
5.8571e-08
5.75206e-08
5.68062e-08
5.6444e-08
1.11212e-07
1.11038e-07
1.10501e-07
1.09371e-07
1.07448e-07
1.04591e-07
1.00747e-07
9.59564e-08
9.03553e-08
8.41521e-08
7.75997e-08
7.09599e-08
6.44711e-08
5.8325e-08
5.26553e-08
4.75398e-08
4.30083e-08
3.90565e-08
3.56582e-08
3.27759e-08
3.03685e-08
2.83955e-08
2.68196e-08
2.5608e-08
2.47324e-08
2.41685e-08
2.38955e-08
1.05658e-07
1.0153e-07
9.57813e-08
8.88313e-08
8.11246e-08
7.31088e-08
6.51869e-08
5.76742e-08
5.07764e-08
4.45952e-08
3.91515e-08
3.44145e-08
3.0326e-08
2.68179e-08
2.38213e-08
2.12725e-08
1.9114e-08
1.72949e-08
1.57714e-08
1.4506e-08
1.34671e-08
1.26281e-08
1.19666e-08
1.14642e-08
1.11053e-08
1.08766e-08
1.0767e-08
5.1237e-08
4.86684e-08
4.52921e-08
4.14664e-08
3.7482e-08
3.35566e-08
2.98416e-08
2.64273e-08
2.33564e-08
2.06382e-08
1.82601e-08
1.61971e-08
1.44184e-08
1.2892e-08
1.15871e-08
1.04755e-08
9.53204e-09
8.73507e-09
8.06594e-09
7.50884e-09
7.05044e-09
6.67956e-09
6.38678e-09
6.16419e-09
6.00508e-09
5.90372e-09
5.8552e-09
2.35634e-08
2.25353e-08
2.11809e-08
1.96405e-08
1.80278e-08
1.64278e-08
1.4899e-08
1.34771e-08
1.21806e-08
1.10156e-08
9.97985e-09
9.06653e-09
8.26605e-09
7.56791e-09
6.96165e-09
6.43736e-09
5.98604e-09
5.5997e-09
5.27134e-09
4.99488e-09
4.7651e-09
4.57752e-09
4.42827e-09
4.31402e-09
4.23188e-09
4.17929e-09
4.15401e-09
1.26502e-08
1.22477e-08
1.17116e-08
1.10933e-08
1.04351e-08
9.76967e-09
9.12067e-09
8.50389e-09
7.92887e-09
7.40041e-09
6.92005e-09
6.48712e-09
6.09959e-09
5.75473e-09
5.44946e-09
5.18068e-09
4.94539e-09
4.74084e-09
4.56447e-09
4.41403e-09
4.2875e-09
4.18308e-09
4.09918e-09
4.03438e-09
3.98742e-09
3.95714e-09
3.94249e-09
8.38495e-09
8.2311e-09
8.02393e-09
7.78158e-09
7.51936e-09
7.24958e-09
6.98164e-09
6.72231e-09
6.47616e-09
6.24604e-09
6.03341e-09
5.8388e-09
5.66207e-09
5.5026e-09
5.35958e-09
5.23205e-09
5.11904e-09
5.01961e-09
4.93287e-09
4.85802e-09
4.79433e-09
4.74117e-09
4.69797e-09
4.66423e-09
4.63951e-09
4.6234e-09
4.61552e-09
6.7709e-09
6.72893e-09
6.67229e-09
6.60593e-09
6.53414e-09
6.4604e-09
6.38743e-09
6.31723e-09
6.25113e-09
6.18993e-09
6.13397e-09
6.0833e-09
6.03772e-09
5.99688e-09
5.96039e-09
5.92781e-09
5.89876e-09
5.87287e-09
5.84987e-09
5.82953e-09
5.81172e-09
5.79635e-09
5.7834e-09
5.77289e-09
5.76488e-09
5.75944e-09
5.75667e-09
6.35766e-09
6.37173e-09
6.39153e-09
6.41613e-09
6.44469e-09
6.47649e-09
6.51082e-09
6.54698e-09
6.58427e-09
6.62198e-09
6.65942e-09
6.69591e-09
6.73085e-09
6.7637e-09
6.794e-09
6.82141e-09
6.84571e-09
6.86677e-09
6.88458e-09
6.89923e-09
6.91089e-09
6.91982e-09
6.92631e-09
6.93073e-09
6.93346e-09
6.93488e-09
6.93541e-09
6.53355e-09
6.57346e-09
6.6287e-09
6.69568e-09
6.77126e-09
6.8527e-09
6.93761e-09
7.02393e-09
7.10988e-09
7.19397e-09
7.27493e-09
7.35174e-09
7.42357e-09
7.48983e-09
7.55009e-09
7.60411e-09
7.65179e-09
7.69321e-09
7.72853e-09
7.75806e-09
7.78215e-09
7.80125e-09
7.81585e-09
7.82646e-09
7.83364e-09
7.83791e-09
7.8398e-09
6.95094e-09
6.99721e-09
7.06102e-09
7.13798e-09
7.22425e-09
7.31648e-09
7.41178e-09
7.50771e-09
7.60225e-09
7.69375e-09
7.78091e-09
7.86273e-09
7.93848e-09
8.00769e-09
8.07007e-09
8.12555e-09
8.17418e-09
8.21616e-09
8.25179e-09
8.28145e-09
8.3056e-09
8.32473e-09
8.33936e-09
8.35001e-09
8.35724e-09
8.36156e-09
8.36348e-09
7.37965e-09
7.42045e-09
7.47651e-09
7.5438e-09
7.61877e-09
7.69837e-09
7.77997e-09
7.86144e-09
7.941e-09
8.0173e-09
8.0893e-09
8.15624e-09
8.21764e-09
8.27321e-09
8.32286e-09
8.36662e-09
8.40466e-09
8.43723e-09
8.46467e-09
8.48734e-09
8.50567e-09
8.5201e-09
8.53105e-09
8.53899e-09
8.54434e-09
8.54752e-09
8.54892e-09
7.6879e-09
7.71793e-09
7.75904e-09
7.80811e-09
7.86243e-09
7.91965e-09
7.97783e-09
8.03538e-09
8.09104e-09
8.14389e-09
8.19323e-09
8.23863e-09
8.27982e-09
8.3167e-09
8.34929e-09
8.3777e-09
8.40212e-09
8.4228e-09
8.44003e-09
8.4541e-09
8.46534e-09
8.47408e-09
8.48063e-09
8.48531e-09
8.48842e-09
8.49023e-09
8.49102e-09
7.8292e-09
7.84783e-09
7.87318e-09
7.90323e-09
7.93619e-09
7.97055e-09
8.00509e-09
8.03882e-09
8.071e-09
8.10111e-09
8.1288e-09
8.15386e-09
8.17622e-09
8.19588e-09
8.21294e-09
8.22752e-09
8.2398e-09
8.24997e-09
8.25823e-09
8.26482e-09
8.26993e-09
8.27377e-09
8.27655e-09
8.27845e-09
8.27965e-09
8.28031e-09
8.28057e-09
7.81332e-09
7.82229e-09
7.83438e-09
7.84848e-09
7.86367e-09
7.87916e-09
7.89432e-09
7.9087e-09
7.92198e-09
7.93394e-09
7.94448e-09
7.95359e-09
7.96129e-09
7.96766e-09
7.97281e-09
7.97687e-09
7.97996e-09
7.98223e-09
7.9838e-09
7.98481e-09
7.98538e-09
7.98562e-09
7.98563e-09
7.98549e-09
7.9853e-09
7.98511e-09
7.985e-09
7.67539e-09
7.67721e-09
7.67948e-09
7.68184e-09
7.684e-09
7.68573e-09
7.68686e-09
7.68731e-09
7.68705e-09
7.68611e-09
7.68454e-09
7.68245e-09
7.67992e-09
7.67707e-09
7.67401e-09
7.67085e-09
7.66767e-09
7.66456e-09
7.66161e-09
7.65887e-09
7.65639e-09
7.65421e-09
7.65237e-09
7.65089e-09
7.64977e-09
7.64902e-09
7.64865e-09
7.45492e-09
7.4519e-09
7.44755e-09
7.44202e-09
7.43546e-09
7.42801e-09
7.41983e-09
7.41108e-09
7.40194e-09
7.39258e-09
7.38315e-09
7.37382e-09
7.36472e-09
7.35597e-09
7.34769e-09
7.33995e-09
7.33282e-09
7.32634e-09
7.32056e-09
7.31548e-09
7.31111e-09
7.30744e-09
7.30446e-09
7.30215e-09
7.30047e-09
7.29938e-09
7.29886e-09
7.18561e-09
7.17956e-09
7.17108e-09
7.16066e-09
7.1487e-09
7.1356e-09
7.12171e-09
7.10735e-09
7.09282e-09
7.07836e-09
7.06422e-09
7.05057e-09
7.03756e-09
7.02534e-09
7.01399e-09
7.00358e-09
6.99415e-09
6.98573e-09
6.97832e-09
6.97191e-09
6.96647e-09
6.96197e-09
6.95835e-09
6.95557e-09
6.95358e-09
6.95231e-09
6.9517e-09
6.89245e-09
6.88467e-09
6.87383e-09
6.86062e-09
6.84561e-09
6.82933e-09
6.81225e-09
6.79477e-09
6.77727e-09
6.76004e-09
6.74333e-09
6.72735e-09
6.71227e-09
6.6982e-09
6.68525e-09
6.67345e-09
6.66285e-09
6.65344e-09
6.64521e-09
6.63814e-09
6.63217e-09
6.62726e-09
6.62334e-09
6.62034e-09
6.6182e-09
6.61685e-09
6.61621e-09
6.59236e-09
6.58371e-09
6.5717e-09
6.55711e-09
6.5406e-09
6.52278e-09
6.50417e-09
6.48523e-09
6.46634e-09
6.44783e-09
6.42997e-09
6.41297e-09
6.39699e-09
6.38215e-09
6.36853e-09
6.35617e-09
6.34511e-09
6.33532e-09
6.3268e-09
6.31949e-09
6.31334e-09
6.3083e-09
6.30429e-09
6.30123e-09
6.29905e-09
6.29768e-09
6.29703e-09
6.29599e-09
6.28702e-09
6.2746e-09
6.25953e-09
6.24251e-09
6.22419e-09
6.2051e-09
6.18573e-09
6.16646e-09
6.14763e-09
6.1295e-09
6.11228e-09
6.09613e-09
6.08117e-09
6.06747e-09
6.05507e-09
6.04399e-09
6.03421e-09
6.0257e-09
6.01842e-09
6.01231e-09
6.0073e-09
6.00333e-09
6.00031e-09
5.99816e-09
5.9968e-09
5.99616e-09
6.00957e-09
6.00063e-09
5.98824e-09
5.97324e-09
5.95632e-09
5.93813e-09
5.91921e-09
5.90003e-09
5.88098e-09
5.86239e-09
5.84452e-09
5.82758e-09
5.81171e-09
5.79703e-09
5.7836e-09
5.77146e-09
5.76062e-09
5.75106e-09
5.74276e-09
5.73566e-09
5.72972e-09
5.72485e-09
5.72098e-09
5.71805e-09
5.71597e-09
5.71465e-09
5.71404e-09
5.73639e-09
5.72767e-09
5.7156e-09
5.70098e-09
5.68452e-09
5.66682e-09
5.64844e-09
5.62981e-09
5.61133e-09
5.59332e-09
5.57601e-09
5.55962e-09
5.54428e-09
5.53009e-09
5.51713e-09
5.50541e-09
5.49497e-09
5.48576e-09
5.47777e-09
5.47094e-09
5.46523e-09
5.46055e-09
5.45684e-09
5.45402e-09
5.45202e-09
5.45077e-09
5.45017e-09
5.47788e-09
5.46949e-09
5.45789e-09
5.44383e-09
5.42801e-09
5.41101e-09
5.39336e-09
5.37549e-09
5.35777e-09
5.3405e-09
5.32392e-09
5.30822e-09
5.29353e-09
5.27996e-09
5.26756e-09
5.25637e-09
5.24638e-09
5.23759e-09
5.22996e-09
5.22345e-09
5.21799e-09
5.21353e-09
5.20999e-09
5.20731e-09
5.2054e-09
5.20421e-09
5.20364e-09
5.23438e-09
5.22637e-09
5.21529e-09
5.20189e-09
5.1868e-09
5.1706e-09
5.15377e-09
5.13674e-09
5.11986e-09
5.10342e-09
5.08763e-09
5.07269e-09
5.05872e-09
5.04581e-09
5.03402e-09
5.02337e-09
5.01388e-09
5.00553e-09
4.99828e-09
4.99209e-09
4.98691e-09
4.98267e-09
4.97931e-09
4.97677e-09
4.97496e-09
4.97382e-09
4.97329e-09
5.00553e-09
4.99792e-09
4.98741e-09
4.97468e-09
4.96036e-09
4.94498e-09
4.92901e-09
4.91285e-09
4.89684e-09
4.88124e-09
4.86627e-09
4.8521e-09
4.83885e-09
4.82661e-09
4.81543e-09
4.80535e-09
4.79635e-09
4.78844e-09
4.78157e-09
4.7757e-09
4.7708e-09
4.76678e-09
4.7636e-09
4.76119e-09
4.75948e-09
4.75841e-09
4.7579e-09
4.79066e-09
4.78346e-09
4.7735e-09
4.76145e-09
4.74789e-09
4.73333e-09
4.71821e-09
4.70291e-09
4.68775e-09
4.67299e-09
4.65882e-09
4.64541e-09
4.63287e-09
4.62129e-09
4.61071e-09
4.60117e-09
4.59265e-09
4.58516e-09
4.57867e-09
4.57312e-09
4.56847e-09
4.56468e-09
4.56167e-09
4.55939e-09
4.55777e-09
4.55675e-09
4.55628e-09
4.58893e-09
4.58212e-09
4.5727e-09
4.5613e-09
4.54848e-09
4.53471e-09
4.52041e-09
4.50595e-09
4.49161e-09
4.47765e-09
4.46425e-09
4.45157e-09
4.43972e-09
4.42876e-09
4.41876e-09
4.40973e-09
4.40169e-09
4.3946e-09
4.38846e-09
4.38321e-09
4.37882e-09
4.37523e-09
4.37239e-09
4.37023e-09
4.3687e-09
4.36774e-09
4.36729e-09
4.39942e-09
4.39298e-09
4.38408e-09
4.37331e-09
4.36119e-09
4.34817e-09
4.33466e-09
4.32098e-09
4.30743e-09
4.29423e-09
4.28157e-09
4.26958e-09
4.25837e-09
4.24801e-09
4.23856e-09
4.23002e-09
4.22241e-09
4.21571e-09
4.2099e-09
4.20494e-09
4.20079e-09
4.19739e-09
4.1947e-09
4.19266e-09
4.19122e-09
4.19031e-09
4.18988e-09
4.22124e-09
4.21515e-09
4.20674e-09
4.19656e-09
4.1851e-09
4.17279e-09
4.16002e-09
4.14709e-09
4.13428e-09
4.12179e-09
4.10982e-09
4.09848e-09
4.08788e-09
4.07808e-09
4.06914e-09
4.06107e-09
4.05387e-09
4.04753e-09
4.04204e-09
4.03734e-09
4.03341e-09
4.0302e-09
4.02766e-09
4.02573e-09
4.02436e-09
4.0235e-09
4.02309e-09
4.05352e-09
4.04777e-09
4.03981e-09
4.03018e-09
4.01934e-09
4.0077e-09
3.99562e-09
3.98339e-09
3.97127e-09
3.95946e-09
3.94813e-09
3.9374e-09
3.92737e-09
3.9181e-09
3.90964e-09
3.902e-09
3.89518e-09
3.88918e-09
3.88398e-09
3.87954e-09
3.87582e-09
3.87278e-09
3.87037e-09
3.86854e-09
3.86724e-09
3.86643e-09
3.86604e-09
3.89545e-09
3.89001e-09
3.88248e-09
3.87336e-09
3.86311e-09
3.85209e-09
3.84065e-09
3.82908e-09
3.8176e-09
3.80642e-09
3.79569e-09
3.78553e-09
3.77604e-09
3.76726e-09
3.75924e-09
3.752e-09
3.74555e-09
3.73987e-09
3.73494e-09
3.73073e-09
3.72721e-09
3.72432e-09
3.72204e-09
3.72031e-09
3.71908e-09
3.71831e-09
3.71794e-09
3.74628e-09
3.74113e-09
3.73399e-09
3.72536e-09
3.71564e-09
3.70521e-09
3.69437e-09
3.68341e-09
3.67254e-09
3.66194e-09
3.65178e-09
3.64215e-09
3.63315e-09
3.62483e-09
3.61723e-09
3.61037e-09
3.60425e-09
3.59886e-09
3.59419e-09
3.5902e-09
3.58685e-09
3.58412e-09
3.58195e-09
3.58031e-09
3.57915e-09
3.57841e-09
3.57807e-09
3.60532e-09
3.60043e-09
3.59367e-09
3.58548e-09
3.57627e-09
3.56638e-09
3.5561e-09
3.5457e-09
3.53539e-09
3.52535e-09
3.5157e-09
3.50657e-09
3.49803e-09
3.49014e-09
3.48293e-09
3.47642e-09
3.47061e-09
3.4655e-09
3.46106e-09
3.45728e-09
3.4541e-09
3.45151e-09
3.44945e-09
3.44789e-09
3.44679e-09
3.44609e-09
3.44576e-09
3.47192e-09
3.46728e-09
3.46087e-09
3.4531e-09
3.44436e-09
3.43497e-09
3.42522e-09
3.41535e-09
3.40556e-09
3.39602e-09
3.38686e-09
3.37819e-09
3.37008e-09
3.36259e-09
3.35574e-09
3.34956e-09
3.34404e-09
3.33919e-09
3.33497e-09
3.33137e-09
3.32836e-09
3.32589e-09
3.32394e-09
3.32245e-09
3.3214e-09
3.32074e-09
3.32043e-09
3.34551e-09
3.34111e-09
3.33501e-09
3.32763e-09
3.31933e-09
3.31041e-09
3.30114e-09
3.29176e-09
3.28246e-09
3.2734e-09
3.26469e-09
3.25645e-09
3.24874e-09
3.24162e-09
3.23511e-09
3.22923e-09
3.22398e-09
3.21936e-09
3.21535e-09
3.21193e-09
3.20906e-09
3.20672e-09
3.20486e-09
3.20345e-09
3.20245e-09
3.20182e-09
3.20152e-09
3.22555e-09
3.22136e-09
3.21556e-09
3.20855e-09
3.20065e-09
3.19216e-09
3.18335e-09
3.17443e-09
3.16558e-09
3.15695e-09
3.14867e-09
3.14083e-09
3.13349e-09
3.12671e-09
3.12052e-09
3.11492e-09
3.10993e-09
3.10553e-09
3.10171e-09
3.09845e-09
3.09572e-09
3.09349e-09
3.09172e-09
3.09038e-09
3.08942e-09
3.08882e-09
3.08854e-09
3.11153e-09
3.10755e-09
3.10203e-09
3.09535e-09
3.08783e-09
3.07975e-09
3.07135e-09
3.06286e-09
3.05443e-09
3.04622e-09
3.03833e-09
3.03086e-09
3.02387e-09
3.01741e-09
3.0115e-09
3.00617e-09
3.00141e-09
2.99722e-09
2.99358e-09
2.99047e-09
2.98787e-09
2.98574e-09
2.98405e-09
2.98277e-09
2.98186e-09
2.98129e-09
2.98102e-09
3.00301e-09
2.99921e-09
2.99395e-09
2.98758e-09
2.98041e-09
2.97271e-09
2.96471e-09
2.9566e-09
2.94857e-09
2.94073e-09
2.93321e-09
2.92609e-09
2.91942e-09
2.91325e-09
2.90762e-09
2.90253e-09
2.89799e-09
2.89399e-09
2.89052e-09
2.88755e-09
2.88507e-09
2.88303e-09
2.88142e-09
2.8802e-09
2.87933e-09
2.87879e-09
2.87853e-09
2.89954e-09
2.89592e-09
2.8909e-09
2.88482e-09
2.87797e-09
2.87062e-09
2.86298e-09
2.85525e-09
2.84757e-09
2.84009e-09
2.83291e-09
2.8261e-09
2.81973e-09
2.81384e-09
2.80846e-09
2.8036e-09
2.79926e-09
2.79544e-09
2.79212e-09
2.78928e-09
2.78691e-09
2.78496e-09
2.78342e-09
2.78225e-09
2.78142e-09
2.7809e-09
2.78066e-09
2.80073e-09
2.79726e-09
2.79246e-09
2.78665e-09
2.78011e-09
2.77308e-09
2.76578e-09
2.75838e-09
2.75104e-09
2.74389e-09
2.73702e-09
2.7305e-09
2.72441e-09
2.71878e-09
2.71363e-09
2.70898e-09
2.70482e-09
2.70117e-09
2.69799e-09
2.69528e-09
2.693e-09
2.69114e-09
2.68967e-09
2.68855e-09
2.68775e-09
2.68725e-09
2.68702e-09
2.70617e-09
2.70285e-09
2.69826e-09
2.6927e-09
2.68643e-09
2.6797e-09
2.67271e-09
2.66562e-09
2.6586e-09
2.65174e-09
2.64516e-09
2.63892e-09
2.63308e-09
2.62768e-09
2.62275e-09
2.61829e-09
2.61431e-09
2.6108e-09
2.60776e-09
2.60515e-09
2.60297e-09
2.60119e-09
2.59977e-09
2.5987e-09
2.59794e-09
2.59746e-09
2.59723e-09
2.6155e-09
2.61232e-09
2.60792e-09
2.60258e-09
2.59657e-09
2.59012e-09
2.5834e-09
2.57661e-09
2.56986e-09
2.56329e-09
2.55697e-09
2.55098e-09
2.54537e-09
2.54019e-09
2.53545e-09
2.53117e-09
2.52734e-09
2.52398e-09
2.52105e-09
2.51855e-09
2.51646e-09
2.51474e-09
2.51338e-09
2.51235e-09
2.51162e-09
2.51115e-09
2.51094e-09
2.52835e-09
2.52529e-09
2.52106e-09
2.51593e-09
2.51016e-09
2.50395e-09
2.4975e-09
2.49096e-09
2.48448e-09
2.47815e-09
2.47207e-09
2.46631e-09
2.46092e-09
2.45593e-09
2.45137e-09
2.44725e-09
2.44357e-09
2.44032e-09
2.43751e-09
2.4351e-09
2.43308e-09
2.43143e-09
2.43012e-09
2.42913e-09
2.42842e-09
2.42798e-09
2.42777e-09
2.44435e-09
2.44141e-09
2.43733e-09
2.43239e-09
2.42683e-09
2.42084e-09
2.41463e-09
2.40833e-09
2.40207e-09
2.39597e-09
2.39011e-09
2.38456e-09
2.37935e-09
2.37454e-09
2.37014e-09
2.36616e-09
2.36261e-09
2.35948e-09
2.35676e-09
2.35444e-09
2.35249e-09
2.35089e-09
2.34963e-09
2.34867e-09
2.34799e-09
2.34756e-09
2.34735e-09
2.36314e-09
2.36029e-09
2.35635e-09
2.35158e-09
2.3462e-09
2.34042e-09
2.33441e-09
2.32832e-09
2.32228e-09
2.31638e-09
2.31071e-09
2.30533e-09
2.3003e-09
2.29564e-09
2.29138e-09
2.28753e-09
2.28409e-09
2.28106e-09
2.27843e-09
2.27618e-09
2.27429e-09
2.27275e-09
2.27152e-09
2.27059e-09
2.26993e-09
2.26951e-09
2.26932e-09
2.28432e-09
2.28156e-09
2.27774e-09
2.27312e-09
2.2679e-09
2.2623e-09
2.25647e-09
2.25056e-09
2.2447e-09
2.23897e-09
2.23347e-09
2.22825e-09
2.22337e-09
2.21884e-09
2.21471e-09
2.21097e-09
2.20762e-09
2.20468e-09
2.20212e-09
2.19993e-09
2.1981e-09
2.19659e-09
2.1954e-09
2.1945e-09
2.19386e-09
2.19345e-09
2.19326e-09
2.20751e-09
2.20482e-09
2.20111e-09
2.19661e-09
2.19153e-09
2.18608e-09
2.1804e-09
2.17465e-09
2.16894e-09
2.16336e-09
2.158e-09
2.15291e-09
2.14815e-09
2.14373e-09
2.1397e-09
2.13605e-09
2.13279e-09
2.12991e-09
2.12742e-09
2.12528e-09
2.12349e-09
2.12202e-09
2.12086e-09
2.11997e-09
2.11935e-09
2.11895e-09
2.11877e-09
2.13228e-09
2.12965e-09
2.12602e-09
2.12162e-09
2.11666e-09
2.11133e-09
2.10578e-09
2.10015e-09
2.09456e-09
2.0891e-09
2.08385e-09
2.07887e-09
2.0742e-09
2.06987e-09
2.06592e-09
2.06234e-09
2.05914e-09
2.05632e-09
2.05387e-09
2.05178e-09
2.05002e-09
2.04858e-09
2.04744e-09
2.04657e-09
2.04595e-09
2.04556e-09
2.04538e-09
2.05818e-09
2.0556e-09
2.05204e-09
2.04772e-09
2.04284e-09
2.03759e-09
2.03214e-09
2.0266e-09
2.0211e-09
2.01572e-09
2.01055e-09
2.00564e-09
2.00104e-09
1.99678e-09
1.99288e-09
1.98936e-09
1.9862e-09
1.98342e-09
1.981e-09
1.97893e-09
1.9772e-09
1.97578e-09
1.97465e-09
1.97379e-09
1.97319e-09
1.9728e-09
1.97262e-09
1.98473e-09
1.98219e-09
1.97866e-09
1.97439e-09
1.96957e-09
1.96438e-09
1.95898e-09
1.9535e-09
1.94805e-09
1.94272e-09
1.9376e-09
1.93274e-09
1.92817e-09
1.92395e-09
1.92008e-09
1.91658e-09
1.91345e-09
1.91068e-09
1.90828e-09
1.90623e-09
1.9045e-09
1.90309e-09
1.90197e-09
1.90112e-09
1.90052e-09
1.90014e-09
1.89996e-09
1.9114e-09
1.90887e-09
1.90536e-09
1.90111e-09
1.89631e-09
1.89114e-09
1.88576e-09
1.88029e-09
1.87486e-09
1.86955e-09
1.86444e-09
1.85958e-09
1.85502e-09
1.8508e-09
1.84693e-09
1.84343e-09
1.8403e-09
1.83754e-09
1.83514e-09
1.83308e-09
1.83136e-09
1.82995e-09
1.82883e-09
1.82797e-09
1.82737e-09
1.82699e-09
1.82681e-09
1.83761e-09
1.83507e-09
1.83156e-09
1.82729e-09
1.82248e-09
1.81729e-09
1.81189e-09
1.8064e-09
1.80094e-09
1.7956e-09
1.79046e-09
1.78557e-09
1.78099e-09
1.77673e-09
1.77284e-09
1.76931e-09
1.76616e-09
1.76337e-09
1.76095e-09
1.75888e-09
1.75714e-09
1.75571e-09
1.75458e-09
1.75372e-09
1.75311e-09
1.75273e-09
1.75255e-09
1.76274e-09
1.76018e-09
1.75663e-09
1.75231e-09
1.74745e-09
1.7422e-09
1.73673e-09
1.73117e-09
1.72564e-09
1.72023e-09
1.71501e-09
1.71005e-09
1.7054e-09
1.70108e-09
1.69713e-09
1.69354e-09
1.69034e-09
1.68751e-09
1.68504e-09
1.68294e-09
1.68117e-09
1.67972e-09
1.67857e-09
1.6777e-09
1.67708e-09
1.67669e-09
1.6765e-09
1.68613e-09
1.68352e-09
1.6799e-09
1.6755e-09
1.67053e-09
1.66518e-09
1.6596e-09
1.65392e-09
1.64827e-09
1.64274e-09
1.6374e-09
1.63233e-09
1.62757e-09
1.62315e-09
1.6191e-09
1.61542e-09
1.61214e-09
1.60924e-09
1.60672e-09
1.60456e-09
1.60274e-09
1.60126e-09
1.60008e-09
1.59919e-09
1.59855e-09
1.59815e-09
1.59797e-09
1.60707e-09
1.60439e-09
1.60067e-09
1.59615e-09
1.59104e-09
1.58554e-09
1.57979e-09
1.57395e-09
1.56812e-09
1.56242e-09
1.55692e-09
1.55169e-09
1.54678e-09
1.54221e-09
1.53803e-09
1.53424e-09
1.53085e-09
1.52785e-09
1.52525e-09
1.52302e-09
1.52115e-09
1.51962e-09
1.5184e-09
1.51748e-09
1.51682e-09
1.51641e-09
1.51622e-09
1.52486e-09
1.52209e-09
1.51823e-09
1.51355e-09
1.50826e-09
1.50255e-09
1.4966e-09
1.49053e-09
1.48449e-09
1.47857e-09
1.47286e-09
1.46743e-09
1.46232e-09
1.45758e-09
1.45323e-09
1.44929e-09
1.44577e-09
1.44265e-09
1.43994e-09
1.43763e-09
1.43568e-09
1.43409e-09
1.43283e-09
1.43188e-09
1.4312e-09
1.43077e-09
1.43057e-09
1.43883e-09
1.43594e-09
1.43193e-09
1.42705e-09
1.42153e-09
1.41558e-09
1.40936e-09
1.40304e-09
1.39673e-09
1.39055e-09
1.38459e-09
1.37891e-09
1.37357e-09
1.36862e-09
1.36408e-09
1.35996e-09
1.35628e-09
1.35302e-09
1.3502e-09
1.34778e-09
1.34575e-09
1.34409e-09
1.34278e-09
1.34179e-09
1.34108e-09
1.34064e-09
1.34043e-09
1.34841e-09
1.34539e-09
1.34118e-09
1.33608e-09
1.3303e-09
1.32407e-09
1.31756e-09
1.31093e-09
1.30432e-09
1.29785e-09
1.2916e-09
1.28565e-09
1.28005e-09
1.27486e-09
1.2701e-09
1.26579e-09
1.26194e-09
1.25854e-09
1.25558e-09
1.25305e-09
1.25093e-09
1.24921e-09
1.24784e-09
1.2468e-09
1.24607e-09
1.24561e-09
1.24539e-09
1.25322e-09
1.25005e-09
1.24564e-09
1.24029e-09
1.23424e-09
1.2277e-09
1.22088e-09
1.21393e-09
1.207e-09
1.20021e-09
1.19366e-09
1.18742e-09
1.18156e-09
1.17613e-09
1.17114e-09
1.16663e-09
1.1626e-09
1.15905e-09
1.15596e-09
1.15333e-09
1.15112e-09
1.14932e-09
1.1479e-09
1.14683e-09
1.14607e-09
1.14559e-09
1.14537e-09
1.15318e-09
1.14987e-09
1.14526e-09
1.13967e-09
1.13334e-09
1.1265e-09
1.11937e-09
1.1121e-09
1.10486e-09
1.09777e-09
1.09093e-09
1.08442e-09
1.07831e-09
1.07264e-09
1.06745e-09
1.06276e-09
1.05857e-09
1.05488e-09
1.05168e-09
1.04895e-09
1.04667e-09
1.04482e-09
1.04335e-09
1.04225e-09
1.04147e-09
1.04099e-09
1.04076e-09
1.0487e-09
1.04526e-09
1.04047e-09
1.03466e-09
1.02809e-09
1.021e-09
1.01359e-09
1.00606e-09
9.98555e-10
9.91208e-10
9.84126e-10
9.77395e-10
9.71082e-10
9.65234e-10
9.59885e-10
9.55054e-10
9.50747e-10
9.46962e-10
9.43686e-10
9.40899e-10
9.38577e-10
9.3669e-10
9.35207e-10
9.34091e-10
9.33308e-10
9.32821e-10
9.32595e-10
9.40782e-10
9.37243e-10
9.32335e-10
9.26372e-10
9.19634e-10
9.12366e-10
9.04785e-10
8.97079e-10
8.89408e-10
8.81907e-10
8.74685e-10
8.67829e-10
8.61409e-10
8.55471e-10
8.5005e-10
8.45164e-10
8.40819e-10
8.37008e-10
8.3372e-10
8.30931e-10
8.28616e-10
8.26741e-10
8.25273e-10
8.24175e-10
8.23407e-10
8.22933e-10
8.22714e-10
8.31167e-10
8.27601e-10
8.22657e-10
8.16656e-10
8.09879e-10
8.02576e-10
7.94968e-10
7.87244e-10
7.79566e-10
7.7207e-10
7.64865e-10
7.58041e-10
7.51662e-10
7.45778e-10
7.40421e-10
7.35606e-10
7.31338e-10
7.2761e-10
7.24405e-10
7.217e-10
7.19465e-10
7.17666e-10
7.16265e-10
7.15224e-10
7.14503e-10
7.14061e-10
7.13859e-10
7.22418e-10
7.18918e-10
7.14069e-10
7.08189e-10
7.01557e-10
6.94421e-10
6.86999e-10
6.79479e-10
6.72019e-10
6.64753e-10
6.57789e-10
6.51211e-10
6.45083e-10
6.39451e-10
6.34344e-10
6.29774e-10
6.25744e-10
6.22243e-10
6.19253e-10
6.16746e-10
6.14692e-10
6.13052e-10
6.11789e-10
6.10861e-10
6.10226e-10
6.09842e-10
6.0967e-10
6.17866e-10
6.14553e-10
6.09969e-10
6.04418e-10
5.9817e-10
5.91461e-10
5.84502e-10
5.77471e-10
5.7052e-10
5.63775e-10
5.57336e-10
5.51282e-10
5.45672e-10
5.40546e-10
5.35927e-10
5.31825e-10
5.28236e-10
5.25149e-10
5.22539e-10
5.20378e-10
5.18631e-10
5.17259e-10
5.16222e-10
5.15476e-10
5.14978e-10
5.14687e-10
5.1456e-10
5.21449e-10
5.18469e-10
5.14353e-10
5.09382e-10
5.03803e-10
4.97835e-10
4.9167e-10
4.85472e-10
4.79379e-10
4.73502e-10
4.67932e-10
4.62738e-10
4.57969e-10
4.53656e-10
4.49816e-10
4.46452e-10